<LesHouchesEvents version="3.0">
<header>
<!--
#*********************************************************************
#                                                                    *
#                        MadGraph5_aMC@NLO                           *
#                                                                    *
#                           Going Beyond                             *
#                                                                    *
#                   http://madgraph.hep.uiuc.edu                     *
#                   http://madgraph.phys.ucl.ac.be                   *
#                   http://amcatnlo.cern.ch                          *
#                                                                    *
#                     The MadGraph5_aMC@NLO team                     *
#                                                                    *
#....................................................................*
#                                                                    *
# This file contains all the information necessary to reproduce      *
# the events generated:                                              *
#                                                                    *
# 1. software version                                                *
# 2. proc_card          : code generation info including model       *
# 3. param_card         : model primary parameters in the LH format  *
# 4. run_card           : running parameters (collider and cuts)     *
# 5. pythia_card        : present only if pythia has been run        *
# 6. pgs_card           : present only if pgs has been run           *
# 7. delphes_cards      : present only if delphes has been run       *
#                                                                    *
#                                                                    *
#*********************************************************************
-->
<MGVersion>
#5.2.2.3
</MGVersion>
<MG5ProcCard>
#************************************************************
#*                     MadGraph5_aMC@NLO                    *
#*                                                          *
#*                *                       *                 *
#*                  *        * *        *                   *
#*                    * * * * 5 * * * *                     *
#*                  *        * *        *                   *
#*                *                       *                 *
#*                                                          *
#*                                                          *
#*         VERSION 2.2.3                 2015-02-10         *
#*                                                          *
#*    The MadGraph5_aMC@NLO Development Team - Find us at   *
#*    https://server06.fynu.ucl.ac.be/projects/madgraph     *
#*                                                          *
#************************************************************
#*                                                          *
#*               Command File for MadGraph5_aMC@NLO         *
#*                                                          *
#*     run as ./bin/mg5_aMC  filename                       *
#*                                                          *
#************************************************************
set group_subprocesses Auto
set ignore_six_quark_processes False
set loop_optimized_output True
set gauge unitary
set complex_mass_scheme False
import model sm
define p = g u c d s u~ c~ d~ s~
define j = g u c d s u~ c~ d~ s~
define l+ = e+ mu+
define l- = e- mu-
define vl = ve vm vt
define vl~ = ve~ vm~ vt~
import model Zprime_UFO
generate p p > zph, zph > j j
add process p p > zph, zph > b b~
output Dijet_signal
</MG5ProcCard>
<MGProcCard>
#*********************************************************************
#                        MadGraph/MadEvent                           *
#                   http://madgraph.hep.uiuc.edu                     *
#                                                                    *
#                          proc_card.dat                             *
#*********************************************************************
#                                                                    *
#            This Files is generated by MADGRAPH 5                   *
#                                                                    *
# WARNING: This Files is generated for MADEVENT (compatibility issue)*
#          This files is NOT a valid MG4 proc_card.dat               *
#          Running this in MG4 will NEVER reproduce the result of MG5*
#                                                                    *
#*********************************************************************
#*********************************************************************
# Process(es) requested : mg2 input                                  *
#*********************************************************************
# Begin PROCESS # This is TAG. Do not modify this line
p p > zph , zph > j j           #Process
# Be carefull the coupling are here in MG5 convention
          
end_coup           # End the couplings input

done               # this tells MG there are no more procs
# End PROCESS  # This is TAG. Do not modify this line
#*********************************************************************
# Model information                                                  *
#*********************************************************************
# Begin MODEL  # This is TAG. Do not modify this line
Zprime_UFO
# End   MODEL  # This is TAG. Do not modify this line
#*********************************************************************
# Start multiparticle definitions                                    *
#*********************************************************************
# Begin MULTIPARTICLES # This is TAG. Do not modify this line

# End  MULTIPARTICLES # This is TAG. Do not modify this line
</MGProcCard>
<MGRunCard>
#*********************************************************************
#                       MadGraph5_aMC@NLO                            *
#                                                                    *
#                     run_card.dat MadEvent                          *
#                                                                    *
#  This file is used to set the parameters of the run.               *
#                                                                    *
#  Some notation/conventions:                                        *
#                                                                    *
#   Lines starting with a '# ' are info or comments                  *
#                                                                    *
#   mind the format:   value    = variable     ! comment             *
#*********************************************************************
#
#*******************                                                 
# Running parameters
#*******************                                                 
#                                                                    
#*********************************************************************
# Tag name for the run (one word)                                    *
#*********************************************************************
  tag_1     = run_tag ! name of the run 
#*********************************************************************
# Run to generate the grid pack                                      *
#*********************************************************************
  .false.     = gridpack  !True = setting up the grid pack
#*********************************************************************
# Number of events and rnd seed                                      *
# Warning: Do not generate more than 1M events in a single run       *
# If you want to run Pythia, avoid more than 50k events in a run.    *
#*********************************************************************
  2000 = nevents ! Number of unweighted events requested 
 2730 = iseed   ! rnd seed (0=assigned automatically=default))
#*********************************************************************
# Collider type and energy                                           *
# lpp: 0=No PDF, 1=proton, -1=antiproton, 2=photon from proton,      *
#                                         3=photon from electron     *
#*********************************************************************
        1     = lpp1    ! beam 1 type 
        1     = lpp2    ! beam 2 type
     4000     = ebeam1  ! beam 1 total energy in GeV
     4000     = ebeam2  ! beam 2 total energy in GeV
#*********************************************************************
# Beam polarization from -100 (left-handed) to 100 (right-handed)    *
#*********************************************************************
        0     = polbeam1 ! beam polarization for beam 1
        0     = polbeam2 ! beam polarization for beam 2
#*********************************************************************
# PDF CHOICE: this automatically fixes also alpha_s and its evol.    *
#*********************************************************************
 'nn23lo1'    = pdlabel     ! PDF set                                     
 230000    = lhaid     ! if pdlabel=lhapdf, this is the lhapdf number
#*********************************************************************
# Renormalization and factorization scales                           *
#*********************************************************************
 F        = fixed_ren_scale  ! if .true. use fixed ren scale
 F        = fixed_fac_scale  ! if .true. use fixed fac scale
 91.1880  = scale            ! fixed ren scale
 91.1880  = dsqrt_q2fact1    ! fixed fact scale for pdf1
 91.1880  = dsqrt_q2fact2    ! fixed fact scale for pdf2
 1        = scalefact        ! scale factor for event-by-event scales
#*********************************************************************
# Matching - Warning! ickkw > 1 is still beta
#*********************************************************************
 0        = ickkw            ! 0 no matching, 1 MLM, 2 CKKW matching
 1        = highestmult      ! for ickkw=2, highest mult group
 1        = ktscheme         ! for ickkw=1, 1 Durham kT, 2 Pythia pTE
 1        = alpsfact         ! scale factor for QCD emission vx
 F        = chcluster        ! cluster only according to channel diag
 T        = pdfwgt           ! for ickkw=1, perform pdf reweighting
 5        = asrwgtflavor     ! highest quark flavor for a_s reweight
 T        = clusinfo         ! include clustering tag in output
 3.0      = lhe_version       ! Change the way clustering information pass to shower.        
#*********************************************************************
#**********************************************************
#
#**********************************************************
# Automatic ptj and mjj cuts if xqcut > 0
# (turn off for VBF and single top processes)
#**********************************************************
   T  = auto_ptj_mjj  ! Automatic setting of ptj and mjj
#**********************************************************
#                                                                    
#**********************************
# BW cutoff (M+/-bwcutoff*Gamma)
#**********************************
  15  = bwcutoff      ! (M+/-bwcutoff*Gamma)
#**********************************************************
# Apply pt/E/eta/dr/mij cuts on decay products or not
# (note that etmiss/ptll/ptheavy/ht/sorted cuts always apply)
#**********************************************************
   T  = cut_decays    ! Cut decay products 
#*************************************************************
# Number of helicities to sum per event (0 = all helicities)
# 0 gives more stable result, but longer run time (needed for
# long decay chains e.g.).
# Use >=2 if most helicities contribute, e.g. pure QCD.
#*************************************************************
   0  = nhel          ! Number of helicities used per event
#*******************                                                 
# Standard Cuts
#*******************                                                 
#                                                                    
#*********************************************************************
# Minimum and maximum pt's (for max, -1 means no cut)                *
#*********************************************************************
 20  = ptj       ! minimum pt for the jets 
  0  = ptb       ! minimum pt for the b 
 10  = pta       ! minimum pt for the photons 
 10  = ptl       ! minimum pt for the charged leptons 
  0  = misset    ! minimum missing Et (sum of neutrino's momenta)
  0  = ptheavy   ! minimum pt for one heavy final state
 1.0 = ptonium   ! minimum pt for the quarkonium states
 -1  = ptjmax    ! maximum pt for the jets
 -1  = ptbmax    ! maximum pt for the b
 -1  = ptamax    ! maximum pt for the photons
 -1  = ptlmax    ! maximum pt for the charged leptons
 -1  = missetmax ! maximum missing Et (sum of neutrino's momenta)
#*********************************************************************
# Minimum and maximum E's (in the center of mass frame)              *
#*********************************************************************
  0  = ej     ! minimum E for the jets 
  0  = eb     ! minimum E for the b 
  0  = ea     ! minimum E for the photons 
  0  = el     ! minimum E for the charged leptons 
 -1   = ejmax ! maximum E for the jets
 -1   = ebmax ! maximum E for the b
 -1   = eamax ! maximum E for the photons
 -1   = elmax ! maximum E for the charged leptons
#*********************************************************************
# Maximum and minimum absolute rapidity (for max, -1 means no cut)   *
#*********************************************************************
   5  = etaj    ! max rap for the jets 
  -1  = etab    ! max rap for the b
 2.5  = etaa    ! max rap for the photons 
 2.5  = etal    ! max rap for the charged leptons 
 0.6  = etaonium ! max rap for the quarkonium states
   0  = etajmin ! min rap for the jets
   0  = etabmin ! min rap for the b
   0  = etaamin ! min rap for the photons
   0  = etalmin ! main rap for the charged leptons
#*********************************************************************
# Minimum and maximum DeltaR distance                                *
#*********************************************************************
 0.4 = drjj    ! min distance between jets 
 0   = drbb    ! min distance between b's 
 0.4 = drll    ! min distance between leptons 
 0.4 = draa    ! min distance between gammas 
 0   = drbj    ! min distance between b and jet 
 0.4 = draj    ! min distance between gamma and jet 
 0.4 = drjl    ! min distance between jet and lepton 
 0   = drab    ! min distance between gamma and b 
 0   = drbl    ! min distance between b and lepton 
 0.4 = dral    ! min distance between gamma and lepton 
 -1  = drjjmax ! max distance between jets
 -1  = drbbmax ! max distance between b's
 -1  = drllmax ! max distance between leptons
 -1  = draamax ! max distance between gammas
 -1  = drbjmax ! max distance between b and jet
 -1  = drajmax ! max distance between gamma and jet
 -1  = drjlmax ! max distance between jet and lepton
 -1  = drabmax ! max distance between gamma and b
 -1  = drblmax ! max distance between b and lepton
 -1  = dralmax ! maxdistance between gamma and lepton
#*********************************************************************
# Minimum and maximum invariant mass for pairs                       *
# WARNING: for four lepton final state mmll cut require to have      *
#          different lepton masses for each flavor!                  *           
#*********************************************************************
 0   = mmjj    ! min invariant mass of a jet pair 
 0   = mmbb    ! min invariant mass of a b pair 
 0   = mmaa    ! min invariant mass of gamma gamma pair
 0   = mmll    ! min invariant mass of l+l- (same flavour) lepton pair
 -1  = mmjjmax ! max invariant mass of a jet pair
 -1  = mmbbmax ! max invariant mass of a b pair
 -1  = mmaamax ! max invariant mass of gamma gamma pair
 -1  = mmllmax ! max invariant mass of l+l- (same flavour) lepton pair
#*********************************************************************
# Minimum and maximum invariant mass for all letpons                 *
#*********************************************************************
 0   = mmnl    ! min invariant mass for all letpons (l+- and vl) 
 -1  = mmnlmax ! max invariant mass for all letpons (l+- and vl) 
#*********************************************************************
# Minimum and maximum pt for 4-momenta sum of leptons                *
#*********************************************************************
 0   = ptllmin  ! Minimum pt for 4-momenta sum of leptons(l and vl)
 -1  = ptllmax  ! Maximum pt for 4-momenta sum of leptons(l and vl)
#*********************************************************************
# Inclusive cuts                                                     *
#*********************************************************************
 0  = xptj ! minimum pt for at least one jet  
 0  = xptb ! minimum pt for at least one b 
 0  = xpta ! minimum pt for at least one photon 
 0  = xptl ! minimum pt for at least one charged lepton 
#*********************************************************************
# Control the pt's of the jets sorted by pt                          *
#*********************************************************************
 0   = ptj1min ! minimum pt for the leading jet in pt
 0   = ptj2min ! minimum pt for the second jet in pt
 0   = ptj3min ! minimum pt for the third jet in pt
 0   = ptj4min ! minimum pt for the fourth jet in pt
 -1  = ptj1max ! maximum pt for the leading jet in pt 
 -1  = ptj2max ! maximum pt for the second jet in pt
 -1  = ptj3max ! maximum pt for the third jet in pt
 -1  = ptj4max ! maximum pt for the fourth jet in pt
 0   = cutuse  ! reject event if fails any (0) / all (1) jet pt cuts
#*********************************************************************
# Control the pt's of leptons sorted by pt                           *
#*********************************************************************
 0   = ptl1min ! minimum pt for the leading lepton in pt
 0   = ptl2min ! minimum pt for the second lepton in pt
 0   = ptl3min ! minimum pt for the third lepton in pt
 0   = ptl4min ! minimum pt for the fourth lepton in pt
 -1  = ptl1max ! maximum pt for the leading lepton in pt 
 -1  = ptl2max ! maximum pt for the second lepton in pt
 -1  = ptl3max ! maximum pt for the third lepton in pt
 -1  = ptl4max ! maximum pt for the fourth lepton in pt
#*********************************************************************
# Control the Ht(k)=Sum of k leading jets                            *
#*********************************************************************
 0   = htjmin ! minimum jet HT=Sum(jet pt)
 -1  = htjmax ! maximum jet HT=Sum(jet pt)
 0   = ihtmin  !inclusive Ht for all partons (including b)
 -1  = ihtmax  !inclusive Ht for all partons (including b)
 0   = ht2min ! minimum Ht for the two leading jets
 0   = ht3min ! minimum Ht for the three leading jets
 0   = ht4min ! minimum Ht for the four leading jets
 -1  = ht2max ! maximum Ht for the two leading jets
 -1  = ht3max ! maximum Ht for the three leading jets
 -1  = ht4max ! maximum Ht for the four leading jets
#***********************************************************************
# Photon-isolation cuts, according to hep-ph/9801442                   *
# When ptgmin=0, all the other parameters are ignored                  *
# When ptgmin>0, pta and draj are not going to be used                 *
#***********************************************************************
   0 = ptgmin ! Min photon transverse momentum
 0.4 = R0gamma ! Radius of isolation code
 1.0 = xn ! n parameter of eq.(3.4) in hep-ph/9801442
 1.0 = epsgamma ! epsilon_gamma parameter of eq.(3.4) in hep-ph/9801442
 .true. = isoEM ! isolate photons from EM energy (photons and leptons)
#*********************************************************************
# WBF cuts                                                           *
#*********************************************************************
 0   = xetamin ! minimum rapidity for two jets in the WBF case  
 0   = deltaeta ! minimum rapidity for two jets in the WBF case 
#*********************************************************************
# KT DURHAM CUT                                                      *
#*********************************************************************
 -1    =  ktdurham        
 0.4  =  dparameter 
#*********************************************************************
# maximal pdg code for quark to be considered as a light jet         *
# (otherwise b cuts are applied)                                     *
#*********************************************************************
 4 = maxjetflavor    ! Maximum jet pdg code
#*********************************************************************
# Jet measure cuts                                                   *
#*********************************************************************
 0   = xqcut   ! minimum kt jet measure between partons
#*********************************************************************
#
#*********************************************************************
# Store info for systematics studies                                 *
# WARNING: If use_syst is T, matched Pythia output is                *
#          meaningful ONLY if plotted taking matchscale              *
#          reweighting into account!                                 *
#*********************************************************************
   F  = use_syst      ! Enable systematics studies
#
#**************************************
# Parameter of the systematics study
#  will be used by SysCalc (if installed)
#**************************************                                  
#
0.5 1 2 = sys_scalefact  # factorization/renormalization scale factor
0.5 1 2 = sys_alpsfact  # \alpha_s emission scale factors
30 50 = sys_matchscale # variation of merging scale
# PDF sets and number of members (0 or none for all members).
CT10nlo.LHgrid = sys_pdf # matching scales
# MSTW2008nlo68cl.LHgrid 1  = sys_pdf
</MGRunCard>
<slha>
######################################################################
## PARAM_CARD AUTOMATICALY GENERATED BY MG5 FOLLOWING UFO MODEL   ####
######################################################################
##                                                                  ##
##  Width set on Auto will be computed following the information    ##
##        present in the decay.py files of the model.               ##
##        See  arXiv:1402.1178 for more details.                    ##
##                                                                  ##
######################################################################

###################################
## INFORMATION FOR CKMBLOCK
###################################
Block ckmblock 
    1 2.277360e-01 # cabi 

###################################
## INFORMATION FOR FRBLOCK
###################################
Block frblock 
    1 1.400000e+00 # gz 

###################################
## INFORMATION FOR MASS
###################################
Block mass 
    1 5.040000e-03 # MD 
    2 2.550000e-03 # MU 
    3 1.010000e-01 # MS 
    4 1.270000e+00 # MC 
    5 4.700000e+00 # MB 
    6 1.720000e+02 # MT 
   11 5.110000e-04 # Me 
   13 1.056600e-01 # MM 
   15 1.777000e+00 # MTA 
   23 9.118760e+01 # MZ 
   25 1.200000e+02 # MH 
  10030 3.700000e+03 # MZph 
  10031 3.000000e+02 # MZpl 
## Dependent parameters, given by model restrictions.
## Those values should be edited following the 
## analytical expression. MG5 ignores those values 
## but they are important for interfacing the output of MG5
## to external program such as Pythia.
  12 0.000000 # ve : 0.0 
  14 0.000000 # vm : 0.0 
  16 0.000000 # vt : 0.0 
  21 0.000000 # g : 0.0 
  22 0.000000 # a : 0.0 
  24 79.824360 # w+ : cmath.sqrt(MZ__exp__2/2. + cmath.sqrt(MZ__exp__4/4. - (aEW*cmath.pi*MZ__exp__2)/(Gf*sqrt__2))) 

###################################
## INFORMATION FOR SMINPUTS
###################################
Block sminputs 
    1 1.279000e+02 # aEWM1 
    2 1.166370e-05 # Gf 
    3 1.184000e-01 # aS 

###################################
## INFORMATION FOR YUKAWA
###################################
Block yukawa 
    1 5.040000e-03 # ymdo 
    2 2.550000e-03 # ymup 
    3 1.010000e-01 # yms 
    4 1.270000e+00 # ymc 
    5 4.700000e+00 # ymb 
    6 1.720000e+02 # ymt 
   11 5.110000e-04 # yme 
   13 1.056600e-01 # ymm 
   15 1.777000e+00 # ymtau 

###################################
## INFORMATION FOR DECAY
###################################
DECAY   6 1.508336e+00 # WT 
DECAY  23 2.495200e+00 # WZ 
DECAY  24 2.085000e+00 # WW 
DECAY  25 5.753088e-03 # WH 
## Dependent parameters, given by model restrictions.
## Those values should be edited following the 
## analytical expression. MG5 ignores those values 
## but they are important for interfacing the output of MG5
## to external program such as Pythia.
DECAY  1 0.000000 # d : 0.0 
DECAY  2 0.000000 # u : 0.0 
DECAY  3 0.000000 # s : 0.0 
DECAY  4 0.000000 # c : 0.0 
DECAY  5 0.000000 # b : 0.0 
DECAY  11 0.000000 # e- : 0.0 
DECAY  12 0.000000 # ve : 0.0 
DECAY  13 0.000000 # mu- : 0.0 
DECAY  14 0.000000 # vm : 0.0 
DECAY  15 0.000000 # ta- : 0.0 
DECAY  16 0.000000 # vt : 0.0 
DECAY  21 0.000000 # g : 0.0 
DECAY  22 0.000000 # a : 0.0 
DECAY  10030 0.308725 # zph : (gz__exp__2*MZph*(5 + cmath.sqrt(1 - (4*MT__exp__2)/MZph__exp__2)))/(144.*cmath.pi) 
DECAY  10031 0.132629 # zpl : (5*gz__exp__2*MZpl)/(144.*cmath.pi) 
#===========================================================
# QUANTUM NUMBERS OF NEW STATE(S) (NON SM PDG CODE)
#===========================================================

Block QNUMBERS 10030  # zph 
        1 0  # 3 times electric charge
        2 3  # number of spin states (2S+1)
        3 1  # colour rep (1: singlet, 3: triplet, 8: octet)
        4 0  # Particle/Antiparticle distinction (0=own anti)
Block QNUMBERS 10031  # zpl 
        1 0  # 3 times electric charge
        2 3  # number of spin states (2S+1)
        3 1  # colour rep (1: singlet, 3: triplet, 8: octet)
        4 0  # Particle/Antiparticle distinction (0=own anti)
</slha>
## END BANNER##
<MGGenerationInfo>
#  Number of Events        :         3806
#  Integrated weight (pb)  :  0.27923E-03
#  Max wgt                 :  0.11958E-06
#  Average wgt             :  0.73366E-07
</MGGenerationInfo>
</header>
<init>
     2212     2212  0.40000000000E+04  0.40000000000E+04 0 0  247000  247000 2   1
  0.27942757813E-03  0.11648236255E-05  0.11958040000E-06   0
</init>
<event>
 5   0  0.1092116E-06  0.3859593E+04  0.7818609E-02  0.8033486E-01
        2   -1    0    0  501    0  0.00000000000E+00  0.00000000000E+00  0.19771481794E+04  0.19771481794E+04  0.25500000920E-02 0.  1.
       -2   -1    0    0    0  501  0.00000000000E+00  0.00000000000E+00 -0.18835790345E+04  0.18835790345E+04  0.25500000920E-02 0. -1.
    10030    2    1    2    0    0  0.00000000000E+00  0.00000000000E+00  0.93569144967E+02  0.38607272139E+04  0.38595931696E+04 0.  0.
        1    1    3    3  502    0  0.67357237382E+03  0.55832503495E+03  0.17673737735E+04  0.19720640565E+04  0.50400001928E-02 0.  1.
       -1    1    3    3    0  502 -0.67357237382E+03 -0.55832503495E+03 -0.16738046286E+04  0.18886631574E+04  0.50400001928E-02 0. -1.
</event>
<event>
 5   0  0.1092116E-06  0.3781479E+04  0.7818609E-02  0.8050141E-01
       -2   -1    0    0    0  501  0.00000000000E+00  0.00000000000E+00  0.15470026183E+04  0.15470026183E+04  0.25500000920E-02 0.  1.
        2   -1    0    0  501    0  0.00000000000E+00  0.00000000000E+00 -0.23108533136E+04  0.23108533137E+04  0.25500000920E-02 0. -1.
    10030    2    1    2    0    0  0.00000000000E+00  0.00000000000E+00 -0.76385069531E+03  0.38578559320E+04  0.37814791428E+04 0.  0.
        1    1    3    3  502    0  0.76959949255E+03  0.60564097087E+03 -0.20319390095E+04  0.22556286269E+04  0.50400001928E-02 0. -1.
       -1    1    3    3    0  502 -0.76959949255E+03 -0.60564097087E+03  0.12680883141E+04  0.16022273050E+04  0.50400001928E-02 0.  1.
</event>
<event>
 5   0  0.1128166E-06  0.3620603E+04  0.7818609E-02  0.8085789E-01
        2   -1    0    0  501    0  0.00000000000E+00  0.00000000000E+00  0.18524008946E+04  0.18524008946E+04  0.25500000920E-02 0. -1.
       -2   -1    0    0    0  501  0.00000000000E+00  0.00000000000E+00 -0.17691586712E+04  0.17691586712E+04  0.25500000920E-02 0.  1.
    10030    2    1    2    0    0  0.00000000000E+00  0.00000000000E+00  0.83242223321E+02  0.36215595658E+04  0.36206027704E+04 0.  0.
        3    1    3    3  502    0 -0.10671309237E+04 -0.11355445993E+04  0.96325548006E+03  0.18319637211E+04  0.10100000352E+00 0. -1.
       -3    1    3    3    0  502  0.10671309237E+04  0.11355445993E+04 -0.88001325674E+03  0.17895958447E+04  0.10100000352E+00 0.  1.
</event>
<event>
 5   0  0.1092116E-06  0.3669110E+04  0.7818609E-02  0.8074842E-01
        2   -1    0    0  501    0  0.00000000000E+00  0.00000000000E+00  0.10891498820E+04  0.10891498820E+04  0.25500000920E-02 0.  1.
       -2   -1    0    0    0  501  0.00000000000E+00  0.00000000000E+00 -0.30901092604E+04  0.30901092604E+04  0.25500000920E-02 0. -1.
    10030    2    1    2    0    0  0.00000000000E+00  0.00000000000E+00 -0.20009593784E+04  0.41792591424E+04  0.36691100481E+04 0.  0.
        1    1    3    3  502    0 -0.17993434130E+04  0.15300646483E+03 -0.63219044627E+03  0.19132988414E+04  0.50400001928E-02 0.  1.
       -1    1    3    3    0  502  0.17993434130E+04 -0.15300646483E+03 -0.13687689322E+04  0.22659603010E+04  0.50400001928E-02 0. -1.
</event>
<event>
 5   0  0.1128166E-06  0.3709295E+04  0.7818609E-02  0.8065905E-01
        2   -1    0    0  501    0  0.00000000000E+00  0.00000000000E+00  0.19257611049E+04  0.19257611049E+04  0.25500000920E-02 0.  1.
       -2   -1    0    0    0  501  0.00000000000E+00  0.00000000000E+00 -0.17861599476E+04  0.17861599476E+04  0.25500000920E-02 0. -1.
    10030    2    1    2    0    0  0.00000000000E+00  0.00000000000E+00  0.13960115731E+03  0.37119210525E+04  0.37092950027E+04 0.  0.
        3    1    3    3  502    0  0.11649306301E+04  0.16985566556E+03  0.15039247342E+04  0.19098963156E+04  0.10100000352E+00 0.  1.
       -3    1    3    3    0  502 -0.11649306301E+04 -0.16985566556E+03 -0.13643235768E+04  0.18020247369E+04  0.10100000352E+00 0. -1.
</event>
<event>
 5   0  0.3682276E-07  0.3810763E+04  0.7818609E-02  0.8043849E-01
        1   -1    0    0  501    0  0.00000000000E+00  0.00000000000E+00  0.12626077330E+04  0.12626077330E+04  0.50400001928E-02 0. -1.
       -1   -1    0    0    0  501  0.00000000000E+00  0.00000000000E+00 -0.28753819052E+04  0.28753819053E+04  0.50400001928E-02 0.  1.
    10030    2    1    2    0    0  0.00000000000E+00  0.00000000000E+00 -0.16127741723E+04  0.41379896382E+04  0.38107634032E+04 0.  0.
        1    1    3    3  502    0  0.17782009049E+04 -0.63708975907E+03 -0.10780662222E+04  0.21748812838E+04  0.50400001928E-02 0.  1.
       -1    1    3    3    0  502 -0.17782009049E+04  0.63708975907E+03 -0.53470795005E+03  0.19631083544E+04  0.50400001928E-02 0. -1.
</event>
<event>
 5   0  0.3704306E-07  0.2873742E+04  0.7818609E-02  0.8280733E-01
       -1   -1    0    0    0  501  0.00000000000E+00  0.00000000000E+00  0.10794476221E+04  0.10794476221E+04  0.50400001928E-02 0.  1.
        1   -1    0    0  501    0  0.00000000000E+00  0.00000000000E+00 -0.19126428762E+04  0.19126428762E+04  0.50400001928E-02 0. -1.
    10030    2    1    2    0    0  0.00000000000E+00  0.00000000000E+00 -0.83319525416E+03  0.29920904983E+04  0.28737416757E+04 0.  0.
        3    1    3    3  502    0  0.13877855993E+04  0.29784831905E+02 -0.30149341365E+02  0.13884325691E+04  0.10100000352E+00 0.  1.
       -3    1    3    3    0  502 -0.13877855993E+04 -0.29784831905E+02 -0.80304591280E+03  0.16036579293E+04  0.10100000352E+00 0. -1.
</event>
<event>
 5   0  0.1092116E-06  0.3732607E+04  0.7818609E-02  0.8060774E-01
       -2   -1    0    0    0  501  0.00000000000E+00  0.00000000000E+00  0.34125798080E+04  0.34125798080E+04  0.25500000920E-02 0. -1.
        2   -1    0    0  501    0  0.00000000000E+00  0.00000000000E+00 -0.10206612610E+04  0.10206612610E+04  0.25500000920E-02 0.  1.
    10030    2    1    2    0    0  0.00000000000E+00  0.00000000000E+00  0.23919185470E+04  0.44332410690E+04  0.37326066014E+04 0.  0.
        1    1    3    3  502    0  0.78660032613E+03  0.89101416740E+03 -0.51303508882E+03  0.12945467631E+04  0.50400001928E-02 0.  1.
       -1    1    3    3    0  502 -0.78660032613E+03 -0.89101416740E+03  0.29049536358E+04  0.31386943059E+04  0.50400001928E-02 0. -1.
</event>
<event>
 5   0  0.3848431E-07  0.3534389E+04  0.7818609E-02  0.8105688E-01
        1   -1    0    0  501    0  0.00000000000E+00  0.00000000000E+00  0.12131747962E+04  0.12131747962E+04  0.50400001928E-02 0.  1.
       -1   -1    0    0    0  501  0.00000000000E+00  0.00000000000E+00 -0.25742180618E+04  0.25742180618E+04  0.50400001928E-02 0. -1.
    10030    2    1    2    0    0  0.00000000000E+00  0.00000000000E+00 -0.13610432656E+04  0.37873928580E+04  0.35343890406E+04 0.  0.
        2    1    3    3  502    0  0.21543615476E+03 -0.84778631333E+03  0.96491636163E+03  0.13023893254E+04  0.25500000920E-02 0.  1.
       -2    1    3    3    0  502 -0.21543615476E+03  0.84778631333E+03 -0.23259596272E+04  0.24850035327E+04  0.25500000920E-02 0. -1.
</event>
<event>
 5   0  0.1092116E-06  0.3447001E+04  0.7818609E-02  0.8126466E-01
        2   -1    0    0  501    0  0.00000000000E+00  0.00000000000E+00  0.19341087520E+04  0.19341087520E+04  0.25500000920E-02 0.  1.
       -2   -1    0    0    0  501  0.00000000000E+00  0.00000000000E+00 -0.15358252781E+04  0.15358252781E+04  0.25500000920E-02 0. -1.
    10030    2    1    2    0    0  0.00000000000E+00  0.00000000000E+00  0.39828347392E+03  0.34699340301E+04  0.34470005000E+04 0.  0.
        1    1    3    3  502    0 -0.46899386022E+03  0.15528887688E+04  0.78528222012E+03  0.18022449707E+04  0.50400001928E-02 0.  1.
       -1    1    3    3    0  502  0.46899386022E+03 -0.15528887688E+04 -0.38699874620E+03  0.16676890594E+04  0.50400001928E-02 0. -1.
</event>
<event>
 5   0  0.3848431E-07  0.3457916E+04  0.7818609E-02  0.8123836E-01
       -1   -1    0    0    0  501  0.00000000000E+00  0.00000000000E+00  0.14628215735E+04  0.14628215735E+04  0.50400001928E-02 0. -1.
        1   -1    0    0  501    0  0.00000000000E+00  0.00000000000E+00 -0.20435135859E+04  0.20435135859E+04  0.50400001928E-02 0.  1.
    10030    2    1    2    0    0  0.00000000000E+00  0.00000000000E+00 -0.58069201240E+03  0.35063351594E+04  0.34579159962E+04 0.  0.
        2    1    3    3  502    0  0.50153203644E+03  0.11840926623E+04 -0.14622476557E+04  0.19472488344E+04  0.25500000920E-02 0.  1.
       -2    1    3    3    0  502 -0.50153203644E+03 -0.11840926623E+04  0.88155564334E+03  0.15590863250E+04  0.25500000920E-02 0. -1.
</event>
<event>
 5   0  0.1128530E-06  0.3715572E+04  0.7818609E-02  0.8064520E-01
        2   -1    0    0  501    0  0.00000000000E+00  0.00000000000E+00  0.23631066204E+04  0.23631066204E+04  0.25500000920E-02 0.  1.
       -2   -1    0    0    0  501  0.00000000000E+00  0.00000000000E+00 -0.14605216226E+04  0.14605216226E+04  0.25500000920E-02 0. -1.
    10030    2    1    2    0    0  0.00000000000E+00  0.00000000000E+00  0.90258499778E+03  0.38236282431E+04  0.37155717276E+04 0.  0.
        5    1    3    3  502    0  0.10162287387E+04  0.20378238640E+03 -0.11353298417E+04  0.15372846352E+04  0.46999998093E+01 0. -1.
       -5    1    3    3    0  502 -0.10162287387E+04 -0.20378238640E+03  0.20379148395E+04  0.22863436079E+04  0.46999998093E+01 0.  1.
</event>
<event>
 5   0  0.3675819E-07  0.2960619E+04  0.7818609E-02  0.8255067E-01
        1   -1    0    0  501    0  0.00000000000E+00  0.00000000000E+00  0.17090751002E+04  0.17090751003E+04  0.50400001928E-02 0.  1.
       -1   -1    0    0    0  501  0.00000000000E+00  0.00000000000E+00 -0.12821651151E+04  0.12821651151E+04  0.50400001928E-02 0. -1.
    10030    2    1    2    0    0  0.00000000000E+00  0.00000000000E+00  0.42690998516E+03  0.29912402153E+04  0.29606191735E+04 0.  0.
        5    1    3    3  502    0  0.13059895038E+04 -0.43168701278E+03 -0.33931620468E+03  0.14167285688E+04  0.46999998093E+01 0. -1.
       -5    1    3    3    0  502 -0.13059895038E+04  0.43168701278E+03  0.76622618984E+03  0.15745116465E+04  0.46999998093E+01 0.  1.
</event>
<event>
 5   0  0.3682276E-07  0.3701081E+04  0.7818609E-02  0.8067722E-01
       -1   -1    0    0    0  501  0.00000000000E+00  0.00000000000E+00  0.15742811027E+04  0.15742811027E+04  0.50400001928E-02 0. -1.
        1   -1    0    0  501    0  0.00000000000E+00  0.00000000000E+00 -0.21752791339E+04  0.21752791339E+04  0.50400001928E-02 0.  1.
    10030    2    1    2    0    0  0.00000000000E+00  0.00000000000E+00 -0.60099803119E+03  0.37495602366E+04  0.37010813736E+04 0.  0.
        1    1    3    3  502    0  0.10152826581E+03  0.24357782195E+03 -0.21561191491E+04  0.21722080769E+04  0.50400001928E-02 0.  1.
       -1    1    3    3    0  502 -0.10152826581E+03 -0.24357782195E+03  0.15551211179E+04  0.15773521597E+04  0.50400001928E-02 0. -1.
</event>
<event>
 5   0  0.3704306E-07  0.3144850E+04  0.7818609E-02  0.8203536E-01
        1   -1    0    0  501    0  0.00000000000E+00  0.00000000000E+00  0.13845145265E+04  0.13845145265E+04  0.50400001928E-02 0.  1.
       -1   -1    0    0    0  501  0.00000000000E+00  0.00000000000E+00 -0.17858386856E+04  0.17858386856E+04  0.50400001928E-02 0. -1.
    10030    2    1    2    0    0  0.00000000000E+00  0.00000000000E+00 -0.40132415907E+03  0.31703532121E+04  0.31448495049E+04 0.  0.
        3    1    3    3  502    0  0.11538219012E+04 -0.15428661720E+03  0.86498674080E+03  0.14502797702E+04  0.10100000352E+00 0.  1.
       -3    1    3    3    0  502 -0.11538219012E+04  0.15428661720E+03 -0.12663108999E+04  0.17200734418E+04  0.10100000352E+00 0. -1.
</event>
<event>
 5   0  0.3704306E-07  0.3752177E+04  0.7818609E-02  0.8056496E-01
        1   -1    0    0  501    0  0.00000000000E+00  0.00000000000E+00  0.17942421549E+04  0.17942421549E+04  0.50400001928E-02 0.  1.
       -1   -1    0    0    0  501  0.00000000000E+00  0.00000000000E+00 -0.19616679028E+04  0.19616679028E+04  0.50400001928E-02 0. -1.
    10030    2    1    2    0    0  0.00000000000E+00  0.00000000000E+00 -0.16742574790E+03  0.37559100578E+04  0.37521765658E+04 0.  0.
        3    1    3    3  502    0  0.12991157467E+04 -0.53263922594E+03  0.11618326618E+04  0.18224328280E+04  0.10100000352E+00 0.  1.
       -3    1    3    3    0  502 -0.12991157467E+04  0.53263922594E+03 -0.13292584097E+04  0.19334772298E+04  0.10100000352E+00 0. -1.
</event>
<event>
 5   0  0.1092116E-06  0.3817505E+04  0.7818609E-02  0.8042409E-01
       -2   -1    0    0    0  501  0.00000000000E+00  0.00000000000E+00  0.18598736183E+04  0.18598736183E+04  0.25500000920E-02 0. -1.
        2   -1    0    0  501    0  0.00000000000E+00  0.00000000000E+00 -0.19589156990E+04  0.19589156990E+04  0.25500000920E-02 0.  1.
    10030    2    1    2    0    0  0.00000000000E+00  0.00000000000E+00 -0.99042080647E+02  0.38187893173E+04  0.38175047499E+04 0.  0.
        1    1    3    3  502    0 -0.76414856814E+03  0.77606726152E+03 -0.16175727292E+04  0.19500628100E+04  0.50400001928E-02 0.  1.
       -1    1    3    3    0  502  0.76414856814E+03 -0.77606726152E+03  0.15185306485E+04  0.18687265073E+04  0.50400001928E-02 0. -1.
</event>
<event>
 5   0  0.3764495E-07  0.3487590E+04  0.7818609E-02  0.8116737E-01
       -1   -1    0    0    0  501  0.00000000000E+00  0.00000000000E+00  0.11904758506E+04  0.11904758506E+04  0.50400001928E-02 0. -1.
        1   -1    0    0  501    0  0.00000000000E+00  0.00000000000E+00 -0.25542900259E+04  0.25542900259E+04  0.50400001928E-02 0.  1.
    10030    2    1    2    0    0  0.00000000000E+00  0.00000000000E+00 -0.13638141754E+04  0.37447658765E+04  0.34875897644E+04 0.  0.
        4    1    3    3  502    0 -0.11072914968E+04  0.20492711075E+02 -0.21281937240E+04  0.23991091159E+04  0.12699999809E+01 0.  1.
       -4    1    3    3    0  502  0.11072914968E+04 -0.20492711075E+02  0.76437954863E+03  0.13456567606E+04  0.12699999809E+01 0. -1.
</event>
<event>
 5   0  0.3682276E-07  0.3739254E+04  0.7818609E-02  0.8059318E-01
        1   -1    0    0  501    0  0.00000000000E+00  0.00000000000E+00  0.16518445826E+04  0.16518445826E+04  0.50400001928E-02 0. -1.
       -1   -1    0    0    0  501  0.00000000000E+00  0.00000000000E+00 -0.21161221621E+04  0.21161221621E+04  0.50400001928E-02 0.  1.
    10030    2    1    2    0    0  0.00000000000E+00  0.00000000000E+00 -0.46427757957E+03  0.37679667447E+04  0.37392538986E+04 0.  0.
        1    1    3    3  502    0 -0.17089856148E+04 -0.52640357942E+03 -0.78201420699E+03  0.19517373747E+04  0.50400001928E-02 0.  1.
       -1    1    3    3    0  502  0.17089856148E+04  0.52640357942E+03  0.31773662742E+03  0.18162293700E+04  0.50400001928E-02 0. -1.
</event>
<event>
 5   0  0.1051123E-06  0.3663949E+04  0.7818609E-02  0.8075999E-01
        2   -1    0    0  501    0  0.00000000000E+00  0.00000000000E+00  0.11693815663E+04  0.11693815663E+04  0.25500000920E-02 0. -1.
       -2   -1    0    0    0  501  0.00000000000E+00  0.00000000000E+00 -0.28700040989E+04  0.28700040989E+04  0.25500000920E-02 0.  1.
    10030    2    1    2    0    0  0.00000000000E+00  0.00000000000E+00 -0.17006225327E+04  0.40393856652E+04  0.36639486287E+04 0.  0.
        2    1    3    3  502    0 -0.75854087101E+03  0.25529278627E+02 -0.26885236002E+04  0.27935989594E+04  0.25500000920E-02 0.  1.
       -2    1    3    3    0  502  0.75854087101E+03 -0.25529278627E+02  0.98790106755E+03  0.12457867058E+04  0.25500000920E-02 0. -1.
</event>
<event>
 5   0  0.3704306E-07  0.3660017E+04  0.7818609E-02  0.8076881E-01
        1   -1    0    0  501    0  0.00000000000E+00  0.00000000000E+00  0.16865944839E+04  0.16865944839E+04  0.50400001928E-02 0.  1.
       -1   -1    0    0    0  501  0.00000000000E+00  0.00000000000E+00 -0.19856173530E+04  0.19856173530E+04  0.50400001928E-02 0. -1.
    10030    2    1    2    0    0  0.00000000000E+00  0.00000000000E+00 -0.29902286902E+03  0.36722118369E+04  0.36600170900E+04 0.  0.
        3    1    3    3  502    0 -0.10435209804E+04  0.67950383995E+02 -0.16563068155E+04  0.19588020748E+04  0.10100000352E+00 0. -1.
       -3    1    3    3    0  502  0.10435209804E+04 -0.67950383995E+02  0.13572839465E+04  0.17134097621E+04  0.10100000352E+00 0.  1.
</event>
<event>
 5   0  0.1128166E-06  0.3057923E+04  0.7818609E-02  0.8227381E-01
        2   -1    0    0  501    0  0.00000000000E+00  0.00000000000E+00  0.14798480412E+04  0.14798480412E+04  0.25500000920E-02 0.  1.
       -2   -1    0    0    0  501  0.00000000000E+00  0.00000000000E+00 -0.15797044662E+04  0.15797044662E+04  0.25500000920E-02 0. -1.
    10030    2    1    2    0    0  0.00000000000E+00  0.00000000000E+00 -0.99856425052E+02  0.30595525074E+04  0.30579225366E+04 0.  0.
        3    1    3    3  502    0 -0.97090391089E+03  0.53127218084E+03 -0.11053924075E+04  0.15642240630E+04  0.10100000352E+00 0. -1.
       -3    1    3    3    0  502  0.97090391089E+03 -0.53127218084E+03  0.10055359825E+04  0.14953284444E+04  0.10100000352E+00 0.  1.
</event>
<event>
 5   0  0.3682276E-07  0.3678730E+04  0.7818609E-02  0.8072692E-01
       -1   -1    0    0    0  501  0.00000000000E+00  0.00000000000E+00  0.14460118905E+04  0.14460118905E+04  0.50400001928E-02 0.  1.
        1   -1    0    0  501    0  0.00000000000E+00  0.00000000000E+00 -0.23397199496E+04  0.23397199496E+04  0.50400001928E-02 0. -1.
    10030    2    1    2    0    0  0.00000000000E+00  0.00000000000E+00 -0.89370805912E+03  0.37857318401E+04  0.36787296000E+04 0.  0.
        1    1    3    3  502    0  0.32126171124E+02 -0.96485254012E+03 -0.20580536798E+04  0.22732262237E+04  0.50400001928E-02 0. -1.
       -1    1    3    3    0  502 -0.32126171124E+02  0.96485254012E+03  0.11643456207E+04  0.15125056164E+04  0.50400001928E-02 0.  1.
</event>
<event>
 5   0  0.1051123E-06  0.3728209E+04  0.7818609E-02  0.8061739E-01
       -2   -1    0    0    0  501  0.00000000000E+00  0.00000000000E+00  0.21931601504E+04  0.21931601504E+04  0.25500000920E-02 0.  1.
        2   -1    0    0  501    0  0.00000000000E+00  0.00000000000E+00 -0.15844192803E+04  0.15844192803E+04  0.25500000920E-02 0. -1.
    10030    2    1    2    0    0  0.00000000000E+00  0.00000000000E+00  0.60874087008E+03  0.37775794307E+04  0.37282088069E+04 0.  0.
        2    1    3    3  502    0  0.93469921608E+03  0.60684838689E+03 -0.12097262860E+04  0.16447994638E+04  0.25500000920E-02 0. -1.
       -2    1    3    3    0  502 -0.93469921608E+03 -0.60684838689E+03  0.18184671561E+04  0.21327799668E+04  0.25500000920E-02 0.  1.
</event>
<event>
 5   0  0.3848431E-07  0.3695036E+04  0.7818609E-02  0.8069063E-01
       -1   -1    0    0    0  501  0.00000000000E+00  0.00000000000E+00  0.14660266682E+04  0.14660266682E+04  0.50400001928E-02 0. -1.
        1   -1    0    0  501    0  0.00000000000E+00  0.00000000000E+00 -0.23282818694E+04  0.23282818694E+04  0.50400001928E-02 0.  1.
    10030    2    1    2    0    0  0.00000000000E+00  0.00000000000E+00 -0.86225520113E+03  0.37943085376E+04  0.36950362984E+04 0.  0.
        2    1    3    3  502    0  0.13049566395E+04 -0.64475579885E+02  0.91020297253E+03  0.15923373960E+04  0.25500000920E-02 0. -1.
       -2    1    3    3    0  502 -0.13049566395E+04  0.64475579885E+02 -0.17724581737E+04  0.22019711417E+04  0.25500000920E-02 0.  1.
</event>
<event>
 5   0  0.1128166E-06  0.3573135E+04  0.7818609E-02  0.8096673E-01
        2   -1    0    0  501    0  0.00000000000E+00  0.00000000000E+00  0.21385628861E+04  0.21385628861E+04  0.25500000920E-02 0.  1.
       -2   -1    0    0    0  501  0.00000000000E+00  0.00000000000E+00 -0.14925083383E+04  0.14925083383E+04  0.25500000920E-02 0. -1.
    10030    2    1    2    0    0  0.00000000000E+00  0.00000000000E+00  0.64605454785E+03  0.36310712244E+04  0.35731347243E+04 0.  0.
        3    1    3    3  502    0 -0.76870836472E+03 -0.56074040112E+03  0.18596566627E+04  0.20889387882E+04  0.10100000352E+00 0.  1.
       -3    1    3    3    0  502  0.76870836472E+03  0.56074040112E+03 -0.12136021149E+04  0.15421324362E+04  0.10100000352E+00 0. -1.
</event>
<event>
 5   0  0.1128530E-06  0.3574186E+04  0.7818609E-02  0.8096430E-01
        2   -1    0    0  501    0  0.00000000000E+00  0.00000000000E+00  0.19654633942E+04  0.19654633942E+04  0.25500000920E-02 0. -1.
       -2   -1    0    0    0  501  0.00000000000E+00  0.00000000000E+00 -0.16249101865E+04  0.16249101865E+04  0.25500000920E-02 0.  1.
    10030    2    1    2    0    0  0.00000000000E+00  0.00000000000E+00  0.34055320773E+03  0.35903735807E+04  0.35741860559E+04 0.  0.
        5    1    3    3  502    0 -0.13665269186E+04  0.11516379970E+04  0.16658504223E+03  0.17948366393E+04  0.46999998093E+01 0. -1.
       -5    1    3    3    0  502  0.13665269186E+04 -0.11516379970E+04  0.17396816550E+03  0.17955369414E+04  0.46999998093E+01 0.  1.
</event>
<event>
 5   0  0.3848431E-07  0.3842858E+04  0.7818609E-02  0.8037020E-01
        1   -1    0    0  501    0  0.00000000000E+00  0.00000000000E+00  0.13374852779E+04  0.13374852779E+04  0.50400001928E-02 0.  1.
       -1   -1    0    0    0  501  0.00000000000E+00  0.00000000000E+00 -0.27603215825E+04  0.27603215825E+04  0.50400001928E-02 0. -1.
    10030    2    1    2    0    0  0.00000000000E+00  0.00000000000E+00 -0.14228363046E+04  0.40978068605E+04  0.38428580401E+04 0.  0.
        2    1    3    3  502    0  0.46468541474E+03  0.13755312632E+04  0.63059571848E+03  0.15829307474E+04  0.25500000920E-02 0.  1.
       -2    1    3    3    0  502 -0.46468541474E+03 -0.13755312632E+04 -0.20534320231E+04  0.25148761131E+04  0.25500000920E-02 0. -1.
</event>
<event>
 5   0  0.1128166E-06  0.2891972E+04  0.7818609E-02  0.8275270E-01
        2   -1    0    0  501    0  0.00000000000E+00  0.00000000000E+00  0.14586429093E+04  0.14586429093E+04  0.25500000920E-02 0.  1.
       -2   -1    0    0    0  501  0.00000000000E+00  0.00000000000E+00 -0.14334389504E+04  0.14334389504E+04  0.25500000920E-02 0. -1.
    10030    2    1    2    0    0  0.00000000000E+00  0.00000000000E+00  0.25203958966E+02  0.28920818597E+04  0.28919720337E+04 0.  0.
        3    1    3    3  502    0 -0.43286604729E+03  0.74722092291E+03 -0.11472538729E+04  0.14359330004E+04  0.10100000352E+00 0. -1.
       -3    1    3    3    0  502  0.43286604729E+03 -0.74722092291E+03  0.11724578319E+04  0.14561488593E+04  0.10100000352E+00 0.  1.
</event>
<event>
 5   0  0.1092116E-06  0.3695680E+04  0.7818609E-02  0.8068920E-01
       -2   -1    0    0    0  501  0.00000000000E+00  0.00000000000E+00  0.15662185702E+04  0.15662185702E+04  0.25500000920E-02 0.  1.
        2   -1    0    0  501    0  0.00000000000E+00  0.00000000000E+00 -0.21800998618E+04  0.21800998618E+04  0.25500000920E-02 0. -1.
    10030    2    1    2    0    0  0.00000000000E+00  0.00000000000E+00 -0.61388129166E+03  0.37463184320E+04  0.36956801206E+04 0.  0.
        1    1    3    3  502    0 -0.17285274293E+04 -0.60065908538E+03 -0.46684662259E+02  0.18305130069E+04  0.50400001928E-02 0. -1.
       -1    1    3    3    0  502  0.17285274293E+04  0.60065908538E+03 -0.56719662940E+03  0.19158054251E+04  0.50400001928E-02 0.  1.
</event>
<event>
 5   0  0.3675819E-07  0.3742372E+04  0.7818609E-02  0.8058636E-01
       -1   -1    0    0    0  501  0.00000000000E+00  0.00000000000E+00  0.19104252117E+04  0.19104252117E+04  0.50400001928E-02 0.  1.
        1   -1    0    0  501    0  0.00000000000E+00  0.00000000000E+00 -0.18327527007E+04  0.18327527007E+04  0.50400001928E-02 0. -1.
    10030    2    1    2    0    0  0.00000000000E+00  0.00000000000E+00  0.77672511012E+02  0.37431779124E+04  0.37423719570E+04 0.  0.
        5    1    3    3  502    0  0.65382120750E+03  0.37874165345E+03 -0.16733698577E+04  0.18360599615E+04  0.46999998093E+01 0. -1.
       -5    1    3    3    0  502 -0.65382120750E+03 -0.37874165345E+03  0.17510423687E+04  0.19071179509E+04  0.46999998093E+01 0.  1.
</event>
<event>
 5   0  0.1128166E-06  0.3742417E+04  0.7818609E-02  0.8058626E-01
        2   -1    0    0  501    0  0.00000000000E+00  0.00000000000E+00  0.13108311790E+04  0.13108311790E+04  0.25500000920E-02 0.  1.
       -2   -1    0    0    0  501  0.00000000000E+00  0.00000000000E+00 -0.26711461120E+04  0.26711461120E+04  0.25500000920E-02 0. -1.
    10030    2    1    2    0    0  0.00000000000E+00  0.00000000000E+00 -0.13603149329E+04  0.39819772910E+04  0.37424171907E+04 0.  0.
        3    1    3    3  502    0  0.58163827566E+03  0.10130455553E+04 -0.22355296634E+04  0.25223317123E+04  0.10100000352E+00 0. -1.
       -3    1    3    3    0  502 -0.58163827566E+03 -0.10130455553E+04  0.87521473043E+03  0.14596455787E+04  0.10100000352E+00 0.  1.
</event>
<event>
 5   0  0.3764495E-07  0.3701339E+04  0.7818609E-02  0.8067665E-01
        1   -1    0    0  501    0  0.00000000000E+00  0.00000000000E+00  0.27558229616E+04  0.27558229616E+04  0.50400001928E-02 0.  1.
       -1   -1    0    0    0  501  0.00000000000E+00  0.00000000000E+00 -0.12428150036E+04  0.12428150036E+04  0.50400001928E-02 0. -1.
    10030    2    1    2    0    0  0.00000000000E+00  0.00000000000E+00  0.15130079580E+04  0.39986379653E+04  0.37013392841E+04 0.  0.
        4    1    3    3  502    0 -0.10758883993E+04 -0.67455506722E+03 -0.69789026522E+03  0.14490040792E+04  0.12699999809E+01 0. -1.
       -4    1    3    3    0  502  0.10758883993E+04  0.67455506722E+03  0.22108982232E+04  0.25496338860E+04  0.12699999809E+01 0.  1.
</event>
<event>
 5   0  0.3682276E-07  0.2377698E+04  0.7818609E-02  0.8447901E-01
        1   -1    0    0  501    0  0.00000000000E+00  0.00000000000E+00  0.20863488421E+04  0.20863488421E+04  0.50400001928E-02 0. -1.
       -1   -1    0    0    0  501  0.00000000000E+00  0.00000000000E+00 -0.67743309086E+03  0.67743309088E+03  0.50400001928E-02 0.  1.
    10030    2    1    2    0    0  0.00000000000E+00  0.00000000000E+00  0.14089157512E+04  0.27637819330E+04  0.23776978317E+04 0.  0.
        1    1    3    3  502    0 -0.46781372460E+03  0.98266883610E+03  0.12605482309E+04  0.16653737013E+04  0.50400001928E-02 0. -1.
       -1    1    3    3    0  502  0.46781372460E+03 -0.98266883610E+03  0.14836752031E+03  0.10984082317E+04  0.50400001928E-02 0.  1.
</event>
<event>
 5   0  0.3675819E-07  0.3206206E+04  0.7818609E-02  0.8187180E-01
        1   -1    0    0  501    0  0.00000000000E+00  0.00000000000E+00  0.16540999720E+04  0.16540999720E+04  0.50400001928E-02 0. -1.
       -1   -1    0    0    0  501  0.00000000000E+00  0.00000000000E+00 -0.15536784957E+04  0.15536784957E+04  0.50400001928E-02 0.  1.
    10030    2    1    2    0    0  0.00000000000E+00  0.00000000000E+00  0.10042147631E+03  0.32077784677E+04  0.32062062043E+04 0.  0.
        5    1    3    3  502    0 -0.88712765621E+02  0.13299150179E+04 -0.84094124568E+03  0.15759911733E+04  0.46999998093E+01 0.  1.
       -5    1    3    3    0  502  0.88712765621E+02 -0.13299150179E+04  0.94136272199E+03  0.16317872944E+04  0.46999998093E+01 0. -1.
</event>
<event>
 5   0  0.1066907E-06  0.3577165E+04  0.7818609E-02  0.8095742E-01
        2   -1    0    0  501    0  0.00000000000E+00  0.00000000000E+00  0.12035938594E+04  0.12035938594E+04  0.25500000920E-02 0.  1.
       -2   -1    0    0    0  501  0.00000000000E+00  0.00000000000E+00 -0.26578965353E+04  0.26578965353E+04  0.25500000920E-02 0. -1.
    10030    2    1    2    0    0  0.00000000000E+00  0.00000000000E+00 -0.14543026759E+04  0.38614903947E+04  0.35771653296E+04 0.  0.
        4    1    3    3  502    0 -0.12300382020E+04  0.81877990157E+03  0.36073644021E+03  0.15210282370E+04  0.12699999809E+01 0. -1.
       -4    1    3    3    0  502  0.12300382020E+04 -0.81877990157E+03 -0.18150391161E+04  0.23404621577E+04  0.12699999809E+01 0.  1.
</event>
<event>
 5   0  0.1066907E-06  0.3735649E+04  0.7818609E-02  0.8060107E-01
       -2   -1    0    0    0  501  0.00000000000E+00  0.00000000000E+00  0.13103915136E+04  0.13103915137E+04  0.25500000920E-02 0.  1.
        2   -1    0    0  501    0  0.00000000000E+00  0.00000000000E+00 -0.26623861643E+04  0.26623861643E+04  0.25500000920E-02 0. -1.
    10030    2    1    2    0    0  0.00000000000E+00  0.00000000000E+00 -0.13519946507E+04  0.39727776780E+04  0.37356489320E+04 0.  0.
        4    1    3    3  502    0  0.16039837950E+04 -0.40570470624E+02  0.34092087299E+03  0.16403166256E+04  0.12699999809E+01 0.  1.
       -4    1    3    3    0  502 -0.16039837950E+04  0.40570470624E+02 -0.16929155237E+04  0.23324610524E+04  0.12699999809E+01 0. -1.
</event>
<event>
 5   0  0.3848431E-07  0.3651943E+04  0.7818609E-02  0.8078696E-01
        1   -1    0    0  501    0  0.00000000000E+00  0.00000000000E+00  0.13819121434E+04  0.13819121435E+04  0.50400001928E-02 0.  1.
       -1   -1    0    0    0  501  0.00000000000E+00  0.00000000000E+00 -0.24127239315E+04  0.24127239315E+04  0.50400001928E-02 0. -1.
    10030    2    1    2    0    0  0.00000000000E+00  0.00000000000E+00 -0.10308117880E+04  0.37946360749E+04  0.36519433181E+04 0.  0.
        2    1    3    3  502    0  0.16008357465E+04  0.84006559060E+00  0.39726277347E+03  0.16493918589E+04  0.25500000920E-02 0.  1.
       -2    1    3    3    0  502 -0.16008357465E+04 -0.84006559060E+00 -0.14280745615E+04  0.21452442160E+04  0.25500000920E-02 0. -1.
</event>
<event>
 5   0  0.3675819E-07  0.3278356E+04  0.7818609E-02  0.8168425E-01
        1   -1    0    0  501    0  0.00000000000E+00  0.00000000000E+00  0.15996397874E+04  0.15996397874E+04  0.50400001928E-02 0. -1.
       -1   -1    0    0    0  501  0.00000000000E+00  0.00000000000E+00 -0.16796938129E+04  0.16796938130E+04  0.50400001928E-02 0.  1.
    10030    2    1    2    0    0  0.00000000000E+00  0.00000000000E+00 -0.80054025527E+02  0.32793336004E+04  0.32783563283E+04 0.  0.
        5    1    3    3  502    0 -0.14226841870E+04 -0.52466475511E+03 -0.66277147929E+03  0.16548690356E+04  0.46999998093E+01 0.  1.
       -5    1    3    3    0  502  0.14226841870E+04  0.52466475511E+03  0.58271745377E+03  0.16244645648E+04  0.46999998093E+01 0. -1.
</event>
<event>
 5   0  0.3675819E-07  0.3811985E+04  0.7818609E-02  0.8043588E-01
       -1   -1    0    0    0  501  0.00000000000E+00  0.00000000000E+00  0.30562450803E+04  0.30562450803E+04  0.50400001928E-02 0. -1.
        1   -1    0    0  501    0  0.00000000000E+00  0.00000000000E+00 -0.11886506295E+04  0.11886506295E+04  0.50400001928E-02 0.  1.
    10030    2    1    2    0    0  0.00000000000E+00  0.00000000000E+00  0.18675944508E+04  0.42448957097E+04  0.38119851198E+04 0.  0.
        5    1    3    3  502    0 -0.67950679504E+03  0.49310889384E+03 -0.97163683619E+03  0.12841285361E+04  0.46999998093E+01 0.  1.
       -5    1    3    3    0  502  0.67950679504E+03 -0.49310889384E+03  0.28392312870E+04  0.29607671737E+04  0.46999998093E+01 0. -1.
</event>
<event>
 5   0  0.1051123E-06  0.3723830E+04  0.7818609E-02  0.8062701E-01
        2   -1    0    0  501    0  0.00000000000E+00  0.00000000000E+00  0.21504268997E+04  0.21504268997E+04  0.25500000920E-02 0.  1.
       -2   -1    0    0    0  501  0.00000000000E+00  0.00000000000E+00 -0.16121111306E+04  0.16121111306E+04  0.25500000920E-02 0. -1.
    10030    2    1    2    0    0  0.00000000000E+00  0.00000000000E+00  0.53831576909E+03  0.37625380303E+04  0.37238298246E+04 0.  0.
        2    1    3    3  502    0  0.86195443669E+03 -0.35338707409E+03  0.18980192575E+04  0.21143143042E+04  0.25500000920E-02 0.  1.
       -2    1    3    3    0  502 -0.86195443669E+03  0.35338707409E+03 -0.13597034884E+04  0.16482237261E+04  0.25500000920E-02 0. -1.
</event>
<event>
 5   0  0.1128166E-06  0.3095937E+04  0.7818609E-02  0.8216854E-01
       -2   -1    0    0    0  501  0.00000000000E+00  0.00000000000E+00  0.18550854261E+04  0.18550854261E+04  0.25500000920E-02 0.  1.
        2   -1    0    0  501    0  0.00000000000E+00  0.00000000000E+00 -0.12916963398E+04  0.12916963398E+04  0.25500000920E-02 0. -1.
    10030    2    1    2    0    0  0.00000000000E+00  0.00000000000E+00  0.56338908627E+03  0.31467817659E+04  0.30959373733E+04 0.  0.
        3    1    3    3  502    0  0.99738727716E+02  0.10351385103E+04 -0.88376079158E+03  0.13647317305E+04  0.10100000352E+00 0. -1.
       -3    1    3    3    0  502 -0.99738727716E+02 -0.10351385103E+04  0.14471498778E+04  0.17820500354E+04  0.10100000352E+00 0.  1.
</event>
<event>
 5   0  0.1092116E-06  0.3760138E+04  0.7818609E-02  0.8054764E-01
        2   -1    0    0  501    0  0.00000000000E+00  0.00000000000E+00  0.22630998239E+04  0.22630998239E+04  0.25500000920E-02 0. -1.
       -2   -1    0    0    0  501  0.00000000000E+00  0.00000000000E+00 -0.15618659564E+04  0.15618659564E+04  0.25500000920E-02 0.  1.
    10030    2    1    2    0    0  0.00000000000E+00  0.00000000000E+00  0.70123386742E+03  0.38249657803E+04  0.37601375352E+04 0.  0.
        1    1    3    3  502    0  0.96184978803E+03 -0.94226947004E+02 -0.12898318533E+04  0.16117381742E+04  0.50400001928E-02 0.  1.
       -1    1    3    3    0  502 -0.96184978803E+03  0.94226947004E+02  0.19910657207E+04  0.22132276061E+04  0.50400001928E-02 0. -1.
</event>
<event>
 5   0  0.1051123E-06  0.2769224E+04  0.7818609E-02  0.8312887E-01
        2   -1    0    0  501    0  0.00000000000E+00  0.00000000000E+00  0.17611213187E+04  0.17611213187E+04  0.25500000920E-02 0. -1.
       -2   -1    0    0    0  501  0.00000000000E+00  0.00000000000E+00 -0.10885963484E+04  0.10885963484E+04  0.25500000920E-02 0.  1.
    10030    2    1    2    0    0  0.00000000000E+00  0.00000000000E+00  0.67252497026E+03  0.28497176671E+04  0.27692238888E+04 0.  0.
        2    1    3    3  502    0 -0.92377560369E+03 -0.23227111305E+03  0.13703798602E+04  0.16689074861E+04  0.25500000920E-02 0. -1.
       -2    1    3    3    0  502  0.92377560369E+03  0.23227111305E+03 -0.69785488997E+03  0.11808101809E+04  0.25500000920E-02 0.  1.
</event>
<event>
 5   0  0.1128166E-06  0.3603724E+04  0.7818609E-02  0.8089639E-01
       -2   -1    0    0    0  501  0.00000000000E+00  0.00000000000E+00  0.17484897911E+04  0.17484897911E+04  0.25500000920E-02 0.  1.
        2   -1    0    0  501    0  0.00000000000E+00  0.00000000000E+00 -0.18568636516E+04  0.18568636516E+04  0.25500000920E-02 0. -1.
    10030    2    1    2    0    0  0.00000000000E+00  0.00000000000E+00 -0.10837386054E+03  0.36053534427E+04  0.36037242615E+04 0.  0.
        3    1    3    3  502    0 -0.11231938802E+04 -0.13179889766E+04 -0.55245595392E+03  0.18176542648E+04  0.10100000352E+00 0. -1.
       -3    1    3    3    0  502  0.11231938802E+04  0.13179889766E+04  0.44408209339E+03  0.17876991779E+04  0.10100000352E+00 0.  1.
</event>
<event>
 5   0  0.3675819E-07  0.3693031E+04  0.7818609E-02  0.8069508E-01
       -1   -1    0    0    0  501  0.00000000000E+00  0.00000000000E+00  0.12404199013E+04  0.12404199013E+04  0.50400001928E-02 0. -1.
        1   -1    0    0  501    0  0.00000000000E+00  0.00000000000E+00 -0.27487619476E+04  0.27487619476E+04  0.50400001928E-02 0.  1.
    10030    2    1    2    0    0  0.00000000000E+00  0.00000000000E+00 -0.15083420463E+04  0.39891818489E+04  0.36930307465E+04 0.  0.
        5    1    3    3  502    0  0.13323077235E+04  0.83977110709E+03  0.28715723492E+03  0.16008562553E+04  0.46999998093E+01 0. -1.
       -5    1    3    3    0  502 -0.13323077235E+04 -0.83977110709E+03 -0.17954992812E+04  0.23883255936E+04  0.46999998093E+01 0.  1.
</event>
<event>
 5   0  0.1128530E-06  0.3713048E+04  0.7818609E-02  0.8065076E-01
        2   -1    0    0  501    0  0.00000000000E+00  0.00000000000E+00  0.29259919473E+04  0.29259919473E+04  0.25500000920E-02 0. -1.
       -2   -1    0    0    0  501  0.00000000000E+00  0.00000000000E+00 -0.11779531902E+04  0.11779531902E+04  0.25500000920E-02 0.  1.
    10030    2    1    2    0    0  0.00000000000E+00  0.00000000000E+00  0.17480387571E+04  0.41039451375E+04  0.37130481003E+04 0.  0.
        5    1    3    3  502    0  0.17628375027E+04  0.34789849213E+03  0.13901137650E+04  0.22717983607E+04  0.46999998093E+01 0. -1.
       -5    1    3    3    0  502 -0.17628375027E+04 -0.34789849213E+03  0.35792499209E+03  0.18321467768E+04  0.46999998093E+01 0.  1.
</event>
<event>
 5   0  0.3675819E-07  0.3649513E+04  0.7818609E-02  0.8079243E-01
       -1   -1    0    0    0  501  0.00000000000E+00  0.00000000000E+00  0.36052655921E+04  0.36052655921E+04  0.50400001928E-02 0.  1.
        1   -1    0    0  501    0  0.00000000000E+00  0.00000000000E+00 -0.92357583640E+03  0.92357583641E+03  0.50400001928E-02 0. -1.
    10030    2    1    2    0    0  0.00000000000E+00  0.00000000000E+00  0.26816897557E+04  0.45288414285E+04  0.36495129454E+04 0.  0.
        5    1    3    3  502    0 -0.69646507606E+03 -0.40248468566E+03 -0.69167473697E+03  0.10608928109E+04  0.46999998093E+01 0. -1.
       -5    1    3    3    0  502  0.69646507606E+03  0.40248468566E+03  0.33733644927E+04  0.34679486177E+04  0.46999998093E+01 0.  1.
</event>
<event>
 5   0  0.3704306E-07  0.3726505E+04  0.7818609E-02  0.8062113E-01
        1   -1    0    0  501    0  0.00000000000E+00  0.00000000000E+00  0.17766444654E+04  0.17766444654E+04  0.50400001928E-02 0.  1.
       -1   -1    0    0    0  501  0.00000000000E+00  0.00000000000E+00 -0.19540828907E+04  0.19540828907E+04  0.50400001928E-02 0. -1.
    10030    2    1    2    0    0  0.00000000000E+00  0.00000000000E+00 -0.17743842525E+03  0.37307273561E+04  0.37265053617E+04 0.  0.
        3    1    3    3  502    0  0.17425947279E+04  0.48062243245E+03 -0.54097900319E+03  0.18868737637E+04  0.10100000352E+00 0.  1.
       -3    1    3    3    0  502 -0.17425947279E+04 -0.48062243245E+03  0.36354057793E+03  0.18438535924E+04  0.10100000352E+00 0. -1.
</event>
<event>
 5   0  0.1128166E-06  0.3649340E+04  0.7818609E-02  0.8079282E-01
       -2   -1    0    0    0  501  0.00000000000E+00  0.00000000000E+00  0.12772865394E+04  0.12772865394E+04  0.25500000920E-02 0. -1.
        2   -1    0    0  501    0  0.00000000000E+00  0.00000000000E+00 -0.26066357427E+04  0.26066357427E+04  0.25500000920E-02 0.  1.
    10030    2    1    2    0    0  0.00000000000E+00  0.00000000000E+00 -0.13293492033E+04  0.38839222821E+04  0.36493400758E+04 0.  0.
        3    1    3    3  502    0 -0.15031603427E+04  0.20922587334E+02 -0.17653137549E+04  0.23186766557E+04  0.10100000352E+00 0.  1.
       -3    1    3    3    0  502  0.15031603427E+04 -0.20922587334E+02  0.43596455155E+03  0.15652456263E+04  0.10100000352E+00 0. -1.
</event>
<event>
 5   0  0.3682276E-07  0.3638045E+04  0.7818609E-02  0.8081832E-01
       -1   -1    0    0    0  501  0.00000000000E+00  0.00000000000E+00  0.16528441202E+04  0.16528441202E+04  0.50400001928E-02 0.  1.
        1   -1    0    0  501    0  0.00000000000E+00  0.00000000000E+00 -0.20019082250E+04  0.20019082250E+04  0.50400001928E-02 0. -1.
    10030    2    1    2    0    0  0.00000000000E+00  0.00000000000E+00 -0.34906410480E+03  0.36547523451E+04  0.36380446609E+04 0.  0.
        1    1    3    3  502    0  0.77402353974E+03  0.13881413447E+04  0.71428730929E+03  0.17424853495E+04  0.50400001928E-02 0.  1.
       -1    1    3    3    0  502 -0.77402353974E+03 -0.13881413447E+04 -0.10633514141E+04  0.19122669957E+04  0.50400001928E-02 0. -1.
</event>
<event>
 5   0  0.3675819E-07  0.3725677E+04  0.7818609E-02  0.8062295E-01
       -1   -1    0    0    0  501  0.00000000000E+00  0.00000000000E+00  0.26718898589E+04  0.26718898589E+04  0.50400001928E-02 0. -1.
        1   -1    0    0  501    0  0.00000000000E+00  0.00000000000E+00 -0.12987689392E+04  0.12987689392E+04  0.50400001928E-02 0.  1.
    10030    2    1    2    0    0  0.00000000000E+00  0.00000000000E+00  0.13731209197E+04  0.39706587981E+04  0.37256771507E+04 0.  0.
        5    1    3    3  502    0 -0.75879472647E+03 -0.13007288344E+03 -0.11212869777E+04  0.13601452011E+04  0.46999998093E+01 0.  1.
       -5    1    3    3    0  502  0.75879472647E+03  0.13007288344E+03  0.24944078973E+04  0.26105135970E+04  0.46999998093E+01 0. -1.
</event>
<event>
 5   0  0.3764495E-07  0.3696265E+04  0.7818609E-02  0.8068790E-01
       -1   -1    0    0    0  501  0.00000000000E+00  0.00000000000E+00  0.17762763698E+04  0.17762763698E+04  0.50400001928E-02 0.  1.
        1   -1    0    0  501    0  0.00000000000E+00  0.00000000000E+00 -0.19228957277E+04  0.19228957277E+04  0.50400001928E-02 0. -1.
    10030    2    1    2    0    0  0.00000000000E+00  0.00000000000E+00 -0.14661935787E+03  0.36991720974E+04  0.36962652733E+04 0.  0.
        4    1    3    3  502    0  0.17650225511E+04 -0.13830053433E+03 -0.60397283217E+03  0.18706192661E+04  0.12699999809E+01 0. -1.
       -4    1    3    3    0  502 -0.17650225511E+04  0.13830053433E+03  0.45735347429E+03  0.18285528314E+04  0.12699999809E+01 0.  1.
</event>
<event>
 5   0  0.3675819E-07  0.3698070E+04  0.7818609E-02  0.8068390E-01
        1   -1    0    0  501    0  0.00000000000E+00  0.00000000000E+00  0.14713051595E+04  0.14713051595E+04  0.50400001928E-02 0. -1.
       -1   -1    0    0    0  501  0.00000000000E+00  0.00000000000E+00 -0.23237393301E+04  0.23237393301E+04  0.50400001928E-02 0.  1.
    10030    2    1    2    0    0  0.00000000000E+00  0.00000000000E+00 -0.85243417063E+03  0.37950444896E+04  0.36980695859E+04 0.  0.
        5    1    3    3  502    0  0.75116055999E+03 -0.16110763393E+04  0.96148038387E+02  0.17801897913E+04  0.46999998093E+01 0. -1.
       -5    1    3    3    0  502 -0.75116055999E+03  0.16110763393E+04 -0.94858220902E+03  0.20148546982E+04  0.46999998093E+01 0.  1.
</event>
<event>
 5   0  0.1066907E-06  0.3717914E+04  0.7818609E-02  0.8064003E-01
       -2   -1    0    0    0  501  0.00000000000E+00  0.00000000000E+00  0.12926747044E+04  0.12926747044E+04  0.25500000920E-02 0.  1.
        2   -1    0    0  501    0  0.00000000000E+00  0.00000000000E+00 -0.26733111470E+04  0.26733111470E+04  0.25500000920E-02 0. -1.
    10030    2    1    2    0    0  0.00000000000E+00  0.00000000000E+00 -0.13806364426E+04  0.39659858514E+04  0.37179143060E+04 0.  0.
        4    1    3    3  502    0  0.96725752667E+03 -0.13287520980E+04  0.23628975337E+03  0.16604227538E+04  0.12699999809E+01 0.  1.
       -4    1    3    3    0  502 -0.96725752667E+03  0.13287520980E+04 -0.16169261960E+04  0.23055630976E+04  0.12699999809E+01 0. -1.
</event>
<event>
 5   0  0.1092116E-06  0.3701056E+04  0.7818609E-02  0.8067728E-01
       -2   -1    0    0    0  501  0.00000000000E+00  0.00000000000E+00  0.20976846792E+04  0.20976846792E+04  0.25500000920E-02 0. -1.
        2   -1    0    0  501    0  0.00000000000E+00  0.00000000000E+00 -0.16324921720E+04  0.16324921720E+04  0.25500000920E-02 0.  1.
    10030    2    1    2    0    0  0.00000000000E+00  0.00000000000E+00  0.46519250720E+03  0.37301768511E+04  0.37010559672E+04 0.  0.
        1    1    3    3  502    0  0.54983973582E+03 -0.17653368056E+04  0.30879566383E+03  0.18745912980E+04  0.50400001928E-02 0.  1.
       -1    1    3    3    0  502 -0.54983973582E+03  0.17653368056E+04  0.15639684337E+03  0.18555855532E+04  0.50400001928E-02 0. -1.
</event>
<event>
 5   0  0.4690734E-07  0.2283085E+04  0.7818609E-02  0.8484620E-01
       -1   -1    0    0    0  501  0.00000000000E+00  0.00000000000E+00  0.12629203047E+04  0.12629203047E+04  0.50400001928E-02 0. -1.
        1   -1    0    0  501    0  0.00000000000E+00  0.00000000000E+00 -0.10318301860E+04  0.10318301860E+04  0.50400001928E-02 0.  1.
    10030    2    1    2    0    0  0.00000000000E+00  0.00000000000E+00  0.23109011879E+03  0.22947504907E+04  0.22830850119E+04 0.  0.
        4    1    3    3  502    0  0.14926561263E+02 -0.10955289898E+04  0.43766833015E+03  0.11798142862E+04  0.12699999809E+01 0.  1.
       -4    1    3    3    0  502 -0.14926561263E+02  0.10955289898E+04 -0.20657821136E+03  0.11149362045E+04  0.12699999809E+01 0. -1.
</event>
<event>
 5   0  0.1051123E-06  0.3243125E+04  0.7818609E-02  0.8177520E-01
       -2   -1    0    0    0  501  0.00000000000E+00  0.00000000000E+00  0.16308203955E+04  0.16308203955E+04  0.25500000920E-02 0. -1.
        2   -1    0    0  501    0  0.00000000000E+00  0.00000000000E+00 -0.16123574595E+04  0.16123574595E+04  0.25500000920E-02 0.  1.
    10030    2    1    2    0    0  0.00000000000E+00  0.00000000000E+00  0.18462935991E+02  0.32431778550E+04  0.32431253012E+04 0.  0.
        2    1    3    3  502    0  0.11782774087E+04  0.19984482399E+02  0.11231294032E+04  0.16279301851E+04  0.25500000920E-02 0. -1.
       -2    1    3    3    0  502 -0.11782774087E+04 -0.19984482399E+02 -0.11046664672E+04  0.16152476699E+04  0.25500000920E-02 0.  1.
</event>
<event>
 5   0  0.3675819E-07  0.3510751E+04  0.7818609E-02  0.8111247E-01
       -1   -1    0    0    0  501  0.00000000000E+00  0.00000000000E+00  0.14322958163E+04  0.14322958163E+04  0.50400001928E-02 0.  1.
        1   -1    0    0  501    0  0.00000000000E+00  0.00000000000E+00 -0.21513314877E+04  0.21513314877E+04  0.50400001928E-02 0. -1.
    10030    2    1    2    0    0  0.00000000000E+00  0.00000000000E+00 -0.71903567141E+03  0.35836273041E+04  0.35107509678E+04 0.  0.
        5    1    3    3  502    0  0.10218040873E+04 -0.11134272494E+04 -0.12710937311E+04  0.19747164849E+04  0.46999998093E+01 0. -1.
       -5    1    3    3    0  502 -0.10218040873E+04  0.11134272494E+04  0.55205805968E+03  0.16089108191E+04  0.46999998093E+01 0.  1.
</event>
<event>
 5   0  0.1051123E-06  0.3681450E+04  0.7818609E-02  0.8072085E-01
        2   -1    0    0  501    0  0.00000000000E+00  0.00000000000E+00  0.25128294386E+04  0.25128294386E+04  0.25500000920E-02 0.  1.
       -2   -1    0    0    0  501  0.00000000000E+00  0.00000000000E+00 -0.13483876386E+04  0.13483876386E+04  0.25500000920E-02 0. -1.
    10030    2    1    2    0    0  0.00000000000E+00  0.00000000000E+00  0.11644417999E+04  0.38612170772E+04  0.36814497975E+04 0.  0.
        2    1    3    3  502    0  0.10398744611E+04 -0.15169033332E+04  0.50143006049E+03  0.19062441404E+04  0.25500000920E-02 0.  1.
       -2    1    3    3    0  502 -0.10398744611E+04  0.15169033332E+04  0.66301173943E+03  0.19549729368E+04  0.25500000920E-02 0. -1.
</event>
<event>
 5   0  0.3764495E-07  0.3640907E+04  0.7818609E-02  0.8081185E-01
        1   -1    0    0  501    0  0.00000000000E+00  0.00000000000E+00  0.30025689799E+04  0.30025689799E+04  0.50400001928E-02 0. -1.
       -1   -1    0    0    0  501  0.00000000000E+00  0.00000000000E+00 -0.11037386374E+04  0.11037386374E+04  0.50400001928E-02 0.  1.
    10030    2    1    2    0    0  0.00000000000E+00  0.00000000000E+00  0.18988303426E+04  0.41063076173E+04  0.36409072466E+04 0.  0.
        4    1    3    3  502    0 -0.14229229676E+04 -0.25778673718E+03  0.21966115851E+04  0.26298798152E+04  0.12699999809E+01 0. -1.
       -4    1    3    3    0  502  0.14229229676E+04  0.25778673718E+03 -0.29778124253E+03  0.14764278021E+04  0.12699999809E+01 0.  1.
</event>
<event>
 5   0  0.3764495E-07  0.3711947E+04  0.7818609E-02  0.8065319E-01
       -1   -1    0    0    0  501  0.00000000000E+00  0.00000000000E+00  0.24437913638E+04  0.24437913638E+04  0.50400001928E-02 0.  1.
        1   -1    0    0  501    0  0.00000000000E+00  0.00000000000E+00 -0.14095467523E+04  0.14095467523E+04  0.50400001928E-02 0. -1.
    10030    2    1    2    0    0  0.00000000000E+00  0.00000000000E+00  0.10342446116E+04  0.38533381161E+04  0.37119472949E+04 0.  0.
        4    1    3    3  502    0  0.96653204002E+02 -0.10461240081E+04  0.21054076811E+04  0.23529684228E+04  0.12699999809E+01 0.  1.
       -4    1    3    3    0  502 -0.96653204002E+02  0.10461240081E+04 -0.10711630695E+04  0.15003696933E+04  0.12699999809E+01 0. -1.
</event>
<event>
 5   0  0.3764495E-07  0.3813307E+04  0.7818609E-02  0.8043305E-01
       -1   -1    0    0    0  501  0.00000000000E+00  0.00000000000E+00  0.15247567912E+04  0.15247567912E+04  0.50400001928E-02 0.  1.
        1   -1    0    0  501    0  0.00000000000E+00  0.00000000000E+00 -0.23842021341E+04  0.23842021341E+04  0.50400001928E-02 0. -1.
    10030    2    1    2    0    0  0.00000000000E+00  0.00000000000E+00 -0.85944534289E+03  0.39089589253E+04  0.38133074335E+04 0.  0.
        4    1    3    3  502    0 -0.60424816421E+03  0.11266527940E+04  0.10202777142E+04  0.16356743530E+04  0.12699999809E+01 0.  1.
       -4    1    3    3    0  502  0.60424816421E+03 -0.11266527940E+04 -0.18797230571E+04  0.22732845723E+04  0.12699999809E+01 0. -1.
</event>
<event>
 5   0  0.1051123E-06  0.3838300E+04  0.7818609E-02  0.8037985E-01
        2   -1    0    0  501    0  0.00000000000E+00  0.00000000000E+00  0.24722808949E+04  0.24722808949E+04  0.25500000920E-02 0.  1.
       -2   -1    0    0    0  501  0.00000000000E+00  0.00000000000E+00 -0.14897728111E+04  0.14897728111E+04  0.25500000920E-02 0. -1.
    10030    2    1    2    0    0  0.00000000000E+00  0.00000000000E+00  0.98250808381E+03  0.39620537061E+04  0.38383000710E+04 0.  0.
        2    1    3    3  502    0  0.81404237031E+03  0.15970535517E+04 -0.21633383193E+03  0.18055595682E+04  0.25500000920E-02 0. -1.
       -2    1    3    3    0  502 -0.81404237031E+03 -0.15970535517E+04  0.11988419157E+04  0.21564941378E+04  0.25500000920E-02 0.  1.
</event>
<event>
 5   0  0.1128530E-06  0.3687524E+04  0.7818609E-02  0.8070732E-01
        2   -1    0    0  501    0  0.00000000000E+00  0.00000000000E+00  0.18908579042E+04  0.18908579042E+04  0.25500000920E-02 0.  1.
       -2   -1    0    0    0  501  0.00000000000E+00  0.00000000000E+00 -0.17978387896E+04  0.17978387896E+04  0.25500000920E-02 0. -1.
    10030    2    1    2    0    0  0.00000000000E+00  0.00000000000E+00  0.93019114627E+02  0.36886966938E+04  0.36875236600E+04 0.  0.
        5    1    3    3  502    0 -0.37426313137E+03 -0.79608798904E+03  0.16673973822E+04  0.18852228245E+04  0.46999998093E+01 0.  1.
       -5    1    3    3    0  502  0.37426313137E+03  0.79608798904E+03 -0.15743782676E+04  0.18034738693E+04  0.46999998093E+01 0. -1.
</event>
<event>
 5   0  0.1128530E-06  0.2816413E+04  0.7818609E-02  0.8298191E-01
       -2   -1    0    0    0  501  0.00000000000E+00  0.00000000000E+00  0.86231352360E+03  0.86231352361E+03  0.25500000920E-02 0.  1.
        2   -1    0    0  501    0  0.00000000000E+00  0.00000000000E+00 -0.22996801647E+04  0.22996801647E+04  0.25500000920E-02 0. -1.
    10030    2    1    2    0    0  0.00000000000E+00  0.00000000000E+00 -0.14373666411E+04  0.31619936883E+04  0.28164128291E+04 0.  0.
        5    1    3    3  502    0 -0.24764441590E+03 -0.12409321655E+04 -0.14123852069E+04  0.18963371163E+04  0.46999998093E+01 0. -1.
       -5    1    3    3    0  502  0.24764441590E+03  0.12409321655E+04 -0.24981434184E+02  0.12656565720E+04  0.46999998093E+01 0.  1.
</event>
<event>
 5   0  0.1066907E-06  0.3697407E+04  0.7818609E-02  0.8068537E-01
        2   -1    0    0  501    0  0.00000000000E+00  0.00000000000E+00  0.19462979289E+04  0.19462979289E+04  0.25500000920E-02 0. -1.
       -2   -1    0    0    0  501  0.00000000000E+00  0.00000000000E+00 -0.17560025004E+04  0.17560025004E+04  0.25500000920E-02 0.  1.
    10030    2    1    2    0    0  0.00000000000E+00  0.00000000000E+00  0.19029542846E+03  0.37023004293E+04  0.36974066748E+04 0.  0.
        4    1    3    3  502    0  0.12197812821E+04 -0.87068116220E+02  0.14834369517E+04  0.19225072264E+04  0.12699999809E+01 0. -1.
       -4    1    3    3    0  502 -0.12197812821E+04  0.87068116220E+02 -0.12931415233E+04  0.17797932029E+04  0.12699999809E+01 0.  1.
</event>
<event>
 5   0  0.3682276E-07  0.3310965E+04  0.7818609E-02  0.8160111E-01
       -1   -1    0    0    0  501  0.00000000000E+00  0.00000000000E+00  0.15974782340E+04  0.15974782340E+04  0.50400001928E-02 0.  1.
        1   -1    0    0  501    0  0.00000000000E+00  0.00000000000E+00 -0.17155933576E+04  0.17155933576E+04  0.50400001928E-02 0. -1.
    10030    2    1    2    0    0  0.00000000000E+00  0.00000000000E+00 -0.11811512362E+03  0.33130715916E+04  0.33109654466E+04 0.  0.
        1    1    3    3  502    0  0.52298960865E+03  0.64796863132E+03 -0.14907862189E+04  0.17075787034E+04  0.50400001928E-02 0. -1.
       -1    1    3    3    0  502 -0.52298960865E+03 -0.64796863132E+03  0.13726710953E+04  0.16054928881E+04  0.50400001928E-02 0.  1.
</event>
<event>
 5   0  0.3848431E-07  0.3691364E+04  0.7818609E-02  0.8069878E-01
        1   -1    0    0  501    0  0.00000000000E+00  0.00000000000E+00  0.21788955360E+04  0.21788955360E+04  0.50400001928E-02 0.  1.
       -1   -1    0    0    0  501  0.00000000000E+00  0.00000000000E+00 -0.15634259777E+04  0.15634259777E+04  0.50400001928E-02 0. -1.
    10030    2    1    2    0    0  0.00000000000E+00  0.00000000000E+00  0.61546955837E+03  0.37423215137E+04  0.36913639125E+04 0.  0.
        2    1    3    3  502    0  0.70316328932E+03 -0.11677011217E+04 -0.95386233614E+03  0.16636760133E+04  0.25500000920E-02 0. -1.
       -2    1    3    3    0  502 -0.70316328932E+03  0.11677011217E+04  0.15693318945E+04  0.20786455004E+04  0.25500000920E-02 0.  1.
</event>
<event>
 5   0  0.1051123E-06  0.2707251E+04  0.7818609E-02  0.8332656E-01
        2   -1    0    0  501    0  0.00000000000E+00  0.00000000000E+00  0.18360541317E+04  0.18360541317E+04  0.25500000920E-02 0. -1.
       -2   -1    0    0    0  501  0.00000000000E+00  0.00000000000E+00 -0.99795644734E+03  0.99795644735E+03  0.25500000920E-02 0.  1.
    10030    2    1    2    0    0  0.00000000000E+00  0.00000000000E+00  0.83809768436E+03  0.28340105790E+04  0.27072510474E+04 0.  0.
        2    1    3    3  502    0 -0.67035042925E+02 -0.68050199678E+03 -0.80386418959E+03  0.10553550587E+04  0.25500000920E-02 0.  1.
       -2    1    3    3    0  502  0.67035042925E+02  0.68050199678E+03  0.16419618739E+04  0.17786555204E+04  0.25500000920E-02 0. -1.
</event>
<event>
 5   0  0.3848431E-07  0.2658966E+04  0.7818609E-02  0.8348443E-01
       -1   -1    0    0    0  501  0.00000000000E+00  0.00000000000E+00  0.90950841154E+03  0.90950841156E+03  0.50400001928E-02 0. -1.
        1   -1    0    0  501    0  0.00000000000E+00  0.00000000000E+00 -0.19433850512E+04  0.19433850512E+04  0.50400001928E-02 0.  1.
    10030    2    1    2    0    0  0.00000000000E+00  0.00000000000E+00 -0.10338766396E+04  0.28528934627E+04  0.26589660027E+04 0.  0.
        2    1    3    3  502    0 -0.67038418487E+03 -0.10675363509E+04 -0.97021457297E+03  0.15907121466E+04  0.25500000920E-02 0.  1.
       -2    1    3    3    0  502  0.67038418487E+03  0.10675363509E+04 -0.63662066647E+02  0.12621813161E+04  0.25500000920E-02 0. -1.
</event>
<event>
 5   0  0.1128166E-06  0.3868061E+04  0.7818609E-02  0.8031705E-01
       -2   -1    0    0    0  501  0.00000000000E+00  0.00000000000E+00  0.21629257300E+04  0.21629257300E+04  0.25500000920E-02 0. -1.
        2   -1    0    0  501    0  0.00000000000E+00  0.00000000000E+00 -0.17293584912E+04  0.17293584912E+04  0.25500000920E-02 0.  1.
    10030    2    1    2    0    0  0.00000000000E+00  0.00000000000E+00  0.43356723880E+03  0.38922842213E+04  0.38680610012E+04 0.  0.
        3    1    3    3  502    0 -0.18894959560E+03 -0.17557900969E+04 -0.57680795961E+03  0.18577427826E+04  0.10100000352E+00 0. -1.
       -3    1    3    3    0  502  0.18894959560E+03  0.17557900969E+04  0.10103751984E+04  0.20345414387E+04  0.10100000352E+00 0.  1.
</event>
<event>
 5   0  0.1128530E-06  0.3720689E+04  0.7818609E-02  0.8063392E-01
       -2   -1    0    0    0  501  0.00000000000E+00  0.00000000000E+00  0.13468302339E+04  0.13468302339E+04  0.25500000920E-02 0. -1.
        2   -1    0    0  501    0  0.00000000000E+00  0.00000000000E+00 -0.25696497120E+04  0.25696497120E+04  0.25500000920E-02 0.  1.
    10030    2    1    2    0    0  0.00000000000E+00  0.00000000000E+00 -0.12228194781E+04  0.39164799459E+04  0.37206891419E+04 0.  0.
        5    1    3    3  502    0 -0.99511001995E+03  0.14808587088E+04 -0.56733410440E+02  0.17850566481E+04  0.46999998093E+01 0. -1.
       -5    1    3    3    0  502  0.99511001995E+03 -0.14808587088E+04 -0.11660860676E+04  0.21314232978E+04  0.46999998093E+01 0.  1.
</event>
<event>
 5   0  0.3675819E-07  0.2875617E+04  0.7818609E-02  0.8280169E-01
        1   -1    0    0  501    0  0.00000000000E+00  0.00000000000E+00  0.22742567663E+04  0.22742567663E+04  0.50400001928E-02 0. -1.
       -1   -1    0    0    0  501  0.00000000000E+00  0.00000000000E+00 -0.90899731578E+03  0.90899731579E+03  0.50400001928E-02 0.  1.
    10030    2    1    2    0    0  0.00000000000E+00  0.00000000000E+00  0.13652594505E+04  0.31832540821E+04  0.28756170093E+04 0.  0.
        5    1    3    3  502    0 -0.96450231512E+02 -0.11899820149E+04  0.15695361331E+04  0.19720105492E+04  0.46999998093E+01 0. -1.
       -5    1    3    3    0  502  0.96450231512E+02  0.11899820149E+04 -0.20427668255E+03  0.12112435329E+04  0.46999998093E+01 0.  1.
</event>
<event>
 5   0  0.3704306E-07  0.2561685E+04  0.7818609E-02  0.8381334E-01
       -1   -1    0    0    0  501  0.00000000000E+00  0.00000000000E+00  0.12639718489E+04  0.12639718489E+04  0.50400001928E-02 0.  1.
        1   -1    0    0  501    0  0.00000000000E+00  0.00000000000E+00 -0.12979384770E+04  0.12979384770E+04  0.50400001928E-02 0. -1.
    10030    2    1    2    0    0  0.00000000000E+00  0.00000000000E+00 -0.33966628147E+02  0.25619103259E+04  0.25616851458E+04 0.  0.
        3    1    3    3  502    0  0.10084952379E+04  0.76574187387E+03  0.17573656799E+03  0.12784000210E+04  0.10100000352E+00 0.  1.
       -3    1    3    3    0  502 -0.10084952379E+04 -0.76574187387E+03 -0.20970319614E+03  0.12835103049E+04  0.10100000352E+00 0. -1.
</event>
<event>
 5   0  0.1128166E-06  0.3563277E+04  0.7818609E-02  0.8098956E-01
       -2   -1    0    0    0  501  0.00000000000E+00  0.00000000000E+00  0.15902491469E+04  0.15902491469E+04  0.25500000920E-02 0. -1.
        2   -1    0    0  501    0  0.00000000000E+00  0.00000000000E+00 -0.19960621464E+04  0.19960621464E+04  0.25500000920E-02 0.  1.
    10030    2    1    2    0    0  0.00000000000E+00  0.00000000000E+00 -0.40581299945E+03  0.35863112933E+04  0.35632772137E+04 0.  0.
        3    1    3    3  502    0 -0.84098629300E+03 -0.14388520524E+04  0.43099260091E+03  0.17214260966E+04  0.10100000352E+00 0. -1.
       -3    1    3    3    0  502  0.84098629300E+03  0.14388520524E+04 -0.83680560036E+03  0.18648851967E+04  0.10100000352E+00 0.  1.
</event>
<event>
 5   0  0.1066907E-06  0.3670612E+04  0.7818609E-02  0.8074506E-01
       -2   -1    0    0    0  501  0.00000000000E+00  0.00000000000E+00  0.10767051393E+04  0.10767051393E+04  0.25500000920E-02 0. -1.
        2   -1    0    0  501    0  0.00000000000E+00  0.00000000000E+00 -0.31283844182E+04  0.31283844182E+04  0.25500000920E-02 0.  1.
    10030    2    1    2    0    0  0.00000000000E+00  0.00000000000E+00 -0.20516792789E+04  0.42050895575E+04  0.36706117096E+04 0.  0.
        4    1    3    3  502    0  0.13901292536E+04 -0.10244646758E+04 -0.17379252048E+04  0.24499740497E+04  0.12699999809E+01 0.  1.
       -4    1    3    3    0  502 -0.13901292536E+04  0.10244646758E+04 -0.31375407413E+03  0.17551155078E+04  0.12699999809E+01 0. -1.
</event>
<event>
 5   0  0.1092116E-06  0.3702767E+04  0.7818609E-02  0.8067349E-01
       -2   -1    0    0    0  501  0.00000000000E+00  0.00000000000E+00  0.10997661339E+04  0.10997661339E+04  0.25500000920E-02 0. -1.
        2   -1    0    0  501    0  0.00000000000E+00  0.00000000000E+00 -0.31166807994E+04  0.31166807994E+04  0.25500000920E-02 0.  1.
    10030    2    1    2    0    0  0.00000000000E+00  0.00000000000E+00 -0.20169146654E+04  0.42164469333E+04  0.37027665297E+04 0.  0.
        1    1    3    3  502    0  0.11784862028E+03  0.67529786481E+03 -0.29668406448E+04  0.30450055690E+04  0.50400001928E-02 0.  1.
       -1    1    3    3    0  502 -0.11784862028E+03 -0.67529786481E+03  0.94992597941E+03  0.11714413643E+04  0.50400001928E-02 0. -1.
</event>
<event>
 5   0  0.1051123E-06  0.3714844E+04  0.7818609E-02  0.8064680E-01
       -2   -1    0    0    0  501  0.00000000000E+00  0.00000000000E+00  0.15942798110E+04  0.15942798110E+04  0.25500000920E-02 0.  1.
        2   -1    0    0  501    0  0.00000000000E+00  0.00000000000E+00 -0.21639973377E+04  0.21639973377E+04  0.25500000920E-02 0. -1.
    10030    2    1    2    0    0  0.00000000000E+00  0.00000000000E+00 -0.56971752675E+03  0.37582771487E+04  0.37148444201E+04 0.  0.
        2    1    3    3  502    0  0.29022555548E+03 -0.33260685418E+03 -0.21101588807E+04  0.21558359618E+04  0.25500000920E-02 0. -1.
       -2    1    3    3    0  502 -0.29022555548E+03  0.33260685418E+03  0.15404413539E+04  0.16024411869E+04  0.25500000920E-02 0.  1.
</event>
<event>
 5   0  0.3682276E-07  0.2578626E+04  0.7818609E-02  0.8375498E-01
       -1   -1    0    0    0  501  0.00000000000E+00  0.00000000000E+00  0.11102464845E+04  0.11102464845E+04  0.50400001928E-02 0. -1.
        1   -1    0    0  501    0  0.00000000000E+00  0.00000000000E+00 -0.14972600829E+04  0.14972600829E+04  0.50400001928E-02 0.  1.
    10030    2    1    2    0    0  0.00000000000E+00  0.00000000000E+00 -0.38701359844E+03  0.26075065674E+04  0.25786257917E+04 0.  0.
        1    1    3    3  502    0 -0.75015919031E+03 -0.83246651247E+03  0.45127771893E+03  0.12080525174E+04  0.50400001928E-02 0. -1.
       -1    1    3    3    0  502  0.75015919031E+03  0.83246651247E+03 -0.83829131737E+03  0.13994540500E+04  0.50400001928E-02 0.  1.
</event>
<event>
 5   0  0.1066907E-06  0.3464432E+04  0.7818609E-02  0.8122271E-01
       -2   -1    0    0    0  501  0.00000000000E+00  0.00000000000E+00  0.16808528839E+04  0.16808528839E+04  0.25500000920E-02 0. -1.
        2   -1    0    0  501    0  0.00000000000E+00  0.00000000000E+00 -0.17851482439E+04  0.17851482439E+04  0.25500000920E-02 0.  1.
    10030    2    1    2    0    0  0.00000000000E+00  0.00000000000E+00 -0.10429536000E+03  0.34660011279E+04  0.34644315979E+04 0.  0.
        4    1    3    3  502    0  0.10862006970E+04  0.15568342683E+03 -0.13930909389E+04  0.17733508566E+04  0.12699999809E+01 0.  1.
       -4    1    3    3    0  502 -0.10862006970E+04 -0.15568342683E+03  0.12887955789E+04  0.16926502713E+04  0.12699999809E+01 0. -1.
</event>
<event>
 5   0  0.1066907E-06  0.3690363E+04  0.7818609E-02  0.8070101E-01
       -2   -1    0    0    0  501  0.00000000000E+00  0.00000000000E+00  0.22574993694E+04  0.22574993694E+04  0.25500000920E-02 0. -1.
        2   -1    0    0  501    0  0.00000000000E+00  0.00000000000E+00 -0.15081704916E+04  0.15081704916E+04  0.25500000920E-02 0.  1.
    10030    2    1    2    0    0  0.00000000000E+00  0.00000000000E+00  0.74932887788E+03  0.37656698610E+04  0.36903625479E+04 0.  0.
        4    1    3    3  502    0 -0.19035514067E+03 -0.70460334163E+03  0.21039422692E+04  0.22269431142E+04  0.12699999809E+01 0. -1.
       -4    1    3    3    0  502  0.19035514067E+03  0.70460334163E+03 -0.13546133913E+04  0.15387267468E+04  0.12699999809E+01 0.  1.
</event>
<event>
 5   0  0.1128166E-06  0.2530184E+04  0.7818609E-02  0.8392310E-01
       -2   -1    0    0    0  501  0.00000000000E+00  0.00000000000E+00  0.60782754787E+03  0.60782754788E+03  0.25500000920E-02 0.  1.
        2   -1    0    0  501    0  0.00000000000E+00  0.00000000000E+00 -0.26330796318E+04  0.26330796318E+04  0.25500000920E-02 0. -1.
    10030    2    1    2    0    0  0.00000000000E+00  0.00000000000E+00 -0.20252520840E+04  0.32409071797E+04  0.25301844486E+04 0.  0.
        3    1    3    3  502    0  0.10285218641E+04  0.45712329379E+03 -0.17524920475E+04  0.20827979541E+04  0.10100000352E+00 0. -1.
       -3    1    3    3    0  502 -0.10285218641E+04 -0.45712329379E+03 -0.27276003642E+03  0.11581092256E+04  0.10100000352E+00 0.  1.
</event>
<event>
 5   0  0.3675819E-07  0.2307860E+04  0.7818609E-02  0.8474829E-01
        1   -1    0    0  501    0  0.00000000000E+00  0.00000000000E+00  0.77464616931E+03  0.77464616932E+03  0.50400001928E-02 0. -1.
       -1   -1    0    0    0  501  0.00000000000E+00  0.00000000000E+00 -0.17189192276E+04  0.17189192276E+04  0.50400001928E-02 0.  1.
    10030    2    1    2    0    0  0.00000000000E+00  0.00000000000E+00 -0.94427305827E+03  0.24935653969E+04  0.23078597835E+04 0.  0.
        5    1    3    3  502    0 -0.25068287952E+03 -0.11069231315E+04 -0.24701701681E+03  0.11615335646E+04  0.46999998093E+01 0. -1.
       -5    1    3    3    0  502  0.25068287952E+03  0.11069231315E+04 -0.69725604146E+03  0.13320318323E+04  0.46999998093E+01 0.  1.
</event>
<event>
 5   0  0.3848431E-07  0.3749490E+04  0.7818609E-02  0.8057082E-01
       -1   -1    0    0    0  501  0.00000000000E+00  0.00000000000E+00  0.11846191676E+04  0.11846191677E+04  0.50400001928E-02 0. -1.
        1   -1    0    0  501    0  0.00000000000E+00  0.00000000000E+00 -0.29669194573E+04  0.29669194573E+04  0.50400001928E-02 0.  1.
    10030    2    1    2    0    0  0.00000000000E+00  0.00000000000E+00 -0.17823002897E+04  0.41515386250E+04  0.37494904497E+04 0.  0.
        2    1    3    3  502    0 -0.15377509375E+04 -0.10316070629E+04 -0.56686559517E+03  0.19365504592E+04  0.25500000920E-02 0. -1.
       -2    1    3    3    0  502  0.15377509375E+04  0.10316070629E+04 -0.12154346945E+04  0.22149881658E+04  0.25500000920E-02 0.  1.
</event>
<event>
 5   0  0.1092116E-06  0.3669491E+04  0.7818609E-02  0.8074757E-01
       -2   -1    0    0    0  501  0.00000000000E+00  0.00000000000E+00  0.20565684724E+04  0.20565684724E+04  0.25500000920E-02 0.  1.
        2   -1    0    0  501    0  0.00000000000E+00  0.00000000000E+00 -0.16368483914E+04  0.16368483914E+04  0.25500000920E-02 0. -1.
    10030    2    1    2    0    0  0.00000000000E+00  0.00000000000E+00  0.41972008102E+03  0.36934168638E+04  0.36694908616E+04 0.  0.
        1    1    3    3  502    0 -0.10200489556E+04 -0.94470725950E+03 -0.99515915228E+03  0.17097699893E+04  0.50400001928E-02 0. -1.
       -1    1    3    3    0  502  0.10200489556E+04  0.94470725950E+03  0.14148792333E+04  0.19836468745E+04  0.50400001928E-02 0.  1.
</event>
<event>
 5   0  0.1066907E-06  0.3706411E+04  0.7818609E-02  0.8066543E-01
       -2   -1    0    0    0  501  0.00000000000E+00  0.00000000000E+00  0.13680112986E+04  0.13680112986E+04  0.25500000920E-02 0.  1.
        2   -1    0    0  501    0  0.00000000000E+00  0.00000000000E+00 -0.25104839770E+04  0.25104839770E+04  0.25500000920E-02 0. -1.
    10030    2    1    2    0    0  0.00000000000E+00  0.00000000000E+00 -0.11424726784E+04  0.38784952756E+04  0.37064109030E+04 0.  0.
        4    1    3    3  502    0  0.14353916173E+04 -0.11605246333E+04 -0.39864753454E+03  0.18884088511E+04  0.12699999809E+01 0.  1.
       -4    1    3    3    0  502 -0.14353916173E+04  0.11605246333E+04 -0.74382514390E+03  0.19900864245E+04  0.12699999809E+01 0. -1.
</event>
<event>
 5   0  0.1128166E-06  0.3685870E+04  0.7818609E-02  0.8071100E-01
        2   -1    0    0  501    0  0.00000000000E+00  0.00000000000E+00  0.24434414753E+04  0.24434414753E+04  0.25500000920E-02 0.  1.
       -2   -1    0    0    0  501  0.00000000000E+00  0.00000000000E+00 -0.13900109146E+04  0.13900109146E+04  0.25500000920E-02 0. -1.
    10030    2    1    2    0    0  0.00000000000E+00  0.00000000000E+00  0.10534305607E+04  0.38334523899E+04  0.36858704914E+04 0.  0.
        3    1    3    3  502    0 -0.37816140291E+03  0.68301687068E+03  0.22629566047E+04  0.23938443344E+04  0.10100000352E+00 0.  1.
       -3    1    3    3    0  502  0.37816140291E+03 -0.68301687068E+03 -0.12095260440E+04  0.14396080555E+04  0.10100000352E+00 0. -1.
</event>
<event>
 5   0  0.3704306E-07  0.3690648E+04  0.7818609E-02  0.8070037E-01
       -1   -1    0    0    0  501  0.00000000000E+00  0.00000000000E+00  0.17445070184E+04  0.17445070184E+04  0.50400001928E-02 0.  1.
        1   -1    0    0  501    0  0.00000000000E+00  0.00000000000E+00 -0.19519675929E+04  0.19519675929E+04  0.50400001928E-02 0. -1.
    10030    2    1    2    0    0  0.00000000000E+00  0.00000000000E+00 -0.20746057450E+03  0.36964746113E+04  0.36906482712E+04 0.  0.
        3    1    3    3  502    0  0.16166168156E+04 -0.86734179352E+03 -0.30276350192E+03  0.18594078261E+04  0.10100000352E+00 0.  1.
       -3    1    3    3    0  502 -0.16166168156E+04  0.86734179352E+03  0.95302927421E+02  0.18370667852E+04  0.10100000352E+00 0. -1.
</event>
<event>
 5   0  0.1051123E-06  0.3506147E+04  0.7818609E-02  0.8112335E-01
       -2   -1    0    0    0  501  0.00000000000E+00  0.00000000000E+00  0.13182537335E+04  0.13182537335E+04  0.25500000920E-02 0.  1.
        2   -1    0    0  501    0  0.00000000000E+00  0.00000000000E+00 -0.23313162954E+04  0.23313162954E+04  0.25500000920E-02 0. -1.
    10030    2    1    2    0    0  0.00000000000E+00  0.00000000000E+00 -0.10130625619E+04  0.36495700289E+04  0.35061468369E+04 0.  0.
        2    1    3    3  502    0 -0.92011811037E+03 -0.23140225648E+03  0.10279149111E+04  0.13988471703E+04  0.25500000920E-02 0.  1.
       -2    1    3    3    0  502  0.92011811037E+03  0.23140225648E+03 -0.20409774730E+04  0.22507228587E+04  0.25500000920E-02 0. -1.
</event>
<event>
 5   0  0.3682276E-07  0.3072279E+04  0.7818609E-02  0.8223387E-01
        1   -1    0    0  501    0  0.00000000000E+00  0.00000000000E+00  0.13078876927E+04  0.13078876927E+04  0.50400001928E-02 0.  1.
       -1   -1    0    0    0  501  0.00000000000E+00  0.00000000000E+00 -0.18042262044E+04  0.18042262044E+04  0.50400001928E-02 0. -1.
    10030    2    1    2    0    0  0.00000000000E+00  0.00000000000E+00 -0.49633851167E+03  0.31121138971E+04  0.30722794454E+04 0.  0.
        1    1    3    3  502    0  0.55512277250E+03  0.38974750640E+03  0.11479830641E+04  0.13333902380E+04  0.50400001928E-02 0.  1.
       -1    1    3    3    0  502 -0.55512277250E+03 -0.38974750640E+03 -0.16443215757E+04  0.17787236592E+04  0.50400001928E-02 0. -1.
</event>
<event>
 5   0  0.3848431E-07  0.3700836E+04  0.7818609E-02  0.8067777E-01
        1   -1    0    0  501    0  0.00000000000E+00  0.00000000000E+00  0.34024249474E+04  0.34024249474E+04  0.50400001928E-02 0. -1.
       -1   -1    0    0    0  501  0.00000000000E+00  0.00000000000E+00 -0.10063547180E+04  0.10063547180E+04  0.50400001928E-02 0.  1.
    10030    2    1    2    0    0  0.00000000000E+00  0.00000000000E+00  0.23960702294E+04  0.44087796654E+04  0.37008357966E+04 0.  0.
        2    1    3    3  502    0 -0.13778035415E+04 -0.70670919191E+03 -0.88016497288E+01  0.15485018404E+04  0.25500000920E-02 0.  1.
       -2    1    3    3    0  502  0.13778035415E+04  0.70670919191E+03  0.24048718791E+04  0.28602778249E+04  0.25500000920E-02 0. -1.
</event>
<event>
 5   0  0.1128530E-06  0.2321926E+04  0.7818609E-02  0.8469326E-01
       -2   -1    0    0    0  501  0.00000000000E+00  0.00000000000E+00  0.92732553488E+03  0.92732553489E+03  0.25500000920E-02 0.  1.
        2   -1    0    0  501    0  0.00000000000E+00  0.00000000000E+00 -0.14534654169E+04  0.14534654169E+04  0.25500000920E-02 0. -1.
    10030    2    1    2    0    0  0.00000000000E+00  0.00000000000E+00 -0.52613988206E+03  0.23807909518E+04  0.23219264374E+04 0.  0.
        5    1    3    3  502    0 -0.65245267193E+02 -0.83571159508E+03  0.56050039848E+03  0.10083915915E+04  0.46999998093E+01 0.  1.
       -5    1    3    3    0  502  0.65245267193E+02  0.83571159508E+03 -0.10866402805E+04  0.13723993604E+04  0.46999998093E+01 0. -1.
</event>
<event>
 5   0  0.3682276E-07  0.3721048E+04  0.7818609E-02  0.8063313E-01
       -1   -1    0    0    0  501  0.00000000000E+00  0.00000000000E+00  0.16070668183E+04  0.16070668184E+04  0.50400001928E-02 0. -1.
        1   -1    0    0  501    0  0.00000000000E+00  0.00000000000E+00 -0.21539545710E+04  0.21539545710E+04  0.50400001928E-02 0.  1.
    10030    2    1    2    0    0  0.00000000000E+00  0.00000000000E+00 -0.54688775269E+03  0.37610213894E+04  0.37210476586E+04 0.  0.
        1    1    3    3  502    0  0.98339133956E+03  0.29319245494E+03 -0.18420592700E+04  0.21086020717E+04  0.50400001928E-02 0. -1.
       -1    1    3    3    0  502 -0.98339133956E+03 -0.29319245494E+03  0.12951715173E+04  0.16524193177E+04  0.50400001928E-02 0.  1.
</event>
<event>
 5   0  0.1066907E-06  0.3730587E+04  0.7818609E-02  0.8061217E-01
        2   -1    0    0  501    0  0.00000000000E+00  0.00000000000E+00  0.31868007822E+04  0.31868007822E+04  0.25500000920E-02 0. -1.
       -2   -1    0    0    0  501  0.00000000000E+00  0.00000000000E+00 -0.10917908837E+04  0.10917908837E+04  0.25500000920E-02 0.  1.
    10030    2    1    2    0    0  0.00000000000E+00  0.00000000000E+00  0.20950098985E+04  0.42785916659E+04  0.37305871078E+04 0.  0.
        4    1    3    3  502    0  0.11550478844E+04 -0.72295812982E+03 -0.41338644238E+03  0.14239712203E+04  0.12699999809E+01 0.  1.
       -4    1    3    3    0  502 -0.11550478844E+04  0.72295812982E+03  0.25083963409E+04  0.28546204456E+04  0.12699999809E+01 0. -1.
</event>
<event>
 5   0  0.1128166E-06  0.3714503E+04  0.7818609E-02  0.8064755E-01
       -2   -1    0    0    0  501  0.00000000000E+00  0.00000000000E+00  0.15961031483E+04  0.15961031483E+04  0.25500000920E-02 0.  1.
        2   -1    0    0  501    0  0.00000000000E+00  0.00000000000E+00 -0.21611277545E+04  0.21611277545E+04  0.25500000920E-02 0. -1.
    10030    2    1    2    0    0  0.00000000000E+00  0.00000000000E+00 -0.56502460619E+03  0.37572309028E+04  0.37145028270E+04 0.  0.
        3    1    3    3  502    0  0.15254938192E+04 -0.24545956576E+02  0.78874960141E+03  0.17175156012E+04  0.10100000352E+00 0.  1.
       -3    1    3    3    0  502 -0.15254938192E+04  0.24545956576E+02 -0.13537742076E+04  0.20397153016E+04  0.10100000352E+00 0. -1.
</event>
<event>
 5   0  0.1128166E-06  0.3677564E+04  0.7818609E-02  0.8072952E-01
        2   -1    0    0  501    0  0.00000000000E+00  0.00000000000E+00  0.16763727611E+04  0.16763727611E+04  0.25500000920E-02 0.  1.
       -2   -1    0    0    0  501  0.00000000000E+00  0.00000000000E+00 -0.20169259062E+04  0.20169259062E+04  0.25500000920E-02 0. -1.
    10030    2    1    2    0    0  0.00000000000E+00  0.00000000000E+00 -0.34055314514E+03  0.36932986673E+04  0.36775642213E+04 0.  0.
        3    1    3    3  502    0 -0.10207635111E+04  0.44749989197E+03  0.12984804167E+04  0.17112176079E+04  0.10100000352E+00 0.  1.
       -3    1    3    3    0  502  0.10207635111E+04 -0.44749989197E+03 -0.16390335619E+04  0.19820810594E+04  0.10100000352E+00 0. -1.
</event>
<event>
 5   0  0.3675819E-07  0.3705845E+04  0.7818609E-02  0.8066668E-01
        1   -1    0    0  501    0  0.00000000000E+00  0.00000000000E+00  0.24206354035E+04  0.24206354036E+04  0.50400001928E-02 0.  1.
       -1   -1    0    0    0  501  0.00000000000E+00  0.00000000000E+00 -0.14183552723E+04  0.14183552723E+04  0.50400001928E-02 0. -1.
    10030    2    1    2    0    0  0.00000000000E+00  0.00000000000E+00  0.10022801312E+04  0.38389906759E+04  0.37058445661E+04 0.  0.
        5    1    3    3  502    0  0.72011845789E+03  0.16425205519E+04  0.98354763874E+03  0.20454418605E+04  0.46999998093E+01 0.  1.
       -5    1    3    3    0  502 -0.72011845789E+03 -0.16425205519E+04  0.18732492485E+02  0.17935488154E+04  0.46999998093E+01 0. -1.
</event>
<event>
 5   0  0.1051123E-06  0.3724218E+04  0.7818609E-02  0.8062616E-01
        2   -1    0    0  501    0  0.00000000000E+00  0.00000000000E+00  0.11103342943E+04  0.11103342943E+04  0.25500000920E-02 0.  1.
       -2   -1    0    0    0  501  0.00000000000E+00  0.00000000000E+00 -0.31228887453E+04  0.31228887453E+04  0.25500000920E-02 0. -1.
    10030    2    1    2    0    0  0.00000000000E+00  0.00000000000E+00 -0.20125544509E+04  0.42332230396E+04  0.37242182918E+04 0.  0.
        2    1    3    3  502    0  0.16583561990E+04  0.84050935215E+03 -0.88788171655E+03  0.20603240513E+04  0.25500000920E-02 0.  1.
       -2    1    3    3    0  502 -0.16583561990E+04 -0.84050935215E+03 -0.11246727344E+04  0.21728989883E+04  0.25500000920E-02 0. -1.
</event>
<event>
 5   0  0.1066907E-06  0.3531847E+04  0.7818609E-02  0.8106284E-01
       -2   -1    0    0    0  501  0.00000000000E+00  0.00000000000E+00  0.12543180491E+04  0.12543180491E+04  0.25500000920E-02 0. -1.
        2   -1    0    0  501    0  0.00000000000E+00  0.00000000000E+00 -0.24862005540E+04  0.24862005540E+04  0.25500000920E-02 0.  1.
    10030    2    1    2    0    0  0.00000000000E+00  0.00000000000E+00 -0.12318825049E+04  0.37405186031E+04  0.35318472382E+04 0.  0.
        4    1    3    3  502    0 -0.11794871340E+04 -0.11669664051E+04  0.24330242621E+02  0.16593956923E+04  0.12699999809E+01 0. -1.
       -4    1    3    3    0  502  0.11794871340E+04  0.11669664051E+04 -0.12562127476E+04  0.20811229108E+04  0.12699999809E+01 0.  1.
</event>
<event>
 5   0  0.1066907E-06  0.2433611E+04  0.7818609E-02  0.8427026E-01
        2   -1    0    0  501    0  0.00000000000E+00  0.00000000000E+00  0.20232735080E+04  0.20232735080E+04  0.25500000920E-02 0. -1.
       -2   -1    0    0    0  501  0.00000000000E+00  0.00000000000E+00 -0.73179237472E+03  0.73179237472E+03  0.25500000920E-02 0.  1.
    10030    2    1    2    0    0  0.00000000000E+00  0.00000000000E+00  0.12914811333E+04  0.27550658827E+04  0.24336114112E+04 0.  0.
        4    1    3    3  502    0  0.97529963001E+03  0.37343276708E+02  0.14683659117E+04  0.17631517099E+04  0.12699999809E+01 0. -1.
       -4    1    3    3    0  502 -0.97529963001E+03 -0.37343276708E+02 -0.17688477836E+03  0.99191417286E+03  0.12699999809E+01 0.  1.
</event>
<event>
 5   0  0.3764495E-07  0.2323040E+04  0.7818609E-02  0.8468892E-01
        1   -1    0    0  501    0  0.00000000000E+00  0.00000000000E+00  0.75226276783E+03  0.75226276785E+03  0.50400001928E-02 0. -1.
       -1   -1    0    0    0  501  0.00000000000E+00  0.00000000000E+00 -0.17934271698E+04  0.17934271698E+04  0.50400001928E-02 0.  1.
    10030    2    1    2    0    0  0.00000000000E+00  0.00000000000E+00 -0.10411644020E+04  0.25456899376E+04  0.23230398074E+04 0.  0.
        4    1    3    3  502    0  0.22052427950E+03  0.58532246640E+03  0.55194291995E+03  0.83419179288E+03  0.12699999809E+01 0. -1.
       -4    1    3    3    0  502 -0.22052427950E+03 -0.58532246640E+03 -0.15931073219E+04  0.17114981448E+04  0.12699999809E+01 0.  1.
</event>
<event>
 5   0  0.3675819E-07  0.3607400E+04  0.7818609E-02  0.8088799E-01
       -1   -1    0    0    0  501  0.00000000000E+00  0.00000000000E+00  0.15342852060E+04  0.15342852060E+04  0.50400001928E-02 0.  1.
        1   -1    0    0  501    0  0.00000000000E+00  0.00000000000E+00 -0.21204236070E+04  0.21204236070E+04  0.50400001928E-02 0. -1.
    10030    2    1    2    0    0  0.00000000000E+00  0.00000000000E+00 -0.58613840095E+03  0.36547088130E+04  0.36074004883E+04 0.  0.
        5    1    3    3  502    0 -0.10792456664E+04  0.12623862838E+04 -0.10058021933E+04  0.19416617831E+04  0.46999998093E+01 0. -1.
       -5    1    3    3    0  502  0.10792456664E+04 -0.12623862838E+04  0.41966379230E+03  0.17130470299E+04  0.46999998093E+01 0.  1.
</event>
<event>
 5   0  0.3682276E-07  0.3744374E+04  0.7818609E-02  0.8058198E-01
       -1   -1    0    0    0  501  0.00000000000E+00  0.00000000000E+00  0.17006501330E+04  0.17006501330E+04  0.50400001928E-02 0.  1.
        1   -1    0    0  501    0  0.00000000000E+00  0.00000000000E+00 -0.20610263419E+04  0.20610263419E+04  0.50400001928E-02 0. -1.
    10030    2    1    2    0    0  0.00000000000E+00  0.00000000000E+00 -0.36037620884E+03  0.37616764749E+04  0.37443742988E+04 0.  0.
        1    1    3    3  502    0 -0.11287467082E+04 -0.19730473877E+03  0.13072230101E+04  0.17383412465E+04  0.50400001928E-02 0.  1.
       -1    1    3    3    0  502  0.11287467082E+04  0.19730473877E+03 -0.16675992190E+04  0.20233352284E+04  0.50400001928E-02 0. -1.
</event>
<event>
 5   0  0.3764495E-07  0.3845087E+04  0.7818609E-02  0.8036548E-01
        1   -1    0    0  501    0  0.00000000000E+00  0.00000000000E+00  0.19717818507E+04  0.19717818507E+04  0.50400001928E-02 0.  1.
       -1   -1    0    0    0  501  0.00000000000E+00  0.00000000000E+00 -0.18745344531E+04  0.18745344531E+04  0.50400001928E-02 0. -1.
    10030    2    1    2    0    0  0.00000000000E+00  0.00000000000E+00  0.97247397535E+02  0.38463163038E+04  0.38450867419E+04 0.  0.
        4    1    3    3  502    0 -0.15794062201E+04  0.10348762743E+04 -0.31298669626E+03  0.19140154639E+04  0.12699999809E+01 0. -1.
       -4    1    3    3    0  502  0.15794062201E+04 -0.10348762743E+04  0.41023409380E+03  0.19323008399E+04  0.12699999809E+01 0.  1.
</event>
<event>
 5   0  0.3682276E-07  0.3204029E+04  0.7818609E-02  0.8187754E-01
       -1   -1    0    0    0  501  0.00000000000E+00  0.00000000000E+00  0.15240406190E+04  0.15240406190E+04  0.50400001928E-02 0.  1.
        1   -1    0    0  501    0  0.00000000000E+00  0.00000000000E+00 -0.16839777685E+04  0.16839777685E+04  0.50400001928E-02 0. -1.
    10030    2    1    2    0    0  0.00000000000E+00  0.00000000000E+00 -0.15993714951E+03  0.32080183875E+04  0.32040290390E+04 0.  0.
        1    1    3    3  502    0 -0.14156432501E+04 -0.26959195418E+03 -0.78064336594E+03  0.16389416397E+04  0.50400001928E-02 0.  1.
       -1    1    3    3    0  502  0.14156432501E+04  0.26959195418E+03  0.62070621643E+03  0.15690767478E+04  0.50400001928E-02 0. -1.
</event>
<event>
 5   0  0.1051123E-06  0.3751523E+04  0.7818609E-02  0.8056639E-01
       -2   -1    0    0    0  501  0.00000000000E+00  0.00000000000E+00  0.15993741159E+04  0.15993741159E+04  0.25500000920E-02 0. -1.
        2   -1    0    0  501    0  0.00000000000E+00  0.00000000000E+00 -0.21999115150E+04  0.21999115150E+04  0.25500000920E-02 0.  1.
    10030    2    1    2    0    0  0.00000000000E+00  0.00000000000E+00 -0.60053739911E+03  0.37992856309E+04  0.37515231757E+04 0.  0.
        2    1    3    3  502    0  0.13362562706E+03  0.12482874798E+04 -0.17117141681E+04  0.21227441753E+04  0.25500000920E-02 0.  1.
       -2    1    3    3    0  502 -0.13362562706E+03 -0.12482874798E+04  0.11111767690E+04  0.16765414556E+04  0.25500000920E-02 0. -1.
</event>
<event>
 5   0  0.3764495E-07  0.3712837E+04  0.7818609E-02  0.8065123E-01
        1   -1    0    0  501    0  0.00000000000E+00  0.00000000000E+00  0.23997641014E+04  0.23997641014E+04  0.50400001928E-02 0. -1.
       -1   -1    0    0    0  501  0.00000000000E+00  0.00000000000E+00 -0.14360955451E+04  0.14360955451E+04  0.50400001928E-02 0.  1.
    10030    2    1    2    0    0  0.00000000000E+00  0.00000000000E+00  0.96366855629E+03  0.38358596466E+04  0.37128374785E+04 0.  0.
        4    1    3    3  502    0 -0.91360101964E+03 -0.14617768483E+04 -0.23007736053E+03  0.17390789465E+04  0.12699999809E+01 0.  1.
       -4    1    3    3    0  502  0.91360101964E+03  0.14617768483E+04  0.11937459168E+04  0.20967807001E+04  0.12699999809E+01 0. -1.
</event>
<event>
 5   0  0.1051123E-06  0.3618274E+04  0.7818609E-02  0.8086319E-01
       -2   -1    0    0    0  501  0.00000000000E+00  0.00000000000E+00  0.35139355437E+04  0.35139355437E+04  0.25500000920E-02 0.  1.
        2   -1    0    0  501    0  0.00000000000E+00  0.00000000000E+00 -0.93142772277E+03  0.93142772278E+03  0.25500000920E-02 0. -1.
    10030    2    1    2    0    0  0.00000000000E+00  0.00000000000E+00  0.25825078209E+04  0.44453632665E+04  0.36182741640E+04 0.  0.
        2    1    3    3  502    0 -0.14254509978E+04  0.48060091117E+03  0.56485105980E+02  0.15053499095E+04  0.25500000920E-02 0. -1.
       -2    1    3    3    0  502  0.14254509978E+04 -0.48060091117E+03  0.25260227150E+04  0.29400133570E+04  0.25500000920E-02 0.  1.
</event>
<event>
 5   0  0.3682276E-07  0.3712313E+04  0.7818609E-02  0.8065239E-01
       -1   -1    0    0    0  501  0.00000000000E+00  0.00000000000E+00  0.17754819977E+04  0.17754819977E+04  0.50400001928E-02 0. -1.
        1   -1    0    0  501    0  0.00000000000E+00  0.00000000000E+00 -0.19404965096E+04  0.19404965096E+04  0.50400001928E-02 0.  1.
    10030    2    1    2    0    0  0.00000000000E+00  0.00000000000E+00 -0.16501451194E+03  0.37159785073E+04  0.37123128206E+04 0.  0.
        1    1    3    3  502    0  0.37217098070E+03  0.16107768887E+04  0.76224738651E+03  0.18204764492E+04  0.50400001928E-02 0. -1.
       -1    1    3    3    0  502 -0.37217098070E+03 -0.16107768887E+04 -0.92726189845E+03  0.18955020581E+04  0.50400001928E-02 0.  1.
</event>
<event>
 5   0  0.3675819E-07  0.3581775E+04  0.7818609E-02  0.8094679E-01
        1   -1    0    0  501    0  0.00000000000E+00  0.00000000000E+00  0.19510495515E+04  0.19510495515E+04  0.50400001928E-02 0. -1.
       -1   -1    0    0    0  501  0.00000000000E+00  0.00000000000E+00 -0.16438735632E+04  0.16438735632E+04  0.50400001928E-02 0.  1.
    10030    2    1    2    0    0  0.00000000000E+00  0.00000000000E+00  0.30717598837E+03  0.35949231147E+04  0.35817754135E+04 0.  0.
        5    1    3    3  502    0 -0.60448756333E+03 -0.66547004858E+03  0.17081443761E+04  0.19302939930E+04  0.46999998093E+01 0. -1.
       -5    1    3    3    0  502  0.60448756333E+03  0.66547004858E+03 -0.14009683877E+04  0.16646291218E+04  0.46999998093E+01 0.  1.
</event>
<event>
 5   0  0.1051123E-06  0.3167369E+04  0.7818609E-02  0.8197488E-01
        2   -1    0    0  501    0  0.00000000000E+00  0.00000000000E+00  0.11379283280E+04  0.11379283280E+04  0.25500000920E-02 0. -1.
       -2   -1    0    0    0  501  0.00000000000E+00  0.00000000000E+00 -0.22040548443E+04  0.22040548443E+04  0.25500000920E-02 0.  1.
    10030    2    1    2    0    0  0.00000000000E+00  0.00000000000E+00 -0.10661265164E+04  0.33419831723E+04  0.31673689042E+04 0.  0.
        2    1    3    3  502    0  0.20576621677E+03  0.68622902461E+03 -0.20233024825E+04  0.21463930083E+04  0.25500000920E-02 0.  1.
       -2    1    3    3    0  502 -0.20576621677E+03 -0.68622902461E+03  0.95717596614E+03  0.11955901640E+04  0.25500000920E-02 0. -1.
</event>
<event>
 5   0  0.1092116E-06  0.3641334E+04  0.7818609E-02  0.8081089E-01
       -2   -1    0    0    0  501  0.00000000000E+00  0.00000000000E+00  0.37956161410E+04  0.37956161410E+04  0.25500000920E-02 0. -1.
        2   -1    0    0  501    0  0.00000000000E+00  0.00000000000E+00 -0.87333087398E+03  0.87333087399E+03  0.25500000920E-02 0.  1.
    10030    2    1    2    0    0  0.00000000000E+00  0.00000000000E+00  0.29222852670E+04  0.46689470150E+04  0.36413342399E+04 0.  0.
        1    1    3    3  502    0 -0.68684274562E+03  0.14216171633E+04  0.26237031243E+04  0.30621179600E+04  0.50400001928E-02 0. -1.
       -1    1    3    3    0  502  0.68684274562E+03 -0.14216171633E+04  0.29858214268E+03  0.16068290550E+04  0.50400001928E-02 0.  1.
</event>
<event>
 5   0  0.1128530E-06  0.3709675E+04  0.7818609E-02  0.8065821E-01
        2   -1    0    0  501    0  0.00000000000E+00  0.00000000000E+00  0.24726735616E+04  0.24726735616E+04  0.25500000920E-02 0.  1.
       -2   -1    0    0    0  501  0.00000000000E+00  0.00000000000E+00 -0.13913770578E+04  0.13913770578E+04  0.25500000920E-02 0. -1.
    10030    2    1    2    0    0  0.00000000000E+00  0.00000000000E+00  0.10812965038E+04  0.38640506194E+04  0.37096745221E+04 0.  0.
        5    1    3    3  502    0  0.74827959007E+03 -0.16373968866E+03 -0.12189299823E+04  0.14396337806E+04  0.46999998093E+01 0. -1.
       -5    1    3    3    0  502 -0.74827959007E+03  0.16373968866E+03  0.23002264861E+04  0.24244168387E+04  0.46999998093E+01 0.  1.
</event>
<event>
 5   0  0.3764495E-07  0.3797732E+04  0.7818609E-02  0.8046642E-01
        1   -1    0    0  501    0  0.00000000000E+00  0.00000000000E+00  0.19467892334E+04  0.19467892334E+04  0.50400001928E-02 0.  1.
       -1   -1    0    0    0  501  0.00000000000E+00  0.00000000000E+00 -0.18521224810E+04  0.18521224810E+04  0.50400001928E-02 0. -1.
    10030    2    1    2    0    0  0.00000000000E+00  0.00000000000E+00  0.94666752392E+02  0.37989117144E+04  0.37977320100E+04 0.  0.
        4    1    3    3  502    0 -0.15995124151E+04 -0.77372598177E+03  0.71731649125E+03  0.19161514612E+04  0.12699999809E+01 0.  1.
       -4    1    3    3    0  502  0.15995124151E+04  0.77372598177E+03 -0.62264973885E+03  0.18827602532E+04  0.12699999809E+01 0. -1.
</event>
<event>
 5   0  0.3704306E-07  0.3471465E+04  0.7818609E-02  0.8120586E-01
        1   -1    0    0  501    0  0.00000000000E+00  0.00000000000E+00  0.14655041142E+04  0.14655041143E+04  0.50400001928E-02 0. -1.
       -1   -1    0    0    0  501  0.00000000000E+00  0.00000000000E+00 -0.20557895912E+04  0.20557895912E+04  0.50400001928E-02 0.  1.
    10030    2    1    2    0    0  0.00000000000E+00  0.00000000000E+00 -0.59028547692E+03  0.35212937054E+04  0.34714654565E+04 0.  0.
        3    1    3    3  502    0  0.94558517492E+03  0.50224982356E+03 -0.16809079599E+04  0.19929470108E+04  0.10100000352E+00 0.  1.
       -3    1    3    3    0  502 -0.94558517492E+03 -0.50224982356E+03  0.10906224830E+04  0.15283466946E+04  0.10100000352E+00 0. -1.
</event>
<event>
 5   0  0.3675819E-07  0.3719282E+04  0.7818609E-02  0.8063702E-01
        1   -1    0    0  501    0  0.00000000000E+00  0.00000000000E+00  0.14909276853E+04  0.14909276853E+04  0.50400001928E-02 0.  1.
       -1   -1    0    0    0  501  0.00000000000E+00  0.00000000000E+00 -0.23195390752E+04  0.23195390752E+04  0.50400001928E-02 0. -1.
    10030    2    1    2    0    0  0.00000000000E+00  0.00000000000E+00 -0.82861138988E+03  0.38104667606E+04  0.37192822020E+04 0.  0.
        5    1    3    3  502    0  0.11137906419E+04  0.11708562511E+04  0.52847737066E+03  0.17002189200E+04  0.46999998093E+01 0.  1.
       -5    1    3    3    0  502 -0.11137906419E+04 -0.11708562511E+04 -0.13570887605E+04  0.21102478406E+04  0.46999998093E+01 0. -1.
</event>
<event>
 5   0  0.1128166E-06  0.3659553E+04  0.7818609E-02  0.8076985E-01
       -2   -1    0    0    0  501  0.00000000000E+00  0.00000000000E+00  0.26548173599E+04  0.26548173599E+04  0.25500000920E-02 0. -1.
        2   -1    0    0  501    0  0.00000000000E+00  0.00000000000E+00 -0.12611348776E+04  0.12611348776E+04  0.25500000920E-02 0.  1.
    10030    2    1    2    0    0  0.00000000000E+00  0.00000000000E+00  0.13936824823E+04  0.39159522375E+04  0.36595533969E+04 0.  0.
        3    1    3    3  502    0 -0.84959399531E+03 -0.16205071697E+04  0.71304526428E+03  0.19637431102E+04  0.10100000352E+00 0. -1.
       -3    1    3    3    0  502  0.84959399531E+03  0.16205071697E+04  0.68063721803E+03  0.19522091273E+04  0.10100000352E+00 0.  1.
</event>
<event>
 5   0  0.1051123E-06  0.3655730E+04  0.7818609E-02  0.8077844E-01
       -2   -1    0    0    0  501  0.00000000000E+00  0.00000000000E+00  0.13424806091E+04  0.13424806091E+04  0.25500000920E-02 0. -1.
        2   -1    0    0  501    0  0.00000000000E+00  0.00000000000E+00 -0.24887438740E+04  0.24887438740E+04  0.25500000920E-02 0.  1.
    10030    2    1    2    0    0  0.00000000000E+00  0.00000000000E+00 -0.11462632650E+04  0.38312244831E+04  0.36557299637E+04 0.  0.
        2    1    3    3  502    0  0.52794195421E+03  0.11773482697E+04  0.78370898672E+03  0.15096593758E+04  0.25500000920E-02 0. -1.
       -2    1    3    3    0  502 -0.52794195421E+03 -0.11773482697E+04 -0.19299722517E+04  0.23215651073E+04  0.25500000920E-02 0.  1.
</event>
<event>
 5   0  0.3848431E-07  0.2490512E+04  0.7818609E-02  0.8406374E-01
       -1   -1    0    0    0  501  0.00000000000E+00  0.00000000000E+00  0.10618373586E+04  0.10618373586E+04  0.50400001928E-02 0.  1.
        1   -1    0    0  501    0  0.00000000000E+00  0.00000000000E+00 -0.14603577123E+04  0.14603577123E+04  0.50400001928E-02 0. -1.
    10030    2    1    2    0    0  0.00000000000E+00  0.00000000000E+00 -0.39852035367E+03  0.25221950709E+04  0.24905118959E+04 0.  0.
        2    1    3    3  502    0 -0.21495144855E+03  0.12246024775E+04 -0.26947489217E+03  0.12721918372E+04  0.25500000920E-02 0. -1.
       -2    1    3    3    0  502  0.21495144855E+03 -0.12246024775E+04 -0.12904546150E+03  0.12500032337E+04  0.25500000920E-02 0.  1.
</event>
<event>
 5   0  0.3848431E-07  0.2737105E+04  0.7818609E-02  0.8323065E-01
       -1   -1    0    0    0  501  0.00000000000E+00  0.00000000000E+00  0.82390565132E+03  0.82390565134E+03  0.50400001928E-02 0. -1.
        1   -1    0    0  501    0  0.00000000000E+00  0.00000000000E+00 -0.22732411513E+04  0.22732411514E+04  0.50400001928E-02 0.  1.
    10030    2    1    2    0    0  0.00000000000E+00  0.00000000000E+00 -0.14493355000E+04  0.30971468027E+04  0.27371052091E+04 0.  0.
        2    1    3    3  502    0  0.78414350462E+02 -0.13533014745E+04 -0.51188225168E+03  0.14489986649E+04  0.25500000920E-02 0.  1.
       -2    1    3    3    0  502 -0.78414350462E+02  0.13533014745E+04 -0.93745324834E+03  0.16481481378E+04  0.25500000920E-02 0. -1.
</event>
<event>
 5   0  0.1066907E-06  0.3619090E+04  0.7818609E-02  0.8086133E-01
        2   -1    0    0  501    0  0.00000000000E+00  0.00000000000E+00  0.21413506154E+04  0.21413506154E+04  0.25500000920E-02 0. -1.
       -2   -1    0    0    0  501  0.00000000000E+00  0.00000000000E+00 -0.15291530576E+04  0.15291530576E+04  0.25500000920E-02 0.  1.
    10030    2    1    2    0    0  0.00000000000E+00  0.00000000000E+00  0.61219755780E+03  0.36705036729E+04  0.36190898529E+04 0.  0.
        4    1    3    3  502    0  0.30085907510E+03 -0.85347506628E+03 -0.12831709981E+04  0.15701800199E+04  0.12699999809E+01 0.  1.
       -4    1    3    3    0  502 -0.30085907510E+03  0.85347506628E+03  0.18953685559E+04  0.21003236530E+04  0.12699999809E+01 0. -1.
</event>
<event>
 5   0  0.3704306E-07  0.2543250E+04  0.7818609E-02  0.8387737E-01
       -1   -1    0    0    0  501  0.00000000000E+00  0.00000000000E+00  0.87905384769E+03  0.87905384770E+03  0.50400001928E-02 0. -1.
        1   -1    0    0  501    0  0.00000000000E+00  0.00000000000E+00 -0.18395127346E+04  0.18395127346E+04  0.50400001928E-02 0.  1.
    10030    2    1    2    0    0  0.00000000000E+00  0.00000000000E+00 -0.96045888687E+03  0.27185665823E+04  0.25432504770E+04 0.  0.
        3    1    3    3  502    0 -0.35053783322E+03  0.95774587940E+03 -0.12921104366E+04  0.16461176545E+04  0.10100000352E+00 0.  1.
       -3    1    3    3    0  502  0.35053783322E+03 -0.95774587940E+03  0.33165154969E+03  0.10724489278E+04  0.10100000352E+00 0. -1.
</event>
<event>
 5   0  0.1092116E-06  0.3676435E+04  0.7818609E-02  0.8073204E-01
        2   -1    0    0  501    0  0.00000000000E+00  0.00000000000E+00  0.13893374835E+04  0.13893374835E+04  0.25500000920E-02 0.  1.
       -2   -1    0    0    0  501  0.00000000000E+00  0.00000000000E+00 -0.24321253547E+04  0.24321253547E+04  0.25500000920E-02 0. -1.
    10030    2    1    2    0    0  0.00000000000E+00  0.00000000000E+00 -0.10427878712E+04  0.38214628382E+04  0.36764346423E+04 0.  0.
        1    1    3    3  502    0  0.73436074247E+03  0.16843031248E+04 -0.57717854087E+03  0.19259537337E+04  0.50400001928E-02 0. -1.
       -1    1    3    3    0  502 -0.73436074247E+03 -0.16843031248E+04 -0.46560933028E+03  0.18955091044E+04  0.50400001928E-02 0.  1.
</event>
<event>
 5   0  0.3848431E-07  0.3692719E+04  0.7818609E-02  0.8069577E-01
        1   -1    0    0  501    0  0.00000000000E+00  0.00000000000E+00  0.25292499273E+04  0.25292499273E+04  0.50400001928E-02 0. -1.
       -1   -1    0    0    0  501  0.00000000000E+00  0.00000000000E+00 -0.13478476473E+04  0.13478476473E+04  0.50400001928E-02 0.  1.
    10030    2    1    2    0    0  0.00000000000E+00  0.00000000000E+00  0.11814022800E+04  0.38770975746E+04  0.36927190871E+04 0.  0.
        2    1    3    3  502    0 -0.10491705289E+04  0.13440824054E+04 -0.15299290778E+03  0.17119354956E+04  0.25500000920E-02 0.  1.
       -2    1    3    3    0  502  0.10491705289E+04 -0.13440824054E+04  0.13343951878E+04  0.21651620790E+04  0.25500000920E-02 0. -1.
</event>
<event>
 5   0  0.3764495E-07  0.3536299E+04  0.7818609E-02  0.8105241E-01
       -1   -1    0    0    0  501  0.00000000000E+00  0.00000000000E+00  0.16313537798E+04  0.16313537798E+04  0.50400001928E-02 0. -1.
        1   -1    0    0  501    0  0.00000000000E+00  0.00000000000E+00 -0.19164161994E+04  0.19164161994E+04  0.50400001928E-02 0.  1.
    10030    2    1    2    0    0  0.00000000000E+00  0.00000000000E+00 -0.28506241960E+03  0.35477699792E+04  0.35362990883E+04 0.  0.
        4    1    3    3  502    0 -0.34125818689E+03  0.16512378208E+04 -0.67652432748E+03  0.18167912014E+04  0.12699999809E+01 0. -1.
       -4    1    3    3    0  502  0.34125818689E+03 -0.16512378208E+04  0.39146190788E+03  0.17309787778E+04  0.12699999809E+01 0.  1.
</event>
<event>
 5   0  0.1066907E-06  0.3729167E+04  0.7818609E-02  0.8061529E-01
        2   -1    0    0  501    0  0.00000000000E+00  0.00000000000E+00  0.20458743484E+04  0.20458743484E+04  0.25500000920E-02 0. -1.
       -2   -1    0    0    0  501  0.00000000000E+00  0.00000000000E+00 -0.16993569339E+04  0.16993569339E+04  0.25500000920E-02 0.  1.
    10030    2    1    2    0    0  0.00000000000E+00  0.00000000000E+00  0.34651741447E+03  0.37452312823E+04  0.37291665341E+04 0.  0.
        4    1    3    3  502    0  0.16065278430E+04 -0.91743205177E+03 -0.60242044051E+02  0.18510116145E+04  0.12699999809E+01 0.  1.
       -4    1    3    3    0  502 -0.16065278430E+04  0.91743205177E+03  0.40675945852E+03  0.18942196678E+04  0.12699999809E+01 0. -1.
</event>
<event>
 5   0  0.1051123E-06  0.3712494E+04  0.7818609E-02  0.8065199E-01
        2   -1    0    0  501    0  0.00000000000E+00  0.00000000000E+00  0.20993694624E+04  0.20993694624E+04  0.25500000920E-02 0.  1.
       -2   -1    0    0    0  501  0.00000000000E+00  0.00000000000E+00 -0.16412796474E+04  0.16412796474E+04  0.25500000920E-02 0. -1.
    10030    2    1    2    0    0  0.00000000000E+00  0.00000000000E+00  0.45808981502E+03  0.37406491098E+04  0.37124937015E+04 0.  0.
        2    1    3    3  502    0  0.17389242140E+04 -0.56049236601E+03 -0.10153363455E+03  0.18298410295E+04  0.25500000920E-02 0. -1.
       -2    1    3    3    0  502 -0.17389242140E+04  0.56049236601E+03  0.55962344957E+03  0.19108080803E+04  0.25500000920E-02 0.  1.
</event>
<event>
 5   0  0.3675819E-07  0.3590802E+04  0.7818609E-02  0.8092602E-01
       -1   -1    0    0    0  501  0.00000000000E+00  0.00000000000E+00  0.13631833417E+04  0.13631833417E+04  0.50400001928E-02 0. -1.
        1   -1    0    0  501    0  0.00000000000E+00  0.00000000000E+00 -0.23646595032E+04  0.23646595033E+04  0.50400001928E-02 0.  1.
    10030    2    1    2    0    0  0.00000000000E+00  0.00000000000E+00 -0.10014761615E+04  0.37278428450E+04  0.35908018289E+04 0.  0.
        5    1    3    3  502    0  0.76731242320E+03  0.85054246258E+02  0.11820620719E+04  0.14118411424E+04  0.46999998093E+01 0. -1.
       -5    1    3    3    0  502 -0.76731242320E+03 -0.85054246258E+02 -0.21835382334E+04  0.23160017026E+04  0.46999998093E+01 0.  1.
</event>
<event>
 5   0  0.1128530E-06  0.3710820E+04  0.7818609E-02  0.8065568E-01
       -2   -1    0    0    0  501  0.00000000000E+00  0.00000000000E+00  0.14962846456E+04  0.14962846456E+04  0.25500000920E-02 0.  1.
        2   -1    0    0  501    0  0.00000000000E+00  0.00000000000E+00 -0.23007292525E+04  0.23007292525E+04  0.25500000920E-02 0. -1.
    10030    2    1    2    0    0  0.00000000000E+00  0.00000000000E+00 -0.80444460684E+03  0.37970138981E+04  0.37108197769E+04 0.  0.
        5    1    3    3  502    0  0.13696417868E+04  0.20686684410E+03 -0.16653228175E+04  0.21661104985E+04  0.46999998093E+01 0. -1.
       -5    1    3    3    0  502 -0.13696417868E+04 -0.20686684410E+03  0.86087821066E+03  0.16309033996E+04  0.46999998093E+01 0.  1.
</event>
<event>
 5   0  0.1051123E-06  0.2491385E+04  0.7818609E-02  0.8406061E-01
        2   -1    0    0  501    0  0.00000000000E+00  0.00000000000E+00  0.15086336838E+04  0.15086336838E+04  0.25500000920E-02 0.  1.
       -2   -1    0    0    0  501  0.00000000000E+00  0.00000000000E+00 -0.10285799417E+04  0.10285799417E+04  0.25500000920E-02 0. -1.
    10030    2    1    2    0    0  0.00000000000E+00  0.00000000000E+00  0.48005374206E+03  0.25372136255E+04  0.24913854351E+04 0.  0.
        2    1    3    3  502    0 -0.38293226392E+03 -0.96049993915E+03  0.94746533070E+03  0.14024577729E+04  0.25500000920E-02 0.  1.
       -2    1    3    3    0  502  0.38293226392E+03  0.96049993915E+03 -0.46741158864E+03  0.11347558526E+04  0.25500000920E-02 0. -1.
</event>
<event>
 5   0  0.3490375E-07  0.2909644E+04  0.7818609E-02  0.8270014E-01
        4   -1    0    0  501    0  0.00000000000E+00  0.00000000000E+00  0.12962285278E+04  0.12962291500E+04  0.12699999809E+01 0.  1.
       -4   -1    0    0    0  501  0.00000000000E+00  0.00000000000E+00 -0.16328184554E+04  0.16328189493E+04  0.12699999809E+01 0. -1.
    10030    2    1    2    0    0  0.00000000000E+00  0.00000000000E+00 -0.33658992757E+03  0.29290480993E+04  0.29096443062E+04 0.  0.
        2    1    3    3  502    0  0.15867532528E+03 -0.13871279898E+04 -0.57992966885E+03  0.15118268220E+04  0.25500000920E-02 0. -1.
       -2    1    3    3    0  502 -0.15867532528E+03  0.13871279898E+04  0.24333974128E+03  0.14172212773E+04  0.25500000920E-02 0.  1.
</event>
<event>
 5   0  0.3704306E-07  0.3731232E+04  0.7818609E-02  0.8061075E-01
       -1   -1    0    0    0  501  0.00000000000E+00  0.00000000000E+00  0.18370682420E+04  0.18370682420E+04  0.50400001928E-02 0. -1.
        1   -1    0    0  501    0  0.00000000000E+00  0.00000000000E+00 -0.18946076557E+04  0.18946076557E+04  0.50400001928E-02 0.  1.
    10030    2    1    2    0    0  0.00000000000E+00  0.00000000000E+00 -0.57539413742E+02  0.37316758977E+04  0.37312322658E+04 0.  0.
        3    1    3    3  502    0  0.12035125400E+04 -0.14236608044E+04 -0.10138016522E+03  0.18669575432E+04  0.10100000352E+00 0. -1.
       -3    1    3    3    0  502 -0.12035125400E+04  0.14236608044E+04  0.43840751475E+02  0.18647183545E+04  0.10100000352E+00 0.  1.
</event>
<event>
 5   0  0.1092116E-06  0.2639716E+04  0.7818609E-02  0.8354834E-01
        2   -1    0    0  501    0  0.00000000000E+00  0.00000000000E+00  0.12598804336E+04  0.12598804336E+04  0.25500000920E-02 0.  1.
       -2   -1    0    0    0  501  0.00000000000E+00  0.00000000000E+00 -0.13826906710E+04  0.13826906710E+04  0.25500000920E-02 0. -1.
    10030    2    1    2    0    0  0.00000000000E+00  0.00000000000E+00 -0.12281023744E+03  0.26425711046E+04  0.26397158348E+04 0.  0.
        1    1    3    3  502    0  0.10868162053E+04 -0.14805951904E+03 -0.79632031895E+03  0.13554398311E+04  0.50400001928E-02 0. -1.
       -1    1    3    3    0  502 -0.10868162053E+04  0.14805951904E+03  0.67351008151E+03  0.12871312735E+04  0.50400001928E-02 0.  1.
</event>
<event>
 5   0  0.3704306E-07  0.3919097E+04  0.7818609E-02  0.8021069E-01
       -1   -1    0    0    0  501  0.00000000000E+00  0.00000000000E+00  0.17879570350E+04  0.17879570350E+04  0.50400001928E-02 0.  1.
        1   -1    0    0  501    0  0.00000000000E+00  0.00000000000E+00 -0.21476076157E+04  0.21476076157E+04  0.50400001928E-02 0. -1.
    10030    2    1    2    0    0  0.00000000000E+00  0.00000000000E+00 -0.35965058072E+03  0.39355646507E+04  0.39190969086E+04 0.  0.
        3    1    3    3  502    0 -0.49391091784E+03 -0.53948068128E+01  0.17244161642E+04  0.17937637014E+04  0.10100000352E+00 0.  1.
       -3    1    3    3    0  502  0.49391091784E+03  0.53948068128E+01 -0.20840667450E+04  0.21418009493E+04  0.10100000352E+00 0. -1.
</event>
<event>
 5   0  0.1051123E-06  0.3132876E+04  0.7818609E-02  0.8206773E-01
        2   -1    0    0  501    0  0.00000000000E+00  0.00000000000E+00  0.23165771316E+04  0.23165771316E+04  0.25500000920E-02 0.  1.
       -2   -1    0    0    0  501  0.00000000000E+00  0.00000000000E+00 -0.10592037978E+04  0.10592037978E+04  0.25500000920E-02 0. -1.
    10030    2    1    2    0    0  0.00000000000E+00  0.00000000000E+00  0.12573733339E+04  0.33757809294E+04  0.31328755454E+04 0.  0.
        2    1    3    3  502    0 -0.22470196249E+03 -0.12878861561E+03  0.22933463578E+04  0.23079243914E+04  0.25500000920E-02 0.  1.
       -2    1    3    3    0  502  0.22470196249E+03  0.12878861561E+03 -0.10359730240E+04  0.10678565380E+04  0.25500000920E-02 0. -1.
</event>
<event>
 5   0  0.1128166E-06  0.3646092E+04  0.7818609E-02  0.8080015E-01
       -2   -1    0    0    0  501  0.00000000000E+00  0.00000000000E+00  0.13019113813E+04  0.13019113813E+04  0.25500000920E-02 0.  1.
        2   -1    0    0  501    0  0.00000000000E+00  0.00000000000E+00 -0.25527826741E+04  0.25527826741E+04  0.25500000920E-02 0. -1.
    10030    2    1    2    0    0  0.00000000000E+00  0.00000000000E+00 -0.12508712928E+04  0.38546940555E+04  0.36460920545E+04 0.  0.
        3    1    3    3  502    0 -0.37779184715E+03  0.57136382610E+03  0.11606945842E+04  0.13477370773E+04  0.10100000352E+00 0.  1.
       -3    1    3    3    0  502  0.37779184715E+03 -0.57136382610E+03 -0.24115658769E+04  0.25069569782E+04  0.10100000352E+00 0. -1.
</event>
<event>
 5   0  0.1092116E-06  0.3684025E+04  0.7818609E-02  0.8071511E-01
       -2   -1    0    0    0  501  0.00000000000E+00  0.00000000000E+00  0.25855060333E+04  0.25855060333E+04  0.25500000920E-02 0.  1.
        2   -1    0    0  501    0  0.00000000000E+00  0.00000000000E+00 -0.13123193278E+04  0.13123193278E+04  0.25500000920E-02 0. -1.
    10030    2    1    2    0    0  0.00000000000E+00  0.00000000000E+00  0.12731867055E+04  0.38978253611E+04  0.36840247228E+04 0.  0.
        1    1    3    3  502    0  0.75617980551E+03 -0.81420301866E+03  0.21909591800E+04  0.24566311449E+04  0.50400001928E-02 0.  1.
       -1    1    3    3    0  502 -0.75617980551E+03  0.81420301866E+03 -0.91777247444E+03  0.14411942162E+04  0.50400001928E-02 0. -1.
</event>
<event>
 5   0  0.1128530E-06  0.3631868E+04  0.7818609E-02  0.8083231E-01
       -2   -1    0    0    0  501  0.00000000000E+00  0.00000000000E+00  0.11161292395E+04  0.11161292395E+04  0.25500000920E-02 0.  1.
        2   -1    0    0  501    0  0.00000000000E+00  0.00000000000E+00 -0.29545109949E+04  0.29545109949E+04  0.25500000920E-02 0. -1.
    10030    2    1    2    0    0  0.00000000000E+00  0.00000000000E+00 -0.18383817555E+04  0.40706402344E+04  0.36318678995E+04 0.  0.
        5    1    3    3  502    0  0.13348066931E+03 -0.18097587764E+04 -0.99479461049E+03  0.20694642604E+04  0.46999998093E+01 0. -1.
       -5    1    3    3    0  502 -0.13348066931E+03  0.18097587764E+04 -0.84358714497E+03  0.20011759740E+04  0.46999998093E+01 0.  1.
</event>
<event>
 5   0  0.3764495E-07  0.3106008E+04  0.7818609E-02  0.8214091E-01
       -1   -1    0    0    0  501  0.00000000000E+00  0.00000000000E+00  0.14821512415E+04  0.14821512415E+04  0.50400001928E-02 0.  1.
        1   -1    0    0  501    0  0.00000000000E+00  0.00000000000E+00 -0.16272437102E+04  0.16272437102E+04  0.50400001928E-02 0. -1.
    10030    2    1    2    0    0  0.00000000000E+00  0.00000000000E+00 -0.14509246869E+03  0.31093949516E+04  0.31060079106E+04 0.  0.
        4    1    3    3  502    0 -0.47347028378E+03 -0.70609750590E+03 -0.13736064494E+04  0.16154083348E+04  0.12699999809E+01 0. -1.
       -4    1    3    3    0  502  0.47347028378E+03  0.70609750590E+03  0.12285139807E+04  0.14939866168E+04  0.12699999809E+01 0.  1.
</event>
<event>
 5   0  0.3675819E-07  0.3755806E+04  0.7818609E-02  0.8055706E-01
       -1   -1    0    0    0  501  0.00000000000E+00  0.00000000000E+00  0.32574469180E+04  0.32574469180E+04  0.50400001928E-02 0.  1.
        1   -1    0    0  501    0  0.00000000000E+00  0.00000000000E+00 -0.10826021038E+04  0.10826021038E+04  0.50400001928E-02 0. -1.
    10030    2    1    2    0    0  0.00000000000E+00  0.00000000000E+00  0.21748448142E+04  0.43400490218E+04  0.37558055788E+04 0.  0.
        5    1    3    3  502    0  0.76764362991E+03 -0.99284465781E+03  0.27016825853E+04  0.29789474884E+04  0.46999998093E+01 0.  1.
       -5    1    3    3    0  502 -0.76764362991E+03  0.99284465781E+03 -0.52683777108E+03  0.13611015334E+04  0.46999998093E+01 0. -1.
</event>
<event>
 5   0  0.1066907E-06  0.3702155E+04  0.7818609E-02  0.8067484E-01
       -2   -1    0    0    0  501  0.00000000000E+00  0.00000000000E+00  0.12461294329E+04  0.12461294329E+04  0.25500000920E-02 0. -1.
        2   -1    0    0  501    0  0.00000000000E+00  0.00000000000E+00 -0.27497053518E+04  0.27497053519E+04  0.25500000920E-02 0.  1.
    10030    2    1    2    0    0  0.00000000000E+00  0.00000000000E+00 -0.15035759189E+04  0.39958347848E+04  0.37021554645E+04 0.  0.
        4    1    3    3  502    0 -0.97918902237E+03 -0.15673968186E+04 -0.86469619578E+03  0.20404031593E+04  0.12699999809E+01 0.  1.
       -4    1    3    3    0  502  0.97918902237E+03  0.15673968186E+04 -0.63887972316E+03  0.19554316255E+04  0.12699999809E+01 0. -1.
</event>
<event>
 5   0  0.3764495E-07  0.3736425E+04  0.7818609E-02  0.8059937E-01
        1   -1    0    0  501    0  0.00000000000E+00  0.00000000000E+00  0.21660221889E+04  0.21660221889E+04  0.50400001928E-02 0. -1.
       -1   -1    0    0    0  501  0.00000000000E+00  0.00000000000E+00 -0.16113495323E+04  0.16113495323E+04  0.50400001928E-02 0.  1.
    10030    2    1    2    0    0  0.00000000000E+00  0.00000000000E+00  0.55467265658E+03  0.37773717212E+04  0.37364254795E+04 0.  0.
        4    1    3    3  502    0 -0.37657667213E+03  0.23224332117E+03 -0.15576219607E+04  0.16192389372E+04  0.12699999809E+01 0.  1.
       -4    1    3    3    0  502  0.37657667213E+03 -0.23224332117E+03  0.21122946173E+04  0.21581327840E+04  0.12699999809E+01 0. -1.
</event>
<event>
 5   0  0.3704306E-07  0.2700847E+04  0.7818609E-02  0.8334730E-01
       -1   -1    0    0    0  501  0.00000000000E+00  0.00000000000E+00  0.78961166266E+03  0.78961166268E+03  0.50400001928E-02 0. -1.
        1   -1    0    0  501    0  0.00000000000E+00  0.00000000000E+00 -0.23095451324E+04  0.23095451324E+04  0.50400001928E-02 0.  1.
    10030    2    1    2    0    0  0.00000000000E+00  0.00000000000E+00 -0.15199334697E+04  0.30991567950E+04  0.27008471056E+04 0.  0.
        3    1    3    3  502    0 -0.35395156317E+03  0.12569454215E+04 -0.11548889450E+04  0.17432618814E+04  0.10100000352E+00 0.  1.
       -3    1    3    3    0  502  0.35395156317E+03 -0.12569454215E+04 -0.36504452472E+03  0.13558949137E+04  0.10100000352E+00 0. -1.
</event>
<event>
 5   0  0.1092116E-06  0.3676515E+04  0.7818609E-02  0.8073186E-01
       -2   -1    0    0    0  501  0.00000000000E+00  0.00000000000E+00  0.13621138876E+04  0.13621138876E+04  0.25500000920E-02 0.  1.
        2   -1    0    0  501    0  0.00000000000E+00  0.00000000000E+00 -0.24808429781E+04  0.24808429781E+04  0.25500000920E-02 0. -1.
    10030    2    1    2    0    0  0.00000000000E+00  0.00000000000E+00 -0.11187290906E+04  0.38429568657E+04  0.36765150202E+04 0.  0.
        1    1    3    3  502    0  0.11146863874E+04 -0.11987161964E+04  0.31501277568E+03  0.16669371046E+04  0.50400001928E-02 0.  1.
       -1    1    3    3    0  502 -0.11146863874E+04  0.11987161964E+04 -0.14337418662E+04  0.21760197611E+04  0.50400001928E-02 0. -1.
</event>
<event>
 5   0  0.3675819E-07  0.3658730E+04  0.7818609E-02  0.8077170E-01
        1   -1    0    0  501    0  0.00000000000E+00  0.00000000000E+00  0.18349437422E+04  0.18349437423E+04  0.50400001928E-02 0.  1.
       -1   -1    0    0    0  501  0.00000000000E+00  0.00000000000E+00 -0.18238033958E+04  0.18238033958E+04  0.50400001928E-02 0. -1.
    10030    2    1    2    0    0  0.00000000000E+00  0.00000000000E+00  0.11140346421E+02  0.36587471381E+04  0.36587301777E+04 0.  0.
        5    1    3    3  502    0  0.15092463435E+04 -0.58433919806E+03 -0.84723956942E+03  0.18267768889E+04  0.46999998093E+01 0. -1.
       -5    1    3    3    0  502 -0.15092463435E+04  0.58433919806E+03  0.85837991584E+03  0.18319702492E+04  0.46999998093E+01 0.  1.
</event>
<event>
 5   0  0.1066907E-06  0.3750903E+04  0.7818609E-02  0.8056774E-01
       -2   -1    0    0    0  501  0.00000000000E+00  0.00000000000E+00  0.24597591435E+04  0.24597591435E+04  0.25500000920E-02 0. -1.
        2   -1    0    0  501    0  0.00000000000E+00  0.00000000000E+00 -0.14299439291E+04  0.14299439291E+04  0.25500000920E-02 0.  1.
    10030    2    1    2    0    0  0.00000000000E+00  0.00000000000E+00  0.10298152144E+04  0.38897030725E+04  0.37509026403E+04 0.  0.
        4    1    3    3  502    0  0.71270580718E+03 -0.14400507004E+04 -0.48816070781E+03  0.16792849898E+04  0.12699999809E+01 0.  1.
       -4    1    3    3    0  502 -0.71270580718E+03  0.14400507004E+04  0.15179759222E+04  0.22104180828E+04  0.12699999809E+01 0. -1.
</event>
<event>
 5   0  0.1092116E-06  0.3348819E+04  0.7818609E-02  0.8150583E-01
       -2   -1    0    0    0  501  0.00000000000E+00  0.00000000000E+00  0.11394000851E+04  0.11394000851E+04  0.25500000920E-02 0. -1.
        2   -1    0    0  501    0  0.00000000000E+00  0.00000000000E+00 -0.24606343036E+04  0.24606343036E+04  0.25500000920E-02 0.  1.
    10030    2    1    2    0    0  0.00000000000E+00  0.00000000000E+00 -0.13212342185E+04  0.36000343887E+04  0.33488188574E+04 0.  0.
        1    1    3    3  502    0 -0.11939467749E+03 -0.40592735263E+03  0.10809803482E+04  0.11608404790E+04  0.50400001928E-02 0. -1.
       -1    1    3    3    0  502  0.11939467749E+03  0.40592735263E+03 -0.24022145666E+04  0.24391939096E+04  0.50400001928E-02 0.  1.
</event>
<event>
 5   0  0.1128166E-06  0.3637086E+04  0.7818609E-02  0.8082049E-01
        2   -1    0    0  501    0  0.00000000000E+00  0.00000000000E+00  0.12212921394E+04  0.12212921394E+04  0.25500000920E-02 0.  1.
       -2   -1    0    0    0  501  0.00000000000E+00  0.00000000000E+00 -0.27078679122E+04  0.27078679122E+04  0.25500000920E-02 0. -1.
    10030    2    1    2    0    0  0.00000000000E+00  0.00000000000E+00 -0.14865757727E+04  0.39291600516E+04  0.36370855342E+04 0.  0.
        3    1    3    3  502    0  0.52798907157E+03  0.88833681892E+03  0.87326903569E+03  0.13529647381E+04  0.10100000352E+00 0.  1.
       -3    1    3    3    0  502 -0.52798907157E+03 -0.88833681892E+03 -0.23598448084E+04  0.25761953135E+04  0.10100000352E+00 0. -1.
</event>
<event>
 5   0  0.1051123E-06  0.3630952E+04  0.7818609E-02  0.8083438E-01
       -2   -1    0    0    0  501  0.00000000000E+00  0.00000000000E+00  0.11121041714E+04  0.11121041714E+04  0.25500000920E-02 0.  1.
        2   -1    0    0  501    0  0.00000000000E+00  0.00000000000E+00 -0.29637088513E+04  0.29637088513E+04  0.25500000920E-02 0. -1.
    10030    2    1    2    0    0  0.00000000000E+00  0.00000000000E+00 -0.18516046799E+04  0.40758130227E+04  0.36309519283E+04 0.  0.
        2    1    3    3  502    0  0.46153057089E+03  0.52724034912E+02  0.10442627763E+04  0.11429238984E+04  0.25500000920E-02 0.  1.
       -2    1    3    3    0  502 -0.46153057089E+03 -0.52724034912E+02 -0.28958674562E+04  0.29328891243E+04  0.25500000920E-02 0. -1.
</event>
<event>
 5   0  0.1092116E-06  0.3697941E+04  0.7818609E-02  0.8068418E-01
        2   -1    0    0  501    0  0.00000000000E+00  0.00000000000E+00  0.21385087433E+04  0.21385087433E+04  0.25500000920E-02 0.  1.
       -2   -1    0    0    0  501  0.00000000000E+00  0.00000000000E+00 -0.15986332309E+04  0.15986332309E+04  0.25500000920E-02 0. -1.
    10030    2    1    2    0    0  0.00000000000E+00  0.00000000000E+00  0.53987551235E+03  0.37371419742E+04  0.36979405845E+04 0.  0.
        1    1    3    3  502    0 -0.17444074309E+04 -0.60438253347E+03  0.37327440092E+03  0.18834992196E+04  0.50400001928E-02 0. -1.
       -1    1    3    3    0  502  0.17444074309E+04  0.60438253347E+03  0.16660111143E+03  0.18536427547E+04  0.50400001928E-02 0.  1.
</event>
<event>
 5   0  0.1128530E-06  0.3690344E+04  0.7818609E-02  0.8070105E-01
        2   -1    0    0  501    0  0.00000000000E+00  0.00000000000E+00  0.18518877436E+04  0.18518877436E+04  0.25500000920E-02 0.  1.
       -2   -1    0    0    0  501  0.00000000000E+00  0.00000000000E+00 -0.18384808353E+04  0.18384808353E+04  0.25500000920E-02 0. -1.
    10030    2    1    2    0    0  0.00000000000E+00  0.00000000000E+00  0.13406908305E+02  0.36903685788E+04  0.36903442255E+04 0.  0.
        5    1    3    3  502    0  0.13180187445E+04  0.12622972017E+04 -0.26545711773E+03  0.18441955449E+04  0.46999998093E+01 0.  1.
       -5    1    3    3    0  502 -0.13180187445E+04 -0.12622972017E+04  0.27886402604E+03  0.18461730340E+04  0.46999998093E+01 0. -1.
</event>
<event>
 5   0  0.1051123E-06  0.3785767E+04  0.7818609E-02  0.8049216E-01
       -2   -1    0    0    0  501  0.00000000000E+00  0.00000000000E+00  0.33628769747E+04  0.33628769747E+04  0.25500000920E-02 0. -1.
        2   -1    0    0  501    0  0.00000000000E+00  0.00000000000E+00 -0.10654589342E+04  0.10654589342E+04  0.25500000920E-02 0.  1.
    10030    2    1    2    0    0  0.00000000000E+00  0.00000000000E+00  0.22974180404E+04  0.44283359089E+04  0.37857666687E+04 0.  0.
        2    1    3    3  502    0 -0.87745197505E+03  0.26771841483E+03 -0.78804240367E+03  0.12093824656E+04  0.25500000920E-02 0.  1.
       -2    1    3    3    0  502  0.87745197505E+03 -0.26771841483E+03  0.30854604441E+04  0.32189534433E+04  0.25500000920E-02 0. -1.
</event>
<event>
 5   0  0.3704306E-07  0.3686216E+04  0.7818609E-02  0.8071023E-01
       -1   -1    0    0    0  501  0.00000000000E+00  0.00000000000E+00  0.20617893458E+04  0.20617893458E+04  0.50400001928E-02 0.  1.
        1   -1    0    0  501    0  0.00000000000E+00  0.00000000000E+00 -0.16476208057E+04  0.16476208057E+04  0.50400001928E-02 0. -1.
    10030    2    1    2    0    0  0.00000000000E+00  0.00000000000E+00  0.41416854013E+03  0.37094101515E+04  0.36862159584E+04 0.  0.
        3    1    3    3  502    0 -0.16638767216E+04 -0.17736907634E+03  0.98466977222E+03  0.19415252005E+04  0.10100000352E+00 0.  1.
       -3    1    3    3    0  502  0.16638767216E+04  0.17736907634E+03 -0.57050123209E+03  0.17678849510E+04  0.10100000352E+00 0. -1.
</event>
<event>
 5   0  0.3682276E-07  0.3793761E+04  0.7818609E-02  0.8047495E-01
       -1   -1    0    0    0  501  0.00000000000E+00  0.00000000000E+00  0.16345476590E+04  0.16345476590E+04  0.50400001928E-02 0.  1.
        1   -1    0    0  501    0  0.00000000000E+00  0.00000000000E+00 -0.22013153598E+04  0.22013153598E+04  0.50400001928E-02 0. -1.
    10030    2    1    2    0    0  0.00000000000E+00  0.00000000000E+00 -0.56676770080E+03  0.38358630188E+04  0.37937605977E+04 0.  0.
        1    1    3    3  502    0 -0.20410233999E+03 -0.15604569622E+04  0.78736403504E+03  0.17597232225E+04  0.50400001928E-02 0.  1.
       -1    1    3    3    0  502  0.20410233999E+03  0.15604569622E+04 -0.13541317358E+04  0.20761397964E+04  0.50400001928E-02 0. -1.
</event>
<event>
 5   0  0.1051123E-06  0.3805222E+04  0.7818609E-02  0.8045035E-01
        2   -1    0    0  501    0  0.00000000000E+00  0.00000000000E+00  0.24924741783E+04  0.24924741783E+04  0.25500000920E-02 0. -1.
       -2   -1    0    0    0  501  0.00000000000E+00  0.00000000000E+00 -0.14523437560E+04  0.14523437560E+04  0.25500000920E-02 0.  1.
    10030    2    1    2    0    0  0.00000000000E+00  0.00000000000E+00  0.10401304223E+04  0.39448179343E+04  0.38052223639E+04 0.  0.
        2    1    3    3  502    0 -0.17148250819E+04  0.92467449386E+02 -0.32897559817E+03  0.17485423172E+04  0.25500000920E-02 0.  1.
       -2    1    3    3    0  502  0.17148250819E+04 -0.92467449386E+02  0.13691060205E+04  0.21962756171E+04  0.25500000920E-02 0. -1.
</event>
<event>
 5   0  0.1128530E-06  0.4057579E+04  0.7818609E-02  0.7993031E-01
        2   -1    0    0  501    0  0.00000000000E+00  0.00000000000E+00  0.22218193052E+04  0.22218193052E+04  0.25500000920E-02 0.  1.
       -2   -1    0    0    0  501  0.00000000000E+00  0.00000000000E+00 -0.18525303090E+04  0.18525303090E+04  0.25500000920E-02 0. -1.
    10030    2    1    2    0    0  0.00000000000E+00  0.00000000000E+00  0.36928899630E+03  0.40743496142E+04  0.40575793789E+04 0.  0.
        5    1    3    3  502    0 -0.72172381406E+03 -0.18748090635E+04  0.46895999352E+03  0.20629444621E+04  0.46999998093E+01 0.  1.
       -5    1    3    3    0  502  0.72172381406E+03  0.18748090635E+04 -0.99670997219E+02  0.20114051521E+04  0.46999998093E+01 0. -1.
</event>
<event>
 5   0  0.1128530E-06  0.3690802E+04  0.7818609E-02  0.8070003E-01
       -2   -1    0    0    0  501  0.00000000000E+00  0.00000000000E+00  0.10892935920E+04  0.10892935920E+04  0.25500000920E-02 0.  1.
        2   -1    0    0  501    0  0.00000000000E+00  0.00000000000E+00 -0.31263420506E+04  0.31263420506E+04  0.25500000920E-02 0. -1.
    10030    2    1    2    0    0  0.00000000000E+00  0.00000000000E+00 -0.20370484586E+04  0.42156356426E+04  0.36908017352E+04 0.  0.
        5    1    3    3  502    0 -0.12144362075E+04  0.74355352916E+03  0.32216576543E+03  0.14599794599E+04  0.46999998093E+01 0.  1.
       -5    1    3    3    0  502  0.12144362075E+04 -0.74355352916E+03 -0.23592142240E+04  0.27556561828E+04  0.46999998093E+01 0. -1.
</event>
<event>
 5   0  0.3764495E-07  0.2895839E+04  0.7818609E-02  0.8274116E-01
       -1   -1    0    0    0  501  0.00000000000E+00  0.00000000000E+00  0.68378232053E+03  0.68378232055E+03  0.50400001928E-02 0.  1.
        1   -1    0    0  501    0  0.00000000000E+00  0.00000000000E+00 -0.30659924792E+04  0.30659924792E+04  0.50400001928E-02 0. -1.
    10030    2    1    2    0    0  0.00000000000E+00  0.00000000000E+00 -0.23822101587E+04  0.37497747998E+04  0.28958393963E+04 0.  0.
        4    1    3    3  502    0  0.83371566931E+03  0.91453242143E+03 -0.21777075886E+03  0.12565337574E+04  0.12699999809E+01 0.  1.
       -4    1    3    3    0  502 -0.83371566931E+03 -0.91453242143E+03 -0.21644393998E+04  0.24932410424E+04  0.12699999809E+01 0. -1.
</event>
<event>
 5   0  0.3490375E-07  0.3940354E+04  0.7818609E-02  0.8016688E-01
        3   -1    0    0  501    0  0.00000000000E+00  0.00000000000E+00  0.19697712904E+04  0.19697712929E+04  0.10100000352E+00 0. -1.
       -3   -1    0    0    0  501  0.00000000000E+00  0.00000000000E+00 -0.19705823828E+04  0.19705823854E+04  0.10100000352E+00 0.  1.
    10030    2    1    2    0    0  0.00000000000E+00  0.00000000000E+00 -0.81109247034E+00  0.39403536784E+04  0.39403535949E+04 0.  0.
        5    1    3    3  502    0 -0.17296247079E+04  0.52134810940E+03  0.78583173860E+03  0.19700149981E+04  0.46999998093E+01 0. -1.
       -5    1    3    3    0  502  0.17296247079E+04 -0.52134810940E+03 -0.78664283107E+03  0.19703386803E+04  0.46999998093E+01 0.  1.
</event>
<event>
 5   0  0.1092116E-06  0.3625317E+04  0.7818609E-02  0.8084717E-01
       -2   -1    0    0    0  501  0.00000000000E+00  0.00000000000E+00  0.12217594946E+04  0.12217594946E+04  0.25500000920E-02 0.  1.
        2   -1    0    0  501    0  0.00000000000E+00  0.00000000000E+00 -0.26893435543E+04  0.26893435543E+04  0.25500000920E-02 0. -1.
    10030    2    1    2    0    0  0.00000000000E+00  0.00000000000E+00 -0.14675840597E+04  0.39111030489E+04  0.36253171015E+04 0.  0.
        1    1    3    3  502    0 -0.43210349451E+03 -0.10648908023E+04  0.77850576182E+03  0.13880839571E+04  0.50400001928E-02 0.  1.
       -1    1    3    3    0  502  0.43210349451E+03  0.10648908023E+04 -0.22460898215E+04  0.25230190917E+04  0.50400001928E-02 0. -1.
</event>
<event>
 5   0  0.1066907E-06  0.3608978E+04  0.7818609E-02  0.8088438E-01
        2   -1    0    0  501    0  0.00000000000E+00  0.00000000000E+00  0.19247272228E+04  0.19247272228E+04  0.25500000920E-02 0. -1.
       -2   -1    0    0    0  501  0.00000000000E+00  0.00000000000E+00 -0.16917621042E+04  0.16917621042E+04  0.25500000920E-02 0.  1.
    10030    2    1    2    0    0  0.00000000000E+00  0.00000000000E+00  0.23296511862E+03  0.36164893270E+04  0.36089780140E+04 0.  0.
        4    1    3    3  502    0  0.18754664060E+03 -0.69160783382E+03 -0.15430692841E+04  0.17013405205E+04  0.12699999809E+01 0.  1.
       -4    1    3    3    0  502 -0.18754664060E+03  0.69160783382E+03  0.17760344028E+04  0.19151488065E+04  0.12699999809E+01 0. -1.
</event>
<event>
 5   0  0.1051123E-06  0.3720056E+04  0.7818609E-02  0.8063532E-01
        2   -1    0    0  501    0  0.00000000000E+00  0.00000000000E+00  0.15468109234E+04  0.15468109234E+04  0.25500000920E-02 0. -1.
       -2   -1    0    0    0  501  0.00000000000E+00  0.00000000000E+00 -0.22366685804E+04  0.22366685804E+04  0.25500000920E-02 0.  1.
    10030    2    1    2    0    0  0.00000000000E+00  0.00000000000E+00 -0.68985765709E+03  0.37834795038E+04  0.37200555868E+04 0.  0.
        2    1    3    3  502    0  0.12766893582E+04  0.12619153631E+04  0.15054982281E+03  0.18013970551E+04  0.25500000920E-02 0. -1.
       -2    1    3    3    0  502 -0.12766893582E+04 -0.12619153631E+04 -0.84040747990E+03  0.19820824487E+04  0.25500000920E-02 0.  1.
</event>
<event>
 5   0  0.1051123E-06  0.3764123E+04  0.7818609E-02  0.8053898E-01
       -2   -1    0    0    0  501  0.00000000000E+00  0.00000000000E+00  0.17331772202E+04  0.17331772202E+04  0.25500000920E-02 0. -1.
        2   -1    0    0  501    0  0.00000000000E+00  0.00000000000E+00 -0.20437350500E+04  0.20437350500E+04  0.25500000920E-02 0.  1.
    10030    2    1    2    0    0  0.00000000000E+00  0.00000000000E+00 -0.31055782976E+03  0.37769122702E+04  0.37641227572E+04 0.  0.
        2    1    3    3  502    0  0.12242928083E+04 -0.84673838102E+03 -0.13108412887E+04  0.19834726241E+04  0.25500000920E-02 0.  1.
       -2    1    3    3    0  502 -0.12242928083E+04  0.84673838102E+03  0.10002834589E+04  0.17934396462E+04  0.25500000920E-02 0. -1.
</event>
<event>
 5   0  0.3848431E-07  0.3711553E+04  0.7818609E-02  0.8065406E-01
       -1   -1    0    0    0  501  0.00000000000E+00  0.00000000000E+00  0.24733291599E+04  0.24733291599E+04  0.50400001928E-02 0.  1.
        1   -1    0    0  501    0  0.00000000000E+00  0.00000000000E+00 -0.13924175035E+04  0.13924175035E+04  0.50400001928E-02 0. -1.
    10030    2    1    2    0    0  0.00000000000E+00  0.00000000000E+00  0.10809116564E+04  0.38657466634E+04  0.37115532135E+04 0.  0.
        2    1    3    3  502    0  0.12961477948E+04  0.97492511363E+03  0.14798274848E+04  0.21955335269E+04  0.25500000920E-02 0.  1.
       -2    1    3    3    0  502 -0.12961477948E+04 -0.97492511363E+03 -0.39891582839E+03  0.16702131365E+04  0.25500000920E-02 0. -1.
</event>
<event>
 5   0  0.3704306E-07  0.2374055E+04  0.7818609E-02  0.8449281E-01
       -1   -1    0    0    0  501  0.00000000000E+00  0.00000000000E+00  0.11961408031E+04  0.11961408031E+04  0.50400001928E-02 0.  1.
        1   -1    0    0  501    0  0.00000000000E+00  0.00000000000E+00 -0.11779840451E+04  0.11779840452E+04  0.50400001928E-02 0. -1.
    10030    2    1    2    0    0  0.00000000000E+00  0.00000000000E+00  0.18156757946E+02  0.23741248483E+04  0.23740554179E+04 0.  0.
        3    1    3    3  502    0 -0.60406503856E+02  0.10628916005E+04  0.53411494389E+03  0.11910777824E+04  0.10100000352E+00 0.  1.
       -3    1    3    3    0  502  0.60406503856E+02 -0.10628916005E+04 -0.51595818595E+03  0.11830470659E+04  0.10100000352E+00 0. -1.
</event>
<event>
 5   0  0.1128530E-06  0.2519943E+04  0.7818609E-02  0.8395915E-01
        2   -1    0    0  501    0  0.00000000000E+00  0.00000000000E+00  0.20422486743E+04  0.20422486743E+04  0.25500000920E-02 0. -1.
       -2   -1    0    0    0  501  0.00000000000E+00  0.00000000000E+00 -0.77734293129E+03  0.77734293129E+03  0.25500000920E-02 0.  1.
    10030    2    1    2    0    0  0.00000000000E+00  0.00000000000E+00  0.12649057430E+04  0.28195916056E+04  0.25199425159E+04 0.  0.
        5    1    3    3  502    0  0.63136410495E+03 -0.97668507661E+02  0.18475643988E+04  0.19549107571E+04  0.46999998093E+01 0. -1.
       -5    1    3    3    0  502 -0.63136410495E+03  0.97668507661E+02 -0.58265865587E+03  0.86468084844E+03  0.46999998093E+01 0.  1.
</event>
<event>
 5   0  0.1092116E-06  0.3383550E+04  0.7818609E-02  0.8141956E-01
       -2   -1    0    0    0  501  0.00000000000E+00  0.00000000000E+00  0.15635971354E+04  0.15635971354E+04  0.25500000920E-02 0.  1.
        2   -1    0    0  501    0  0.00000000000E+00  0.00000000000E+00 -0.18304603654E+04  0.18304603654E+04  0.25500000920E-02 0. -1.
    10030    2    1    2    0    0  0.00000000000E+00  0.00000000000E+00 -0.26686323003E+03  0.33940575009E+04  0.33835499606E+04 0.  0.
        1    1    3    3  502    0 -0.12717332202E+04  0.93983059085E+03 -0.73656054433E+03  0.17444507326E+04  0.50400001928E-02 0. -1.
       -1    1    3    3    0  502  0.12717332202E+04 -0.93983059085E+03  0.46969731430E+03  0.16496067683E+04  0.50400001928E-02 0.  1.
</event>
<event>
 5   0  0.3764495E-07  0.3716688E+04  0.7818609E-02  0.8064274E-01
        1   -1    0    0  501    0  0.00000000000E+00  0.00000000000E+00  0.25224773931E+04  0.25224773931E+04  0.50400001928E-02 0. -1.
       -1   -1    0    0    0  501  0.00000000000E+00  0.00000000000E+00 -0.13690674921E+04  0.13690674921E+04  0.50400001928E-02 0.  1.
    10030    2    1    2    0    0  0.00000000000E+00  0.00000000000E+00  0.11534099010E+04  0.38915448852E+04  0.37166876642E+04 0.  0.
        4    1    3    3  502    0  0.50745934305E+03  0.70865934702E+03  0.22951782073E+04  0.24551084846E+04  0.12699999809E+01 0. -1.
       -4    1    3    3    0  502 -0.50745934305E+03 -0.70865934702E+03 -0.11417683062E+04  0.14364364006E+04  0.12699999809E+01 0.  1.
</event>
<event>
 5   0  0.3704306E-07  0.2638526E+04  0.7818609E-02  0.8355231E-01
       -1   -1    0    0    0  501  0.00000000000E+00  0.00000000000E+00  0.10334864010E+04  0.10334864010E+04  0.50400001928E-02 0.  1.
        1   -1    0    0  501    0  0.00000000000E+00  0.00000000000E+00 -0.16840616617E+04  0.16840616617E+04  0.50400001928E-02 0. -1.
    10030    2    1    2    0    0  0.00000000000E+00  0.00000000000E+00 -0.65057526074E+03  0.27175480627E+04  0.26385259717E+04 0.  0.
        3    1    3    3  502    0  0.12514282119E+03 -0.52961693700E+03 -0.15630707751E+04  0.16550966993E+04  0.10100000352E+00 0. -1.
       -3    1    3    3    0  502 -0.12514282119E+03  0.52961693700E+03  0.91249551441E+03  0.10624513634E+04  0.10100000352E+00 0.  1.
</event>
<event>
 5   0  0.1128530E-06  0.3394227E+04  0.7818609E-02  0.8139325E-01
        2   -1    0    0  501    0  0.00000000000E+00  0.00000000000E+00  0.10975915918E+04  0.10975915918E+04  0.25500000920E-02 0.  1.
       -2   -1    0    0    0  501  0.00000000000E+00  0.00000000000E+00 -0.26241036530E+04  0.26241036530E+04  0.25500000920E-02 0. -1.
    10030    2    1    2    0    0  0.00000000000E+00  0.00000000000E+00 -0.15265120612E+04  0.37216952449E+04  0.33942269256E+04 0.  0.
        5    1    3    3  502    0 -0.10607228082E+04 -0.57107622484E+03 -0.20739537265E+04  0.23984509751E+04  0.46999998093E+01 0. -1.
       -5    1    3    3    0  502  0.10607228082E+04  0.57107622484E+03  0.54744166528E+03  0.13232442697E+04  0.46999998093E+01 0.  1.
</event>
<event>
 5   0  0.1128530E-06  0.3664541E+04  0.7818609E-02  0.8075866E-01
        2   -1    0    0  501    0  0.00000000000E+00  0.00000000000E+00  0.15809116590E+04  0.15809116590E+04  0.25500000920E-02 0.  1.
       -2   -1    0    0    0  501  0.00000000000E+00  0.00000000000E+00 -0.21235944151E+04  0.21235944151E+04  0.25500000920E-02 0. -1.
    10030    2    1    2    0    0  0.00000000000E+00  0.00000000000E+00 -0.54268275605E+03  0.37045060741E+04  0.36645409916E+04 0.  0.
        5    1    3    3  502    0  0.92661018622E+03  0.60002362638E+03 -0.17496709799E+04  0.20688173959E+04  0.46999998093E+01 0. -1.
       -5    1    3    3    0  502 -0.92661018622E+03 -0.60002362638E+03  0.12069882239E+04  0.16356886782E+04  0.46999998093E+01 0.  1.
</event>
<event>
 5   0  0.1051123E-06  0.3583204E+04  0.7818609E-02  0.8094350E-01
        2   -1    0    0  501    0  0.00000000000E+00  0.00000000000E+00  0.19845497698E+04  0.19845497698E+04  0.25500000920E-02 0. -1.
       -2   -1    0    0    0  501  0.00000000000E+00  0.00000000000E+00 -0.16174132627E+04  0.16174132627E+04  0.25500000920E-02 0.  1.
    10030    2    1    2    0    0  0.00000000000E+00  0.00000000000E+00  0.36713650712E+03  0.36019630325E+04  0.35832036605E+04 0.  0.
        2    1    3    3  502    0 -0.46977152170E+03 -0.39704850294E+03 -0.15079487688E+04  0.16285706265E+04  0.25500000920E-02 0.  1.
       -2    1    3    3    0  502  0.46977152170E+03  0.39704850294E+03  0.18750852759E+04  0.19733924060E+04  0.25500000920E-02 0. -1.
</event>
<event>
 5   0  0.1066907E-06  0.2418753E+04  0.7818609E-02  0.8432516E-01
        2   -1    0    0  501    0  0.00000000000E+00  0.00000000000E+00  0.11521218347E+04  0.11521218348E+04  0.25500000920E-02 0.  1.
       -2   -1    0    0    0  501  0.00000000000E+00  0.00000000000E+00 -0.12694760762E+04  0.12694760762E+04  0.25500000920E-02 0. -1.
    10030    2    1    2    0    0  0.00000000000E+00  0.00000000000E+00 -0.11735424150E+03  0.24215979110E+04  0.24187526588E+04 0.  0.
        4    1    3    3  502    0 -0.18769780540E+03  0.92571641928E+03  0.69746499835E+03  0.11741551822E+04  0.12699999809E+01 0.  1.
       -4    1    3    3    0  502  0.18769780540E+03 -0.92571641928E+03 -0.81481923985E+03  0.12474427288E+04  0.12699999809E+01 0. -1.
</event>
<event>
 5   0  0.3682276E-07  0.2546977E+04  0.7818609E-02  0.8386438E-01
        1   -1    0    0  501    0  0.00000000000E+00  0.00000000000E+00  0.19344613870E+04  0.19344613870E+04  0.50400001928E-02 0.  1.
       -1   -1    0    0    0  501  0.00000000000E+00  0.00000000000E+00 -0.83835888516E+03  0.83835888517E+03  0.50400001928E-02 0. -1.
    10030    2    1    2    0    0  0.00000000000E+00  0.00000000000E+00  0.10961025018E+04  0.27728202722E+04  0.25469769467E+04 0.  0.
        1    1    3    3  502    0 -0.10042636660E+04  0.32248372713E+03  0.13249320550E+04  0.16935129806E+04  0.50400001928E-02 0.  1.
       -1    1    3    3    0  502  0.10042636660E+04 -0.32248372713E+03 -0.22882955316E+03  0.10793072915E+04  0.50400001928E-02 0. -1.
</event>
<event>
 5   0  0.3682276E-07  0.3724469E+04  0.7818609E-02  0.8062561E-01
       -1   -1    0    0    0  501  0.00000000000E+00  0.00000000000E+00  0.18230756531E+04  0.18230756532E+04  0.50400001928E-02 0.  1.
        1   -1    0    0  501    0  0.00000000000E+00  0.00000000000E+00 -0.19022340676E+04  0.19022340676E+04  0.50400001928E-02 0. -1.
    10030    2    1    2    0    0  0.00000000000E+00  0.00000000000E+00 -0.79158414481E+02  0.37253097208E+04  0.37244686146E+04 0.  0.
        1    1    3    3  502    0 -0.13521508467E+04  0.92944503537E+03  0.84137881790E+03  0.18439355469E+04  0.50400001928E-02 0.  1.
       -1    1    3    3    0  502  0.13521508467E+04 -0.92944503537E+03 -0.92053723238E+03  0.18813741739E+04  0.50400001928E-02 0. -1.
</event>
<event>
 5   0  0.3675819E-07  0.3669954E+04  0.7818609E-02  0.8074653E-01
        1   -1    0    0  501    0  0.00000000000E+00  0.00000000000E+00  0.17823369847E+04  0.17823369847E+04  0.50400001928E-02 0.  1.
       -1   -1    0    0    0  501  0.00000000000E+00  0.00000000000E+00 -0.18891715063E+04  0.18891715063E+04  0.50400001928E-02 0. -1.
    10030    2    1    2    0    0  0.00000000000E+00  0.00000000000E+00 -0.10683452164E+03  0.36715084910E+04  0.36699538123E+04 0.  0.
        5    1    3    3  502    0 -0.10075549393E+04 -0.20289192660E+03 -0.15741882126E+04  0.18800060394E+04  0.46999998093E+01 0. -1.
       -5    1    3    3    0  502  0.10075549393E+04  0.20289192660E+03  0.14673536910E+04  0.17915024516E+04  0.46999998093E+01 0.  1.
</event>
<event>
 5   0  0.1092116E-06  0.3841672E+04  0.7818609E-02  0.8037271E-01
        2   -1    0    0  501    0  0.00000000000E+00  0.00000000000E+00  0.31264423541E+04  0.31264423541E+04  0.25500000920E-02 0.  1.
       -2   -1    0    0    0  501  0.00000000000E+00  0.00000000000E+00 -0.11801309376E+04  0.11801309376E+04  0.25500000920E-02 0. -1.
    10030    2    1    2    0    0  0.00000000000E+00  0.00000000000E+00  0.19463114166E+04  0.43065732917E+04  0.38416722123E+04 0.  0.
        1    1    3    3  502    0 -0.66546801855E+03 -0.14832070941E+04  0.21201359008E+04  0.26716525233E+04  0.50400001928E-02 0. -1.
       -1    1    3    3    0  502  0.66546801855E+03  0.14832070941E+04 -0.17382448421E+03  0.16349207684E+04  0.50400001928E-02 0.  1.
</event>
<event>
 5   0  0.1051123E-06  0.3714562E+04  0.7818609E-02  0.8064742E-01
       -2   -1    0    0    0  501  0.00000000000E+00  0.00000000000E+00  0.17296268260E+04  0.17296268260E+04  0.25500000920E-02 0. -1.
        2   -1    0    0  501    0  0.00000000000E+00  0.00000000000E+00 -0.19943566617E+04  0.19943566617E+04  0.25500000920E-02 0.  1.
    10030    2    1    2    0    0  0.00000000000E+00  0.00000000000E+00 -0.26472983568E+03  0.37239834877E+04  0.37145620375E+04 0.  0.
        2    1    3    3  502    0  0.11805017435E+04  0.50899052122E+02  0.13042097581E+04  0.17598687943E+04  0.25500000920E-02 0. -1.
       -2    1    3    3    0  502 -0.11805017435E+04 -0.50899052122E+02 -0.15689395938E+04  0.19641146934E+04  0.25500000920E-02 0.  1.
</event>
<event>
 5   0  0.3764495E-07  0.3690566E+04  0.7818609E-02  0.8070056E-01
        1   -1    0    0  501    0  0.00000000000E+00  0.00000000000E+00  0.14507032361E+04  0.14507032361E+04  0.50400001928E-02 0.  1.
       -1   -1    0    0    0  501  0.00000000000E+00  0.00000000000E+00 -0.23471858431E+04  0.23471858431E+04  0.50400001928E-02 0. -1.
    10030    2    1    2    0    0  0.00000000000E+00  0.00000000000E+00 -0.89648260696E+03  0.37978890792E+04  0.36905664054E+04 0.  0.
        4    1    3    3  502    0 -0.13522008380E+04  0.61071989853E+03 -0.15772519174E+04  0.21654447868E+04  0.12699999809E+01 0. -1.
       -4    1    3    3    0  502  0.13522008380E+04 -0.61071989853E+03  0.68076931042E+03  0.16324442924E+04  0.12699999809E+01 0.  1.
</event>
<event>
 5   0  0.3490375E-07  0.2655152E+04  0.7818609E-02  0.8349705E-01
        3   -1    0    0  501    0  0.00000000000E+00  0.00000000000E+00  0.11959279858E+04  0.11959279901E+04  0.10100000352E+00 0.  1.
       -3   -1    0    0    0  501  0.00000000000E+00  0.00000000000E+00 -0.14737160416E+04  0.14737160451E+04  0.10100000352E+00 0. -1.
    10030    2    1    2    0    0  0.00000000000E+00  0.00000000000E+00 -0.27778805578E+03  0.26696440352E+04  0.26551521747E+04 0.  0.
        3    1    3    3  502    0  0.92730046710E+03  0.37202552994E+02 -0.10933846322E+04  0.14341409102E+04  0.10100000352E+00 0. -1.
       -3    1    3    3    0  502 -0.92730046710E+03 -0.37202552994E+02  0.81559657639E+03  0.12355031250E+04  0.10100000352E+00 0.  1.
</event>
<event>
 5   0  0.1092116E-06  0.3677748E+04  0.7818609E-02  0.8072911E-01
       -2   -1    0    0    0  501  0.00000000000E+00  0.00000000000E+00  0.20007834567E+04  0.20007834567E+04  0.25500000920E-02 0.  1.
        2   -1    0    0  501    0  0.00000000000E+00  0.00000000000E+00 -0.16900668268E+04  0.16900668268E+04  0.25500000920E-02 0. -1.
    10030    2    1    2    0    0  0.00000000000E+00  0.00000000000E+00  0.31071662989E+03  0.36908502835E+04  0.36777480869E+04 0.  0.
        1    1    3    3  502    0  0.18069882447E+04  0.13599303295E+03 -0.15841692015E+03  0.18190097696E+04  0.50400001928E-02 0. -1.
       -1    1    3    3    0  502 -0.18069882447E+04 -0.13599303295E+03  0.46913355004E+03  0.18718405138E+04  0.50400001928E-02 0.  1.
</event>
<event>
 5   0  0.3675819E-07  0.3730838E+04  0.7818609E-02  0.8061162E-01
       -1   -1    0    0    0  501  0.00000000000E+00  0.00000000000E+00  0.18958683377E+04  0.18958683377E+04  0.50400001928E-02 0. -1.
        1   -1    0    0  501    0  0.00000000000E+00  0.00000000000E+00 -0.18354590193E+04  0.18354590193E+04  0.50400001928E-02 0.  1.
    10030    2    1    2    0    0  0.00000000000E+00  0.00000000000E+00  0.60409318429E+02  0.37313273569E+04  0.37308383185E+04 0.  0.
        5    1    3    3  502    0 -0.16167745997E+04  0.69699612541E+03  0.64672917026E+03  0.18756450663E+04  0.46999998093E+01 0. -1.
       -5    1    3    3    0  502  0.16167745997E+04 -0.69699612541E+03 -0.58631985183E+03  0.18556822906E+04  0.46999998093E+01 0.  1.
</event>
<event>
 5   0  0.1051123E-06  0.3660867E+04  0.7818609E-02  0.8076690E-01
       -2   -1    0    0    0  501  0.00000000000E+00  0.00000000000E+00  0.17272925998E+04  0.17272925998E+04  0.25500000920E-02 0. -1.
        2   -1    0    0  501    0  0.00000000000E+00  0.00000000000E+00 -0.19397328613E+04  0.19397328613E+04  0.25500000920E-02 0.  1.
    10030    2    1    2    0    0  0.00000000000E+00  0.00000000000E+00 -0.21244026146E+03  0.36670254611E+04  0.36608666826E+04 0.  0.
        2    1    3    3  502    0  0.15697370256E+04 -0.46058573164E+02  0.83572908835E+03  0.17789431781E+04  0.25500000920E-02 0. -1.
       -2    1    3    3    0  502 -0.15697370256E+04  0.46058573164E+02 -0.10481693498E+04  0.18880822830E+04  0.25500000920E-02 0.  1.
</event>
<event>
 5   0  0.1051123E-06  0.3524292E+04  0.7818609E-02  0.8108057E-01
        2   -1    0    0  501    0  0.00000000000E+00  0.00000000000E+00  0.20895506579E+04  0.20895506579E+04  0.25500000920E-02 0. -1.
       -2   -1    0    0    0  501  0.00000000000E+00  0.00000000000E+00 -0.14860415313E+04  0.14860415313E+04  0.25500000920E-02 0.  1.
    10030    2    1    2    0    0  0.00000000000E+00  0.00000000000E+00  0.60350912655E+03  0.35755921892E+04  0.35242923031E+04 0.  0.
        2    1    3    3  502    0 -0.44250378633E+02  0.16879292557E+04 -0.20966200560E+03  0.17014762487E+04  0.25500000920E-02 0.  1.
       -2    1    3    3    0  502  0.44250378633E+02 -0.16879292557E+04  0.81317113215E+03  0.18741159405E+04  0.25500000920E-02 0. -1.
</event>
<event>
 5   0  0.1051123E-06  0.3597972E+04  0.7818609E-02  0.8090956E-01
        2   -1    0    0  501    0  0.00000000000E+00  0.00000000000E+00  0.20616499234E+04  0.20616499234E+04  0.25500000920E-02 0.  1.
       -2   -1    0    0    0  501  0.00000000000E+00  0.00000000000E+00 -0.15697871069E+04  0.15697871069E+04  0.25500000920E-02 0. -1.
    10030    2    1    2    0    0  0.00000000000E+00  0.00000000000E+00  0.49186281654E+03  0.36314370302E+04  0.35979724671E+04 0.  0.
        2    1    3    3  502    0 -0.12834317250E+04  0.11473608401E+04 -0.28114945436E+03  0.17443276372E+04  0.25500000920E-02 0. -1.
       -2    1    3    3    0  502  0.12834317250E+04 -0.11473608401E+04  0.77301227090E+03  0.18871093930E+04  0.25500000920E-02 0.  1.
</event>
<event>
 5   0  0.1128166E-06  0.3697382E+04  0.7818609E-02  0.8068542E-01
       -2   -1    0    0    0  501  0.00000000000E+00  0.00000000000E+00  0.14712553948E+04  0.14712553948E+04  0.25500000920E-02 0.  1.
        2   -1    0    0  501    0  0.00000000000E+00  0.00000000000E+00 -0.23229542086E+04  0.23229542086E+04  0.25500000920E-02 0. -1.
    10030    2    1    2    0    0  0.00000000000E+00  0.00000000000E+00 -0.85169881382E+03  0.37942096034E+04  0.36973822692E+04 0.  0.
        3    1    3    3  502    0  0.88968100700E+03  0.24289011539E+02  0.12369352454E+04  0.15238540159E+04  0.10100000352E+00 0.  1.
       -3    1    3    3    0  502 -0.88968100700E+03 -0.24289011539E+02 -0.20886340592E+04  0.22703555875E+04  0.10100000352E+00 0. -1.
</event>
<event>
 5   0  0.1092116E-06  0.3119632E+04  0.7818609E-02  0.8210371E-01
        2   -1    0    0  501    0  0.00000000000E+00  0.00000000000E+00  0.16227141716E+04  0.16227141716E+04  0.25500000920E-02 0.  1.
       -2   -1    0    0    0  501  0.00000000000E+00  0.00000000000E+00 -0.14993560840E+04  0.14993560840E+04  0.25500000920E-02 0. -1.
    10030    2    1    2    0    0  0.00000000000E+00  0.00000000000E+00  0.12335808760E+03  0.31220702557E+04  0.31196322642E+04 0.  0.
        1    1    3    3  502    0 -0.22720199951E+02  0.15368129187E+03  0.16149526150E+04  0.16224074999E+04  0.50400001928E-02 0.  1.
       -1    1    3    3    0  502  0.22720199951E+02 -0.15368129187E+03 -0.14915945274E+04  0.14996627558E+04  0.50400001928E-02 0. -1.
</event>
<event>
 5   0  0.1128530E-06  0.2277161E+04  0.7818609E-02  0.8486981E-01
        2   -1    0    0  501    0  0.00000000000E+00  0.00000000000E+00  0.14074815417E+04  0.14074815417E+04  0.25500000920E-02 0. -1.
       -2   -1    0    0    0  501  0.00000000000E+00  0.00000000000E+00 -0.92105356304E+03  0.92105356304E+03  0.25500000920E-02 0.  1.
    10030    2    1    2    0    0  0.00000000000E+00  0.00000000000E+00  0.48642797865E+03  0.23285351047E+04  0.22771612933E+04 0.  0.
        5    1    3    3  502    0  0.24470054984E+03  0.16555886213E+02  0.13801390654E+04  0.14017697337E+04  0.46999998093E+01 0. -1.
       -5    1    3    3    0  502 -0.24470054984E+03 -0.16555886213E+02 -0.89371108673E+03  0.92676537106E+03  0.46999998093E+01 0.  1.
</event>
<event>
 5   0  0.3764495E-07  0.3716837E+04  0.7818609E-02  0.8064241E-01
        1   -1    0    0  501    0  0.00000000000E+00  0.00000000000E+00  0.26495529401E+04  0.26495529401E+04  0.50400001928E-02 0.  1.
       -1   -1    0    0    0  501  0.00000000000E+00  0.00000000000E+00 -0.13035101416E+04  0.13035101416E+04  0.50400001928E-02 0. -1.
    10030    2    1    2    0    0  0.00000000000E+00  0.00000000000E+00  0.13460427985E+04  0.39530630817E+04  0.37168368961E+04 0.  0.
        4    1    3    3  502    0 -0.54825717280E+03 -0.49425209189E+03 -0.11409090872E+04  0.13588768215E+04  0.12699999809E+01 0. -1.
       -4    1    3    3    0  502  0.54825717280E+03  0.49425209189E+03  0.24869518857E+04  0.25941862602E+04  0.12699999809E+01 0.  1.
</event>
<event>
 5   0  0.3675819E-07  0.3818214E+04  0.7818609E-02  0.8042257E-01
       -1   -1    0    0    0  501  0.00000000000E+00  0.00000000000E+00  0.17335858174E+04  0.17335858174E+04  0.50400001928E-02 0.  1.
        1   -1    0    0  501    0  0.00000000000E+00  0.00000000000E+00 -0.21023992674E+04  0.21023992675E+04  0.50400001928E-02 0. -1.
    10030    2    1    2    0    0  0.00000000000E+00  0.00000000000E+00 -0.36881345002E+03  0.38359850849E+04  0.38182140080E+04 0.  0.
        5    1    3    3  502    0  0.58757215278E+03 -0.13666475812E+04 -0.13865127659E+04  0.20335698626E+04  0.46999998093E+01 0. -1.
       -5    1    3    3    0  502 -0.58757215278E+03  0.13666475812E+04  0.10176993159E+04  0.18024152223E+04  0.46999998093E+01 0.  1.
</event>
<event>
 5   0  0.1066907E-06  0.3687430E+04  0.7818609E-02  0.8070753E-01
       -2   -1    0    0    0  501  0.00000000000E+00  0.00000000000E+00  0.16476597932E+04  0.16476597932E+04  0.25500000920E-02 0.  1.
        2   -1    0    0  501    0  0.00000000000E+00  0.00000000000E+00 -0.20630993407E+04  0.20630993407E+04  0.25500000920E-02 0. -1.
    10030    2    1    2    0    0  0.00000000000E+00  0.00000000000E+00 -0.41543954746E+03  0.37107591339E+04  0.36874304511E+04 0.  0.
        4    1    3    3  502    0 -0.39825737297E+03  0.10836512317E+04  0.12388637942E+04  0.16934267155E+04  0.12699999809E+01 0.  1.
       -4    1    3    3    0  502  0.39825737297E+03 -0.10836512317E+04 -0.16543033417E+04  0.20173324184E+04  0.12699999809E+01 0. -1.
</event>
<event>
 5   0  0.1051123E-06  0.3746331E+04  0.7818609E-02  0.8057771E-01
        2   -1    0    0  501    0  0.00000000000E+00  0.00000000000E+00  0.26148097413E+04  0.26148097414E+04  0.25500000920E-02 0. -1.
       -2   -1    0    0    0  501  0.00000000000E+00  0.00000000000E+00 -0.13418755312E+04  0.13418755312E+04  0.25500000920E-02 0.  1.
    10030    2    1    2    0    0  0.00000000000E+00  0.00000000000E+00  0.12729342101E+04  0.39566852726E+04  0.37463311176E+04 0.  0.
        2    1    3    3  502    0  0.12830069119E+04  0.80578235762E+03 -0.52690780826E+03  0.16040647687E+04  0.25500000920E-02 0.  1.
       -2    1    3    3    0  502 -0.12830069119E+04 -0.80578235762E+03  0.17998420184E+04  0.23526205038E+04  0.25500000920E-02 0. -1.
</event>
<event>
 5   0  0.3675819E-07  0.3812226E+04  0.7818609E-02  0.8043536E-01
        1   -1    0    0  501    0  0.00000000000E+00  0.00000000000E+00  0.11927334474E+04  0.11927334474E+04  0.50400001928E-02 0.  1.
       -1   -1    0    0    0  501  0.00000000000E+00  0.00000000000E+00 -0.30461689691E+04  0.30461689691E+04  0.50400001928E-02 0. -1.
    10030    2    1    2    0    0  0.00000000000E+00  0.00000000000E+00 -0.18534355218E+04  0.42389024165E+04  0.38122264444E+04 0.  0.
        5    1    3    3  502    0  0.19053444238E+04 -0.44146895818E+02 -0.96115515374E+03  0.21345087588E+04  0.46999998093E+01 0.  1.
       -5    1    3    3    0  502 -0.19053444238E+04  0.44146895818E+02 -0.89228036801E+03  0.21043936578E+04  0.46999998093E+01 0. -1.
</event>
<event>
 5   0  0.3764495E-07  0.2679243E+04  0.7818609E-02  0.8341771E-01
        1   -1    0    0  501    0  0.00000000000E+00  0.00000000000E+00  0.17960772431E+04  0.17960772431E+04  0.50400001928E-02 0.  1.
       -1   -1    0    0    0  501  0.00000000000E+00  0.00000000000E+00 -0.99916951635E+03  0.99916951636E+03  0.50400001928E-02 0. -1.
    10030    2    1    2    0    0  0.00000000000E+00  0.00000000000E+00  0.79690772671E+03  0.27952467594E+04  0.26792429007E+04 0.  0.
        4    1    3    3  502    0  0.39035546185E+03  0.10811709289E+04 -0.31928312716E+03  0.11930009608E+04  0.12699999809E+01 0. -1.
       -4    1    3    3    0  502 -0.39035546185E+03 -0.10811709289E+04  0.11161908539E+04  0.16022457987E+04  0.12699999809E+01 0.  1.
</event>
<event>
 5   0  0.1128530E-06  0.3607810E+04  0.7818609E-02  0.8088705E-01
        2   -1    0    0  501    0  0.00000000000E+00  0.00000000000E+00  0.14457242572E+04  0.14457242572E+04  0.25500000920E-02 0.  1.
       -2   -1    0    0    0  501  0.00000000000E+00  0.00000000000E+00 -0.22508250979E+04  0.22508250979E+04  0.25500000920E-02 0. -1.
    10030    2    1    2    0    0  0.00000000000E+00  0.00000000000E+00 -0.80510084069E+03  0.36965493552E+04  0.36078095531E+04 0.  0.
        5    1    3    3  502    0  0.13945328321E+04 -0.33522263195E+03 -0.15235144923E+04  0.20924183451E+04  0.46999998093E+01 0. -1.
       -5    1    3    3    0  502 -0.13945328321E+04  0.33522263195E+03  0.71841365159E+03  0.16041310101E+04  0.46999998093E+01 0.  1.
</event>
<event>
 5   0  0.3848431E-07  0.2630826E+04  0.7818609E-02  0.8357805E-01
       -1   -1    0    0    0  501  0.00000000000E+00  0.00000000000E+00  0.10189014191E+04  0.10189014191E+04  0.50400001928E-02 0. -1.
        1   -1    0    0  501    0  0.00000000000E+00  0.00000000000E+00 -0.16982131418E+04  0.16982131418E+04  0.50400001928E-02 0.  1.
    10030    2    1    2    0    0  0.00000000000E+00  0.00000000000E+00 -0.67931172271E+03  0.27171145609E+04  0.26308263189E+04 0.  0.
        2    1    3    3  502    0  0.72092312560E+02 -0.17152331828E+03 -0.16845544663E+04  0.16947983066E+04  0.25500000920E-02 0.  1.
       -2    1    3    3    0  502 -0.72092312560E+02  0.17152331828E+03  0.10052427436E+04  0.10223162543E+04  0.25500000920E-02 0. -1.
</event>
<event>
 5   0  0.3704306E-07  0.2512093E+04  0.7818609E-02  0.8398690E-01
       -1   -1    0    0    0  501  0.00000000000E+00  0.00000000000E+00  0.16769252183E+04  0.16769252183E+04  0.50400001928E-02 0. -1.
        1   -1    0    0  501    0  0.00000000000E+00  0.00000000000E+00 -0.94080093087E+03  0.94080093089E+03  0.50400001928E-02 0.  1.
    10030    2    1    2    0    0  0.00000000000E+00  0.00000000000E+00  0.73612428746E+03  0.26177261492E+04  0.25120929970E+04 0.  0.
        3    1    3    3  502    0  0.57005385939E+03 -0.58037617139E+03 -0.62918277829E+03  0.10284302998E+04  0.10100000352E+00 0.  1.
       -3    1    3    3    0  502 -0.57005385939E+03  0.58037617139E+03  0.13653070657E+04  0.15892958494E+04  0.10100000352E+00 0. -1.
</event>
<event>
 5   0  0.3682276E-07  0.3711105E+04  0.7818609E-02  0.8065505E-01
       -1   -1    0    0    0  501  0.00000000000E+00  0.00000000000E+00  0.24593192737E+04  0.24593192737E+04  0.50400001928E-02 0.  1.
        1   -1    0    0  501    0  0.00000000000E+00  0.00000000000E+00 -0.14000114665E+04  0.14000114665E+04  0.50400001928E-02 0. -1.
    10030    2    1    2    0    0  0.00000000000E+00  0.00000000000E+00  0.10593078072E+04  0.38593307401E+04  0.37111050553E+04 0.  0.
        1    1    3    3  502    0  0.15152674494E+04 -0.91364440371E+03 -0.51498879637E+02  0.17701507490E+04  0.50400001928E-02 0. -1.
       -1    1    3    3    0  502 -0.15152674494E+04  0.91364440371E+03  0.11108066868E+04  0.20891799911E+04  0.50400001928E-02 0.  1.
</event>
<event>
 5   0  0.1092116E-06  0.3666616E+04  0.7818609E-02  0.8075401E-01
       -2   -1    0    0    0  501  0.00000000000E+00  0.00000000000E+00  0.17771194438E+04  0.17771194438E+04  0.25500000920E-02 0.  1.
        2   -1    0    0  501    0  0.00000000000E+00  0.00000000000E+00 -0.18912729425E+04  0.18912729425E+04  0.25500000920E-02 0. -1.
    10030    2    1    2    0    0  0.00000000000E+00  0.00000000000E+00 -0.11415349868E+03  0.36683923863E+04  0.36666158346E+04 0.  0.
        1    1    3    3  502    0  0.71122671519E+02  0.56443777633E+03  0.16865727373E+04  0.17799370877E+04  0.50400001928E-02 0.  1.
       -1    1    3    3    0  502 -0.71122671519E+02 -0.56443777633E+03 -0.18007262360E+04  0.18884552986E+04  0.50400001928E-02 0. -1.
</event>
<event>
 5   0  0.1128166E-06  0.3624272E+04  0.7818609E-02  0.8084955E-01
        2   -1    0    0  501    0  0.00000000000E+00  0.00000000000E+00  0.12747727330E+04  0.12747727330E+04  0.25500000920E-02 0. -1.
       -2   -1    0    0    0  501  0.00000000000E+00  0.00000000000E+00 -0.25760170366E+04  0.25760170366E+04  0.25500000920E-02 0.  1.
    10030    2    1    2    0    0  0.00000000000E+00  0.00000000000E+00 -0.13012443036E+04  0.38507897696E+04  0.36242716664E+04 0.  0.
        3    1    3    3  502    0 -0.10684016473E+03 -0.12324461400E+04  0.75633767733E+03  0.14499603447E+04  0.10100000352E+00 0. -1.
       -3    1    3    3    0  502  0.10684016473E+03  0.12324461400E+04 -0.20575819810E+04  0.24008294249E+04  0.10100000352E+00 0.  1.
</event>
<event>
 5   0  0.1128530E-06  0.3629333E+04  0.7818609E-02  0.8083806E-01
        2   -1    0    0  501    0  0.00000000000E+00  0.00000000000E+00  0.18530203614E+04  0.18530203614E+04  0.25500000920E-02 0.  1.
       -2   -1    0    0    0  501  0.00000000000E+00  0.00000000000E+00 -0.17771062340E+04  0.17771062340E+04  0.25500000920E-02 0. -1.
    10030    2    1    2    0    0  0.00000000000E+00  0.00000000000E+00  0.75914127416E+02  0.36301265954E+04  0.36293327409E+04 0.  0.
        5    1    3    3  502    0 -0.67186441373E+03  0.42754565477E+03 -0.15929807425E+04  0.17809567129E+04  0.46999998093E+01 0. -1.
       -5    1    3    3    0  502  0.67186441373E+03 -0.42754565477E+03  0.16688948699E+04  0.18491698825E+04  0.46999998093E+01 0.  1.
</event>
<event>
 5   0  0.1066907E-06  0.3649321E+04  0.7818609E-02  0.8079287E-01
        2   -1    0    0  501    0  0.00000000000E+00  0.00000000000E+00  0.25796086861E+04  0.25796086861E+04  0.25500000920E-02 0.  1.
       -2   -1    0    0    0  501  0.00000000000E+00  0.00000000000E+00 -0.12906551137E+04  0.12906551137E+04  0.25500000920E-02 0. -1.
    10030    2    1    2    0    0  0.00000000000E+00  0.00000000000E+00  0.12889535725E+04  0.38702637998E+04  0.36493205625E+04 0.  0.
        4    1    3    3  502    0  0.14229532276E+04 -0.11319172746E+04  0.80653856212E+03  0.19891049921E+04  0.12699999809E+01 0.  1.
       -4    1    3    3    0  502 -0.14229532276E+04  0.11319172746E+04  0.48241501034E+03  0.18811588077E+04  0.12699999809E+01 0. -1.
</event>
<event>
 5   0  0.1092116E-06  0.3685949E+04  0.7818609E-02  0.8071083E-01
        2   -1    0    0  501    0  0.00000000000E+00  0.00000000000E+00  0.18089225348E+04  0.18089225348E+04  0.25500000920E-02 0. -1.
       -2   -1    0    0    0  501  0.00000000000E+00  0.00000000000E+00 -0.18776675567E+04  0.18776675567E+04  0.25500000920E-02 0.  1.
    10030    2    1    2    0    0  0.00000000000E+00  0.00000000000E+00 -0.68745021893E+02  0.36865900915E+04  0.36859490806E+04 0.  0.
        1    1    3    3  502    0  0.26993003341E+03 -0.12099005281E+04 -0.13983668571E+04  0.18687298836E+04  0.50400001928E-02 0.  1.
       -1    1    3    3    0  502 -0.26993003341E+03  0.12099005281E+04  0.13296218352E+04  0.18178602079E+04  0.50400001928E-02 0. -1.
</event>
<event>
 5   0  0.3764495E-07  0.3687312E+04  0.7818609E-02  0.8070779E-01
        1   -1    0    0  501    0  0.00000000000E+00  0.00000000000E+00  0.19265441238E+04  0.19265441238E+04  0.50400001928E-02 0.  1.
       -1   -1    0    0    0  501  0.00000000000E+00  0.00000000000E+00 -0.17643345426E+04  0.17643345426E+04  0.50400001928E-02 0. -1.
    10030    2    1    2    0    0  0.00000000000E+00  0.00000000000E+00  0.16220958116E+03  0.36908786664E+04  0.36873124877E+04 0.  0.
        4    1    3    3  502    0  0.39704538670E+03  0.18458103354E+03 -0.17115353033E+04  0.17666550043E+04  0.12699999809E+01 0. -1.
       -4    1    3    3    0  502 -0.39704538670E+03 -0.18458103354E+03  0.18737448844E+04  0.19242236621E+04  0.12699999809E+01 0.  1.
</event>
<event>
 5   0  0.3704306E-07  0.2686755E+04  0.7818609E-02  0.8339315E-01
       -1   -1    0    0    0  501  0.00000000000E+00  0.00000000000E+00  0.98075581204E+03  0.98075581205E+03  0.50400001928E-02 0. -1.
        1   -1    0    0  501    0  0.00000000000E+00  0.00000000000E+00 -0.18400740689E+04  0.18400740689E+04  0.50400001928E-02 0.  1.
    10030    2    1    2    0    0  0.00000000000E+00  0.00000000000E+00 -0.85931825683E+03  0.28208298809E+04  0.26867551713E+04 0.  0.
        3    1    3    3  502    0 -0.15797905529E+03  0.28213002363E+03 -0.17986077018E+04  0.18274420394E+04  0.10100000352E+00 0.  1.
       -3    1    3    3    0  502  0.15797905529E+03 -0.28213002363E+03  0.93928944496E+03  0.99338784156E+03  0.10100000352E+00 0. -1.
</event>
<event>
 5   0  0.1128166E-06  0.3255593E+04  0.7818609E-02  0.8174287E-01
        2   -1    0    0  501    0  0.00000000000E+00  0.00000000000E+00  0.18040649211E+04  0.18040649211E+04  0.25500000920E-02 0.  1.
       -2   -1    0    0    0  501  0.00000000000E+00  0.00000000000E+00 -0.14687509972E+04  0.14687509972E+04  0.25500000920E-02 0. -1.
    10030    2    1    2    0    0  0.00000000000E+00  0.00000000000E+00  0.33531392391E+03  0.32728159183E+04  0.32555934340E+04 0.  0.
        3    1    3    3  502    0  0.11062595207E+04 -0.10254415577E+04  0.78276114181E+03  0.16994280010E+04  0.10100000352E+00 0. -1.
       -3    1    3    3    0  502 -0.11062595207E+04  0.10254415577E+04 -0.44744721789E+03  0.15733879173E+04  0.10100000352E+00 0.  1.
</event>
<event>
 5   0  0.1128166E-06  0.3500234E+04  0.7818609E-02  0.8113734E-01
       -2   -1    0    0    0  501  0.00000000000E+00  0.00000000000E+00  0.15384419040E+04  0.15384419040E+04  0.25500000920E-02 0.  1.
        2   -1    0    0  501    0  0.00000000000E+00  0.00000000000E+00 -0.19909165827E+04  0.19909165827E+04  0.25500000920E-02 0. -1.
    10030    2    1    2    0    0  0.00000000000E+00  0.00000000000E+00 -0.45247467862E+03  0.35293584867E+04  0.35002339912E+04 0.  0.
        3    1    3    3  502    0  0.64891488586E+03 -0.16750569168E+03 -0.18564025306E+04  0.19736714650E+04  0.10100000352E+00 0. -1.
       -3    1    3    3    0  502 -0.64891488586E+03  0.16750569168E+03  0.14039278520E+04  0.15556870217E+04  0.10100000352E+00 0.  1.
</event>
<event>
 5   0  0.3764495E-07  0.3769942E+04  0.7818609E-02  0.8052636E-01
       -1   -1    0    0    0  501  0.00000000000E+00  0.00000000000E+00  0.14122505964E+04  0.14122505964E+04  0.50400001928E-02 0. -1.
        1   -1    0    0  501    0  0.00000000000E+00  0.00000000000E+00 -0.25159244236E+04  0.25159244236E+04  0.50400001928E-02 0.  1.
    10030    2    1    2    0    0  0.00000000000E+00  0.00000000000E+00 -0.11036738272E+04  0.39281750199E+04  0.37699420513E+04 0.  0.
        4    1    3    3  502    0 -0.51760662960E+03  0.25493263618E+03  0.13179755137E+04  0.14387384542E+04  0.12699999809E+01 0. -1.
       -4    1    3    3    0  502  0.51760662960E+03 -0.25493263618E+03 -0.24216493409E+04  0.24894365658E+04  0.12699999809E+01 0.  1.
</event>
<event>
 5   0  0.3682276E-07  0.3776923E+04  0.7818609E-02  0.8051125E-01
       -1   -1    0    0    0  501  0.00000000000E+00  0.00000000000E+00  0.23410824369E+04  0.23410824369E+04  0.50400001928E-02 0. -1.
        1   -1    0    0  501    0  0.00000000000E+00  0.00000000000E+00 -0.15233498819E+04  0.15233498819E+04  0.50400001928E-02 0.  1.
    10030    2    1    2    0    0  0.00000000000E+00  0.00000000000E+00  0.81773255504E+03  0.38644323188E+04  0.37769234325E+04 0.  0.
        1    1    3    3  502    0 -0.10285889219E+04 -0.11680899411E+04  0.15031593568E+04  0.21637738636E+04  0.50400001928E-02 0.  1.
       -1    1    3    3    0  502  0.10285889219E+04  0.11680899411E+04 -0.68542680173E+03  0.17006584552E+04  0.50400001928E-02 0. -1.
</event>
<event>
 5   0  0.1128530E-06  0.3703882E+04  0.7818609E-02  0.8067102E-01
        2   -1    0    0  501    0  0.00000000000E+00  0.00000000000E+00  0.21479844335E+04  0.21479844335E+04  0.25500000920E-02 0. -1.
       -2   -1    0    0    0  501  0.00000000000E+00  0.00000000000E+00 -0.15966996035E+04  0.15966996035E+04  0.25500000920E-02 0.  1.
    10030    2    1    2    0    0  0.00000000000E+00  0.00000000000E+00  0.55128482996E+03  0.37446840370E+04  0.37038822300E+04 0.  0.
        5    1    3    3  502    0 -0.46167854288E+03  0.67856096576E+03  0.19540725536E+04  0.21194371177E+04  0.46999998093E+01 0. -1.
       -5    1    3    3    0  502  0.46167854288E+03 -0.67856096576E+03 -0.14027877236E+04  0.16252469193E+04  0.46999998093E+01 0.  1.
</event>
<event>
 5   0  0.3682276E-07  0.3749360E+04  0.7818609E-02  0.8057110E-01
       -1   -1    0    0    0  501  0.00000000000E+00  0.00000000000E+00  0.24536321482E+04  0.24536321482E+04  0.50400001928E-02 0. -1.
        1   -1    0    0  501    0  0.00000000000E+00  0.00000000000E+00 -0.14323359976E+04  0.14323359976E+04  0.50400001928E-02 0.  1.
    10030    2    1    2    0    0  0.00000000000E+00  0.00000000000E+00  0.10212961506E+04  0.38859681458E+04  0.37493602925E+04 0.  0.
        1    1    3    3  502    0  0.34938535032E+02  0.18663700017E+04  0.68976840750E+03  0.19900598334E+04  0.50400001928E-02 0.  1.
       -1    1    3    3    0  502 -0.34938535032E+02 -0.18663700017E+04  0.33152774311E+03  0.18959083124E+04  0.50400001928E-02 0. -1.
</event>
<event>
 5   0  0.3682276E-07  0.3696064E+04  0.7818609E-02  0.8068835E-01
        1   -1    0    0  501    0  0.00000000000E+00  0.00000000000E+00  0.17801804149E+04  0.17801804149E+04  0.50400001928E-02 0.  1.
       -1   -1    0    0    0  501  0.00000000000E+00  0.00000000000E+00 -0.19184696961E+04  0.19184696961E+04  0.50400001928E-02 0. -1.
    10030    2    1    2    0    0  0.00000000000E+00  0.00000000000E+00 -0.13828928119E+03  0.36986501111E+04  0.36960639495E+04 0.  0.
        1    1    3    3  502    0  0.84863318707E+03 -0.38577340841E+03  0.15276606816E+04  0.17896219061E+04  0.50400001928E-02 0.  1.
       -1    1    3    3    0  502 -0.84863318707E+03  0.38577340841E+03 -0.16659499628E+04  0.19090282049E+04  0.50400001928E-02 0. -1.
</event>
<event>
 5   0  0.1066907E-06  0.3587373E+04  0.7818609E-02  0.8093390E-01
       -2   -1    0    0    0  501  0.00000000000E+00  0.00000000000E+00  0.30115863672E+04  0.30115863672E+04  0.25500000920E-02 0.  1.
        2   -1    0    0  501    0  0.00000000000E+00  0.00000000000E+00 -0.10683108834E+04  0.10683108834E+04  0.25500000920E-02 0. -1.
    10030    2    1    2    0    0  0.00000000000E+00  0.00000000000E+00  0.19432754839E+04  0.40798972506E+04  0.35873725718E+04 0.  0.
        4    1    3    3  502    0  0.13171579790E+04  0.11206082412E+04  0.15130672142E+04  0.22978341932E+04  0.12699999809E+01 0.  1.
       -4    1    3    3    0  502 -0.13171579790E+04 -0.11206082412E+04  0.43020826970E+03  0.17820630573E+04  0.12699999809E+01 0. -1.
</event>
<event>
 5   0  0.3704306E-07  0.3472104E+04  0.7818609E-02  0.8120433E-01
       -1   -1    0    0    0  501  0.00000000000E+00  0.00000000000E+00  0.12436670574E+04  0.12436670575E+04  0.50400001928E-02 0. -1.
        1   -1    0    0  501    0  0.00000000000E+00  0.00000000000E+00 -0.24233790750E+04  0.24233790750E+04  0.50400001928E-02 0.  1.
    10030    2    1    2    0    0  0.00000000000E+00  0.00000000000E+00 -0.11797120176E+04  0.36670461325E+04  0.34721041018E+04 0.  0.
        3    1    3    3  502    0 -0.12654879458E+04  0.11704171241E+04 -0.80769022331E+03  0.19036017158E+04  0.10100000352E+00 0. -1.
       -3    1    3    3    0  502  0.12654879458E+04 -0.11704171241E+04 -0.37202179428E+03  0.17634444167E+04  0.10100000352E+00 0.  1.
</event>
<event>
 5   0  0.3704306E-07  0.2764458E+04  0.7818609E-02  0.8314388E-01
        1   -1    0    0  501    0  0.00000000000E+00  0.00000000000E+00  0.13437248709E+04  0.13437248709E+04  0.50400001928E-02 0.  1.
       -1   -1    0    0    0  501  0.00000000000E+00  0.00000000000E+00 -0.14218366329E+04  0.14218366329E+04  0.50400001928E-02 0. -1.
    10030    2    1    2    0    0  0.00000000000E+00  0.00000000000E+00 -0.78111761982E+02  0.27655615039E+04  0.27644581719E+04 0.  0.
        3    1    3    3  502    0  0.41736510224E+03  0.10091399118E+04  0.80863125876E+03  0.13588382954E+04  0.10100000352E+00 0.  1.
       -3    1    3    3    0  502 -0.41736510224E+03 -0.10091399118E+04 -0.88674302074E+03  0.14067232085E+04  0.10100000352E+00 0. -1.
</event>
<event>
 5   0  0.3704306E-07  0.3378832E+04  0.7818609E-02  0.8143121E-01
        1   -1    0    0  501    0  0.00000000000E+00  0.00000000000E+00  0.14475239089E+04  0.14475239089E+04  0.50400001928E-02 0. -1.
       -1   -1    0    0    0  501  0.00000000000E+00  0.00000000000E+00 -0.19717303014E+04  0.19717303014E+04  0.50400001928E-02 0.  1.
    10030    2    1    2    0    0  0.00000000000E+00  0.00000000000E+00 -0.52420639253E+03  0.34192542103E+04  0.33788321965E+04 0.  0.
        3    1    3    3  502    0 -0.76449724090E+03  0.11675382566E+04 -0.12256097889E+04  0.18573424501E+04  0.10100000352E+00 0.  1.
       -3    1    3    3    0  502  0.76449724090E+03 -0.11675382566E+04  0.70140339641E+03  0.15619117602E+04  0.10100000352E+00 0. -1.
</event>
<event>
 5   0  0.3675819E-07  0.3703414E+04  0.7818609E-02  0.8067206E-01
       -1   -1    0    0    0  501  0.00000000000E+00  0.00000000000E+00  0.15933463595E+04  0.15933463596E+04  0.50400001928E-02 0.  1.
        1   -1    0    0  501    0  0.00000000000E+00  0.00000000000E+00 -0.21519602995E+04  0.21519602995E+04  0.50400001928E-02 0. -1.
    10030    2    1    2    0    0  0.00000000000E+00  0.00000000000E+00 -0.55861393996E+03  0.37453066591E+04  0.37034136194E+04 0.  0.
        5    1    3    3  502    0 -0.70999009834E+03  0.17028089354E+04 -0.43969419639E+03  0.18965751465E+04  0.46999998093E+01 0. -1.
       -5    1    3    3    0  502  0.70999009834E+03 -0.17028089354E+04 -0.11891974357E+03  0.18487315125E+04  0.46999998093E+01 0.  1.
</event>
<event>
 5   0  0.3675819E-07  0.2487894E+04  0.7818609E-02  0.8407311E-01
        1   -1    0    0  501    0  0.00000000000E+00  0.00000000000E+00  0.13747879509E+04  0.13747879509E+04  0.50400001928E-02 0. -1.
       -1   -1    0    0    0  501  0.00000000000E+00  0.00000000000E+00 -0.11255583022E+04  0.11255583022E+04  0.50400001928E-02 0.  1.
    10030    2    1    2    0    0  0.00000000000E+00  0.00000000000E+00  0.24922964869E+03  0.25003462530E+04  0.24878938819E+04 0.  0.
        5    1    3    3  502    0  0.10083353819E+04 -0.53000699012E+03 -0.37762061739E+03  0.12001112751E+04  0.46999998093E+01 0.  1.
       -5    1    3    3    0  502 -0.10083353819E+04  0.53000699012E+03  0.62685026609E+03  0.13002349780E+04  0.46999998093E+01 0. -1.
</event>
<event>
 5   0  0.3848431E-07  0.3660407E+04  0.7818609E-02  0.8076793E-01
       -1   -1    0    0    0  501  0.00000000000E+00  0.00000000000E+00  0.14278381034E+04  0.14278381034E+04  0.50400001928E-02 0. -1.
        1   -1    0    0  501    0  0.00000000000E+00  0.00000000000E+00 -0.23459557296E+04  0.23459557296E+04  0.50400001928E-02 0.  1.
    10030    2    1    2    0    0  0.00000000000E+00  0.00000000000E+00 -0.91811762616E+03  0.37737938330E+04  0.36604070701E+04 0.  0.
        2    1    3    3  502    0  0.16833501985E+04 -0.43028461807E+03  0.13393845877E+03  0.17426279735E+04  0.25500000920E-02 0. -1.
       -2    1    3    3    0  502 -0.16833501985E+04  0.43028461807E+03 -0.10520560849E+04  0.20311658596E+04  0.25500000920E-02 0.  1.
</event>
<event>
 5   0  0.3848431E-07  0.3107244E+04  0.7818609E-02  0.8213753E-01
       -1   -1    0    0    0  501  0.00000000000E+00  0.00000000000E+00  0.15791770775E+04  0.15791770775E+04  0.50400001928E-02 0. -1.
        1   -1    0    0  501    0  0.00000000000E+00  0.00000000000E+00 -0.15284802225E+04  0.15284802225E+04  0.50400001928E-02 0.  1.
    10030    2    1    2    0    0  0.00000000000E+00  0.00000000000E+00  0.50696854987E+02  0.31076573000E+04  0.31072437502E+04 0.  0.
        2    1    3    3  502    0 -0.79223651879E+03  0.83267220993E+03 -0.10201419429E+04  0.15367730134E+04  0.25500000920E-02 0.  1.
       -2    1    3    3    0  502  0.79223651879E+03 -0.83267220993E+03  0.10708387979E+04  0.15708842867E+04  0.25500000920E-02 0. -1.
</event>
<event>
 5   0  0.3848431E-07  0.3425169E+04  0.7818609E-02  0.8131756E-01
        1   -1    0    0  501    0  0.00000000000E+00  0.00000000000E+00  0.20565699645E+04  0.20565699645E+04  0.50400001928E-02 0.  1.
       -1   -1    0    0    0  501  0.00000000000E+00  0.00000000000E+00 -0.14261348304E+04  0.14261348304E+04  0.50400001928E-02 0. -1.
    10030    2    1    2    0    0  0.00000000000E+00  0.00000000000E+00  0.63043513404E+03  0.34827047949E+04  0.34251692265E+04 0.  0.
        2    1    3    3  502    0  0.68536717988E+03 -0.54837549889E+02 -0.12796358914E+04  0.14526538964E+04  0.25500000920E-02 0. -1.
       -2    1    3    3    0  502 -0.68536717988E+03  0.54837549889E+02  0.19100710255E+04  0.20300508985E+04  0.25500000920E-02 0.  1.
</event>
<event>
 5   0  0.1128530E-06  0.3709206E+04  0.7818609E-02  0.8065925E-01
        2   -1    0    0  501    0  0.00000000000E+00  0.00000000000E+00  0.29355114065E+04  0.29355114065E+04  0.25500000920E-02 0. -1.
       -2   -1    0    0    0  501  0.00000000000E+00  0.00000000000E+00 -0.11717043856E+04  0.11717043856E+04  0.25500000920E-02 0.  1.
    10030    2    1    2    0    0  0.00000000000E+00  0.00000000000E+00  0.17638070209E+04  0.41072157921E+04  0.37092056234E+04 0.  0.
        5    1    3    3  502    0  0.37542894584E+03  0.95934620879E+03 -0.82572823213E+03  0.13202807448E+04  0.46999998093E+01 0.  1.
       -5    1    3    3    0  502 -0.37542894584E+03 -0.95934620879E+03  0.25895352530E+04  0.27869350474E+04  0.46999998093E+01 0. -1.
</event>
<event>
 5   0  0.3704306E-07  0.3707624E+04  0.7818609E-02  0.8066274E-01
       -1   -1    0    0    0  501  0.00000000000E+00  0.00000000000E+00  0.15612582293E+04  0.15612582293E+04  0.50400001928E-02 0. -1.
        1   -1    0    0  501    0  0.00000000000E+00  0.00000000000E+00 -0.22011860221E+04  0.22011860221E+04  0.50400001928E-02 0.  1.
    10030    2    1    2    0    0  0.00000000000E+00  0.00000000000E+00 -0.63992779285E+03  0.37624442514E+04  0.37076244638E+04 0.  0.
        3    1    3    3  502    0 -0.17218897765E+04 -0.59539572569E+03 -0.66739917283E+03  0.19403149586E+04  0.10100000352E+00 0.  1.
       -3    1    3    3    0  502  0.17218897765E+04  0.59539572569E+03  0.27471379990E+02  0.18221292927E+04  0.10100000352E+00 0. -1.
</event>
<event>
 5   0  0.1128166E-06  0.3299842E+04  0.7818609E-02  0.8162936E-01
       -2   -1    0    0    0  501  0.00000000000E+00  0.00000000000E+00  0.14247257030E+04  0.14247257030E+04  0.25500000920E-02 0.  1.
        2   -1    0    0  501    0  0.00000000000E+00  0.00000000000E+00 -0.19107108453E+04  0.19107108453E+04  0.25500000920E-02 0. -1.
    10030    2    1    2    0    0  0.00000000000E+00  0.00000000000E+00 -0.48598514224E+03  0.33354365483E+04  0.32998417249E+04 0.  0.
        3    1    3    3  502    0  0.57524610255E+03  0.32722132464E+03 -0.17706713745E+04  0.18903065890E+04  0.10100000352E+00 0. -1.
       -3    1    3    3    0  502 -0.57524610255E+03 -0.32722132464E+03  0.12846862322E+04  0.14451299593E+04  0.10100000352E+00 0.  1.
</event>
<event>
 5   0  0.3764495E-07  0.3904975E+04  0.7818609E-02  0.8023995E-01
       -1   -1    0    0    0  501  0.00000000000E+00  0.00000000000E+00  0.16272695030E+04  0.16272695030E+04  0.50400001928E-02 0.  1.
        1   -1    0    0  501    0  0.00000000000E+00  0.00000000000E+00 -0.23427014086E+04  0.23427014086E+04  0.50400001928E-02 0. -1.
    10030    2    1    2    0    0  0.00000000000E+00  0.00000000000E+00 -0.71543190561E+03  0.39699709116E+04  0.39049745489E+04 0.  0.
        4    1    3    3  502    0  0.49720265395E+03  0.16011518186E+04  0.65959287287E+03  0.18016553489E+04  0.12699999809E+01 0.  1.
       -4    1    3    3    0  502 -0.49720265395E+03 -0.16011518186E+04 -0.13750247785E+04  0.21683155628E+04  0.12699999809E+01 0. -1.
</event>
<event>
 5   0  0.1066907E-06  0.2399704E+04  0.7818609E-02  0.8439614E-01
       -2   -1    0    0    0  501  0.00000000000E+00  0.00000000000E+00  0.72204494274E+03  0.72204494274E+03  0.25500000920E-02 0.  1.
        2   -1    0    0  501    0  0.00000000000E+00  0.00000000000E+00 -0.19938444350E+04  0.19938444350E+04  0.25500000920E-02 0. -1.
    10030    2    1    2    0    0  0.00000000000E+00  0.00000000000E+00 -0.12717994923E+04  0.27158893778E+04  0.23997043909E+04 0.  0.
        4    1    3    3  502    0  0.19048988515E+03 -0.29356511331E+03 -0.19348016928E+04  0.19661958385E+04  0.12699999809E+01 0. -1.
       -4    1    3    3    0  502 -0.19048988515E+03  0.29356511331E+03  0.66300220048E+03  0.74969353928E+03  0.12699999809E+01 0.  1.
</event>
<event>
 5   0  0.1092116E-06  0.3441265E+04  0.7818609E-02  0.8127852E-01
       -2   -1    0    0    0  501  0.00000000000E+00  0.00000000000E+00  0.18090255364E+04  0.18090255364E+04  0.25500000920E-02 0. -1.
        2   -1    0    0  501    0  0.00000000000E+00  0.00000000000E+00 -0.16365588561E+04  0.16365588561E+04  0.25500000920E-02 0.  1.
    10030    2    1    2    0    0  0.00000000000E+00  0.00000000000E+00  0.17246668030E+03  0.34455843925E+04  0.34412653269E+04 0.  0.
        1    1    3    3  502    0  0.11610528406E+04 -0.11692308323E+04  0.58226638932E+03  0.17476208359E+04  0.50400001928E-02 0. -1.
       -1    1    3    3    0  502 -0.11610528406E+04  0.11692308323E+04 -0.40979970902E+03  0.16979635566E+04  0.50400001928E-02 0.  1.
</event>
<event>
 5   0  0.3704306E-07  0.3688740E+04  0.7818609E-02  0.8070462E-01
        1   -1    0    0  501    0  0.00000000000E+00  0.00000000000E+00  0.30628444609E+04  0.30628444609E+04  0.50400001928E-02 0. -1.
       -1   -1    0    0    0  501  0.00000000000E+00  0.00000000000E+00 -0.11106344845E+04  0.11106344845E+04  0.50400001928E-02 0.  1.
    10030    2    1    2    0    0  0.00000000000E+00  0.00000000000E+00  0.19522099765E+04  0.41734789454E+04  0.36887399902E+04 0.  0.
        3    1    3    3  502    0  0.41299149547E+03 -0.37830286317E+03 -0.10120975848E+04  0.11567266587E+04  0.10100000352E+00 0.  1.
       -3    1    3    3    0  502 -0.41299149547E+03  0.37830286317E+03  0.29643075612E+04  0.30167522867E+04  0.10100000352E+00 0. -1.
</event>
<event>
 5   0  0.1128166E-06  0.3743970E+04  0.7818609E-02  0.8058287E-01
       -2   -1    0    0    0  501  0.00000000000E+00  0.00000000000E+00  0.24302857579E+04  0.24302857579E+04  0.25500000920E-02 0.  1.
        2   -1    0    0  501    0  0.00000000000E+00  0.00000000000E+00 -0.14419406713E+04  0.14419406713E+04  0.25500000920E-02 0. -1.
    10030    2    1    2    0    0  0.00000000000E+00  0.00000000000E+00  0.98834508667E+03  0.38722264292E+04  0.37439700197E+04 0.  0.
        3    1    3    3  502    0  0.10752610207E+04  0.90084190800E+03 -0.78789939602E+03  0.16088778307E+04  0.10100000352E+00 0.  1.
       -3    1    3    3    0  502 -0.10752610207E+04 -0.90084190800E+03  0.17762444827E+04  0.22633485985E+04  0.10100000352E+00 0. -1.
</event>
<event>
 5   0  0.3682276E-07  0.2940831E+04  0.7818609E-02  0.8260832E-01
        1   -1    0    0  501    0  0.00000000000E+00  0.00000000000E+00  0.22150344175E+04  0.22150344175E+04  0.50400001928E-02 0. -1.
       -1   -1    0    0    0  501  0.00000000000E+00  0.00000000000E+00 -0.97611183210E+03  0.97611183211E+03  0.50400001928E-02 0.  1.
    10030    2    1    2    0    0  0.00000000000E+00  0.00000000000E+00  0.12389225854E+04  0.31911462496E+04  0.29408307013E+04 0.  0.
        1    1    3    3  502    0  0.26386933774E+03  0.61001266013E+02 -0.94881406998E+03  0.98670984655E+03  0.50400001928E-02 0.  1.
       -1    1    3    3    0  502 -0.26386933774E+03 -0.61001266013E+02  0.21877366554E+04  0.22044364031E+04  0.50400001928E-02 0. -1.
</event>
<event>
 5   0  0.1051123E-06  0.3715683E+04  0.7818609E-02  0.8064495E-01
       -2   -1    0    0    0  501  0.00000000000E+00  0.00000000000E+00  0.17272754059E+04  0.17272754059E+04  0.25500000920E-02 0. -1.
        2   -1    0    0  501    0  0.00000000000E+00  0.00000000000E+00 -0.19982775824E+04  0.19982775824E+04  0.25500000920E-02 0.  1.
    10030    2    1    2    0    0  0.00000000000E+00  0.00000000000E+00 -0.27100217649E+03  0.37255529884E+04  0.37156833678E+04 0.  0.
        2    1    3    3  502    0  0.19849754272E+03  0.17712405803E+04  0.39018272958E+03  0.18245374840E+04  0.25500000920E-02 0. -1.
       -2    1    3    3    0  502 -0.19849754272E+03 -0.17712405803E+04 -0.66118490607E+03  0.19010155044E+04  0.25500000920E-02 0.  1.
</event>
<event>
 5   0  0.3764495E-07  0.2491606E+04  0.7818609E-02  0.8405982E-01
        1   -1    0    0  501    0  0.00000000000E+00  0.00000000000E+00  0.86241081144E+03  0.86241081146E+03  0.50400001928E-02 0.  1.
       -1   -1    0    0    0  501  0.00000000000E+00  0.00000000000E+00 -0.17996359090E+04  0.17996359090E+04  0.50400001928E-02 0. -1.
    10030    2    1    2    0    0  0.00000000000E+00  0.00000000000E+00 -0.93722509751E+03  0.26620467204E+04  0.24916062808E+04 0.  0.
        4    1    3    3  502    0  0.55147795938E+03 -0.61273363323E+03  0.52933422333E+03  0.97967687421E+03  0.12699999809E+01 0.  1.
       -4    1    3    3    0  502 -0.55147795938E+03  0.61273363323E+03 -0.14665593208E+04  0.16823698462E+04  0.12699999809E+01 0. -1.
</event>
<event>
 5   0  0.3682276E-07  0.3543279E+04  0.7818609E-02  0.8103609E-01
       -1   -1    0    0    0  501  0.00000000000E+00  0.00000000000E+00  0.14181974349E+04  0.14181974349E+04  0.50400001928E-02 0.  1.
        1   -1    0    0  501    0  0.00000000000E+00  0.00000000000E+00 -0.22131657549E+04  0.22131657549E+04  0.50400001928E-02 0. -1.
    10030    2    1    2    0    0  0.00000000000E+00  0.00000000000E+00 -0.79496832002E+03  0.36313631899E+04  0.35432787058E+04 0.  0.
        1    1    3    3  502    0  0.14117068500E+04  0.26297599865E+03  0.66591985356E+03  0.15828840316E+04  0.50400001928E-02 0.  1.
       -1    1    3    3    0  502 -0.14117068500E+04 -0.26297599865E+03 -0.14608881736E+04  0.20484791583E+04  0.50400001928E-02 0. -1.
</event>
<event>
 5   0  0.3848431E-07  0.3490193E+04  0.7818609E-02  0.8116118E-01
       -1   -1    0    0    0  501  0.00000000000E+00  0.00000000000E+00  0.15405321822E+04  0.15405321822E+04  0.50400001928E-02 0.  1.
        1   -1    0    0  501    0  0.00000000000E+00  0.00000000000E+00 -0.19768240014E+04  0.19768240014E+04  0.50400001928E-02 0. -1.
    10030    2    1    2    0    0  0.00000000000E+00  0.00000000000E+00 -0.43629181922E+03  0.35173561836E+04  0.34901925407E+04 0.  0.
        2    1    3    3  502    0  0.16012595296E+04 -0.69312118358E+03 -0.18771259254E+03  0.17549031522E+04  0.25500000920E-02 0. -1.
       -2    1    3    3    0  502 -0.16012595296E+04  0.69312118358E+03 -0.24857922667E+03  0.17624530315E+04  0.25500000920E-02 0.  1.
</event>
<event>
 5   0  0.1051123E-06  0.3689179E+04  0.7818609E-02  0.8070364E-01
        2   -1    0    0  501    0  0.00000000000E+00  0.00000000000E+00  0.13319856721E+04  0.13319856721E+04  0.25500000920E-02 0.  1.
       -2   -1    0    0    0  501  0.00000000000E+00  0.00000000000E+00 -0.25544644554E+04  0.25544644554E+04  0.25500000920E-02 0. -1.
    10030    2    1    2    0    0  0.00000000000E+00  0.00000000000E+00 -0.12224787834E+04  0.38864501275E+04  0.36891788000E+04 0.  0.
        2    1    3    3  502    0 -0.78454379760E+02 -0.28197751367E+03 -0.25298458172E+04  0.25467206888E+04  0.25500000920E-02 0. -1.
       -2    1    3    3    0  502  0.78454379760E+02  0.28197751367E+03  0.13073670338E+04  0.13397294388E+04  0.25500000920E-02 0.  1.
</event>
<event>
 5   0  0.1092116E-06  0.3698570E+04  0.7818609E-02  0.8068279E-01
        2   -1    0    0  501    0  0.00000000000E+00  0.00000000000E+00  0.32227208136E+04  0.32227208136E+04  0.25500000920E-02 0. -1.
       -2   -1    0    0    0  501  0.00000000000E+00  0.00000000000E+00 -0.10611701169E+04  0.10611701169E+04  0.25500000920E-02 0.  1.
    10030    2    1    2    0    0  0.00000000000E+00  0.00000000000E+00  0.21615506967E+04  0.42838909305E+04  0.36985700061E+04 0.  0.
        1    1    3    3  502    0  0.40891828034E+03  0.18011331126E+04  0.11879398408E+04  0.21960181499E+04  0.50400001928E-02 0. -1.
       -1    1    3    3    0  502 -0.40891828034E+03 -0.18011331126E+04  0.97361085592E+03  0.20878727806E+04  0.50400001928E-02 0.  1.
</event>
<event>
 5   0  0.1128530E-06  0.3569498E+04  0.7818609E-02  0.8097514E-01
       -2   -1    0    0    0  501  0.00000000000E+00  0.00000000000E+00  0.27574316738E+04  0.27574316738E+04  0.25500000920E-02 0.  1.
        2   -1    0    0  501    0  0.00000000000E+00  0.00000000000E+00 -0.11551798318E+04  0.11551798318E+04  0.25500000920E-02 0. -1.
    10030    2    1    2    0    0  0.00000000000E+00  0.00000000000E+00  0.16022518420E+04  0.39126115056E+04  0.35694982601E+04 0.  0.
        5    1    3    3  502    0  0.88174769400E+02  0.16426630212E+04  0.15599022569E+04  0.22670319213E+04  0.46999998093E+01 0.  1.
       -5    1    3    3    0  502 -0.88174769400E+02 -0.16426630212E+04  0.42349585106E+02  0.16455795844E+04  0.46999998093E+01 0. -1.
</event>
<event>
 5   0  0.1092116E-06  0.3741667E+04  0.7818609E-02  0.8058790E-01
       -2   -1    0    0    0  501  0.00000000000E+00  0.00000000000E+00  0.16962960953E+04  0.16962960953E+04  0.25500000920E-02 0.  1.
        2   -1    0    0  501    0  0.00000000000E+00  0.00000000000E+00 -0.20633301591E+04  0.20633301591E+04  0.25500000920E-02 0. -1.
    10030    2    1    2    0    0  0.00000000000E+00  0.00000000000E+00 -0.36703406378E+03  0.37596262544E+04  0.37416674851E+04 0.  0.
        1    1    3    3  502    0  0.12345863925E+04  0.50425212868E+03  0.11348571481E+04  0.17511066548E+04  0.50400001928E-02 0.  1.
       -1    1    3    3    0  502 -0.12345863925E+04 -0.50425212868E+03 -0.15018912119E+04  0.20085195996E+04  0.50400001928E-02 0. -1.
</event>
<event>
 5   0  0.3682276E-07  0.2372501E+04  0.7818609E-02  0.8449871E-01
       -1   -1    0    0    0  501  0.00000000000E+00  0.00000000000E+00  0.80353376878E+03  0.80353376880E+03  0.50400001928E-02 0.  1.
        1   -1    0    0  501    0  0.00000000000E+00  0.00000000000E+00 -0.17512522964E+04  0.17512522964E+04  0.50400001928E-02 0. -1.
    10030    2    1    2    0    0  0.00000000000E+00  0.00000000000E+00 -0.94771852761E+03  0.25547860652E+04  0.23725010920E+04 0.  0.
        1    1    3    3  502    0 -0.24478739674E+03  0.41267775027E+02 -0.17229692895E+04  0.17407604865E+04  0.50400001928E-02 0. -1.
       -1    1    3    3    0  502  0.24478739674E+03 -0.41267775027E+02  0.77525076191E+03  0.81402557866E+03  0.50400001928E-02 0.  1.
</event>
<event>
 5   0  0.1128530E-06  0.3710403E+04  0.7818609E-02  0.8065660E-01
        2   -1    0    0  501    0  0.00000000000E+00  0.00000000000E+00  0.14674734929E+04  0.14674734929E+04  0.25500000920E-02 0.  1.
       -2   -1    0    0    0  501  0.00000000000E+00  0.00000000000E+00 -0.23453727730E+04  0.23453727730E+04  0.25500000920E-02 0. -1.
    10030    2    1    2    0    0  0.00000000000E+00  0.00000000000E+00 -0.87789928007E+03  0.38128462659E+04  0.37104028759E+04 0.  0.
        5    1    3    3  502    0 -0.51800022994E+03  0.64571338954E+03 -0.21450543062E+04  0.22992498964E+04  0.46999998093E+01 0. -1.
       -5    1    3    3    0  502  0.51800022994E+03 -0.64571338954E+03  0.12671550261E+04  0.15135963695E+04  0.46999998093E+01 0.  1.
</event>
<event>
 5   0  0.1066907E-06  0.3566184E+04  0.7818609E-02  0.8098282E-01
        2   -1    0    0  501    0  0.00000000000E+00  0.00000000000E+00  0.13154392388E+04  0.13154392388E+04  0.25500000920E-02 0. -1.
       -2   -1    0    0    0  501  0.00000000000E+00  0.00000000000E+00 -0.24170003854E+04  0.24170003854E+04  0.25500000920E-02 0.  1.
    10030    2    1    2    0    0  0.00000000000E+00  0.00000000000E+00 -0.11015611466E+04  0.37324396242E+04  0.35661840374E+04 0.  0.
        4    1    3    3  502    0  0.81074773789E+03  0.15449279076E+04 -0.93576236106E+03  0.19798401308E+04  0.12699999809E+01 0. -1.
       -4    1    3    3    0  502 -0.81074773789E+03 -0.15449279076E+04 -0.16579878550E+03  0.17525994934E+04  0.12699999809E+01 0.  1.
</event>
<event>
 5   0  0.1066907E-06  0.3639889E+04  0.7818609E-02  0.8081415E-01
       -2   -1    0    0    0  501  0.00000000000E+00  0.00000000000E+00  0.18407042673E+04  0.18407042673E+04  0.25500000920E-02 0.  1.
        2   -1    0    0  501    0  0.00000000000E+00  0.00000000000E+00 -0.17994190088E+04  0.17994190088E+04  0.25500000920E-02 0. -1.
    10030    2    1    2    0    0  0.00000000000E+00  0.00000000000E+00  0.41285258496E+02  0.36401232760E+04  0.36398891456E+04 0.  0.
        4    1    3    3  502    0  0.72864875045E+02 -0.51719236270E+03 -0.17228568480E+04  0.18002873553E+04  0.12699999809E+01 0. -1.
       -4    1    3    3    0  502 -0.72864875045E+02  0.51719236270E+03  0.17641421065E+04  0.18398359207E+04  0.12699999809E+01 0.  1.
</event>
<event>
 5   0  0.3848431E-07  0.3774973E+04  0.7818609E-02  0.8051547E-01
        1   -1    0    0  501    0  0.00000000000E+00  0.00000000000E+00  0.23096362843E+04  0.23096362843E+04  0.50400001928E-02 0. -1.
       -1   -1    0    0    0  501  0.00000000000E+00  0.00000000000E+00 -0.15424963222E+04  0.15424963222E+04  0.50400001928E-02 0.  1.
    10030    2    1    2    0    0  0.00000000000E+00  0.00000000000E+00  0.76713996205E+03  0.38521326065E+04  0.37749730988E+04 0.  0.
        2    1    3    3  502    0 -0.17638621324E+04 -0.42421514677E+03  0.91521552744E+03  0.20319418236E+04  0.25500000920E-02 0. -1.
       -2    1    3    3    0  502  0.17638621324E+04  0.42421514677E+03 -0.14807556538E+03  0.18201907829E+04  0.25500000920E-02 0.  1.
</event>
<event>
 5   0  0.3704306E-07  0.3656097E+04  0.7818609E-02  0.8077762E-01
        1   -1    0    0  501    0  0.00000000000E+00  0.00000000000E+00  0.11308249309E+04  0.11308249309E+04  0.50400001928E-02 0. -1.
       -1   -1    0    0    0  501  0.00000000000E+00  0.00000000000E+00 -0.29551534470E+04  0.29551534470E+04  0.50400001928E-02 0.  1.
    10030    2    1    2    0    0  0.00000000000E+00  0.00000000000E+00 -0.18243285161E+04  0.40859783779E+04  0.36560969311E+04 0.  0.
        3    1    3    3  502    0  0.12456499608E+03  0.15059372087E+03  0.11191161268E+04  0.11360527376E+04  0.10100000352E+00 0. -1.
       -3    1    3    3    0  502 -0.12456499608E+03 -0.15059372087E+03 -0.29434446430E+04  0.29499256403E+04  0.10100000352E+00 0.  1.
</event>
<event>
 5   0  0.3675819E-07  0.3652690E+04  0.7818609E-02  0.8078528E-01
        1   -1    0    0  501    0  0.00000000000E+00  0.00000000000E+00  0.16419109101E+04  0.16419109101E+04  0.50400001928E-02 0. -1.
       -1   -1    0    0    0  501  0.00000000000E+00  0.00000000000E+00 -0.20314963248E+04  0.20314963248E+04  0.50400001928E-02 0.  1.
    10030    2    1    2    0    0  0.00000000000E+00  0.00000000000E+00 -0.38958541468E+03  0.36734072349E+04  0.36526899565E+04 0.  0.
        5    1    3    3  502    0 -0.11126944481E+04  0.14388242727E+04 -0.36068181873E+03  0.18542970870E+04  0.46999998093E+01 0.  1.
       -5    1    3    3    0  502  0.11126944481E+04 -0.14388242727E+04 -0.28903595951E+02  0.18191101479E+04  0.46999998093E+01 0. -1.
</event>
<event>
 5   0  0.1066907E-06  0.3699867E+04  0.7818609E-02  0.8067991E-01
        2   -1    0    0  501    0  0.00000000000E+00  0.00000000000E+00  0.19168447285E+04  0.19168447285E+04  0.25500000920E-02 0.  1.
       -2   -1    0    0    0  501  0.00000000000E+00  0.00000000000E+00 -0.17853582254E+04  0.17853582254E+04  0.25500000920E-02 0. -1.
    10030    2    1    2    0    0  0.00000000000E+00  0.00000000000E+00  0.13148650313E+03  0.37022029539E+04  0.36998672964E+04 0.  0.
        4    1    3    3  502    0 -0.43799217873E+03 -0.16496245591E+04  0.77974437044E+03  0.18764597600E+04  0.12699999809E+01 0.  1.
       -4    1    3    3    0  502  0.43799217873E+03  0.16496245591E+04 -0.64825786731E+03  0.18257431939E+04  0.12699999809E+01 0. -1.
</event>
<event>
 5   0  0.1128530E-06  0.3680160E+04  0.7818609E-02  0.8072373E-01
       -2   -1    0    0    0  501  0.00000000000E+00  0.00000000000E+00  0.20364102102E+04  0.20364102102E+04  0.25500000920E-02 0. -1.
        2   -1    0    0  501    0  0.00000000000E+00  0.00000000000E+00 -0.16626778714E+04  0.16626778714E+04  0.25500000920E-02 0.  1.
    10030    2    1    2    0    0  0.00000000000E+00  0.00000000000E+00  0.37373233883E+03  0.36990880816E+04  0.36801598843E+04 0.  0.
        5    1    3    3  502    0  0.79904415292E+03  0.89973782172E+03 -0.12123685542E+04  0.17081742614E+04  0.46999998093E+01 0.  1.
       -5    1    3    3    0  502 -0.79904415292E+03 -0.89973782172E+03  0.15861008931E+04  0.19909138201E+04  0.46999998093E+01 0. -1.
</event>
<event>
 5   0  0.1092116E-06  0.3509556E+04  0.7818609E-02  0.8111529E-01
        2   -1    0    0  501    0  0.00000000000E+00  0.00000000000E+00  0.16967767320E+04  0.16967767320E+04  0.25500000920E-02 0.  1.
       -2   -1    0    0    0  501  0.00000000000E+00  0.00000000000E+00 -0.18147620338E+04  0.18147620338E+04  0.25500000920E-02 0. -1.
    10030    2    1    2    0    0  0.00000000000E+00  0.00000000000E+00 -0.11798530179E+03  0.35115387658E+04  0.35095560934E+04 0.  0.
        1    1    3    3  502    0 -0.67740385742E+03 -0.11355988703E+04  0.10952556989E+04  0.17169874275E+04  0.50400001928E-02 0.  1.
       -1    1    3    3    0  502  0.67740385742E+03  0.11355988703E+04 -0.12132410007E+04  0.17945513383E+04  0.50400001928E-02 0. -1.
</event>
<event>
 5   0  0.1092116E-06  0.3499005E+04  0.7818609E-02  0.8114026E-01
        2   -1    0    0  501    0  0.00000000000E+00  0.00000000000E+00  0.20221321599E+04  0.20221321599E+04  0.25500000920E-02 0.  1.
       -2   -1    0    0    0  501  0.00000000000E+00  0.00000000000E+00 -0.15136293810E+04  0.15136293811E+04  0.25500000920E-02 0. -1.
    10030    2    1    2    0    0  0.00000000000E+00  0.00000000000E+00  0.50850277884E+03  0.35357615409E+04  0.34990048011E+04 0.  0.
        1    1    3    3  502    0  0.16391760650E+04 -0.54504409303E+03  0.53426777850E+03  0.18081519003E+04  0.50400001928E-02 0. -1.
       -1    1    3    3    0  502 -0.16391760650E+04  0.54504409303E+03 -0.25764999654E+02  0.17276096407E+04  0.50400001928E-02 0.  1.
</event>
<event>
 5   0  0.1066907E-06  0.3629150E+04  0.7818609E-02  0.8083847E-01
        2   -1    0    0  501    0  0.00000000000E+00  0.00000000000E+00  0.27337066562E+04  0.27337066562E+04  0.25500000920E-02 0.  1.
       -2   -1    0    0    0  501  0.00000000000E+00  0.00000000000E+00 -0.12044755220E+04  0.12044755220E+04  0.25500000920E-02 0. -1.
    10030    2    1    2    0    0  0.00000000000E+00  0.00000000000E+00  0.15292311342E+04  0.39381821781E+04  0.36291501769E+04 0.  0.
        4    1    3    3  502    0  0.68352933712E+02  0.10431998076E+04 -0.84483207182E+03  0.13441282694E+04  0.12699999809E+01 0. -1.
       -4    1    3    3    0  502 -0.68352933712E+02 -0.10431998076E+04  0.23740632061E+04  0.25940539087E+04  0.12699999809E+01 0.  1.
</event>
<event>
 5   0  0.6062637E-07  0.2282752E+04  0.7818609E-02  0.8484753E-01
       -1   -1    0    0    0  501  0.00000000000E+00  0.00000000000E+00  0.11935347133E+04  0.11935347133E+04  0.50400001928E-02 0. -1.
        1   -1    0    0  501    0  0.00000000000E+00  0.00000000000E+00 -0.10914965589E+04  0.10914965589E+04  0.50400001928E-02 0.  1.
    10030    2    1    2    0    0  0.00000000000E+00  0.00000000000E+00  0.10203815440E+03  0.22850312722E+04  0.22827518766E+04 0.  0.
        4    1    3    3  502    0  0.10068058963E+04 -0.28708010899E+03 -0.40403833096E+03  0.11221950310E+04  0.12699999809E+01 0.  1.
       -4    1    3    3    0  502 -0.10068058963E+04  0.28708010899E+03  0.50607648536E+03  0.11628362412E+04  0.12699999809E+01 0. -1.
</event>
<event>
 5   0  0.1066907E-06  0.3796464E+04  0.7818609E-02  0.8046914E-01
        2   -1    0    0  501    0  0.00000000000E+00  0.00000000000E+00  0.16675114936E+04  0.16675114936E+04  0.25500000920E-02 0.  1.
       -2   -1    0    0    0  501  0.00000000000E+00  0.00000000000E+00 -0.21608753868E+04  0.21608753868E+04  0.25500000920E-02 0. -1.
    10030    2    1    2    0    0  0.00000000000E+00  0.00000000000E+00 -0.49336389317E+03  0.38283868804E+04  0.37964639040E+04 0.  0.
        4    1    3    3  502    0  0.12716351990E+04  0.14084811223E+04 -0.29616367937E+03  0.19205701469E+04  0.12699999809E+01 0. -1.
       -4    1    3    3    0  502 -0.12716351990E+04 -0.14084811223E+04 -0.19720021380E+03  0.19078167335E+04  0.12699999809E+01 0.  1.
</event>
<event>
 5   0  0.3704306E-07  0.3475247E+04  0.7818609E-02  0.8119681E-01
       -1   -1    0    0    0  501  0.00000000000E+00  0.00000000000E+00  0.12264647201E+04  0.12264647201E+04  0.50400001928E-02 0.  1.
        1   -1    0    0  501    0  0.00000000000E+00  0.00000000000E+00 -0.24618196912E+04  0.24618196912E+04  0.50400001928E-02 0. -1.
    10030    2    1    2    0    0  0.00000000000E+00  0.00000000000E+00 -0.12353549711E+04  0.36882844114E+04  0.34752467530E+04 0.  0.
        3    1    3    3  502    0  0.13207935430E+04  0.67519833387E+03  0.34275436252E+03  0.15224549046E+04  0.10100000352E+00 0.  1.
       -3    1    3    3    0  502 -0.13207935430E+04 -0.67519833387E+03 -0.15781093336E+04  0.21658295068E+04  0.10100000352E+00 0. -1.
</event>
<event>
 5   0  0.3764495E-07  0.3789567E+04  0.7818609E-02  0.8048397E-01
        1   -1    0    0  501    0  0.00000000000E+00  0.00000000000E+00  0.11892223075E+04  0.11892223075E+04  0.50400001928E-02 0. -1.
       -1   -1    0    0    0  501  0.00000000000E+00  0.00000000000E+00 -0.30189522049E+04  0.30189522049E+04  0.50400001928E-02 0.  1.
    10030    2    1    2    0    0  0.00000000000E+00  0.00000000000E+00 -0.18297298974E+04  0.42081745125E+04  0.37895674199E+04 0.  0.
        4    1    3    3  502    0  0.93564268145E+02  0.10668740741E+04 -0.26506110672E+04  0.28587961111E+04  0.12699999809E+01 0.  1.
       -4    1    3    3    0  502 -0.93564268145E+02 -0.10668740741E+04  0.82088116979E+03  0.13493784014E+04  0.12699999809E+01 0. -1.
</event>
<event>
 5   0  0.3848431E-07  0.3806931E+04  0.7818609E-02  0.8044669E-01
       -1   -1    0    0    0  501  0.00000000000E+00  0.00000000000E+00  0.22638790850E+04  0.22638790850E+04  0.50400001928E-02 0.  1.
        1   -1    0    0  501    0  0.00000000000E+00  0.00000000000E+00 -0.16004305765E+04  0.16004305765E+04  0.50400001928E-02 0. -1.
    10030    2    1    2    0    0  0.00000000000E+00  0.00000000000E+00  0.66344850857E+03  0.38643096615E+04  0.38069312099E+04 0.  0.
        2    1    3    3  502    0 -0.24226440507E+03  0.36929819320E+03 -0.15476970535E+04  0.16094841928E+04  0.25500000920E-02 0. -1.
       -2    1    3    3    0  502  0.24226440507E+03 -0.36929819320E+03  0.22111455621E+04  0.22548254687E+04  0.25500000920E-02 0.  1.
</event>
<event>
 5   0  0.1092116E-06  0.3664741E+04  0.7818609E-02  0.8075821E-01
        2   -1    0    0  501    0  0.00000000000E+00  0.00000000000E+00  0.19613399380E+04  0.19613399380E+04  0.25500000920E-02 0.  1.
       -2   -1    0    0    0  501  0.00000000000E+00  0.00000000000E+00 -0.17118819724E+04  0.17118819724E+04  0.25500000920E-02 0. -1.
    10030    2    1    2    0    0  0.00000000000E+00  0.00000000000E+00  0.24945796559E+03  0.36732219104E+04  0.36647414542E+04 0.  0.
        1    1    3    3  502    0 -0.24212337675E+03 -0.36360121746E+03  0.19083842239E+04  0.19577435790E+04  0.50400001928E-02 0.  1.
       -1    1    3    3    0  502  0.24212337675E+03  0.36360121746E+03 -0.16589262583E+04  0.17154783314E+04  0.50400001928E-02 0. -1.
</event>
<event>
 5   0  0.3704306E-07  0.3708977E+04  0.7818609E-02  0.8065975E-01
       -1   -1    0    0    0  501  0.00000000000E+00  0.00000000000E+00  0.15257751379E+04  0.15257751379E+04  0.50400001928E-02 0. -1.
        1   -1    0    0  501    0  0.00000000000E+00  0.00000000000E+00 -0.22540199332E+04  0.22540199333E+04  0.50400001928E-02 0.  1.
    10030    2    1    2    0    0  0.00000000000E+00  0.00000000000E+00 -0.72824479538E+03  0.37797950711E+04  0.37089769880E+04 0.  0.
        3    1    3    3  502    0  0.17348700666E+04 -0.11529448216E+03 -0.10214659544E+04  0.20165464715E+04  0.10100000352E+00 0. -1.
       -3    1    3    3    0  502 -0.17348700666E+04  0.11529448216E+03  0.29322115901E+03  0.17632485996E+04  0.10100000352E+00 0.  1.
</event>
<event>
 5   0  0.1092116E-06  0.3704679E+04  0.7818609E-02  0.8066926E-01
        2   -1    0    0  501    0  0.00000000000E+00  0.00000000000E+00  0.14388255026E+04  0.14388255026E+04  0.25500000920E-02 0. -1.
       -2   -1    0    0    0  501  0.00000000000E+00  0.00000000000E+00 -0.23846961486E+04  0.23846961486E+04  0.25500000920E-02 0.  1.
    10030    2    1    2    0    0  0.00000000000E+00  0.00000000000E+00 -0.94587064602E+03  0.38235216512E+04  0.37046790061E+04 0.  0.
        1    1    3    3  502    0  0.99197736322E+02  0.29520750811E+03  0.14116122185E+04  0.14455575807E+04  0.50400001928E-02 0. -1.
       -1    1    3    3    0  502 -0.99197736322E+02 -0.29520750811E+03 -0.23574828645E+04  0.23779640705E+04  0.50400001928E-02 0.  1.
</event>
<event>
 5   0  0.1051123E-06  0.3226807E+04  0.7818609E-02  0.8181773E-01
       -2   -1    0    0    0  501  0.00000000000E+00  0.00000000000E+00  0.17385912127E+04  0.17385912127E+04  0.25500000920E-02 0. -1.
        2   -1    0    0  501    0  0.00000000000E+00  0.00000000000E+00 -0.14972299905E+04  0.14972299905E+04  0.25500000920E-02 0.  1.
    10030    2    1    2    0    0  0.00000000000E+00  0.00000000000E+00  0.24136122219E+03  0.32358212033E+04  0.32268070317E+04 0.  0.
        2    1    3    3  502    0  0.57243465997E+03  0.22983205641E+02  0.16331583005E+04  0.17307269288E+04  0.25500000920E-02 0. -1.
       -2    1    3    3    0  502 -0.57243465997E+03 -0.22983205641E+02 -0.13917970783E+04  0.15050942744E+04  0.25500000920E-02 0.  1.
</event>
<event>
 5   0  0.1066907E-06  0.3731993E+04  0.7818609E-02  0.8060909E-01
       -2   -1    0    0    0  501  0.00000000000E+00  0.00000000000E+00  0.16800150595E+04  0.16800150595E+04  0.25500000920E-02 0. -1.
        2   -1    0    0  501    0  0.00000000000E+00  0.00000000000E+00 -0.20725663095E+04  0.20725663095E+04  0.25500000920E-02 0.  1.
    10030    2    1    2    0    0  0.00000000000E+00  0.00000000000E+00 -0.39255124994E+03  0.37525813690E+04  0.37319928252E+04 0.  0.
        4    1    3    3  502    0 -0.15149932807E+04  0.37520654841E+03 -0.12246378365E+04  0.19838659325E+04  0.12699999809E+01 0.  1.
       -4    1    3    3    0  502  0.15149932807E+04 -0.37520654841E+03  0.83208658660E+03  0.17687154365E+04  0.12699999809E+01 0. -1.
</event>
<event>
 5   0  0.3764495E-07  0.3659681E+04  0.7818609E-02  0.8076956E-01
       -1   -1    0    0    0  501  0.00000000000E+00  0.00000000000E+00  0.16057343249E+04  0.16057343249E+04  0.50400001928E-02 0. -1.
        1   -1    0    0  501    0  0.00000000000E+00  0.00000000000E+00 -0.20852238118E+04  0.20852238118E+04  0.50400001928E-02 0.  1.
    10030    2    1    2    0    0  0.00000000000E+00  0.00000000000E+00 -0.47948948688E+03  0.36909581368E+04  0.36596805597E+04 0.  0.
        4    1    3    3  502    0  0.22322416292E+03  0.11628261557E+04  0.11672843543E+04  0.16626930180E+04  0.12699999809E+01 0. -1.
       -4    1    3    3    0  502 -0.22322416292E+03 -0.11628261557E+04 -0.16467738411E+04  0.20282651188E+04  0.12699999809E+01 0.  1.
</event>
<event>
 5   0  0.3682276E-07  0.3668085E+04  0.7818609E-02  0.8075072E-01
        1   -1    0    0  501    0  0.00000000000E+00  0.00000000000E+00  0.16572962083E+04  0.16572962083E+04  0.50400001928E-02 0.  1.
       -1   -1    0    0    0  501  0.00000000000E+00  0.00000000000E+00 -0.20296381959E+04  0.20296381959E+04  0.50400001928E-02 0. -1.
    10030    2    1    2    0    0  0.00000000000E+00  0.00000000000E+00 -0.37234198768E+03  0.36869344042E+04  0.36680848879E+04 0.  0.
        1    1    3    3  502    0  0.23835529013E+03  0.10171305580E+04  0.13290049266E+04  0.16904502096E+04  0.50400001928E-02 0.  1.
       -1    1    3    3    0  502 -0.23835529013E+03 -0.10171305580E+04 -0.17013469143E+04  0.19964841946E+04  0.50400001928E-02 0. -1.
</event>
<event>
 5   0  0.1066907E-06  0.3650823E+04  0.7818609E-02  0.8078948E-01
        2   -1    0    0  501    0  0.00000000000E+00  0.00000000000E+00  0.25678595515E+04  0.25678595515E+04  0.25500000920E-02 0.  1.
       -2   -1    0    0    0  501  0.00000000000E+00  0.00000000000E+00 -0.12976282882E+04  0.12976282882E+04  0.25500000920E-02 0. -1.
    10030    2    1    2    0    0  0.00000000000E+00  0.00000000000E+00  0.12702312632E+04  0.38654878397E+04  0.36508230273E+04 0.  0.
        4    1    3    3  502    0  0.16216326577E+04  0.11947423707E+03 -0.24321480174E+03  0.16441172776E+04  0.12699999809E+01 0. -1.
       -4    1    3    3    0  502 -0.16216326577E+04 -0.11947423707E+03  0.15134460650E+04  0.22213705621E+04  0.12699999809E+01 0.  1.
</event>
<event>
 5   0  0.1128530E-06  0.3711199E+04  0.7818609E-02  0.8065484E-01
       -2   -1    0    0    0  501  0.00000000000E+00  0.00000000000E+00  0.27454038977E+04  0.27454038977E+04  0.25500000920E-02 0.  1.
        2   -1    0    0  501    0  0.00000000000E+00  0.00000000000E+00 -0.12541869544E+04  0.12541869544E+04  0.25500000920E-02 0. -1.
    10030    2    1    2    0    0  0.00000000000E+00  0.00000000000E+00  0.14912169433E+04  0.39995908522E+04  0.37111991341E+04 0.  0.
        5    1    3    3  502    0  0.18162325841E+04 -0.23469890521E+03  0.10679195143E+04  0.21199666400E+04  0.46999998093E+01 0. -1.
       -5    1    3    3    0  502 -0.18162325841E+04  0.23469890521E+03  0.42329742897E+03  0.18796242122E+04  0.46999998093E+01 0.  1.
</event>
<event>
 5   0  0.3848431E-07  0.3647624E+04  0.7818609E-02  0.8079669E-01
        1   -1    0    0  501    0  0.00000000000E+00  0.00000000000E+00  0.17767186664E+04  0.17767186664E+04  0.50400001928E-02 0. -1.
       -1   -1    0    0    0  501  0.00000000000E+00  0.00000000000E+00 -0.18721537394E+04  0.18721537394E+04  0.50400001928E-02 0.  1.
    10030    2    1    2    0    0  0.00000000000E+00  0.00000000000E+00 -0.95435072932E+02  0.36488724058E+04  0.36476241556E+04 0.  0.
        2    1    3    3  502    0  0.16666583275E+04  0.54562784549E+03  0.45328393200E+03  0.18113326722E+04  0.25500000920E-02 0. -1.
       -2    1    3    3    0  502 -0.16666583275E+04 -0.54562784549E+03 -0.54871900493E+03  0.18375397336E+04  0.25500000920E-02 0.  1.
</event>
<event>
 5   0  0.3704306E-07  0.3674184E+04  0.7818609E-02  0.8073707E-01
       -1   -1    0    0    0  501  0.00000000000E+00  0.00000000000E+00  0.26208135508E+04  0.26208135508E+04  0.50400001928E-02 0. -1.
        1   -1    0    0  501    0  0.00000000000E+00  0.00000000000E+00 -0.12877329096E+04  0.12877329096E+04  0.50400001928E-02 0.  1.
    10030    2    1    2    0    0  0.00000000000E+00  0.00000000000E+00  0.13330806412E+04  0.39085464604E+04  0.36741844588E+04 0.  0.
        3    1    3    3  502    0  0.73008383967E+03 -0.10376877257E+04  0.20798512043E+04  0.24363085336E+04  0.10100000352E+00 0. -1.
       -3    1    3    3    0  502 -0.73008383967E+03  0.10376877257E+04 -0.74677056305E+03  0.14722379268E+04  0.10100000352E+00 0.  1.
</event>
<event>
 5   0  0.1051123E-06  0.3648426E+04  0.7818609E-02  0.8079488E-01
        2   -1    0    0  501    0  0.00000000000E+00  0.00000000000E+00  0.21013122177E+04  0.21013122177E+04  0.25500000920E-02 0. -1.
       -2   -1    0    0    0  501  0.00000000000E+00  0.00000000000E+00 -0.15836543411E+04  0.15836543411E+04  0.25500000920E-02 0.  1.
    10030    2    1    2    0    0  0.00000000000E+00  0.00000000000E+00  0.51765787657E+03  0.36849665587E+04  0.36484255319E+04 0.  0.
        2    1    3    3  502    0 -0.10903382169E+04  0.13206938054E+03 -0.12122865387E+04  0.16358234625E+04  0.25500000920E-02 0.  1.
       -2    1    3    3    0  502  0.10903382169E+04 -0.13206938054E+03  0.17299444153E+04  0.20491430962E+04  0.25500000920E-02 0. -1.
</event>
<event>
 5   0  0.1066907E-06  0.3152334E+04  0.7818609E-02  0.8201520E-01
        2   -1    0    0  501    0  0.00000000000E+00  0.00000000000E+00  0.14291334072E+04  0.14291334072E+04  0.25500000920E-02 0. -1.
       -2   -1    0    0    0  501  0.00000000000E+00  0.00000000000E+00 -0.17383281132E+04  0.17383281132E+04  0.25500000920E-02 0.  1.
    10030    2    1    2    0    0  0.00000000000E+00  0.00000000000E+00 -0.30919470604E+03  0.31674615204E+04  0.31523342330E+04 0.  0.
        4    1    3    3  502    0 -0.14389996641E+03  0.12823149382E+04 -0.10640719892E+04  0.16725099737E+04  0.12699999809E+01 0.  1.
       -4    1    3    3    0  502  0.14389996641E+03 -0.12823149382E+04  0.75487728319E+03  0.14949515466E+04  0.12699999809E+01 0. -1.
</event>
<event>
 5   0  0.3682276E-07  0.3766146E+04  0.7818609E-02  0.8053459E-01
       -1   -1    0    0    0  501  0.00000000000E+00  0.00000000000E+00  0.16201754244E+04  0.16201754244E+04  0.50400001928E-02 0.  1.
        1   -1    0    0  501    0  0.00000000000E+00  0.00000000000E+00 -0.21886294452E+04  0.21886294453E+04  0.50400001928E-02 0. -1.
    10030    2    1    2    0    0  0.00000000000E+00  0.00000000000E+00 -0.56845402086E+03  0.38088048696E+04  0.37661458497E+04 0.  0.
        1    1    3    3  502    0  0.11363130573E+03  0.45425818409E+02 -0.21846037830E+04  0.21880286259E+04  0.50400001928E-02 0. -1.
       -1    1    3    3    0  502 -0.11363130573E+03 -0.45425818409E+02  0.16161497622E+04  0.16207762438E+04  0.50400001928E-02 0.  1.
</event>
<event>
 5   0  0.3682276E-07  0.3690427E+04  0.7818609E-02  0.8070087E-01
        1   -1    0    0  501    0  0.00000000000E+00  0.00000000000E+00  0.23224608423E+04  0.23224608423E+04  0.50400001928E-02 0. -1.
       -1   -1    0    0    0  501  0.00000000000E+00  0.00000000000E+00 -0.14660365952E+04  0.14660365952E+04  0.50400001928E-02 0.  1.
    10030    2    1    2    0    0  0.00000000000E+00  0.00000000000E+00  0.85642424716E+03  0.37884974375E+04  0.36904268510E+04 0.  0.
        1    1    3    3  502    0 -0.52550652576E+03 -0.43185895209E+03 -0.13326406547E+04  0.14961919588E+04  0.50400001928E-02 0.  1.
       -1    1    3    3    0  502  0.52550652576E+03  0.43185895209E+03  0.21890649018E+04  0.22923054787E+04  0.50400001928E-02 0. -1.
</event>
<event>
 5   0  0.1128166E-06  0.3522690E+04  0.7818609E-02  0.8108434E-01
        2   -1    0    0  501    0  0.00000000000E+00  0.00000000000E+00  0.14222808590E+04  0.14222808590E+04  0.25500000920E-02 0. -1.
       -2   -1    0    0    0  501  0.00000000000E+00  0.00000000000E+00 -0.21812403231E+04  0.21812403231E+04  0.25500000920E-02 0.  1.
    10030    2    1    2    0    0  0.00000000000E+00  0.00000000000E+00 -0.75895946407E+03  0.36035211820E+04  0.35226900859E+04 0.  0.
        3    1    3    3  502    0  0.11616771189E+04  0.81637929986E+03  0.68672600860E+03  0.15772005297E+04  0.10100000352E+00 0. -1.
       -3    1    3    3    0  502 -0.11616771189E+04 -0.81637929986E+03 -0.14456854727E+04  0.20263206523E+04  0.10100000352E+00 0.  1.
</event>
<event>
 5   0  0.3682276E-07  0.3764506E+04  0.7818609E-02  0.8053815E-01
       -1   -1    0    0    0  501  0.00000000000E+00  0.00000000000E+00  0.11805668163E+04  0.11805668164E+04  0.50400001928E-02 0.  1.
        1   -1    0    0  501    0  0.00000000000E+00  0.00000000000E+00 -0.30009967233E+04  0.30009967233E+04  0.50400001928E-02 0. -1.
    10030    2    1    2    0    0  0.00000000000E+00  0.00000000000E+00 -0.18204299069E+04  0.41815635396E+04  0.37645064205E+04 0.  0.
        1    1    3    3  502    0  0.17355404825E+04  0.97963501847E+02 -0.17121225628E+04  0.24398896049E+04  0.50400001928E-02 0. -1.
       -1    1    3    3    0  502 -0.17355404825E+04 -0.97963501847E+02 -0.10830734414E+03  0.17416739347E+04  0.50400001928E-02 0.  1.
</event>
<event>
 5   0  0.3704306E-07  0.2390980E+04  0.7818609E-02  0.8442888E-01
       -1   -1    0    0    0  501  0.00000000000E+00  0.00000000000E+00  0.82776486554E+03  0.82776486556E+03  0.50400001928E-02 0. -1.
        1   -1    0    0  501    0  0.00000000000E+00  0.00000000000E+00 -0.17265724113E+04  0.17265724113E+04  0.50400001928E-02 0.  1.
    10030    2    1    2    0    0  0.00000000000E+00  0.00000000000E+00 -0.89880754578E+03  0.25543372769E+04  0.23909796987E+04 0.  0.
        3    1    3    3  502    0 -0.80990764907E+03  0.34293967504E+03 -0.13144401960E+04  0.15815533693E+04  0.10100000352E+00 0.  1.
       -3    1    3    3    0  502  0.80990764907E+03 -0.34293967504E+03  0.41563265025E+03  0.97278390760E+03  0.10100000352E+00 0. -1.
</event>
<event>
 5   0  0.3682276E-07  0.3514256E+04  0.7818609E-02  0.8110420E-01
        1   -1    0    0  501    0  0.00000000000E+00  0.00000000000E+00  0.88920064318E+03  0.88920064320E+03  0.50400001928E-02 0. -1.
       -1   -1    0    0    0  501  0.00000000000E+00  0.00000000000E+00 -0.34722192491E+04  0.34722192491E+04  0.50400001928E-02 0.  1.
    10030    2    1    2    0    0  0.00000000000E+00  0.00000000000E+00 -0.25830186059E+04  0.43614198923E+04  0.35142564446E+04 0.  0.
        1    1    3    3  502    0  0.76290063138E+03  0.14026783857E+04 -0.22017908194E+04  0.27198174276E+04  0.50400001928E-02 0.  1.
       -1    1    3    3    0  502 -0.76290063138E+03 -0.14026783857E+04 -0.38122778651E+03  0.16416024647E+04  0.50400001928E-02 0. -1.
</event>
<event>
 5   0  0.3704306E-07  0.3687318E+04  0.7818609E-02  0.8070778E-01
       -1   -1    0    0    0  501  0.00000000000E+00  0.00000000000E+00  0.16945249078E+04  0.16945249078E+04  0.50400001928E-02 0. -1.
        1   -1    0    0  501    0  0.00000000000E+00  0.00000000000E+00 -0.20059181916E+04  0.20059181917E+04  0.50400001928E-02 0.  1.
    10030    2    1    2    0    0  0.00000000000E+00  0.00000000000E+00 -0.31139328384E+03  0.37004430995E+04  0.36873179081E+04 0.  0.
        3    1    3    3  502    0 -0.31294944996E+02 -0.18432919488E+04 -0.13629530326E+03  0.18485889219E+04  0.10100000352E+00 0.  1.
       -3    1    3    3    0  502  0.31294944996E+02  0.18432919488E+04 -0.17509798058E+03  0.18518541776E+04  0.10100000352E+00 0. -1.
</event>
<event>
 5   0  0.1128530E-06  0.3802190E+04  0.7818609E-02  0.8045685E-01
       -2   -1    0    0    0  501  0.00000000000E+00  0.00000000000E+00  0.29882848221E+04  0.29882848221E+04  0.25500000920E-02 0.  1.
        2   -1    0    0  501    0  0.00000000000E+00  0.00000000000E+00 -0.12094436423E+04  0.12094436423E+04  0.25500000920E-02 0. -1.
    10030    2    1    2    0    0  0.00000000000E+00  0.00000000000E+00  0.17788411798E+04  0.41977284644E+04  0.38021899371E+04 0.  0.
        5    1    3    3  502    0  0.61667416096E+03  0.50472185228E+03 -0.10161441924E+04  0.12913567589E+04  0.46999998093E+01 0. -1.
       -5    1    3    3    0  502 -0.61667416096E+03 -0.50472185228E+03  0.27949853723E+04  0.29063717054E+04  0.46999998093E+01 0.  1.
</event>
<event>
 5   0  0.3764495E-07  0.3685748E+04  0.7818609E-02  0.8071128E-01
       -1   -1    0    0    0  501  0.00000000000E+00  0.00000000000E+00  0.12559318951E+04  0.12559318951E+04  0.50400001928E-02 0. -1.
        1   -1    0    0  501    0  0.00000000000E+00  0.00000000000E+00 -0.27041150617E+04  0.27041150617E+04  0.50400001928E-02 0.  1.
    10030    2    1    2    0    0  0.00000000000E+00  0.00000000000E+00 -0.14481831666E+04  0.39600469568E+04  0.36857478774E+04 0.  0.
        4    1    3    3  502    0 -0.74669060232E+03 -0.15787542321E+04 -0.13562414166E+04  0.22111997137E+04  0.12699999809E+01 0.  1.
       -4    1    3    3    0  502  0.74669060232E+03  0.15787542321E+04 -0.91941750057E+02  0.17488472430E+04  0.12699999809E+01 0. -1.
</event>
<event>
 5   0  0.3682276E-07  0.2914366E+04  0.7818609E-02  0.8268616E-01
        1   -1    0    0  501    0  0.00000000000E+00  0.00000000000E+00  0.25900600550E+04  0.25900600550E+04  0.50400001928E-02 0.  1.
       -1   -1    0    0    0  501  0.00000000000E+00  0.00000000000E+00 -0.81981957786E+03  0.81981957787E+03  0.50400001928E-02 0. -1.
    10030    2    1    2    0    0  0.00000000000E+00  0.00000000000E+00  0.17702404772E+04  0.34098796329E+04  0.29143657567E+04 0.  0.
        1    1    3    3  502    0 -0.91488792022E+03 -0.30964078897E+03  0.21617262564E+04  0.23676903794E+04  0.50400001928E-02 0.  1.
       -1    1    3    3    0  502  0.91488792022E+03  0.30964078897E+03 -0.39148577928E+03  0.10421892535E+04  0.50400001928E-02 0. -1.
</event>
<event>
 5   0  0.3704306E-07  0.3613439E+04  0.7818609E-02  0.8087420E-01
        1   -1    0    0  501    0  0.00000000000E+00  0.00000000000E+00  0.17543877319E+04  0.17543877319E+04  0.50400001928E-02 0.  1.
       -1   -1    0    0    0  501  0.00000000000E+00  0.00000000000E+00 -0.18606125191E+04  0.18606125191E+04  0.50400001928E-02 0. -1.
    10030    2    1    2    0    0  0.00000000000E+00  0.00000000000E+00 -0.10622478717E+03  0.36150002510E+04  0.36134392356E+04 0.  0.
        3    1    3    3  502    0  0.61350032162E+03  0.15056579620E+04 -0.84139137665E+03  0.18306632683E+04  0.10100000352E+00 0. -1.
       -3    1    3    3    0  502 -0.61350032162E+03 -0.15056579620E+04  0.73516658948E+03  0.17843369827E+04  0.10100000352E+00 0.  1.
</event>
<event>
 5   0  0.1128530E-06  0.3753499E+04  0.7818609E-02  0.8056208E-01
        2   -1    0    0  501    0  0.00000000000E+00  0.00000000000E+00  0.20583427838E+04  0.20583427838E+04  0.25500000920E-02 0.  1.
       -2   -1    0    0    0  501  0.00000000000E+00  0.00000000000E+00 -0.17111773046E+04  0.17111773046E+04  0.25500000920E-02 0. -1.
    10030    2    1    2    0    0  0.00000000000E+00  0.00000000000E+00  0.34716547921E+03  0.37695200883E+04  0.37534994107E+04 0.  0.
        5    1    3    3  502    0  0.31926331307E+03 -0.15954955478E+04 -0.76562671575E+03  0.17982606774E+04  0.46999998093E+01 0. -1.
       -5    1    3    3    0  502 -0.31926331307E+03  0.15954955478E+04  0.11127921950E+04  0.19712594109E+04  0.46999998093E+01 0.  1.
</event>
<event>
 5   0  0.1066907E-06  0.2851623E+04  0.7818609E-02  0.8287418E-01
        2   -1    0    0  501    0  0.00000000000E+00  0.00000000000E+00  0.96738360421E+03  0.96738360422E+03  0.25500000920E-02 0.  1.
       -2   -1    0    0    0  501  0.00000000000E+00  0.00000000000E+00 -0.21014818275E+04  0.21014818275E+04  0.25500000920E-02 0. -1.
    10030    2    1    2    0    0  0.00000000000E+00  0.00000000000E+00 -0.11340982232E+04  0.30688654317E+04  0.28516234425E+04 0.  0.
        4    1    3    3  502    0  0.77383156269E+03  0.10973376396E+04 -0.10831366872E+04  0.17251527117E+04  0.12699999809E+01 0.  1.
       -4    1    3    3    0  502 -0.77383156269E+03 -0.10973376396E+04 -0.50961536046E+02  0.13437127200E+04  0.12699999809E+01 0. -1.
</event>
<event>
 5   0  0.3490375E-07  0.3441421E+04  0.7818609E-02  0.8127815E-01
        3   -1    0    0  501    0  0.00000000000E+00  0.00000000000E+00  0.26485666768E+04  0.26485666788E+04  0.10100000352E+00 0.  1.
       -3   -1    0    0    0  501  0.00000000000E+00  0.00000000000E+00 -0.11179042829E+04  0.11179042874E+04  0.10100000352E+00 0. -1.
    10030    2    1    2    0    0  0.00000000000E+00  0.00000000000E+00  0.15306623940E+04  0.37664709662E+04  0.34414206623E+04 0.  0.
        1    1    3    3  502    0  0.15786617758E+04  0.38195290376E+03  0.13871333233E+04  0.21359306823E+04  0.50400001928E-02 0. -1.
       -1    1    3    3    0  502 -0.15786617758E+04 -0.38195290376E+03  0.14352907066E+03  0.16305402838E+04  0.50400001928E-02 0.  1.
</event>
<event>
 5   0  0.1066907E-06  0.3804366E+04  0.7818609E-02  0.8045219E-01
       -2   -1    0    0    0  501  0.00000000000E+00  0.00000000000E+00  0.34098855922E+04  0.34098855922E+04  0.25500000920E-02 0.  1.
        2   -1    0    0  501    0  0.00000000000E+00  0.00000000000E+00 -0.10611205331E+04  0.10611205331E+04  0.25500000920E-02 0. -1.
    10030    2    1    2    0    0  0.00000000000E+00  0.00000000000E+00  0.23487650592E+04  0.44710061253E+04  0.38043657119E+04 0.  0.
        4    1    3    3  502    0  0.65446328419E+03 -0.17606101458E+04  0.82136764454E+03  0.20500528521E+04  0.12699999809E+01 0. -1.
       -4    1    3    3    0  502 -0.65446328419E+03  0.17606101458E+04  0.15273974146E+04  0.24209532732E+04  0.12699999809E+01 0.  1.
</event>
<event>
 5   0  0.3675819E-07  0.3571345E+04  0.7818609E-02  0.8097087E-01
       -1   -1    0    0    0  501  0.00000000000E+00  0.00000000000E+00  0.14232214107E+04  0.14232214107E+04  0.50400001928E-02 0.  1.
        1   -1    0    0  501    0  0.00000000000E+00  0.00000000000E+00 -0.22404291660E+04  0.22404291660E+04  0.50400001928E-02 0. -1.
    10030    2    1    2    0    0  0.00000000000E+00  0.00000000000E+00 -0.81720775528E+03  0.36636505767E+04  0.35713452694E+04 0.  0.
        5    1    3    3  502    0 -0.89592489773E+03  0.29933653235E+03 -0.19631316847E+04  0.21785756547E+04  0.46999998093E+01 0. -1.
       -5    1    3    3    0  502  0.89592489773E+03 -0.29933653235E+03  0.11459239294E+04  0.14850749220E+04  0.46999998093E+01 0.  1.
</event>
<event>
 5   0  0.1051123E-06  0.3641814E+04  0.7818609E-02  0.8080980E-01
       -2   -1    0    0    0  501  0.00000000000E+00  0.00000000000E+00  0.11716576282E+04  0.11716576282E+04  0.25500000920E-02 0.  1.
        2   -1    0    0  501    0  0.00000000000E+00  0.00000000000E+00 -0.28299247553E+04  0.28299247553E+04  0.25500000920E-02 0. -1.
    10030    2    1    2    0    0  0.00000000000E+00  0.00000000000E+00 -0.16582671271E+04  0.40015823836E+04  0.36418143428E+04 0.  0.
        2    1    3    3  502    0  0.20569953334E+03  0.15050101556E+04  0.27422430006E+03  0.15435565533E+04  0.25500000920E-02 0.  1.
       -2    1    3    3    0  502 -0.20569953334E+03 -0.15050101556E+04 -0.19324914271E+04  0.24580258303E+04  0.25500000920E-02 0. -1.
</event>
<event>
 5   0  0.1092116E-06  0.3731152E+04  0.7818609E-02  0.8061093E-01
       -2   -1    0    0    0  501  0.00000000000E+00  0.00000000000E+00  0.22613209688E+04  0.22613209688E+04  0.25500000920E-02 0. -1.
        2   -1    0    0  501    0  0.00000000000E+00  0.00000000000E+00 -0.15390890877E+04  0.15390890877E+04  0.25500000920E-02 0.  1.
    10030    2    1    2    0    0  0.00000000000E+00  0.00000000000E+00  0.72223188111E+03  0.38004100565E+04  0.37311523297E+04 0.  0.
        1    1    3    3  502    0 -0.16509750315E+04 -0.35505846099E+03 -0.44643697949E+03  0.17467372561E+04  0.50400001928E-02 0. -1.
       -1    1    3    3    0  502  0.16509750315E+04  0.35505846099E+03  0.11686688606E+04  0.20536728004E+04  0.50400001928E-02 0.  1.
</event>
<event>
 5   0  0.3764495E-07  0.3382037E+04  0.7818609E-02  0.8142329E-01
        1   -1    0    0  501    0  0.00000000000E+00  0.00000000000E+00  0.12502356228E+04  0.12502356228E+04  0.50400001928E-02 0.  1.
       -1   -1    0    0    0  501  0.00000000000E+00  0.00000000000E+00 -0.22872034778E+04  0.22872034778E+04  0.50400001928E-02 0. -1.
    10030    2    1    2    0    0  0.00000000000E+00  0.00000000000E+00 -0.10369678550E+04  0.35374391006E+04  0.33820368209E+04 0.  0.
        4    1    3    3  502    0  0.51516734860E+03 -0.38158454191E+03 -0.21551648474E+04  0.22484975633E+04  0.12699999809E+01 0. -1.
       -4    1    3    3    0  502 -0.51516734860E+03  0.38158454191E+03  0.11181969924E+04  0.12889415373E+04  0.12699999809E+01 0.  1.
</event>
<event>
 5   0  0.1092116E-06  0.3687811E+04  0.7818609E-02  0.8070669E-01
        2   -1    0    0  501    0  0.00000000000E+00  0.00000000000E+00  0.23039540266E+04  0.23039540266E+04  0.25500000920E-02 0. -1.
       -2   -1    0    0    0  501  0.00000000000E+00  0.00000000000E+00 -0.14757180994E+04  0.14757180994E+04  0.25500000920E-02 0.  1.
    10030    2    1    2    0    0  0.00000000000E+00  0.00000000000E+00  0.82823592717E+03  0.37796721260E+04  0.36878105468E+04 0.  0.
        1    1    3    3  502    0  0.11068189069E+03  0.51791645148E+02 -0.14715634208E+04  0.14766285101E+04  0.50400001928E-02 0.  1.
       -1    1    3    3    0  502 -0.11068189069E+03 -0.51791645148E+02  0.22997993480E+04  0.23030436158E+04  0.50400001928E-02 0. -1.
</event>
<event>
 5   0  0.3848431E-07  0.3722120E+04  0.7818609E-02  0.8063077E-01
        1   -1    0    0  501    0  0.00000000000E+00  0.00000000000E+00  0.17563693083E+04  0.17563693083E+04  0.50400001928E-02 0.  1.
       -1   -1    0    0    0  501  0.00000000000E+00  0.00000000000E+00 -0.19719907939E+04  0.19719907939E+04  0.50400001928E-02 0. -1.
    10030    2    1    2    0    0  0.00000000000E+00  0.00000000000E+00 -0.21562148561E+03  0.37283601022E+04  0.37221198834E+04 0.  0.
        2    1    3    3  502    0 -0.10047056626E+04  0.15568048167E+04  0.67036766765E+02  0.18540681309E+04  0.25500000920E-02 0.  1.
       -2    1    3    3    0  502  0.10047056626E+04 -0.15568048167E+04 -0.28265825238E+03  0.18742919713E+04  0.25500000920E-02 0. -1.
</event>
<event>
 5   0  0.1066907E-06  0.3684143E+04  0.7818609E-02  0.8071485E-01
        2   -1    0    0  501    0  0.00000000000E+00  0.00000000000E+00  0.27607797730E+04  0.27607797730E+04  0.25500000920E-02 0.  1.
       -2   -1    0    0    0  501  0.00000000000E+00  0.00000000000E+00 -0.12290829848E+04  0.12290829848E+04  0.25500000920E-02 0. -1.
    10030    2    1    2    0    0  0.00000000000E+00  0.00000000000E+00  0.15316967882E+04  0.39898627578E+04  0.36841430178E+04 0.  0.
        4    1    3    3  502    0 -0.13933681341E+03 -0.18367116652E+04  0.74704866511E+03  0.19877142173E+04  0.12699999809E+01 0.  1.
       -4    1    3    3    0  502  0.13933681341E+03  0.18367116652E+04  0.78464812310E+03  0.20021485406E+04  0.12699999809E+01 0. -1.
</event>
<event>
 5   0  0.1128166E-06  0.3579622E+04  0.7818609E-02  0.8095176E-01
       -2   -1    0    0    0  501  0.00000000000E+00  0.00000000000E+00  0.23477240893E+04  0.23477240893E+04  0.25500000920E-02 0.  1.
        2   -1    0    0  501    0  0.00000000000E+00  0.00000000000E+00 -0.13644801303E+04  0.13644801303E+04  0.25500000920E-02 0. -1.
    10030    2    1    2    0    0  0.00000000000E+00  0.00000000000E+00  0.98324395907E+03  0.37122042196E+04  0.35796216958E+04 0.  0.
        3    1    3    3  502    0 -0.85102129137E+02  0.17737247669E+04  0.25954558751E+03  0.17946325093E+04  0.10100000352E+00 0. -1.
       -3    1    3    3    0  502  0.85102129137E+02 -0.17737247669E+04  0.72369837156E+03  0.19175717103E+04  0.10100000352E+00 0.  1.
</event>
<event>
 5   0  0.3848431E-07  0.2977261E+04  0.7818609E-02  0.8250254E-01
       -1   -1    0    0    0  501  0.00000000000E+00  0.00000000000E+00  0.17739600499E+04  0.17739600499E+04  0.50400001928E-02 0.  1.
        1   -1    0    0  501    0  0.00000000000E+00  0.00000000000E+00 -0.12491943398E+04  0.12491943398E+04  0.50400001928E-02 0. -1.
    10030    2    1    2    0    0  0.00000000000E+00  0.00000000000E+00  0.52476571010E+03  0.30231543898E+04  0.29772610591E+04 0.  0.
        2    1    3    3  502    0  0.49679420072E+03 -0.10547524953E+04  0.12022386583E+04  0.16747194081E+04  0.25500000920E-02 0.  1.
       -2    1    3    3    0  502 -0.49679420072E+03  0.10547524953E+04 -0.67747294819E+03  0.13484349817E+04  0.25500000920E-02 0. -1.
</event>
<event>
 5   0  0.3682276E-07  0.2293732E+04  0.7818609E-02  0.8480396E-01
        1   -1    0    0  501    0  0.00000000000E+00  0.00000000000E+00  0.23872483428E+04  0.23872483428E+04  0.50400001928E-02 0. -1.
       -1   -1    0    0    0  501  0.00000000000E+00  0.00000000000E+00 -0.55096994383E+03  0.55096994386E+03  0.50400001928E-02 0.  1.
    10030    2    1    2    0    0  0.00000000000E+00  0.00000000000E+00  0.18362783990E+04  0.29382182867E+04  0.22937324041E+04 0.  0.
        1    1    3    3  502    0  0.10868169511E+04  0.18552178551E+03  0.51364111056E+03  0.12163127100E+04  0.50400001928E-02 0.  1.
       -1    1    3    3    0  502 -0.10868169511E+04 -0.18552178551E+03  0.13226372884E+04  0.17219055767E+04  0.50400001928E-02 0. -1.
</event>
<event>
 5   0  0.3675819E-07  0.3656945E+04  0.7818609E-02  0.8077571E-01
       -1   -1    0    0    0  501  0.00000000000E+00  0.00000000000E+00  0.10360361953E+04  0.10360361953E+04  0.50400001928E-02 0. -1.
        1   -1    0    0  501    0  0.00000000000E+00  0.00000000000E+00 -0.32270227953E+04  0.32270227953E+04  0.50400001928E-02 0.  1.
    10030    2    1    2    0    0  0.00000000000E+00  0.00000000000E+00 -0.21909866000E+04  0.42630589906E+04  0.36569454024E+04 0.  0.
        5    1    3    3  502    0 -0.16349711396E+04 -0.63559892163E+03 -0.49406280201E+03  0.18224260640E+04  0.46999998093E+01 0.  1.
       -5    1    3    3    0  502  0.16349711396E+04  0.63559892163E+03 -0.16969237980E+04  0.24406329266E+04  0.46999998093E+01 0. -1.
</event>
<event>
 5   0  0.3704306E-07  0.3914539E+04  0.7818609E-02  0.8022012E-01
       -1   -1    0    0    0  501  0.00000000000E+00  0.00000000000E+00  0.28546452214E+04  0.28546452214E+04  0.50400001928E-02 0.  1.
        1   -1    0    0  501    0  0.00000000000E+00  0.00000000000E+00 -0.13419894438E+04  0.13419894438E+04  0.50400001928E-02 0. -1.
    10030    2    1    2    0    0  0.00000000000E+00  0.00000000000E+00  0.15126557776E+04  0.41966346653E+04  0.39145389271E+04 0.  0.
        3    1    3    3  502    0 -0.57294278252E+03  0.88370603422E+03 -0.10123184108E+04  0.14608177032E+04  0.10100000352E+00 0. -1.
       -3    1    3    3    0  502  0.57294278252E+03 -0.88370603422E+03  0.25249741885E+04  0.27358169620E+04  0.10100000352E+00 0.  1.
</event>
<event>
 5   0  0.1092116E-06  0.3725598E+04  0.7818609E-02  0.8062313E-01
       -2   -1    0    0    0  501  0.00000000000E+00  0.00000000000E+00  0.13710082984E+04  0.13710082984E+04  0.25500000920E-02 0. -1.
        2   -1    0    0  501    0  0.00000000000E+00  0.00000000000E+00 -0.25309982524E+04  0.25309982524E+04  0.25500000920E-02 0.  1.
    10030    2    1    2    0    0  0.00000000000E+00  0.00000000000E+00 -0.11599899540E+04  0.39020065507E+04  0.37255977277E+04 0.  0.
        1    1    3    3  502    0  0.16920802525E+04  0.44008316284E+03  0.93257383916E+02  0.17508585639E+04  0.50400001928E-02 0.  1.
       -1    1    3    3    0  502 -0.16920802525E+04 -0.44008316284E+03 -0.12532473379E+04  0.21511479868E+04  0.50400001928E-02 0. -1.
</event>
<event>
 5   0  0.1128530E-06  0.3597922E+04  0.7818609E-02  0.8090968E-01
        2   -1    0    0  501    0  0.00000000000E+00  0.00000000000E+00  0.23117607411E+04  0.23117607411E+04  0.25500000920E-02 0. -1.
       -2   -1    0    0    0  501  0.00000000000E+00  0.00000000000E+00 -0.13999116822E+04  0.13999116822E+04  0.25500000920E-02 0.  1.
    10030    2    1    2    0    0  0.00000000000E+00  0.00000000000E+00  0.91184905888E+03  0.37116724232E+04  0.35979221047E+04 0.  0.
        5    1    3    3  502    0  0.16323130093E+04  0.53060753192E+03 -0.99855578539E+02  0.17192973389E+04  0.46999998093E+01 0.  1.
       -5    1    3    3    0  502 -0.16323130093E+04 -0.53060753192E+03  0.10117046374E+04  0.19923750843E+04  0.46999998093E+01 0. -1.
</event>
<event>
 5   0  0.1051123E-06  0.3718983E+04  0.7818609E-02  0.8063768E-01
        2   -1    0    0  501    0  0.00000000000E+00  0.00000000000E+00  0.30757708931E+04  0.30757708931E+04  0.25500000920E-02 0. -1.
       -2   -1    0    0    0  501  0.00000000000E+00  0.00000000000E+00 -0.11241764887E+04  0.11241764887E+04  0.25500000920E-02 0.  1.
    10030    2    1    2    0    0  0.00000000000E+00  0.00000000000E+00  0.19515944044E+04  0.41999473818E+04  0.37189833679E+04 0.  0.
        2    1    3    3  502    0  0.30146006022E+02  0.18571198124E+04  0.10762155208E+04  0.21466351871E+04  0.25500000920E-02 0.  1.
       -2    1    3    3    0  502 -0.30146006022E+02 -0.18571198124E+04  0.87537888358E+03  0.20533121947E+04  0.25500000920E-02 0. -1.
</event>
<event>
 5   0  0.3704306E-07  0.3722851E+04  0.7818609E-02  0.8062917E-01
        1   -1    0    0  501    0  0.00000000000E+00  0.00000000000E+00  0.20505391357E+04  0.20505391357E+04  0.50400001928E-02 0.  1.
       -1   -1    0    0    0  501  0.00000000000E+00  0.00000000000E+00 -0.16897530138E+04  0.16897530138E+04  0.50400001928E-02 0. -1.
    10030    2    1    2    0    0  0.00000000000E+00  0.00000000000E+00  0.36078612189E+03  0.37402921495E+04  0.37228508885E+04 0.  0.
        3    1    3    3  502    0  0.11726271335E+04 -0.98655607632E+03 -0.88123015870E+03  0.17677425969E+04  0.10100000352E+00 0. -1.
       -3    1    3    3    0  502 -0.11726271335E+04  0.98655607632E+03  0.12420162806E+04  0.19725495526E+04  0.10100000352E+00 0.  1.
</event>
<event>
 5   0  0.1051123E-06  0.2737947E+04  0.7818609E-02  0.8322796E-01
       -2   -1    0    0    0  501  0.00000000000E+00  0.00000000000E+00  0.11103567271E+04  0.11103567271E+04  0.25500000920E-02 0.  1.
        2   -1    0    0  501    0  0.00000000000E+00  0.00000000000E+00 -0.16878256070E+04  0.16878256070E+04  0.25500000920E-02 0. -1.
    10030    2    1    2    0    0  0.00000000000E+00  0.00000000000E+00 -0.57746887993E+03  0.27981823342E+04  0.27379470535E+04 0.  0.
        2    1    3    3  502    0  0.22140496672E+03  0.12214568712E+04  0.30112122959E+03  0.12773609679E+04  0.25500000920E-02 0.  1.
       -2    1    3    3    0  502 -0.22140496672E+03 -0.12214568712E+04 -0.87859010952E+03  0.15208213662E+04  0.25500000920E-02 0. -1.
</event>
<event>
 5   0  0.3682276E-07  0.3860864E+04  0.7818609E-02  0.8033218E-01
        1   -1    0    0  501    0  0.00000000000E+00  0.00000000000E+00  0.21192837292E+04  0.21192837292E+04  0.50400001928E-02 0. -1.
       -1   -1    0    0    0  501  0.00000000000E+00  0.00000000000E+00 -0.17584086667E+04  0.17584086668E+04  0.50400001928E-02 0.  1.
    10030    2    1    2    0    0  0.00000000000E+00  0.00000000000E+00  0.36087506243E+03  0.38776923959E+04  0.38608635701E+04 0.  0.
        1    1    3    3  502    0 -0.16074670626E+04 -0.10688175201E+04  0.16469668707E+03  0.19373812860E+04  0.50400001928E-02 0. -1.
       -1    1    3    3    0  502  0.16074670626E+04  0.10688175201E+04  0.19617837536E+03  0.19403111100E+04  0.50400001928E-02 0.  1.
</event>
<event>
 5   0  0.3490375E-07  0.3621938E+04  0.7818609E-02  0.8085485E-01
       -3   -1    0    0    0  501  0.00000000000E+00  0.00000000000E+00  0.16582868713E+04  0.16582868744E+04  0.10100000352E+00 0.  1.
        3   -1    0    0  501    0  0.00000000000E+00  0.00000000000E+00 -0.19777092962E+04  0.19777092987E+04  0.10100000352E+00 0. -1.
    10030    2    1    2    0    0  0.00000000000E+00  0.00000000000E+00 -0.31942242482E+03  0.36359961732E+04  0.36219383603E+04 0.  0.
        3    1    3    3  502    0 -0.11282726312E+04 -0.11868957755E+04  0.61652252882E+03  0.17498059180E+04  0.10100000352E+00 0.  1.
       -3    1    3    3    0  502  0.11282726312E+04  0.11868957755E+04 -0.93594495364E+03  0.18861902551E+04  0.10100000352E+00 0. -1.
</event>
<event>
 5   0  0.1066907E-06  0.3577337E+04  0.7818609E-02  0.8095703E-01
       -2   -1    0    0    0  501  0.00000000000E+00  0.00000000000E+00  0.15747489732E+04  0.15747489732E+04  0.25500000920E-02 0. -1.
        2   -1    0    0  501    0  0.00000000000E+00  0.00000000000E+00 -0.20316475204E+04  0.20316475204E+04  0.25500000920E-02 0.  1.
    10030    2    1    2    0    0  0.00000000000E+00  0.00000000000E+00 -0.45689854721E+03  0.36063964935E+04  0.35773369126E+04 0.  0.
        4    1    3    3  502    0 -0.15907694617E+03  0.16806867983E+04  0.36738452263E+03  0.17277113733E+04  0.12699999809E+01 0.  1.
       -4    1    3    3    0  502  0.15907694617E+03 -0.16806867983E+04 -0.82428306984E+03  0.18786851203E+04  0.12699999809E+01 0. -1.
</event>
<event>
 5   0  0.3704306E-07  0.2331273E+04  0.7818609E-02  0.8465692E-01
        1   -1    0    0  501    0  0.00000000000E+00  0.00000000000E+00  0.11063865790E+04  0.11063865790E+04  0.50400001928E-02 0.  1.
       -1   -1    0    0    0  501  0.00000000000E+00  0.00000000000E+00 -0.12280599032E+04  0.12280599032E+04  0.50400001928E-02 0. -1.
    10030    2    1    2    0    0  0.00000000000E+00  0.00000000000E+00 -0.12167332426E+03  0.23344464822E+04  0.23312734675E+04 0.  0.
        3    1    3    3  502    0  0.11586344132E+04  0.11749008816E+03 -0.11061710553E+03  0.11698178399E+04  0.10100000352E+00 0.  1.
       -3    1    3    3    0  502 -0.11586344132E+04 -0.11749008816E+03 -0.11056218730E+02  0.11646286423E+04  0.10100000352E+00 0. -1.
</event>
<event>
 5   0  0.3682276E-07  0.2333531E+04  0.7818609E-02  0.8464816E-01
        1   -1    0    0  501    0  0.00000000000E+00  0.00000000000E+00  0.17102887762E+04  0.17102887762E+04  0.50400001928E-02 0.  1.
       -1   -1    0    0    0  501  0.00000000000E+00  0.00000000000E+00 -0.79597198369E+03  0.79597198370E+03  0.50400001928E-02 0. -1.
    10030    2    1    2    0    0  0.00000000000E+00  0.00000000000E+00  0.91431679252E+03  0.25062607599E+04  0.23335311868E+04 0.  0.
        1    1    3    3  502    0 -0.97811045877E+03  0.49972343323E+03  0.87988940436E+03  0.14073481954E+04  0.50400001928E-02 0.  1.
       -1    1    3    3    0  502  0.97811045877E+03 -0.49972343323E+03  0.34427388166E+02  0.10989125645E+04  0.50400001928E-02 0. -1.
</event>
<event>
 5   0  0.3848431E-07  0.3718603E+04  0.7818609E-02  0.8063852E-01
        1   -1    0    0  501    0  0.00000000000E+00  0.00000000000E+00  0.14182508327E+04  0.14182508327E+04  0.50400001928E-02 0. -1.
       -1   -1    0    0    0  501  0.00000000000E+00  0.00000000000E+00 -0.24375104743E+04  0.24375104743E+04  0.50400001928E-02 0.  1.
    10030    2    1    2    0    0  0.00000000000E+00  0.00000000000E+00 -0.10192596416E+04  0.38557613070E+04  0.37186025654E+04 0.  0.
        2    1    3    3  502    0  0.67859026654E+03  0.17303602285E+04 -0.56010798919E+03  0.19412244151E+04  0.25500000920E-02 0.  1.
       -2    1    3    3    0  502 -0.67859026654E+03 -0.17303602285E+04 -0.45915165237E+03  0.19145368918E+04  0.25500000920E-02 0. -1.
</event>
<event>
 5   0  0.3764495E-07  0.3702549E+04  0.7818609E-02  0.8067397E-01
       -1   -1    0    0    0  501  0.00000000000E+00  0.00000000000E+00  0.15487472182E+04  0.15487472182E+04  0.50400001928E-02 0.  1.
        1   -1    0    0  501    0  0.00000000000E+00  0.00000000000E+00 -0.22128964668E+04  0.22128964668E+04  0.50400001928E-02 0. -1.
    10030    2    1    2    0    0  0.00000000000E+00  0.00000000000E+00 -0.66414924862E+03  0.37616436850E+04  0.37025489853E+04 0.  0.
        4    1    3    3  502    0 -0.45786617527E+03 -0.17893454978E+04 -0.20430212793E+03  0.18582625534E+04  0.12699999809E+01 0.  1.
       -4    1    3    3    0  502  0.45786617527E+03  0.17893454978E+04 -0.45984712069E+03  0.19033811316E+04  0.12699999809E+01 0. -1.
</event>
<event>
 5   0  0.1092116E-06  0.3822674E+04  0.7818609E-02  0.8041307E-01
       -2   -1    0    0    0  501  0.00000000000E+00  0.00000000000E+00  0.28643026144E+04  0.28643026144E+04  0.25500000920E-02 0.  1.
        2   -1    0    0  501    0  0.00000000000E+00  0.00000000000E+00 -0.12754269974E+04  0.12754269974E+04  0.25500000920E-02 0. -1.
    10030    2    1    2    0    0  0.00000000000E+00  0.00000000000E+00  0.15888756169E+04  0.41397296118E+04  0.38226738721E+04 0.  0.
        1    1    3    3  502    0  0.40439541563E+03  0.46743648500E+03  0.27530872249E+04  0.28216168747E+04  0.50400001928E-02 0.  1.
       -1    1    3    3    0  502 -0.40439541563E+03 -0.46743648500E+03 -0.11642116079E+04  0.13181127371E+04  0.50400001928E-02 0. -1.
</event>
<event>
 5   0  0.3848431E-07  0.3686271E+04  0.7818609E-02  0.8071011E-01
        1   -1    0    0  501    0  0.00000000000E+00  0.00000000000E+00  0.18481993995E+04  0.18481993995E+04  0.50400001928E-02 0. -1.
       -1   -1    0    0    0  501  0.00000000000E+00  0.00000000000E+00 -0.18380854732E+04  0.18380854732E+04  0.50400001928E-02 0.  1.
    10030    2    1    2    0    0  0.00000000000E+00  0.00000000000E+00  0.10113926284E+02  0.36862848726E+04  0.36862709980E+04 0.  0.
        2    1    3    3  502    0  0.10151863790E+04 -0.12430727782E+03 -0.15282761653E+04  0.18389354858E+04  0.25500000920E-02 0.  1.
       -2    1    3    3    0  502 -0.10151863790E+04  0.12430727782E+03  0.15383900916E+04  0.18473493869E+04  0.25500000920E-02 0. -1.
</event>
<event>
 5   0  0.1128166E-06  0.2414134E+04  0.7818609E-02  0.8434231E-01
       -2   -1    0    0    0  501  0.00000000000E+00  0.00000000000E+00  0.93267688803E+03  0.93267688803E+03  0.25500000920E-02 0.  1.
        2   -1    0    0  501    0  0.00000000000E+00  0.00000000000E+00 -0.15621823169E+04  0.15621823169E+04  0.25500000920E-02 0. -1.
    10030    2    1    2    0    0  0.00000000000E+00  0.00000000000E+00 -0.62950542885E+03  0.24948592049E+04  0.24141344965E+04 0.  0.
        3    1    3    3  502    0  0.87564554145E+03 -0.81872063025E+03 -0.16877521243E+03  0.12105964097E+04  0.10100000352E+00 0.  1.
       -3    1    3    3    0  502 -0.87564554145E+03  0.81872063025E+03 -0.46073021642E+03  0.12842627952E+04  0.10100000352E+00 0. -1.
</event>
<event>
 5   0  0.3682276E-07  0.3713786E+04  0.7818609E-02  0.8064914E-01
       -1   -1    0    0    0  501  0.00000000000E+00  0.00000000000E+00  0.25610050566E+04  0.25610050566E+04  0.50400001928E-02 0.  1.
        1   -1    0    0  501    0  0.00000000000E+00  0.00000000000E+00 -0.13463662380E+04  0.13463662380E+04  0.50400001928E-02 0. -1.
    10030    2    1    2    0    0  0.00000000000E+00  0.00000000000E+00  0.12146388186E+04  0.39073712945E+04  0.37137855315E+04 0.  0.
        1    1    3    3  502    0  0.69542162344E+03  0.12283019308E+04  0.18767409764E+04  0.23482958843E+04  0.50400001928E-02 0.  1.
       -1    1    3    3    0  502 -0.69542162344E+03 -0.12283019308E+04 -0.66210215783E+03  0.15590754103E+04  0.50400001928E-02 0. -1.
</event>
<event>
 5   0  0.1092116E-06  0.3505237E+04  0.7818609E-02  0.8112550E-01
       -2   -1    0    0    0  501  0.00000000000E+00  0.00000000000E+00  0.25959388682E+04  0.25959388682E+04  0.25500000920E-02 0.  1.
        2   -1    0    0  501    0  0.00000000000E+00  0.00000000000E+00 -0.11832602826E+04  0.11832602826E+04  0.25500000920E-02 0. -1.
    10030    2    1    2    0    0  0.00000000000E+00  0.00000000000E+00  0.14126785855E+04  0.37791991508E+04  0.35052368587E+04 0.  0.
        1    1    3    3  502    0  0.17469926956E+04  0.56910552370E+02  0.84461728831E+03  0.19412884003E+04  0.50400001928E-02 0. -1.
       -1    1    3    3    0  502 -0.17469926956E+04 -0.56910552370E+02  0.56806129721E+03  0.18379107505E+04  0.50400001928E-02 0.  1.
</event>
<event>
 5   0  0.3704306E-07  0.3661786E+04  0.7818609E-02  0.8076484E-01
        1   -1    0    0  501    0  0.00000000000E+00  0.00000000000E+00  0.20611511028E+04  0.20611511028E+04  0.50400001928E-02 0. -1.
       -1   -1    0    0    0  501  0.00000000000E+00  0.00000000000E+00 -0.16263575926E+04  0.16263575926E+04  0.50400001928E-02 0.  1.
    10030    2    1    2    0    0  0.00000000000E+00  0.00000000000E+00  0.43479351022E+03  0.36875086954E+04  0.36617857641E+04 0.  0.
        3    1    3    3  502    0 -0.10532834103E+04  0.14725670691E+04 -0.57114963101E+02  0.18113867186E+04  0.10100000352E+00 0.  1.
       -3    1    3    3    0  502  0.10532834103E+04 -0.14725670691E+04  0.49190847332E+03  0.18761219767E+04  0.10100000352E+00 0. -1.
</event>
<event>
 5   0  0.1066907E-06  0.3691949E+04  0.7818609E-02  0.8069748E-01
       -2   -1    0    0    0  501  0.00000000000E+00  0.00000000000E+00  0.12552691850E+04  0.12552691850E+04  0.25500000920E-02 0. -1.
        2   -1    0    0  501    0  0.00000000000E+00  0.00000000000E+00 -0.27146545725E+04  0.27146545725E+04  0.25500000920E-02 0.  1.
    10030    2    1    2    0    0  0.00000000000E+00  0.00000000000E+00 -0.14593853875E+04  0.39699237575E+04  0.36919492048E+04 0.  0.
        4    1    3    3  502    0  0.18503081873E+03 -0.74802358193E+03  0.10740580762E+04  0.13218842790E+04  0.12699999809E+01 0. -1.
       -4    1    3    3    0  502 -0.18503081873E+03  0.74802358193E+03 -0.25334434637E+04  0.26480394785E+04  0.12699999809E+01 0.  1.
</event>
<event>
 5   0  0.1051123E-06  0.3699075E+04  0.7818609E-02  0.8068167E-01
       -2   -1    0    0    0  501  0.00000000000E+00  0.00000000000E+00  0.15306212845E+04  0.15306212845E+04  0.25500000920E-02 0.  1.
        2   -1    0    0  501    0  0.00000000000E+00  0.00000000000E+00 -0.22349026513E+04  0.22349026513E+04  0.25500000920E-02 0. -1.
    10030    2    1    2    0    0  0.00000000000E+00  0.00000000000E+00 -0.70428136681E+03  0.37655239358E+04  0.36990753260E+04 0.  0.
        2    1    3    3  502    0 -0.10149588358E+04  0.13929833707E+04  0.33091625509E+03  0.17550070306E+04  0.25500000920E-02 0.  1.
       -2    1    3    3    0  502  0.10149588358E+04 -0.13929833707E+04 -0.10351976219E+04  0.20105169052E+04  0.25500000920E-02 0. -1.
</event>
<event>
 5   0  0.1128530E-06  0.3687277E+04  0.7818609E-02  0.8070787E-01
       -2   -1    0    0    0  501  0.00000000000E+00  0.00000000000E+00  0.18228902802E+04  0.18228902802E+04  0.25500000920E-02 0. -1.
        2   -1    0    0  501    0  0.00000000000E+00  0.00000000000E+00 -0.18646227427E+04  0.18646227427E+04  0.25500000920E-02 0.  1.
    10030    2    1    2    0    0  0.00000000000E+00  0.00000000000E+00 -0.41732462465E+02  0.36875130229E+04  0.36872768673E+04 0.  0.
        5    1    3    3  502    0  0.14131130977E+04  0.77026515147E+03 -0.92024777184E+03  0.18539350264E+04  0.46999998093E+01 0.  1.
       -5    1    3    3    0  502 -0.14131130977E+04 -0.77026515147E+03  0.87851530938E+03  0.18335779965E+04  0.46999998093E+01 0. -1.
</event>
<event>
 5   0  0.1051123E-06  0.3710395E+04  0.7818609E-02  0.8065662E-01
        2   -1    0    0  501    0  0.00000000000E+00  0.00000000000E+00  0.22310528970E+04  0.22310528970E+04  0.25500000920E-02 0. -1.
       -2   -1    0    0    0  501  0.00000000000E+00  0.00000000000E+00 -0.15426608419E+04  0.15426608419E+04  0.25500000920E-02 0.  1.
    10030    2    1    2    0    0  0.00000000000E+00  0.00000000000E+00  0.68839205513E+03  0.37737137388E+04  0.37103950950E+04 0.  0.
        2    1    3    3  502    0  0.23561530267E+03 -0.55490076779E+03 -0.14402617558E+04  0.15613402442E+04  0.25500000920E-02 0.  1.
       -2    1    3    3    0  502 -0.23561530267E+03  0.55490076779E+03  0.21286538109E+04  0.22123734946E+04  0.25500000920E-02 0. -1.
</event>
<event>
 5   0  0.1128166E-06  0.3656624E+04  0.7818609E-02  0.8077643E-01
       -2   -1    0    0    0  501  0.00000000000E+00  0.00000000000E+00  0.15872244886E+04  0.15872244886E+04  0.25500000920E-02 0. -1.
        2   -1    0    0  501    0  0.00000000000E+00  0.00000000000E+00 -0.21060188722E+04  0.21060188722E+04  0.25500000920E-02 0.  1.
    10030    2    1    2    0    0  0.00000000000E+00  0.00000000000E+00 -0.51879438357E+03  0.36932433608E+04  0.36566239770E+04 0.  0.
        3    1    3    3  502    0 -0.13676270651E+04 -0.97694542127E+03  0.46746148605E+03  0.17445189585E+04  0.10100000352E+00 0. -1.
       -3    1    3    3    0  502  0.13676270651E+04  0.97694542127E+03 -0.98625586962E+03  0.19487244023E+04  0.10100000352E+00 0.  1.
</event>
<event>
 5   0  0.1128166E-06  0.3698487E+04  0.7818609E-02  0.8068297E-01
        2   -1    0    0  501    0  0.00000000000E+00  0.00000000000E+00  0.19089645114E+04  0.19089645114E+04  0.25500000920E-02 0.  1.
       -2   -1    0    0    0  501  0.00000000000E+00  0.00000000000E+00 -0.17913906004E+04  0.17913906004E+04  0.25500000920E-02 0. -1.
    10030    2    1    2    0    0  0.00000000000E+00  0.00000000000E+00  0.11757391105E+03  0.37003551118E+04  0.36984867620E+04 0.  0.
        3    1    3    3  502    0  0.17487409198E+03 -0.59457470120E+03  0.18019647400E+04  0.19055647346E+04  0.10100000352E+00 0.  1.
       -3    1    3    3    0  502 -0.17487409198E+03  0.59457470120E+03 -0.16843908289E+04  0.17947903772E+04  0.10100000352E+00 0. -1.
</event>
<event>
 5   0  0.1051123E-06  0.3579895E+04  0.7818609E-02  0.8095112E-01
        2   -1    0    0  501    0  0.00000000000E+00  0.00000000000E+00  0.17874344979E+04  0.17874344979E+04  0.25500000920E-02 0. -1.
       -2   -1    0    0    0  501  0.00000000000E+00  0.00000000000E+00 -0.17924643246E+04  0.17924643246E+04  0.25500000920E-02 0.  1.
    10030    2    1    2    0    0  0.00000000000E+00  0.00000000000E+00 -0.50298266581E+01  0.35798988225E+04  0.35798952890E+04 0.  0.
        2    1    3    3  502    0 -0.15563606430E+04  0.85179973950E+03 -0.23935121417E+03  0.17902821708E+04  0.25500000920E-02 0.  1.
       -2    1    3    3    0  502  0.15563606430E+04 -0.85179973950E+03  0.23432138751E+03  0.17896166517E+04  0.25500000920E-02 0. -1.
</event>
<event>
 5   0  0.1128530E-06  0.2365065E+04  0.7818609E-02  0.8452700E-01
        2   -1    0    0  501    0  0.00000000000E+00  0.00000000000E+00  0.20319236159E+04  0.20319236159E+04  0.25500000920E-02 0. -1.
       -2   -1    0    0    0  501  0.00000000000E+00  0.00000000000E+00 -0.68820630718E+03  0.68820630718E+03  0.25500000920E-02 0.  1.
    10030    2    1    2    0    0  0.00000000000E+00  0.00000000000E+00  0.13437173088E+04  0.27201299231E+04  0.23650646065E+04 0.  0.
        5    1    3    3  502    0  0.12677898763E+03 -0.21928929189E+03  0.20003449643E+04  0.20163240740E+04  0.46999998093E+01 0. -1.
       -5    1    3    3    0  502 -0.12677898763E+03  0.21928929189E+03 -0.65662765553E+03  0.70380584912E+03  0.46999998093E+01 0.  1.
</event>
<event>
 5   0  0.1128166E-06  0.3731765E+04  0.7818609E-02  0.8060959E-01
       -2   -1    0    0    0  501  0.00000000000E+00  0.00000000000E+00  0.18807794904E+04  0.18807794904E+04  0.25500000920E-02 0. -1.
        2   -1    0    0  501    0  0.00000000000E+00  0.00000000000E+00 -0.18511037020E+04  0.18511037020E+04  0.25500000920E-02 0.  1.
    10030    2    1    2    0    0  0.00000000000E+00  0.00000000000E+00  0.29675788417E+02  0.37318831923E+04  0.37317652001E+04 0.  0.
        3    1    3    3  502    0 -0.13170174305E+04 -0.43062052580E+03 -0.12348211258E+04  0.18560043568E+04  0.10100000352E+00 0.  1.
       -3    1    3    3    0  502  0.13170174305E+04  0.43062052580E+03  0.12644969142E+04  0.18758788356E+04  0.10100000352E+00 0. -1.
</event>
<event>
 5   0  0.3682276E-07  0.3700378E+04  0.7818609E-02  0.8067878E-01
       -1   -1    0    0    0  501  0.00000000000E+00  0.00000000000E+00  0.24625384045E+04  0.24625384046E+04  0.50400001928E-02 0. -1.
        1   -1    0    0  501    0  0.00000000000E+00  0.00000000000E+00 -0.13901100396E+04  0.13901100396E+04  0.50400001928E-02 0.  1.
    10030    2    1    2    0    0  0.00000000000E+00  0.00000000000E+00  0.10724283650E+04  0.38526484442E+04  0.37003780126E+04 0.  0.
        1    1    3    3  502    0  0.25780359105E+02 -0.14204190756E+04  0.17702928796E+04  0.22698440159E+04  0.50400001928E-02 0. -1.
       -1    1    3    3    0  502 -0.25780359105E+02  0.14204190756E+04 -0.69786451460E+03  0.15828044282E+04  0.50400001928E-02 0.  1.
</event>
<event>
 5   0  0.1092116E-06  0.3676781E+04  0.7818609E-02  0.8073127E-01
       -2   -1    0    0    0  501  0.00000000000E+00  0.00000000000E+00  0.13712501005E+04  0.13712501005E+04  0.25500000920E-02 0. -1.
        2   -1    0    0  501    0  0.00000000000E+00  0.00000000000E+00 -0.24646706680E+04  0.24646706680E+04  0.25500000920E-02 0.  1.
    10030    2    1    2    0    0  0.00000000000E+00  0.00000000000E+00 -0.10934205676E+04  0.38359207685E+04  0.36767811472E+04 0.  0.
        1    1    3    3  502    0 -0.85162415792E+03  0.38521437973E+03  0.11048507999E+04  0.14471866205E+04  0.50400001928E-02 0. -1.
       -1    1    3    3    0  502  0.85162415792E+03 -0.38521437973E+03 -0.21982713674E+04  0.23887341480E+04  0.50400001928E-02 0.  1.
</event>
<event>
 5   0  0.1051123E-06  0.3510919E+04  0.7818609E-02  0.8111207E-01
       -2   -1    0    0    0  501  0.00000000000E+00  0.00000000000E+00  0.13614898275E+04  0.13614898275E+04  0.25500000920E-02 0.  1.
        2   -1    0    0  501    0  0.00000000000E+00  0.00000000000E+00 -0.22634305788E+04  0.22634305788E+04  0.25500000920E-02 0. -1.
    10030    2    1    2    0    0  0.00000000000E+00  0.00000000000E+00 -0.90194075132E+03  0.36249204062E+04  0.35109188018E+04 0.  0.
        2    1    3    3  502    0  0.99942451874E+03 -0.14219239362E+04 -0.19613484134E+03  0.17490528652E+04  0.25500000920E-02 0. -1.
       -2    1    3    3    0  502 -0.99942451874E+03  0.14219239362E+04 -0.70580590998E+03  0.18758675411E+04  0.25500000920E-02 0.  1.
</event>
<event>
 5   0  0.3764495E-07  0.3682921E+04  0.7818609E-02  0.8071757E-01
       -1   -1    0    0    0  501  0.00000000000E+00  0.00000000000E+00  0.16715381715E+04  0.16715381715E+04  0.50400001928E-02 0. -1.
        1   -1    0    0  501    0  0.00000000000E+00  0.00000000000E+00 -0.20286569763E+04  0.20286569763E+04  0.50400001928E-02 0.  1.
    10030    2    1    2    0    0  0.00000000000E+00  0.00000000000E+00 -0.35711880487E+03  0.37001951478E+04  0.36829214343E+04 0.  0.
        4    1    3    3  502    0  0.14035940573E+04 -0.65856268311E+03  0.81967750047E+03  0.17537542311E+04  0.12699999809E+01 0. -1.
       -4    1    3    3    0  502 -0.14035940573E+04  0.65856268311E+03 -0.11767963053E+04  0.19464409168E+04  0.12699999809E+01 0.  1.
</event>
<event>
 5   0  0.1128530E-06  0.2292126E+04  0.7818609E-02  0.8481032E-01
        2   -1    0    0  501    0  0.00000000000E+00  0.00000000000E+00  0.77873684516E+03  0.77873684517E+03  0.25500000920E-02 0. -1.
       -2   -1    0    0    0  501  0.00000000000E+00  0.00000000000E+00 -0.16866552512E+04  0.16866552512E+04  0.25500000920E-02 0.  1.
    10030    2    1    2    0    0  0.00000000000E+00  0.00000000000E+00 -0.90791840606E+03  0.24653920964E+04  0.22921261651E+04 0.  0.
        5    1    3    3  502    0  0.49791564949E+03 -0.82095081827E+03  0.21908823453E+03  0.98483601911E+03  0.46999998093E+01 0. -1.
       -5    1    3    3    0  502 -0.49791564949E+03  0.82095081827E+03 -0.11270066406E+04  0.14805560773E+04  0.46999998093E+01 0.  1.
</event>
<event>
 5   0  0.3675819E-07  0.2536017E+04  0.7818609E-02  0.8390265E-01
        1   -1    0    0  501    0  0.00000000000E+00  0.00000000000E+00  0.15283922190E+04  0.15283922190E+04  0.50400001928E-02 0. -1.
       -1   -1    0    0    0  501  0.00000000000E+00  0.00000000000E+00 -0.10519849328E+04  0.10519849328E+04  0.50400001928E-02 0.  1.
    10030    2    1    2    0    0  0.00000000000E+00  0.00000000000E+00  0.47640728619E+03  0.25803771518E+04  0.25360170235E+04 0.  0.
        5    1    3    3  502    0  0.12128357218E+04 -0.32302249638E+03  0.42166136589E+03  0.13240598245E+04  0.46999998093E+01 0. -1.
       -5    1    3    3    0  502 -0.12128357218E+04  0.32302249638E+03  0.54745920308E+02  0.12563173274E+04  0.46999998093E+01 0.  1.
</event>
<event>
 5   0  0.3675819E-07  0.2844004E+04  0.7818609E-02  0.8289736E-01
        1   -1    0    0  501    0  0.00000000000E+00  0.00000000000E+00  0.23106880826E+04  0.23106880826E+04  0.50400001928E-02 0.  1.
       -1   -1    0    0    0  501  0.00000000000E+00  0.00000000000E+00 -0.87510277792E+03  0.87510277793E+03  0.50400001928E-02 0. -1.
    10030    2    1    2    0    0  0.00000000000E+00  0.00000000000E+00  0.14355853046E+04  0.31857908605E+04  0.28440039100E+04 0.  0.
        5    1    3    3  502    0 -0.13152351420E+04 -0.53591892546E+03  0.63846619353E+03  0.15571492361E+04  0.46999998093E+01 0. -1.
       -5    1    3    3    0  502  0.13152351420E+04  0.53591892546E+03  0.79711911111E+03  0.16286416244E+04  0.46999998093E+01 0.  1.
</event>
<event>
 5   0  0.3764495E-07  0.2797267E+04  0.7818609E-02  0.8304117E-01
       -1   -1    0    0    0  501  0.00000000000E+00  0.00000000000E+00  0.10417313991E+04  0.10417313991E+04  0.50400001928E-02 0.  1.
        1   -1    0    0  501    0  0.00000000000E+00  0.00000000000E+00 -0.18778117284E+04  0.18778117284E+04  0.50400001928E-02 0. -1.
    10030    2    1    2    0    0  0.00000000000E+00  0.00000000000E+00 -0.83608032931E+03  0.29195431275E+04  0.27972668368E+04 0.  0.
        4    1    3    3  502    0 -0.28592285626E+03  0.79958552451E+03  0.74188350484E+03  0.11275999461E+04  0.12699999809E+01 0.  1.
       -4    1    3    3    0  502  0.28592285626E+03 -0.79958552451E+03 -0.15779638342E+04  0.17919431814E+04  0.12699999809E+01 0. -1.
</event>
<event>
 5   0  0.1066907E-06  0.3884576E+04  0.7818609E-02  0.8028245E-01
        2   -1    0    0  501    0  0.00000000000E+00  0.00000000000E+00  0.19063567976E+04  0.19063567976E+04  0.25500000920E-02 0. -1.
       -2   -1    0    0    0  501  0.00000000000E+00  0.00000000000E+00 -0.19788961606E+04  0.19788961606E+04  0.25500000920E-02 0.  1.
    10030    2    1    2    0    0  0.00000000000E+00  0.00000000000E+00 -0.72539363043E+02  0.38852529582E+04  0.38845757284E+04 0.  0.
        4    1    3    3  502    0  0.32801747468E+03 -0.15458169574E+04  0.10932345120E+04  0.19215381444E+04  0.12699999809E+01 0. -1.
       -4    1    3    3    0  502 -0.32801747468E+03  0.15458169574E+04 -0.11657738750E+04  0.19637148138E+04  0.12699999809E+01 0.  1.
</event>
<event>
 5   0  0.1051123E-06  0.3696423E+04  0.7818609E-02  0.8068755E-01
        2   -1    0    0  501    0  0.00000000000E+00  0.00000000000E+00  0.16935286380E+04  0.16935286380E+04  0.25500000920E-02 0. -1.
       -2   -1    0    0    0  501  0.00000000000E+00  0.00000000000E+00 -0.20170232666E+04  0.20170232666E+04  0.25500000920E-02 0.  1.
    10030    2    1    2    0    0  0.00000000000E+00  0.00000000000E+00 -0.32349462852E+03  0.37105519046E+04  0.36964234960E+04 0.  0.
        2    1    3    3  502    0  0.18165081189E+04 -0.28942325512E+03  0.18993925749E+02  0.18395185066E+04  0.25500000920E-02 0. -1.
       -2    1    3    3    0  502 -0.18165081189E+04  0.28942325512E+03 -0.34248855427E+03  0.18710333980E+04  0.25500000920E-02 0.  1.
</event>
<event>
 5   0  0.1066907E-06  0.3671467E+04  0.7818609E-02  0.8074315E-01
       -2   -1    0    0    0  501  0.00000000000E+00  0.00000000000E+00  0.21545580515E+04  0.21545580515E+04  0.25500000920E-02 0. -1.
        2   -1    0    0  501    0  0.00000000000E+00  0.00000000000E+00 -0.15640875832E+04  0.15640875832E+04  0.25500000920E-02 0.  1.
    10030    2    1    2    0    0  0.00000000000E+00  0.00000000000E+00  0.59047046834E+03  0.37186456347E+04  0.36714670068E+04 0.  0.
        4    1    3    3  502    0  0.17836944148E+04  0.34772973186E+03  0.55825301658E+03  0.19010864723E+04  0.12699999809E+01 0. -1.
       -4    1    3    3    0  502 -0.17836944148E+04 -0.34772973186E+03  0.32217451760E+02  0.18175591624E+04  0.12699999809E+01 0.  1.
</event>
<event>
 5   0  0.1092116E-06  0.2272103E+04  0.7818609E-02  0.8489002E-01
        2   -1    0    0  501    0  0.00000000000E+00  0.00000000000E+00  0.80772879576E+03  0.80772879577E+03  0.25500000920E-02 0. -1.
       -2   -1    0    0    0  501  0.00000000000E+00  0.00000000000E+00 -0.15978298030E+04  0.15978298030E+04  0.25500000920E-02 0.  1.
    10030    2    1    2    0    0  0.00000000000E+00  0.00000000000E+00 -0.79010100726E+03  0.24055585988E+04  0.22721031162E+04 0.  0.
        1    1    3    3  502    0  0.84583066877E+03  0.69345844858E+03 -0.69932175728E+02  0.10959948218E+04  0.50400001928E-02 0. -1.
       -1    1    3    3    0  502 -0.84583066877E+03 -0.69345844858E+03 -0.72016883153E+03  0.13095637770E+04  0.50400001928E-02 0.  1.
</event>
<event>
 5   0  0.1128166E-06  0.3684066E+04  0.7818609E-02  0.8071502E-01
        2   -1    0    0  501    0  0.00000000000E+00  0.00000000000E+00  0.29129302556E+04  0.29129302556E+04  0.25500000920E-02 0.  1.
       -2   -1    0    0    0  501  0.00000000000E+00  0.00000000000E+00 -0.11648355388E+04  0.11648355388E+04  0.25500000920E-02 0. -1.
    10030    2    1    2    0    0  0.00000000000E+00  0.00000000000E+00  0.17480947168E+04  0.40777657945E+04  0.36840655173E+04 0.  0.
        3    1    3    3  502    0  0.98132340508E+03  0.13475692617E+04  0.66246359653E+01  0.16670280251E+04  0.10100000352E+00 0. -1.
       -3    1    3    3    0  502 -0.98132340508E+03 -0.13475692617E+04  0.17414700808E+04  0.24107377694E+04  0.10100000352E+00 0.  1.
</event>
<event>
 5   0  0.3682276E-07  0.3303979E+04  0.7818609E-02  0.8161884E-01
        1   -1    0    0  501    0  0.00000000000E+00  0.00000000000E+00  0.25061862942E+04  0.25061862942E+04  0.50400001928E-02 0.  1.
       -1   -1    0    0    0  501  0.00000000000E+00  0.00000000000E+00 -0.10889330138E+04  0.10889330138E+04  0.50400001928E-02 0. -1.
    10030    2    1    2    0    0  0.00000000000E+00  0.00000000000E+00  0.14172532804E+04  0.35951193080E+04  0.33039788101E+04 0.  0.
        1    1    3    3  502    0 -0.16476052101E+03 -0.97853363952E+03 -0.72851130385E+03  0.12310169913E+04  0.50400001928E-02 0. -1.
       -1    1    3    3    0  502  0.16476052101E+03  0.97853363952E+03  0.21457645842E+04  0.23641023167E+04  0.50400001928E-02 0.  1.
</event>
<event>
 5   0  0.1051123E-06  0.3606769E+04  0.7818609E-02  0.8088943E-01
       -2   -1    0    0    0  501  0.00000000000E+00  0.00000000000E+00  0.12152355964E+04  0.12152355964E+04  0.25500000920E-02 0. -1.
        2   -1    0    0  501    0  0.00000000000E+00  0.00000000000E+00 -0.26761850028E+04  0.26761850028E+04  0.25500000920E-02 0.  1.
    10030    2    1    2    0    0  0.00000000000E+00  0.00000000000E+00 -0.14609494063E+04  0.38914205992E+04  0.36067687910E+04 0.  0.
        2    1    3    3  502    0  0.95283727084E+03  0.77751747293E+03  0.69262364525E+03  0.14114389110E+04  0.25500000920E-02 0. -1.
       -2    1    3    3    0  502 -0.95283727084E+03 -0.77751747293E+03 -0.21535730516E+04  0.24799816882E+04  0.25500000920E-02 0.  1.
</event>
<event>
 5   0  0.3764495E-07  0.3675594E+04  0.7818609E-02  0.8073392E-01
        1   -1    0    0  501    0  0.00000000000E+00  0.00000000000E+00  0.25678874777E+04  0.25678874777E+04  0.50400001928E-02 0.  1.
       -1   -1    0    0    0  501  0.00000000000E+00  0.00000000000E+00 -0.13152825233E+04  0.13152825233E+04  0.50400001928E-02 0. -1.
    10030    2    1    2    0    0  0.00000000000E+00  0.00000000000E+00  0.12526049544E+04  0.38831700010E+04  0.36755938411E+04 0.  0.
        4    1    3    3  502    0 -0.95171306068E+03 -0.69924864178E+03  0.21139402377E+04  0.24214564531E+04  0.12699999809E+01 0.  1.
       -4    1    3    3    0  502  0.95171306068E+03  0.69924864178E+03 -0.86133528329E+03  0.14617135479E+04  0.12699999809E+01 0. -1.
</event>
<event>
 5   0  0.1051123E-06  0.3636486E+04  0.7818609E-02  0.8082185E-01
       -2   -1    0    0    0  501  0.00000000000E+00  0.00000000000E+00  0.12020317348E+04  0.12020317348E+04  0.25500000920E-02 0.  1.
        2   -1    0    0  501    0  0.00000000000E+00  0.00000000000E+00 -0.27503501637E+04  0.27503501637E+04  0.25500000920E-02 0. -1.
    10030    2    1    2    0    0  0.00000000000E+00  0.00000000000E+00 -0.15483184289E+04  0.39523818985E+04  0.36364863144E+04 0.  0.
        2    1    3    3  502    0  0.11623152550E+04 -0.98687128861E+03  0.30239828554E+03  0.15544569519E+04  0.25500000920E-02 0.  1.
       -2    1    3    3    0  502 -0.11623152550E+04  0.98687128861E+03 -0.18507167145E+04  0.23979249466E+04  0.25500000920E-02 0. -1.
</event>
<event>
 5   0  0.1066907E-06  0.3703622E+04  0.7818609E-02  0.8067160E-01
       -2   -1    0    0    0  501  0.00000000000E+00  0.00000000000E+00  0.13162730520E+04  0.13162730520E+04  0.25500000920E-02 0. -1.
        2   -1    0    0  501    0  0.00000000000E+00  0.00000000000E+00 -0.26052377870E+04  0.26052377870E+04  0.25500000920E-02 0.  1.
    10030    2    1    2    0    0  0.00000000000E+00  0.00000000000E+00 -0.12889647350E+04  0.39215108391E+04  0.37036221693E+04 0.  0.
        4    1    3    3  502    0 -0.94703236446E+03  0.34490895511E+03 -0.22893793997E+04  0.25014180249E+04  0.12699999809E+01 0.  1.
       -4    1    3    3    0  502  0.94703236446E+03 -0.34490895511E+03  0.10004146647E+04  0.14200928142E+04  0.12699999809E+01 0. -1.
</event>
<event>
 5   0  0.3682276E-07  0.2339920E+04  0.7818609E-02  0.8462345E-01
        1   -1    0    0  501    0  0.00000000000E+00  0.00000000000E+00  0.17765840759E+04  0.17765840759E+04  0.50400001928E-02 0. -1.
       -1   -1    0    0    0  501  0.00000000000E+00  0.00000000000E+00 -0.77047121325E+03  0.77047121327E+03  0.50400001928E-02 0.  1.
    10030    2    1    2    0    0  0.00000000000E+00  0.00000000000E+00  0.10061128626E+04  0.25470552891E+04  0.23399204161E+04 0.  0.
        1    1    3    3  502    0 -0.48327563757E+03 -0.97651870079E+03  0.39107417552E+02  0.10902630439E+04  0.50400001928E-02 0.  1.
       -1    1    3    3    0  502  0.48327563757E+03  0.97651870079E+03  0.96700544506E+03  0.14567922452E+04  0.50400001928E-02 0. -1.
</event>
<event>
 5   0  0.3675819E-07  0.3610318E+04  0.7818609E-02  0.8088132E-01
       -1   -1    0    0    0  501  0.00000000000E+00  0.00000000000E+00  0.16869392761E+04  0.16869392761E+04  0.50400001928E-02 0. -1.
        1   -1    0    0  501    0  0.00000000000E+00  0.00000000000E+00 -0.19316637387E+04  0.19316637387E+04  0.50400001928E-02 0.  1.
    10030    2    1    2    0    0  0.00000000000E+00  0.00000000000E+00 -0.24472446261E+03  0.36186030149E+04  0.36103182293E+04 0.  0.
        5    1    3    3  502    0 -0.25235879890E+03  0.52282312939E+03 -0.18355382860E+04  0.19251628184E+04  0.46999998093E+01 0.  1.
       -5    1    3    3    0  502  0.25235879890E+03 -0.52282312939E+03  0.15908138234E+04  0.16934401964E+04  0.46999998093E+01 0. -1.
</event>
<event>
 5   0  0.1128166E-06  0.3705973E+04  0.7818609E-02  0.8066639E-01
        2   -1    0    0  501    0  0.00000000000E+00  0.00000000000E+00  0.30982852133E+04  0.30982852133E+04  0.25500000920E-02 0. -1.
       -2   -1    0    0    0  501  0.00000000000E+00  0.00000000000E+00 -0.11082128144E+04  0.11082128144E+04  0.25500000920E-02 0.  1.
    10030    2    1    2    0    0  0.00000000000E+00  0.00000000000E+00  0.19900723990E+04  0.42064980277E+04  0.37059732195E+04 0.  0.
        3    1    3    3  502    0  0.33374859676E+03  0.71624802759E+03  0.28974572863E+04  0.30032745627E+04  0.10100000352E+00 0. -1.
       -3    1    3    3    0  502 -0.33374859676E+03 -0.71624802759E+03 -0.90738488729E+03  0.12032234650E+04  0.10100000352E+00 0.  1.
</event>
<event>
 5   0  0.3490375E-07  0.3696764E+04  0.7818609E-02  0.8068679E-01
        3   -1    0    0  501    0  0.00000000000E+00  0.00000000000E+00  0.14411237810E+04  0.14411237845E+04  0.10100000352E+00 0.  1.
       -3   -1    0    0    0  501  0.00000000000E+00  0.00000000000E+00 -0.23707310748E+04  0.23707310770E+04  0.10100000352E+00 0. -1.
    10030    2    1    2    0    0  0.00000000000E+00  0.00000000000E+00 -0.92960729389E+03  0.38118548615E+04  0.36967644994E+04 0.  0.
        1    1    3    3  502    0 -0.38420167601E+03  0.14655495844E+04 -0.15565733036E+04  0.21721802323E+04  0.50400001928E-02 0. -1.
       -1    1    3    3    0  502  0.38420167601E+03 -0.14655495844E+04  0.62696600976E+03  0.16396746292E+04  0.50400001928E-02 0.  1.
</event>
<event>
 5   0  0.3764495E-07  0.3717223E+04  0.7818609E-02  0.8064156E-01
       -1   -1    0    0    0  501  0.00000000000E+00  0.00000000000E+00  0.30498483102E+04  0.30498483102E+04  0.50400001928E-02 0.  1.
        1   -1    0    0  501    0  0.00000000000E+00  0.00000000000E+00 -0.11326588346E+04  0.11326588346E+04  0.50400001928E-02 0. -1.
    10030    2    1    2    0    0  0.00000000000E+00  0.00000000000E+00  0.19171894756E+04  0.41825071449E+04  0.37172234977E+04 0.  0.
        4    1    3    3  502    0 -0.44248708023E+03 -0.17547340256E+04  0.48182315325E+03  0.18727096627E+04  0.12699999809E+01 0. -1.
       -4    1    3    3    0  502  0.44248708023E+03  0.17547340256E+04  0.14353663223E+04  0.23097974822E+04  0.12699999809E+01 0.  1.
</event>
<event>
 5   0  0.1066907E-06  0.3005159E+04  0.7818609E-02  0.8242259E-01
        2   -1    0    0  501    0  0.00000000000E+00  0.00000000000E+00  0.24974144863E+04  0.24974144863E+04  0.25500000920E-02 0.  1.
       -2   -1    0    0    0  501  0.00000000000E+00  0.00000000000E+00 -0.90403316426E+03  0.90403316426E+03  0.25500000920E-02 0. -1.
    10030    2    1    2    0    0  0.00000000000E+00  0.00000000000E+00  0.15933813220E+04  0.34014476505E+04  0.30051592440E+04 0.  0.
        4    1    3    3  502    0 -0.34091405580E+03  0.13355988703E+04  0.14736367045E+04  0.20178338598E+04  0.12699999809E+01 0.  1.
       -4    1    3    3    0  502  0.34091405580E+03 -0.13355988703E+04  0.11974461747E+03  0.13836137908E+04  0.12699999809E+01 0. -1.
</event>
<event>
 5   0  0.1092116E-06  0.3876779E+04  0.7818609E-02  0.8029876E-01
        2   -1    0    0  501    0  0.00000000000E+00  0.00000000000E+00  0.23738134679E+04  0.23738134679E+04  0.25500000920E-02 0. -1.
       -2   -1    0    0    0  501  0.00000000000E+00  0.00000000000E+00 -0.15828342178E+04  0.15828342178E+04  0.25500000920E-02 0.  1.
    10030    2    1    2    0    0  0.00000000000E+00  0.00000000000E+00  0.79097925016E+03  0.39566476857E+04  0.38767786543E+04 0.  0.
        1    1    3    3  502    0 -0.25629561253E+03  0.36846903060E+03  0.23200472528E+04  0.23630649849E+04  0.50400001928E-02 0. -1.
       -1    1    3    3    0  502  0.25629561253E+03 -0.36846903060E+03 -0.15290680027E+04  0.15935827008E+04  0.50400001928E-02 0.  1.
</event>
<event>
 5   0  0.3848431E-07  0.3550234E+04  0.7818609E-02  0.8101987E-01
        1   -1    0    0  501    0  0.00000000000E+00  0.00000000000E+00  0.22144445017E+04  0.22144445017E+04  0.50400001928E-02 0.  1.
       -1   -1    0    0    0  501  0.00000000000E+00  0.00000000000E+00 -0.14229485677E+04  0.14229485677E+04  0.50400001928E-02 0. -1.
    10030    2    1    2    0    0  0.00000000000E+00  0.00000000000E+00  0.79149593399E+03  0.36373930694E+04  0.35502341511E+04 0.  0.
        2    1    3    3  502    0  0.20131201418E+03 -0.17529862829E+04  0.19720400052E+03  0.17754934111E+04  0.25500000920E-02 0. -1.
       -2    1    3    3    0  502 -0.20131201418E+03  0.17529862829E+04  0.59429193347E+03  0.18618996582E+04  0.25500000920E-02 0.  1.
</event>
<event>
 5   0  0.1051123E-06  0.3821883E+04  0.7818609E-02  0.8041475E-01
       -2   -1    0    0    0  501  0.00000000000E+00  0.00000000000E+00  0.14272743681E+04  0.14272743681E+04  0.25500000920E-02 0. -1.
        2   -1    0    0  501    0  0.00000000000E+00  0.00000000000E+00 -0.25585115453E+04  0.25585115453E+04  0.25500000920E-02 0.  1.
    10030    2    1    2    0    0  0.00000000000E+00  0.00000000000E+00 -0.11312371772E+04  0.39857859135E+04  0.38218832788E+04 0.  0.
        2    1    3    3  502    0  0.71487462594E+03 -0.15896803693E+04  0.25127989700E+03  0.17610425872E+04  0.25500000920E-02 0. -1.
       -2    1    3    3    0  502 -0.71487462594E+03  0.15896803693E+04 -0.13825170742E+04  0.22247433263E+04  0.25500000920E-02 0.  1.
</event>
<event>
 5   0  0.1092116E-06  0.3727829E+04  0.7818609E-02  0.8061822E-01
       -2   -1    0    0    0  501  0.00000000000E+00  0.00000000000E+00  0.13097293882E+04  0.13097293882E+04  0.25500000920E-02 0.  1.
        2   -1    0    0  501    0  0.00000000000E+00  0.00000000000E+00 -0.26525923021E+04  0.26525923021E+04  0.25500000920E-02 0. -1.
    10030    2    1    2    0    0  0.00000000000E+00  0.00000000000E+00 -0.13428629139E+04  0.39623216903E+04  0.37278294451E+04 0.  0.
        1    1    3    3  502    0 -0.24786012736E+03  0.10897060087E+04  0.91414228844E+03  0.14437970604E+04  0.50400001928E-02 0.  1.
       -1    1    3    3    0  502  0.24786012736E+03 -0.10897060087E+04 -0.22570052024E+04  0.25185246299E+04  0.50400001928E-02 0. -1.
</event>
<event>
 5   0  0.1128166E-06  0.3812808E+04  0.7818609E-02  0.8043412E-01
       -2   -1    0    0    0  501  0.00000000000E+00  0.00000000000E+00  0.14415655736E+04  0.14415655736E+04  0.25500000920E-02 0.  1.
        2   -1    0    0  501    0  0.00000000000E+00  0.00000000000E+00 -0.25211312726E+04  0.25211312726E+04  0.25500000920E-02 0. -1.
    10030    2    1    2    0    0  0.00000000000E+00  0.00000000000E+00 -0.10795656990E+04  0.39626968463E+04  0.38128079150E+04 0.  0.
        3    1    3    3  502    0 -0.89838791084E+03  0.21303515291E+03 -0.22732515121E+04  0.24536008767E+04  0.10100000352E+00 0. -1.
       -3    1    3    3    0  502  0.89838791084E+03 -0.21303515291E+03  0.11936858131E+04  0.15090959695E+04  0.10100000352E+00 0.  1.
</event>
<event>
 5   0  0.1051123E-06  0.3703663E+04  0.7818609E-02  0.8067150E-01
        2   -1    0    0  501    0  0.00000000000E+00  0.00000000000E+00  0.29186030426E+04  0.29186030426E+04  0.25500000920E-02 0. -1.
       -2   -1    0    0    0  501  0.00000000000E+00  0.00000000000E+00 -0.11749732409E+04  0.11749732409E+04  0.25500000920E-02 0.  1.
    10030    2    1    2    0    0  0.00000000000E+00  0.00000000000E+00  0.17436298017E+04  0.40935762835E+04  0.37036633086E+04 0.  0.
        2    1    3    3  502    0 -0.14048516914E+03  0.41787253498E+03  0.28597565237E+04  0.28935377850E+04  0.25500000920E-02 0. -1.
       -2    1    3    3    0  502  0.14048516914E+03 -0.41787253498E+03 -0.11161267220E+04  0.12000384985E+04  0.25500000920E-02 0.  1.
</event>
<event>
 5   0  0.3675819E-07  0.2959118E+04  0.7818609E-02  0.8255502E-01
       -1   -1    0    0    0  501  0.00000000000E+00  0.00000000000E+00  0.86266901864E+03  0.86266901865E+03  0.50400001928E-02 0. -1.
        1   -1    0    0  501    0  0.00000000000E+00  0.00000000000E+00 -0.25375834794E+04  0.25375834794E+04  0.50400001928E-02 0.  1.
    10030    2    1    2    0    0  0.00000000000E+00  0.00000000000E+00 -0.16749144607E+04  0.34002524980E+04  0.29591178752E+04 0.  0.
        5    1    3    3  502    0  0.20028970478E+03  0.11673334551E+04  0.18146270117E+03  0.11982212497E+04  0.46999998093E+01 0. -1.
       -5    1    3    3    0  502 -0.20028970478E+03 -0.11673334551E+04 -0.18563771619E+04  0.22020312483E+04  0.46999998093E+01 0.  1.
</event>
<event>
 5   0  0.1066907E-06  0.3510894E+04  0.7818609E-02  0.8111213E-01
       -2   -1    0    0    0  501  0.00000000000E+00  0.00000000000E+00  0.14059814306E+04  0.14059814306E+04  0.25500000920E-02 0.  1.
        2   -1    0    0  501    0  0.00000000000E+00  0.00000000000E+00 -0.21917738961E+04  0.21917738961E+04  0.25500000920E-02 0. -1.
    10030    2    1    2    0    0  0.00000000000E+00  0.00000000000E+00 -0.78579246549E+03  0.35977553266E+04  0.35108935603E+04 0.  0.
        4    1    3    3  502    0 -0.10481835777E+03  0.49364339313E+03 -0.21158388171E+04  0.21751887735E+04  0.12699999809E+01 0. -1.
       -4    1    3    3    0  502  0.10481835777E+03 -0.49364339313E+03  0.13300463516E+04  0.14225665531E+04  0.12699999809E+01 0.  1.
</event>
<event>
 5   0  0.3704306E-07  0.3701245E+04  0.7818609E-02  0.8067686E-01
        1   -1    0    0  501    0  0.00000000000E+00  0.00000000000E+00  0.25917918490E+04  0.25917918490E+04  0.50400001928E-02 0. -1.
       -1   -1    0    0    0  501  0.00000000000E+00  0.00000000000E+00 -0.13214036966E+04  0.13214036966E+04  0.50400001928E-02 0.  1.
    10030    2    1    2    0    0  0.00000000000E+00  0.00000000000E+00  0.12703881524E+04  0.39131955456E+04  0.37012448339E+04 0.  0.
        3    1    3    3  502    0 -0.75790613074E+03 -0.16611436871E+04  0.31628674609E+03  0.18530670166E+04  0.10100000352E+00 0. -1.
       -3    1    3    3    0  502  0.75790613074E+03  0.16611436871E+04  0.95410140627E+03  0.20601285290E+04  0.10100000352E+00 0.  1.
</event>
<event>
 5   0  0.3704306E-07  0.3750321E+04  0.7818609E-02  0.8056901E-01
        1   -1    0    0  501    0  0.00000000000E+00  0.00000000000E+00  0.16282507481E+04  0.16282507481E+04  0.50400001928E-02 0. -1.
       -1   -1    0    0    0  501  0.00000000000E+00  0.00000000000E+00 -0.21595114349E+04  0.21595114349E+04  0.50400001928E-02 0.  1.
    10030    2    1    2    0    0  0.00000000000E+00  0.00000000000E+00 -0.53126068679E+03  0.37877621830E+04  0.37503205780E+04 0.  0.
        3    1    3    3  502    0 -0.32374850187E+03  0.17196811380E+04  0.41497404254E+03  0.17984214676E+04  0.10100000352E+00 0. -1.
       -3    1    3    3    0  502  0.32374850187E+03 -0.17196811380E+04 -0.94623472933E+03  0.19893407154E+04  0.10100000352E+00 0.  1.
</event>
<event>
 5   0  0.1128166E-06  0.3714416E+04  0.7818609E-02  0.8064774E-01
        2   -1    0    0  501    0  0.00000000000E+00  0.00000000000E+00  0.16697890263E+04  0.16697890263E+04  0.25500000920E-02 0.  1.
       -2   -1    0    0    0  501  0.00000000000E+00  0.00000000000E+00 -0.20656635364E+04  0.20656635364E+04  0.25500000920E-02 0. -1.
    10030    2    1    2    0    0  0.00000000000E+00  0.00000000000E+00 -0.39587451010E+03  0.37354525627E+04  0.37144164037E+04 0.  0.
        3    1    3    3  502    0  0.20415833594E+03 -0.12961131190E+04 -0.15197755009E+04  0.20078116014E+04  0.10100000352E+00 0. -1.
       -3    1    3    3    0  502 -0.20415833594E+03  0.12961131190E+04  0.11239009908E+04  0.17276409612E+04  0.10100000352E+00 0.  1.
</event>
<event>
 5   0  0.3704306E-07  0.2710206E+04  0.7818609E-02  0.8331701E-01
        1   -1    0    0  501    0  0.00000000000E+00  0.00000000000E+00  0.17081622044E+04  0.17081622045E+04  0.50400001928E-02 0.  1.
       -1   -1    0    0    0  501  0.00000000000E+00  0.00000000000E+00 -0.10750175380E+04  0.10750175380E+04  0.50400001928E-02 0. -1.
    10030    2    1    2    0    0  0.00000000000E+00  0.00000000000E+00  0.63314466641E+03  0.27831797425E+04  0.27102061380E+04 0.  0.
        3    1    3    3  502    0  0.92407142824E+03 -0.92099541009E+03 -0.59573757811E+02  0.13060205177E+04  0.10100000352E+00 0. -1.
       -3    1    3    3    0  502 -0.92407142824E+03  0.92099541009E+03  0.69271842422E+03  0.14771592248E+04  0.10100000352E+00 0.  1.
</event>
<event>
 5   0  0.3764495E-07  0.3740368E+04  0.7818609E-02  0.8059074E-01
       -1   -1    0    0    0  501  0.00000000000E+00  0.00000000000E+00  0.18898036665E+04  0.18898036665E+04  0.50400001928E-02 0.  1.
        1   -1    0    0  501    0  0.00000000000E+00  0.00000000000E+00 -0.18507677113E+04  0.18507677113E+04  0.50400001928E-02 0. -1.
    10030    2    1    2    0    0  0.00000000000E+00  0.00000000000E+00  0.39035955274E+02  0.37405713778E+04  0.37403676860E+04 0.  0.
        4    1    3    3  502    0 -0.78412606007E+03  0.11410462698E+04 -0.12378275986E+04  0.18571642482E+04  0.12699999809E+01 0. -1.
       -4    1    3    3    0  502  0.78412606007E+03 -0.11410462698E+04  0.12768635539E+04  0.18834071296E+04  0.12699999809E+01 0.  1.
</event>
<event>
 5   0  0.3490375E-07  0.3641690E+04  0.7818609E-02  0.8081008E-01
        3   -1    0    0  501    0  0.00000000000E+00  0.00000000000E+00  0.22889293540E+04  0.22889293562E+04  0.10100000352E+00 0.  1.
       -3   -1    0    0    0  501  0.00000000000E+00  0.00000000000E+00 -0.14484832262E+04  0.14484832297E+04  0.10100000352E+00 0. -1.
    10030    2    1    2    0    0  0.00000000000E+00  0.00000000000E+00  0.84044612781E+03  0.37374125859E+04  0.36416896001E+04 0.  0.
        4    1    3    3  502    0  0.15887302337E+04  0.78483905752E+03  0.85008603894E+03  0.19653712088E+04  0.12699999809E+01 0.  1.
       -4    1    3    3    0  502 -0.15887302337E+04 -0.78483905752E+03 -0.96399111337E+01  0.17720413772E+04  0.12699999809E+01 0. -1.
</event>
<event>
 5   0  0.3682276E-07  0.3675744E+04  0.7818609E-02  0.8073359E-01
        1   -1    0    0  501    0  0.00000000000E+00  0.00000000000E+00  0.11843513736E+04  0.11843513736E+04  0.50400001928E-02 0. -1.
       -1   -1    0    0    0  501  0.00000000000E+00  0.00000000000E+00 -0.28520032165E+04  0.28520032165E+04  0.50400001928E-02 0.  1.
    10030    2    1    2    0    0  0.00000000000E+00  0.00000000000E+00 -0.16676518429E+04  0.40363545900E+04  0.36757442386E+04 0.  0.
        1    1    3    3  502    0  0.15332156547E+04 -0.37752837920E+03 -0.18665682188E+04  0.24448629484E+04  0.50400001928E-02 0.  1.
       -1    1    3    3    0  502 -0.15332156547E+04  0.37752837920E+03  0.19891637588E+03  0.15914916417E+04  0.50400001928E-02 0. -1.
</event>
<event>
 5   0  0.1092116E-06  0.3597055E+04  0.7818609E-02  0.8091167E-01
       -2   -1    0    0    0  501  0.00000000000E+00  0.00000000000E+00  0.17159121091E+04  0.17159121091E+04  0.25500000920E-02 0.  1.
        2   -1    0    0  501    0  0.00000000000E+00  0.00000000000E+00 -0.18851201974E+04  0.18851201974E+04  0.25500000920E-02 0. -1.
    10030    2    1    2    0    0  0.00000000000E+00  0.00000000000E+00 -0.16920808829E+03  0.36010323066E+04  0.35970546695E+04 0.  0.
        1    1    3    3  502    0  0.44348947854E+02 -0.99097057368E+03  0.14172919273E+04  0.17299439050E+04  0.50400001928E-02 0.  1.
       -1    1    3    3    0  502 -0.44348947854E+02  0.99097057368E+03 -0.15865000156E+04  0.18710884016E+04  0.50400001928E-02 0. -1.
</event>
<event>
 5   0  0.3682276E-07  0.3739654E+04  0.7818609E-02  0.8059230E-01
        1   -1    0    0  501    0  0.00000000000E+00  0.00000000000E+00  0.12947673681E+04  0.12947673682E+04  0.50400001928E-02 0. -1.
       -1   -1    0    0    0  501  0.00000000000E+00  0.00000000000E+00 -0.27002938008E+04  0.27002938008E+04  0.50400001928E-02 0.  1.
    10030    2    1    2    0    0  0.00000000000E+00  0.00000000000E+00 -0.14055264326E+04  0.39950611690E+04  0.37396536191E+04 0.  0.
        1    1    3    3  502    0  0.14354786826E+04  0.10542368064E+04 -0.94454534546E+02  0.17835178584E+04  0.50400001928E-02 0. -1.
       -1    1    3    3    0  502 -0.14354786826E+04 -0.10542368064E+04 -0.13110718981E+04  0.22115433105E+04  0.50400001928E-02 0.  1.
</event>
<event>
 5   0  0.1128166E-06  0.3563038E+04  0.7818609E-02  0.8099011E-01
        2   -1    0    0  501    0  0.00000000000E+00  0.00000000000E+00  0.19193513060E+04  0.19193513060E+04  0.25500000920E-02 0.  1.
       -2   -1    0    0    0  501  0.00000000000E+00  0.00000000000E+00 -0.16535844243E+04  0.16535844243E+04  0.25500000920E-02 0. -1.
    10030    2    1    2    0    0  0.00000000000E+00  0.00000000000E+00  0.26576688165E+03  0.35729357303E+04  0.35630377065E+04 0.  0.
        3    1    3    3  502    0 -0.76243286582E+03 -0.98717745326E+03  0.14084178961E+04  0.18813463741E+04  0.10100000352E+00 0.  1.
       -3    1    3    3    0  502  0.76243286582E+03  0.98717745326E+03 -0.11426510144E+04  0.16915893562E+04  0.10100000352E+00 0. -1.
</event>
<event>
 5   0  0.1066907E-06  0.3777636E+04  0.7818609E-02  0.8050971E-01
       -2   -1    0    0    0  501  0.00000000000E+00  0.00000000000E+00  0.15156000163E+04  0.15156000163E+04  0.25500000920E-02 0.  1.
        2   -1    0    0  501    0  0.00000000000E+00  0.00000000000E+00 -0.23539415901E+04  0.23539415901E+04  0.25500000920E-02 0. -1.
    10030    2    1    2    0    0  0.00000000000E+00  0.00000000000E+00 -0.83834157382E+03  0.38695416065E+04  0.37776362516E+04 0.  0.
        4    1    3    3  502    0  0.50256708193E+03  0.99453745427E+03 -0.19813826550E+04  0.22732261784E+04  0.12699999809E+01 0. -1.
       -4    1    3    3    0  502 -0.50256708193E+03 -0.99453745427E+03  0.11430410811E+04  0.15963154281E+04  0.12699999809E+01 0.  1.
</event>
<event>
 5   0  0.3682276E-07  0.3507501E+04  0.7818609E-02  0.8112015E-01
        1   -1    0    0  501    0  0.00000000000E+00  0.00000000000E+00  0.18416623994E+04  0.18416623994E+04  0.50400001928E-02 0.  1.
       -1   -1    0    0    0  501  0.00000000000E+00  0.00000000000E+00 -0.16700350021E+04  0.16700350021E+04  0.50400001928E-02 0. -1.
    10030    2    1    2    0    0  0.00000000000E+00  0.00000000000E+00  0.17162739724E+03  0.35116974015E+04  0.35075009161E+04 0.  0.
        1    1    3    3  502    0 -0.10164750030E+04  0.14287414919E+04  0.52352362410E+02  0.17542133429E+04  0.50400001928E-02 0. -1.
       -1    1    3    3    0  502  0.10164750030E+04 -0.14287414919E+04  0.11927503483E+03  0.17574840586E+04  0.50400001928E-02 0.  1.
</event>
<event>
 5   0  0.3704306E-07  0.2264445E+04  0.7818609E-02  0.8492073E-01
       -1   -1    0    0    0  501  0.00000000000E+00  0.00000000000E+00  0.83757813201E+03  0.83757813202E+03  0.50400001928E-02 0.  1.
        1   -1    0    0  501    0  0.00000000000E+00  0.00000000000E+00 -0.15305175485E+04  0.15305175485E+04  0.50400001928E-02 0. -1.
    10030    2    1    2    0    0  0.00000000000E+00  0.00000000000E+00 -0.69293941646E+03  0.23680956805E+04  0.22644452118E+04 0.  0.
        3    1    3    3  502    0  0.90726715501E+03 -0.66577447906E+03 -0.47682971417E+03  0.12221930838E+04  0.10100000352E+00 0.  1.
       -3    1    3    3    0  502 -0.90726715501E+03  0.66577447906E+03 -0.21610970230E+03  0.11459025967E+04  0.10100000352E+00 0. -1.
</event>
<event>
 5   0  0.1051123E-06  0.3739046E+04  0.7818609E-02  0.8059364E-01
        2   -1    0    0  501    0  0.00000000000E+00  0.00000000000E+00  0.22814888924E+04  0.22814888924E+04  0.25500000920E-02 0. -1.
       -2   -1    0    0    0  501  0.00000000000E+00  0.00000000000E+00 -0.15319450463E+04  0.15319450463E+04  0.25500000920E-02 0.  1.
    10030    2    1    2    0    0  0.00000000000E+00  0.00000000000E+00  0.74954384613E+03  0.38134339387E+04  0.37390456573E+04 0.  0.
        2    1    3    3  502    0  0.25543402079E+03 -0.11710987324E+04  0.18380269032E+04  0.21943248795E+04  0.25500000920E-02 0. -1.
       -2    1    3    3    0  502 -0.25543402079E+03  0.11710987324E+04 -0.10884830570E+04  0.16191090592E+04  0.25500000920E-02 0.  1.
</event>
<event>
 5   0  0.1128166E-06  0.3688568E+04  0.7818609E-02  0.8070500E-01
        2   -1    0    0  501    0  0.00000000000E+00  0.00000000000E+00  0.21825053505E+04  0.21825053505E+04  0.25500000920E-02 0. -1.
       -2   -1    0    0    0  501  0.00000000000E+00  0.00000000000E+00 -0.15584763549E+04  0.15584763549E+04  0.25500000920E-02 0.  1.
    10030    2    1    2    0    0  0.00000000000E+00  0.00000000000E+00  0.62402899560E+03  0.37409817053E+04  0.36885677346E+04 0.  0.
        3    1    3    3  502    0 -0.12937889043E+04 -0.10731369447E+04 -0.45763001524E+03  0.17421073079E+04  0.10100000352E+00 0.  1.
       -3    1    3    3    0  502  0.12937889043E+04  0.10731369447E+04  0.10816590108E+04  0.19988743975E+04  0.10100000352E+00 0. -1.
</event>
<event>
 5   0  0.3682276E-07  0.3630018E+04  0.7818609E-02  0.8083650E-01
        1   -1    0    0  501    0  0.00000000000E+00  0.00000000000E+00  0.12430125439E+04  0.12430125439E+04  0.50400001928E-02 0. -1.
       -1   -1    0    0    0  501  0.00000000000E+00  0.00000000000E+00 -0.26502205790E+04  0.26502205790E+04  0.50400001928E-02 0.  1.
    10030    2    1    2    0    0  0.00000000000E+00  0.00000000000E+00 -0.14072080351E+04  0.38932331229E+04  0.36300178643E+04 0.  0.
        1    1    3    3  502    0 -0.84728178467E+03  0.17787822321E+03  0.10072877284E+04  0.13282152132E+04  0.50400001928E-02 0. -1.
       -1    1    3    3    0  502  0.84728178467E+03 -0.17787822321E+03 -0.24144957635E+04  0.25650179097E+04  0.50400001928E-02 0.  1.
</event>
<event>
 5   0  0.3848431E-07  0.3674360E+04  0.7818609E-02  0.8073668E-01
        1   -1    0    0  501    0  0.00000000000E+00  0.00000000000E+00  0.27309045027E+04  0.27309045027E+04  0.50400001928E-02 0.  1.
       -1   -1    0    0    0  501  0.00000000000E+00  0.00000000000E+00 -0.12359384900E+04  0.12359384900E+04  0.50400001928E-02 0. -1.
    10030    2    1    2    0    0  0.00000000000E+00  0.00000000000E+00  0.14949660127E+04  0.39668429927E+04  0.36743598013E+04 0.  0.
        2    1    3    3  502    0 -0.25620040472E+03  0.58774328293E+03 -0.11112343675E+04  0.12829351634E+04  0.25500000920E-02 0. -1.
       -2    1    3    3    0  502  0.25620040472E+03 -0.58774328293E+03  0.26062003802E+04  0.26839078293E+04  0.25500000920E-02 0.  1.
</event>
<event>
 5   0  0.3682276E-07  0.3751965E+04  0.7818609E-02  0.8056542E-01
        1   -1    0    0  501    0  0.00000000000E+00  0.00000000000E+00  0.16032887372E+04  0.16032887372E+04  0.50400001928E-02 0. -1.
       -1   -1    0    0    0  501  0.00000000000E+00  0.00000000000E+00 -0.21950573869E+04  0.21950573869E+04  0.50400001928E-02 0.  1.
    10030    2    1    2    0    0  0.00000000000E+00  0.00000000000E+00 -0.59176864966E+03  0.37983461241E+04  0.37519652375E+04 0.  0.
        1    1    3    3  502    0 -0.82721935069E+02 -0.51464301410E+03 -0.21202743768E+04  0.21834064632E+04  0.50400001928E-02 0.  1.
       -1    1    3    3    0  502  0.82721935069E+02  0.51464301410E+03  0.15285057271E+04  0.16149396609E+04  0.50400001928E-02 0. -1.
</event>
<event>
 5   0  0.1051123E-06  0.3739911E+04  0.7818609E-02  0.8059174E-01
       -2   -1    0    0    0  501  0.00000000000E+00  0.00000000000E+00  0.26736137792E+04  0.26736137792E+04  0.25500000920E-02 0. -1.
        2   -1    0    0  501    0  0.00000000000E+00  0.00000000000E+00 -0.13078679488E+04  0.13078679488E+04  0.25500000920E-02 0.  1.
    10030    2    1    2    0    0  0.00000000000E+00  0.00000000000E+00  0.13657458304E+04  0.39814817280E+04  0.37399111055E+04 0.  0.
        2    1    3    3  502    0  0.40524839767E+03  0.98682105274E+03 -0.95213190847E+03  0.14298941307E+04  0.25500000920E-02 0.  1.
       -2    1    3    3    0  502 -0.40524839767E+03 -0.98682105274E+03  0.23178777389E+04  0.25515875973E+04  0.25500000920E-02 0. -1.
</event>
<event>
 5   0  0.3675819E-07  0.2360085E+04  0.7818609E-02  0.8454600E-01
        1   -1    0    0  501    0  0.00000000000E+00  0.00000000000E+00  0.16221641461E+04  0.16221641461E+04  0.50400001928E-02 0. -1.
       -1   -1    0    0    0  501  0.00000000000E+00  0.00000000000E+00 -0.85842149592E+03  0.85842149594E+03  0.50400001928E-02 0.  1.
    10030    2    1    2    0    0  0.00000000000E+00  0.00000000000E+00  0.76374265013E+03  0.24805856420E+04  0.23600852297E+04 0.  0.
        5    1    3    3  502    0  0.27090806418E+03 -0.14152659028E+03 -0.81608429872E+03  0.87145661258E+03  0.46999998093E+01 0.  1.
       -5    1    3    3    0  502 -0.27090806418E+03  0.14152659028E+03  0.15798269489E+04  0.16091290294E+04  0.46999998093E+01 0. -1.
</event>
<event>
 5   0  0.3704306E-07  0.3622074E+04  0.7818609E-02  0.8085454E-01
        1   -1    0    0  501    0  0.00000000000E+00  0.00000000000E+00  0.21560597784E+04  0.21560597784E+04  0.50400001928E-02 0.  1.
       -1   -1    0    0    0  501  0.00000000000E+00  0.00000000000E+00 -0.15212260383E+04  0.15212260383E+04  0.50400001928E-02 0. -1.
    10030    2    1    2    0    0  0.00000000000E+00  0.00000000000E+00  0.63483374012E+03  0.36772858167E+04  0.36220735912E+04 0.  0.
        3    1    3    3  502    0  0.10289605854E+04  0.10800811727E+04 -0.72513417853E+03  0.16586605479E+04  0.10100000352E+00 0. -1.
       -3    1    3    3    0  502 -0.10289605854E+04 -0.10800811727E+04  0.13599679187E+04  0.20186252688E+04  0.10100000352E+00 0.  1.
</event>
<event>
 5   0  0.1128166E-06  0.3679598E+04  0.7818609E-02  0.8072498E-01
        2   -1    0    0  501    0  0.00000000000E+00  0.00000000000E+00  0.24281976366E+04  0.24281976366E+04  0.25500000920E-02 0.  1.
       -2   -1    0    0    0  501  0.00000000000E+00  0.00000000000E+00 -0.13939804249E+04  0.13939804249E+04  0.25500000920E-02 0. -1.
    10030    2    1    2    0    0  0.00000000000E+00  0.00000000000E+00  0.10342172117E+04  0.38221780615E+04  0.36795977895E+04 0.  0.
        3    1    3    3  502    0  0.16867738620E+03  0.91715792860E+03  0.21645097087E+04  0.23568481105E+04  0.10100000352E+00 0.  1.
       -3    1    3    3    0  502 -0.16867738620E+03 -0.91715792860E+03 -0.11302924969E+04  0.14653299511E+04  0.10100000352E+00 0. -1.
</event>
<event>
 5   0  0.1128166E-06  0.3622523E+04  0.7818609E-02  0.8085352E-01
       -2   -1    0    0    0  501  0.00000000000E+00  0.00000000000E+00  0.29165521820E+04  0.29165521820E+04  0.25500000920E-02 0.  1.
        2   -1    0    0  501    0  0.00000000000E+00  0.00000000000E+00 -0.11248444431E+04  0.11248444431E+04  0.25500000920E-02 0. -1.
    10030    2    1    2    0    0  0.00000000000E+00  0.00000000000E+00  0.17917077388E+04  0.40413966251E+04  0.36225226100E+04 0.  0.
        3    1    3    3  502    0 -0.24861900892E+03  0.17910932161E+04  0.10120144390E+04  0.20721967946E+04  0.10100000352E+00 0. -1.
       -3    1    3    3    0  502  0.24861900892E+03 -0.17910932161E+04  0.77969329985E+03  0.19691998305E+04  0.10100000352E+00 0.  1.
</event>
<event>
 5   0  0.3682276E-07  0.2507953E+04  0.7818609E-02  0.8400158E-01
        1   -1    0    0  501    0  0.00000000000E+00  0.00000000000E+00  0.18791839452E+04  0.18791839452E+04  0.50400001928E-02 0.  1.
       -1   -1    0    0    0  501  0.00000000000E+00  0.00000000000E+00 -0.83677673814E+03  0.83677673816E+03  0.50400001928E-02 0. -1.
    10030    2    1    2    0    0  0.00000000000E+00  0.00000000000E+00  0.10424072070E+04  0.27159606833E+04  0.25079532787E+04 0.  0.
        1    1    3    3  502    0  0.10550344598E+04 -0.12732479627E+02 -0.21264054321E+03  0.10763251498E+04  0.50400001928E-02 0. -1.
       -1    1    3    3    0  502 -0.10550344598E+04  0.12732479627E+02  0.12550477502E+04  0.16396355335E+04  0.50400001928E-02 0.  1.
</event>
<event>
 5   0  0.1092116E-06  0.3657037E+04  0.7818609E-02  0.8077550E-01
       -2   -1    0    0    0  501  0.00000000000E+00  0.00000000000E+00  0.19479376057E+04  0.19479376057E+04  0.25500000920E-02 0.  1.
        2   -1    0    0  501    0  0.00000000000E+00  0.00000000000E+00 -0.17164200621E+04  0.17164200621E+04  0.25500000920E-02 0. -1.
    10030    2    1    2    0    0  0.00000000000E+00  0.00000000000E+00  0.23151754353E+03  0.36643576678E+04  0.36570366069E+04 0.  0.
        1    1    3    3  502    0  0.55807259453E+03  0.17026606188E+04 -0.24963683251E+03  0.18090927980E+04  0.50400001928E-02 0.  1.
       -1    1    3    3    0  502 -0.55807259453E+03 -0.17026606188E+04  0.48115437604E+03  0.18552648698E+04  0.50400001928E-02 0. -1.
</event>
<event>
 5   0  0.3764495E-07  0.3755758E+04  0.7818609E-02  0.8055716E-01
       -1   -1    0    0    0  501  0.00000000000E+00  0.00000000000E+00  0.22028905152E+04  0.22028905152E+04  0.50400001928E-02 0.  1.
        1   -1    0    0  501    0  0.00000000000E+00  0.00000000000E+00 -0.16008188271E+04  0.16008188272E+04  0.50400001928E-02 0. -1.
    10030    2    1    2    0    0  0.00000000000E+00  0.00000000000E+00  0.60207168806E+03  0.38037093424E+04  0.37557575060E+04 0.  0.
        4    1    3    3  502    0 -0.70067682340E+03 -0.17420942759E+04  0.27650843797E+03  0.18979723407E+04  0.12699999809E+01 0.  1.
       -4    1    3    3    0  502  0.70067682340E+03  0.17420942759E+04  0.32556325009E+03  0.19057370017E+04  0.12699999809E+01 0. -1.
</event>
<event>
 5   0  0.3682276E-07  0.3544499E+04  0.7818609E-02  0.8103324E-01
       -1   -1    0    0    0  501  0.00000000000E+00  0.00000000000E+00  0.21584543911E+04  0.21584543911E+04  0.50400001928E-02 0.  1.
        1   -1    0    0  501    0  0.00000000000E+00  0.00000000000E+00 -0.14551470094E+04  0.14551470094E+04  0.50400001928E-02 0. -1.
    10030    2    1    2    0    0  0.00000000000E+00  0.00000000000E+00  0.70330738172E+03  0.36136014005E+04  0.35444990914E+04 0.  0.
        1    1    3    3  502    0 -0.13831052003E+04  0.10291887118E+04 -0.67034011355E+02  0.17253124233E+04  0.50400001928E-02 0. -1.
       -1    1    3    3    0  502  0.13831052003E+04 -0.10291887118E+04  0.77034139308E+03  0.18882889772E+04  0.50400001928E-02 0.  1.
</event>
<event>
 5   0  0.3848431E-07  0.3712018E+04  0.7818609E-02  0.8065304E-01
        1   -1    0    0  501    0  0.00000000000E+00  0.00000000000E+00  0.13898927823E+04  0.13898927823E+04  0.50400001928E-02 0. -1.
       -1   -1    0    0    0  501  0.00000000000E+00  0.00000000000E+00 -0.24784423980E+04  0.24784423981E+04  0.50400001928E-02 0.  1.
    10030    2    1    2    0    0  0.00000000000E+00  0.00000000000E+00 -0.10885496157E+04  0.38683351804E+04  0.37120178882E+04 0.  0.
        2    1    3    3  502    0 -0.37741559213E+03  0.14911785092E+04 -0.16266231562E+04  0.22387404423E+04  0.25500000920E-02 0.  1.
       -2    1    3    3    0  502  0.37741559213E+03 -0.14911785092E+04  0.53807354051E+03  0.16295947381E+04  0.25500000920E-02 0. -1.
</event>
<event>
 5   0  0.1092116E-06  0.2692417E+04  0.7818609E-02  0.8337470E-01
       -2   -1    0    0    0  501  0.00000000000E+00  0.00000000000E+00  0.11846536427E+04  0.11846536427E+04  0.25500000920E-02 0.  1.
        2   -1    0    0  501    0  0.00000000000E+00  0.00000000000E+00 -0.15297948767E+04  0.15297948767E+04  0.25500000920E-02 0. -1.
    10030    2    1    2    0    0  0.00000000000E+00  0.00000000000E+00 -0.34514123404E+03  0.27144485194E+04  0.26924168127E+04 0.  0.
        1    1    3    3  502    0 -0.49826212716E+03 -0.30668479456E+03 -0.13949092463E+04  0.15126442133E+04  0.50400001928E-02 0. -1.
       -1    1    3    3    0  502  0.49826212716E+03  0.30668479456E+03  0.10497680123E+04  0.12018043061E+04  0.50400001928E-02 0.  1.
</event>
<event>
 5   0  0.3764495E-07  0.3873043E+04  0.7818609E-02  0.8030659E-01
        1   -1    0    0  501    0  0.00000000000E+00  0.00000000000E+00  0.23282819322E+04  0.23282819322E+04  0.50400001928E-02 0. -1.
       -1   -1    0    0    0  501  0.00000000000E+00  0.00000000000E+00 -0.16106789430E+04  0.16106789430E+04  0.50400001928E-02 0.  1.
    10030    2    1    2    0    0  0.00000000000E+00  0.00000000000E+00  0.71760298925E+03  0.39389608752E+04  0.38730425670E+04 0.  0.
        4    1    3    3  502    0 -0.28020847085E+03  0.37289124656E+03  0.22702977754E+04  0.23177183329E+04  0.12699999809E+01 0. -1.
       -4    1    3    3    0  502  0.28020847085E+03 -0.37289124656E+03 -0.15526947862E+04  0.16212425422E+04  0.12699999809E+01 0.  1.
</event>
<event>
 5   0  0.3848431E-07  0.3140315E+04  0.7818609E-02  0.8204760E-01
       -1   -1    0    0    0  501  0.00000000000E+00  0.00000000000E+00  0.14978987322E+04  0.14978987322E+04  0.50400001928E-02 0. -1.
        1   -1    0    0  501    0  0.00000000000E+00  0.00000000000E+00 -0.16459019890E+04  0.16459019891E+04  0.50400001928E-02 0.  1.
    10030    2    1    2    0    0  0.00000000000E+00  0.00000000000E+00 -0.14800325687E+03  0.31438007212E+04  0.31403149541E+04 0.  0.
        2    1    3    3  502    0  0.89294430835E+03 -0.12045033217E+04  0.39258084452E+03  0.15499346790E+04  0.25500000920E-02 0.  1.
       -2    1    3    3    0  502 -0.89294430835E+03  0.12045033217E+04 -0.54058410138E+03  0.15938660422E+04  0.25500000920E-02 0. -1.
</event>
<event>
 5   0  0.1051123E-06  0.3501995E+04  0.7818609E-02  0.8113317E-01
       -2   -1    0    0    0  501  0.00000000000E+00  0.00000000000E+00  0.17545072995E+04  0.17545072995E+04  0.25500000920E-02 0. -1.
        2   -1    0    0  501    0  0.00000000000E+00  0.00000000000E+00 -0.17474949346E+04  0.17474949346E+04  0.25500000920E-02 0.  1.
    10030    2    1    2    0    0  0.00000000000E+00  0.00000000000E+00  0.70123649208E+01  0.35020022341E+04  0.35019952134E+04 0.  0.
        2    1    3    3  502    0 -0.93050220144E+03 -0.79947019008E+03 -0.12458984541E+04  0.17484993250E+04  0.25500000920E-02 0.  1.
       -2    1    3    3    0  502  0.93050220144E+03  0.79947019008E+03  0.12529108190E+04  0.17535029091E+04  0.25500000920E-02 0. -1.
</event>
<event>
 5   0  0.3704306E-07  0.3540115E+04  0.7818609E-02  0.8104349E-01
        1   -1    0    0  501    0  0.00000000000E+00  0.00000000000E+00  0.29529824379E+04  0.29529824379E+04  0.50400001928E-02 0. -1.
       -1   -1    0    0    0  501  0.00000000000E+00  0.00000000000E+00 -0.10609962405E+04  0.10609962405E+04  0.50400001928E-02 0.  1.
    10030    2    1    2    0    0  0.00000000000E+00  0.00000000000E+00  0.18919861974E+04  0.40139786783E+04  0.35401148370E+04 0.  0.
        3    1    3    3  502    0 -0.19186220925E+03 -0.15471277179E+04 -0.44781207161E+01  0.15589853580E+04  0.10100000352E+00 0.  1.
       -3    1    3    3    0  502  0.19186220925E+03  0.15471277179E+04  0.18964643181E+04  0.24549933203E+04  0.10100000352E+00 0. -1.
</event>
<event>
 5   0  0.1128530E-06  0.2745791E+04  0.7818609E-02  0.8320298E-01
        2   -1    0    0  501    0  0.00000000000E+00  0.00000000000E+00  0.10607949503E+04  0.10607949503E+04  0.25500000920E-02 0.  1.
       -2   -1    0    0    0  501  0.00000000000E+00  0.00000000000E+00 -0.17768205147E+04  0.17768205147E+04  0.25500000920E-02 0. -1.
    10030    2    1    2    0    0  0.00000000000E+00  0.00000000000E+00 -0.71602556441E+03  0.28376154650E+04  0.27457911280E+04 0.  0.
        5    1    3    3  502    0  0.67126383243E+03 -0.11642866907E+04 -0.64785869526E+03  0.14919455787E+04  0.46999998093E+01 0. -1.
       -5    1    3    3    0  502 -0.67126383243E+03  0.11642866907E+04 -0.68166869144E+02  0.13456698863E+04  0.46999998093E+01 0.  1.
</event>
<event>
 5   0  0.3704306E-07  0.3766459E+04  0.7818609E-02  0.8053391E-01
        1   -1    0    0  501    0  0.00000000000E+00  0.00000000000E+00  0.13708636288E+04  0.13708636288E+04  0.50400001928E-02 0. -1.
       -1   -1    0    0    0  501  0.00000000000E+00  0.00000000000E+00 -0.25870943844E+04  0.25870943844E+04  0.50400001928E-02 0.  1.
    10030    2    1    2    0    0  0.00000000000E+00  0.00000000000E+00 -0.12162307556E+04  0.39579580132E+04  0.37664591307E+04 0.  0.
        3    1    3    3  502    0 -0.28590374808E+03  0.14333981813E+04 -0.18560032128E+04  0.23624392554E+04  0.10100000352E+00 0.  1.
       -3    1    3    3    0  502  0.28590374808E+03 -0.14333981813E+04  0.63977245715E+03  0.15955187578E+04  0.10100000352E+00 0. -1.
</event>
<event>
 5   0  0.1051123E-06  0.3668229E+04  0.7818609E-02  0.8075039E-01
       -2   -1    0    0    0  501  0.00000000000E+00  0.00000000000E+00  0.21488775866E+04  0.21488775866E+04  0.25500000920E-02 0.  1.
        2   -1    0    0  501    0  0.00000000000E+00  0.00000000000E+00 -0.15654569911E+04  0.15654569911E+04  0.25500000920E-02 0. -1.
    10030    2    1    2    0    0  0.00000000000E+00  0.00000000000E+00  0.58342059548E+03  0.37143345777E+04  0.36682286957E+04 0.  0.
        2    1    3    3  502    0  0.15602658693E+04 -0.96273570183E+03  0.34418664615E+03  0.18654098911E+04  0.25500000920E-02 0.  1.
       -2    1    3    3    0  502 -0.15602658693E+04  0.96273570183E+03  0.23923394933E+03  0.18489246866E+04  0.25500000920E-02 0. -1.
</event>
<event>
 5   0  0.1051123E-06  0.3648008E+04  0.7818609E-02  0.8079582E-01
       -2   -1    0    0    0  501  0.00000000000E+00  0.00000000000E+00  0.17060160221E+04  0.17060160221E+04  0.25500000920E-02 0. -1.
        2   -1    0    0  501    0  0.00000000000E+00  0.00000000000E+00 -0.19501523525E+04  0.19501523525E+04  0.25500000920E-02 0.  1.
    10030    2    1    2    0    0  0.00000000000E+00  0.00000000000E+00 -0.24413633043E+03  0.36561683746E+04  0.36480083108E+04 0.  0.
        2    1    3    3  502    0 -0.13329330215E+04 -0.12146553726E+04  0.15220992245E+03  0.18097695916E+04  0.25500000920E-02 0.  1.
       -2    1    3    3    0  502  0.13329330215E+04  0.12146553726E+04 -0.39634625288E+03  0.18463987831E+04  0.25500000920E-02 0. -1.
</event>
<event>
 5   0  0.3682276E-07  0.3585284E+04  0.7818609E-02  0.8093871E-01
       -1   -1    0    0    0  501  0.00000000000E+00  0.00000000000E+00  0.17914507111E+04  0.17914507111E+04  0.50400001928E-02 0.  1.
        1   -1    0    0  501    0  0.00000000000E+00  0.00000000000E+00 -0.17938340800E+04  0.17938340800E+04  0.50400001928E-02 0. -1.
    10030    2    1    2    0    0  0.00000000000E+00  0.00000000000E+00 -0.23833688744E+01  0.35852847911E+04  0.35852839989E+04 0.  0.
        1    1    3    3  502    0  0.73023368225E+03  0.12701257771E+04  0.10318161033E+04  0.17919556890E+04  0.50400001928E-02 0.  1.
       -1    1    3    3    0  502 -0.73023368225E+03 -0.12701257771E+04 -0.10341994722E+04  0.17933291021E+04  0.50400001928E-02 0. -1.
</event>
<event>
 5   0  0.1128166E-06  0.3736916E+04  0.7818609E-02  0.8059830E-01
        2   -1    0    0  501    0  0.00000000000E+00  0.00000000000E+00  0.17200225206E+04  0.17200225206E+04  0.25500000920E-02 0.  1.
       -2   -1    0    0    0  501  0.00000000000E+00  0.00000000000E+00 -0.20297032692E+04  0.20297032692E+04  0.25500000920E-02 0. -1.
    10030    2    1    2    0    0  0.00000000000E+00  0.00000000000E+00 -0.30968074862E+03  0.37497257898E+04  0.37369160189E+04 0.  0.
        3    1    3    3  502    0 -0.63554520342E+03  0.64526854208E+03  0.14850341000E+04  0.17394296437E+04  0.10100000352E+00 0.  1.
       -3    1    3    3    0  502  0.63554520342E+03 -0.64526854208E+03 -0.17947148486E+04  0.20102961461E+04  0.10100000352E+00 0. -1.
</event>
<event>
 5   0  0.1051123E-06  0.3725136E+04  0.7818609E-02  0.8062414E-01
       -2   -1    0    0    0  501  0.00000000000E+00  0.00000000000E+00  0.20981372226E+04  0.20981372226E+04  0.25500000920E-02 0.  1.
        2   -1    0    0  501    0  0.00000000000E+00  0.00000000000E+00 -0.16534477648E+04  0.16534477648E+04  0.25500000920E-02 0. -1.
    10030    2    1    2    0    0  0.00000000000E+00  0.00000000000E+00  0.44468945779E+03  0.37515849874E+04  0.37251364007E+04 0.  0.
        2    1    3    3  502    0  0.71862363590E+02  0.15370580693E+03  0.20903376460E+04  0.20972127095E+04  0.25500000920E-02 0.  1.
       -2    1    3    3    0  502 -0.71862363590E+02 -0.15370580693E+03 -0.16456481882E+04  0.16543722779E+04  0.25500000920E-02 0. -1.
</event>
<event>
 5   0  0.3704306E-07  0.4221404E+04  0.7818609E-02  0.7961313E-01
       -1   -1    0    0    0  501  0.00000000000E+00  0.00000000000E+00  0.26468536965E+04  0.26468536965E+04  0.50400001928E-02 0. -1.
        1   -1    0    0  501    0  0.00000000000E+00  0.00000000000E+00 -0.16831539505E+04  0.16831539505E+04  0.50400001928E-02 0.  1.
    10030    2    1    2    0    0  0.00000000000E+00  0.00000000000E+00  0.96369974600E+03  0.43300076470E+04  0.42214036792E+04 0.  0.
        3    1    3    3  502    0  0.33431449547E+02  0.16060713788E+04 -0.92248960478E+03  0.18524497339E+04  0.10100000352E+00 0.  1.
       -3    1    3    3    0  502 -0.33431449547E+02 -0.16060713788E+04  0.18861893508E+04  0.24775579131E+04  0.10100000352E+00 0. -1.
</event>
<event>
 5   0  0.3675819E-07  0.3183500E+04  0.7818609E-02  0.8193188E-01
        1   -1    0    0  501    0  0.00000000000E+00  0.00000000000E+00  0.20649446166E+04  0.20649446166E+04  0.50400001928E-02 0.  1.
       -1   -1    0    0    0  501  0.00000000000E+00  0.00000000000E+00 -0.12269909325E+04  0.12269909325E+04  0.50400001928E-02 0. -1.
    10030    2    1    2    0    0  0.00000000000E+00  0.00000000000E+00  0.83795368410E+03  0.32919355492E+04  0.31835001623E+04 0.  0.
        5    1    3    3  502    0 -0.10532064025E+04 -0.10481684741E+04 -0.17120461851E+03  0.14957386095E+04  0.46999998093E+01 0. -1.
       -5    1    3    3    0  502  0.10532064025E+04  0.10481684741E+04  0.10091583026E+04  0.17961969397E+04  0.46999998093E+01 0.  1.
</event>
<event>
 5   0  0.3764495E-07  0.2835204E+04  0.7818609E-02  0.8292421E-01
       -1   -1    0    0    0  501  0.00000000000E+00  0.00000000000E+00  0.72020017871E+03  0.72020017873E+03  0.50400001928E-02 0.  1.
        1   -1    0    0  501    0  0.00000000000E+00  0.00000000000E+00 -0.27903298610E+04  0.27903298610E+04  0.50400001928E-02 0. -1.
    10030    2    1    2    0    0  0.00000000000E+00  0.00000000000E+00 -0.20701296823E+04  0.35105300397E+04  0.28352044474E+04 0.  0.
        4    1    3    3  502    0  0.80528803287E+02 -0.20304259113E+03  0.69923783424E+03  0.73256149483E+03  0.12699999809E+01 0.  1.
       -4    1    3    3    0  502 -0.80528803287E+02  0.20304259113E+03 -0.27693675165E+04  0.27779685449E+04  0.12699999809E+01 0. -1.
</event>
<event>
 5   0  0.1128166E-06  0.3730768E+04  0.7818609E-02  0.8061177E-01
        2   -1    0    0  501    0  0.00000000000E+00  0.00000000000E+00  0.20400732400E+04  0.20400732400E+04  0.25500000920E-02 0.  1.
       -2   -1    0    0    0  501  0.00000000000E+00  0.00000000000E+00 -0.17056535821E+04  0.17056535821E+04  0.25500000920E-02 0. -1.
    10030    2    1    2    0    0  0.00000000000E+00  0.00000000000E+00  0.33441965791E+03  0.37457268221E+04  0.37307684086E+04 0.  0.
        3    1    3    3  502    0  0.41004909398E+03  0.18149521437E+04  0.34518378227E+02  0.18610166770E+04  0.10100000352E+00 0.  1.
       -3    1    3    3    0  502 -0.41004909398E+03 -0.18149521437E+04  0.29990127968E+03  0.18847101451E+04  0.10100000352E+00 0. -1.
</event>
<event>
 5   0  0.1051123E-06  0.3642825E+04  0.7818609E-02  0.8080752E-01
       -2   -1    0    0    0  501  0.00000000000E+00  0.00000000000E+00  0.15487403520E+04  0.15487403520E+04  0.25500000920E-02 0. -1.
        2   -1    0    0  501    0  0.00000000000E+00  0.00000000000E+00 -0.21420915166E+04  0.21420915166E+04  0.25500000920E-02 0.  1.
    10030    2    1    2    0    0  0.00000000000E+00  0.00000000000E+00 -0.59335116464E+03  0.36908318686E+04  0.36428250407E+04 0.  0.
        2    1    3    3  502    0 -0.16279989321E+04 -0.13536353977E+03 -0.11127968127E+04  0.19766184652E+04  0.25500000920E-02 0.  1.
       -2    1    3    3    0  502  0.16279989321E+04  0.13536353977E+03  0.51944564805E+03  0.17142134033E+04  0.25500000920E-02 0. -1.
</event>
<event>
 5   0  0.1066907E-06  0.2550688E+04  0.7818609E-02  0.8385147E-01
       -2   -1    0    0    0  501  0.00000000000E+00  0.00000000000E+00  0.77112496072E+03  0.77112496072E+03  0.25500000920E-02 0.  1.
        2   -1    0    0  501    0  0.00000000000E+00  0.00000000000E+00 -0.21092583505E+04  0.21092583505E+04  0.25500000920E-02 0. -1.
    10030    2    1    2    0    0  0.00000000000E+00  0.00000000000E+00 -0.13381333898E+04  0.28803833113E+04  0.25506875643E+04 0.  0.
        4    1    3    3  502    0 -0.83872298273E+03  0.85241826172E+03 -0.11695546497E+04  0.16727022527E+04  0.12699999809E+01 0.  1.
       -4    1    3    3    0  502  0.83872298273E+03 -0.85241826172E+03 -0.16857874013E+03  0.12076810586E+04  0.12699999809E+01 0. -1.
</event>
<event>
 5   0  0.3848431E-07  0.3865046E+04  0.7818609E-02  0.8032338E-01
       -1   -1    0    0    0  501  0.00000000000E+00  0.00000000000E+00  0.15408084755E+04  0.15408084755E+04  0.50400001928E-02 0. -1.
        1   -1    0    0  501    0  0.00000000000E+00  0.00000000000E+00 -0.24238217559E+04  0.24238217559E+04  0.50400001928E-02 0.  1.
    10030    2    1    2    0    0  0.00000000000E+00  0.00000000000E+00 -0.88301328037E+03  0.39646302314E+04  0.38650459788E+04 0.  0.
        2    1    3    3  502    0  0.13500294721E+04  0.59500882333E+03 -0.17218779545E+04  0.22674829140E+04  0.25500000920E-02 0.  1.
       -2    1    3    3    0  502 -0.13500294721E+04 -0.59500882333E+03  0.83886467412E+03  0.16971473174E+04  0.25500000920E-02 0. -1.
</event>
<event>
 5   0  0.1092116E-06  0.2420583E+04  0.7818609E-02  0.8431838E-01
        2   -1    0    0  501    0  0.00000000000E+00  0.00000000000E+00  0.24437616536E+04  0.24437616536E+04  0.25500000920E-02 0. -1.
       -2   -1    0    0    0  501  0.00000000000E+00  0.00000000000E+00 -0.59940609373E+03  0.59940609373E+03  0.25500000920E-02 0.  1.
    10030    2    1    2    0    0  0.00000000000E+00  0.00000000000E+00  0.18443555599E+04  0.30431677473E+04  0.24205830924E+04 0.  0.
        1    1    3    3  502    0 -0.21706820678E+03  0.26499855319E+03  0.23815439921E+04  0.24060537455E+04  0.50400001928E-02 0. -1.
       -1    1    3    3    0  502  0.21706820678E+03 -0.26499855319E+03 -0.53718843227E+03  0.63711400187E+03  0.50400001928E-02 0.  1.
</event>
<event>
 5   0  0.1051123E-06  0.3680409E+04  0.7818609E-02  0.8072317E-01
        2   -1    0    0  501    0  0.00000000000E+00  0.00000000000E+00  0.23141306691E+04  0.23141306691E+04  0.25500000920E-02 0.  1.
       -2   -1    0    0    0  501  0.00000000000E+00  0.00000000000E+00 -0.14633364832E+04  0.14633364832E+04  0.25500000920E-02 0. -1.
    10030    2    1    2    0    0  0.00000000000E+00  0.00000000000E+00  0.85079418583E+03  0.37774671523E+04  0.36804085833E+04 0.  0.
        2    1    3    3  502    0  0.24915966643E+02 -0.16535803576E+04 -0.40298280046E+03  0.17021586124E+04  0.25500000920E-02 0. -1.
       -2    1    3    3    0  502 -0.24915966643E+02  0.16535803576E+04  0.12537769863E+04  0.20753085399E+04  0.25500000920E-02 0.  1.
</event>
<event>
 5   0  0.3682276E-07  0.3723620E+04  0.7818609E-02  0.8062748E-01
       -1   -1    0    0    0  501  0.00000000000E+00  0.00000000000E+00  0.11647500358E+04  0.11647500358E+04  0.50400001928E-02 0. -1.
        1   -1    0    0  501    0  0.00000000000E+00  0.00000000000E+00 -0.29760339115E+04  0.29760339115E+04  0.50400001928E-02 0.  1.
    10030    2    1    2    0    0  0.00000000000E+00  0.00000000000E+00 -0.18112838758E+04  0.41407839473E+04  0.37236195321E+04 0.  0.
        1    1    3    3  502    0 -0.17104882897E+04  0.60571186805E+03 -0.44220530327E+03  0.18676730406E+04  0.50400001928E-02 0. -1.
       -1    1    3    3    0  502  0.17104882897E+04 -0.60571186805E+03 -0.13690785725E+04  0.22731109067E+04  0.50400001928E-02 0.  1.
</event>
<event>
 5   0  0.3675819E-07  0.3676154E+04  0.7818609E-02  0.8073267E-01
        1   -1    0    0  501    0  0.00000000000E+00  0.00000000000E+00  0.21055024221E+04  0.21055024221E+04  0.50400001928E-02 0.  1.
       -1   -1    0    0    0  501  0.00000000000E+00  0.00000000000E+00 -0.16046177014E+04  0.16046177014E+04  0.50400001928E-02 0. -1.
    10030    2    1    2    0    0  0.00000000000E+00  0.00000000000E+00  0.50088472077E+03  0.37101201235E+04  0.36761536730E+04 0.  0.
        5    1    3    3  502    0 -0.45907522993E+03  0.17231138343E+04 -0.19935823892E+03  0.17943347375E+04  0.46999998093E+01 0. -1.
       -5    1    3    3    0  502  0.45907522993E+03 -0.17231138343E+04  0.70024295969E+03  0.19157853860E+04  0.46999998093E+01 0.  1.
</event>
<event>
 5   0  0.3764495E-07  0.3575573E+04  0.7818609E-02  0.8096110E-01
       -1   -1    0    0    0  501  0.00000000000E+00  0.00000000000E+00  0.20156784977E+04  0.20156784977E+04  0.50400001928E-02 0. -1.
        1   -1    0    0  501    0  0.00000000000E+00  0.00000000000E+00 -0.15856597862E+04  0.15856597862E+04  0.50400001928E-02 0.  1.
    10030    2    1    2    0    0  0.00000000000E+00  0.00000000000E+00  0.43001871151E+03  0.36013382839E+04  0.35755728691E+04 0.  0.
        4    1    3    3  502    0  0.51431722976E+03  0.16927565166E+04 -0.44200699005E+02  0.17697180996E+04  0.12699999809E+01 0.  1.
       -4    1    3    3    0  502 -0.51431722976E+03 -0.16927565166E+04  0.47421941052E+03  0.18316201843E+04  0.12699999809E+01 0. -1.
</event>
<event>
 5   0  0.3704306E-07  0.3009685E+04  0.7818609E-02  0.8240971E-01
        1   -1    0    0  501    0  0.00000000000E+00  0.00000000000E+00  0.15497743533E+04  0.15497743533E+04  0.50400001928E-02 0. -1.
       -1   -1    0    0    0  501  0.00000000000E+00  0.00000000000E+00 -0.14612132606E+04  0.14612132606E+04  0.50400001928E-02 0.  1.
    10030    2    1    2    0    0  0.00000000000E+00  0.00000000000E+00  0.88561092759E+02  0.30109876139E+04  0.30096849244E+04 0.  0.
        3    1    3    3  502    0  0.23537234766E+02 -0.30508795945E+03 -0.14297607882E+04  0.14621383608E+04  0.10100000352E+00 0.  1.
       -3    1    3    3    0  502 -0.23537234766E+02  0.30508795945E+03  0.15183218810E+04  0.15488492531E+04  0.10100000352E+00 0. -1.
</event>
<event>
 5   0  0.1128166E-06  0.3243891E+04  0.7818609E-02  0.8177321E-01
        2   -1    0    0  501    0  0.00000000000E+00  0.00000000000E+00  0.17279064974E+04  0.17279064974E+04  0.25500000920E-02 0.  1.
       -2   -1    0    0    0  501  0.00000000000E+00  0.00000000000E+00 -0.15224819619E+04  0.15224819619E+04  0.25500000920E-02 0. -1.
    10030    2    1    2    0    0  0.00000000000E+00  0.00000000000E+00  0.20542453550E+03  0.32503884593E+04  0.32438905494E+04 0.  0.
        3    1    3    3  502    0 -0.87251328796E+03  0.13180987182E+04 -0.26139255382E+03  0.16021828066E+04  0.10100000352E+00 0. -1.
       -3    1    3    3    0  502  0.87251328796E+03 -0.13180987182E+04  0.46681708932E+03  0.16482056527E+04  0.10100000352E+00 0.  1.
</event>
<event>
 5   0  0.3764495E-07  0.2686160E+04  0.7818609E-02  0.8339509E-01
       -1   -1    0    0    0  501  0.00000000000E+00  0.00000000000E+00  0.89312588837E+03  0.89312588839E+03  0.50400001928E-02 0. -1.
        1   -1    0    0  501    0  0.00000000000E+00  0.00000000000E+00 -0.20197200859E+04  0.20197200859E+04  0.50400001928E-02 0.  1.
    10030    2    1    2    0    0  0.00000000000E+00  0.00000000000E+00 -0.11265941975E+04  0.29128459743E+04  0.26861603050E+04 0.  0.
        4    1    3    3  502    0 -0.24719822187E+03  0.51161183478E+03  0.75637018519E+03  0.94601855179E+03  0.12699999809E+01 0. -1.
       -4    1    3    3    0  502  0.24719822187E+03 -0.51161183478E+03 -0.18829643827E+04  0.19668274225E+04  0.12699999809E+01 0.  1.
</event>
<event>
 5   0  0.1092116E-06  0.3702815E+04  0.7818609E-02  0.8067338E-01
       -2   -1    0    0    0  501  0.00000000000E+00  0.00000000000E+00  0.15902468440E+04  0.15902468440E+04  0.25500000920E-02 0.  1.
        2   -1    0    0  501    0  0.00000000000E+00  0.00000000000E+00 -0.21554579047E+04  0.21554579047E+04  0.25500000920E-02 0. -1.
    10030    2    1    2    0    0  0.00000000000E+00  0.00000000000E+00 -0.56521106073E+03  0.37457047487E+04  0.37028152156E+04 0.  0.
        1    1    3    3  502    0  0.13309789651E+04 -0.12513073218E+04  0.21602055681E+02  0.18269487317E+04  0.50400001928E-02 0. -1.
       -1    1    3    3    0  502 -0.13309789651E+04  0.12513073218E+04 -0.58681311641E+03  0.19187560170E+04  0.50400001928E-02 0.  1.
</event>
<event>
 5   0  0.3848431E-07  0.3697165E+04  0.7818609E-02  0.8068590E-01
        1   -1    0    0  501    0  0.00000000000E+00  0.00000000000E+00  0.16597235252E+04  0.16597235252E+04  0.50400001928E-02 0.  1.
       -1   -1    0    0    0  501  0.00000000000E+00  0.00000000000E+00 -0.20589312113E+04  0.20589312113E+04  0.50400001928E-02 0. -1.
    10030    2    1    2    0    0  0.00000000000E+00  0.00000000000E+00 -0.39920768615E+03  0.37186547365E+04  0.36971646261E+04 0.  0.
        2    1    3    3  502    0  0.10810667690E+04  0.14486588902E+04 -0.58907368676E+03  0.19011380138E+04  0.25500000920E-02 0. -1.
       -2    1    3    3    0  502 -0.10810667690E+04 -0.14486588902E+04  0.18986600061E+03  0.18175167227E+04  0.25500000920E-02 0.  1.
</event>
<event>
 5   0  0.3675819E-07  0.3473978E+04  0.7818609E-02  0.8119985E-01
       -1   -1    0    0    0  501  0.00000000000E+00  0.00000000000E+00  0.24455044150E+04  0.24455044150E+04  0.50400001928E-02 0. -1.
        1   -1    0    0  501    0  0.00000000000E+00  0.00000000000E+00 -0.12337459833E+04  0.12337459833E+04  0.50400001928E-02 0.  1.
    10030    2    1    2    0    0  0.00000000000E+00  0.00000000000E+00  0.12117584318E+04  0.36792503983E+04  0.34739782666E+04 0.  0.
        5    1    3    3  502    0 -0.16808160970E+03 -0.12902978289E+04 -0.61275811242E+03  0.14382678850E+04  0.46999998093E+01 0.  1.
       -5    1    3    3    0  502  0.16808160970E+03  0.12902978289E+04  0.18245165442E+04  0.22409825133E+04  0.46999998093E+01 0. -1.
</event>
<event>
 5   0  0.1066907E-06  0.3465651E+04  0.7818609E-02  0.8121979E-01
        2   -1    0    0  501    0  0.00000000000E+00  0.00000000000E+00  0.13916219493E+04  0.13916219493E+04  0.25500000920E-02 0.  1.
       -2   -1    0    0    0  501  0.00000000000E+00  0.00000000000E+00 -0.21576861390E+04  0.21576861390E+04  0.25500000920E-02 0. -1.
    10030    2    1    2    0    0  0.00000000000E+00  0.00000000000E+00 -0.76606418963E+03  0.35493080883E+04  0.34656505252E+04 0.  0.
        4    1    3    3  502    0 -0.31397573852E+03 -0.17226359077E+03  0.13533069002E+04  0.13998916702E+04  0.12699999809E+01 0.  1.
       -4    1    3    3    0  502  0.31397573852E+03  0.17226359077E+03 -0.21193710899E+04  0.21494164181E+04  0.12699999809E+01 0. -1.
</event>
<event>
 5   0  0.3764495E-07  0.3654173E+04  0.7818609E-02  0.8078194E-01
       -1   -1    0    0    0  501  0.00000000000E+00  0.00000000000E+00  0.15833003880E+04  0.15833003880E+04  0.50400001928E-02 0. -1.
        1   -1    0    0  501    0  0.00000000000E+00  0.00000000000E+00 -0.21084096276E+04  0.21084096276E+04  0.50400001928E-02 0.  1.
    10030    2    1    2    0    0  0.00000000000E+00  0.00000000000E+00 -0.52510923959E+03  0.36917100156E+04  0.36541733848E+04 0.  0.
        4    1    3    3  502    0  0.13448203674E+04  0.63943393915E+03  0.80701150989E+03  0.16937198036E+04  0.12699999809E+01 0. -1.
       -4    1    3    3    0  502 -0.13448203674E+04 -0.63943393915E+03 -0.13321207495E+04  0.19979902120E+04  0.12699999809E+01 0.  1.
</event>
<event>
 5   0  0.1051123E-06  0.2448469E+04  0.7818609E-02  0.8421577E-01
        2   -1    0    0  501    0  0.00000000000E+00  0.00000000000E+00  0.14060179534E+04  0.14060179534E+04  0.25500000920E-02 0.  1.
       -2   -1    0    0    0  501  0.00000000000E+00  0.00000000000E+00 -0.10659534177E+04  0.10659534177E+04  0.25500000920E-02 0. -1.
    10030    2    1    2    0    0  0.00000000000E+00  0.00000000000E+00  0.34006453572E+03  0.24719713711E+04  0.24484686175E+04 0.  0.
        2    1    3    3  502    0 -0.69435073024E+03  0.99335524479E+03 -0.44621381465E+01  0.12119808124E+04  0.25500000920E-02 0. -1.
       -2    1    3    3    0  502  0.69435073024E+03 -0.99335524479E+03  0.34452667386E+03  0.12599905587E+04  0.25500000920E-02 0.  1.
</event>
<event>
 5   0  0.3675819E-07  0.3401214E+04  0.7818609E-02  0.8137608E-01
       -1   -1    0    0    0  501  0.00000000000E+00  0.00000000000E+00  0.10890076010E+04  0.10890076010E+04  0.50400001928E-02 0.  1.
        1   -1    0    0  501    0  0.00000000000E+00  0.00000000000E+00 -0.26556877639E+04  0.26556877639E+04  0.50400001928E-02 0. -1.
    10030    2    1    2    0    0  0.00000000000E+00  0.00000000000E+00 -0.15666801628E+04  0.37446953649E+04  0.34012139955E+04 0.  0.
        5    1    3    3  502    0 -0.12604238207E+04  0.10513438072E+04 -0.29336947525E+03  0.16673571146E+04  0.46999998093E+01 0.  1.
       -5    1    3    3    0  502  0.12604238207E+04 -0.10513438072E+04 -0.12733106876E+04  0.20773382502E+04  0.46999998093E+01 0. -1.
</event>
<event>
 5   0  0.1128166E-06  0.2958493E+04  0.7818609E-02  0.8255684E-01
       -2   -1    0    0    0  501  0.00000000000E+00  0.00000000000E+00  0.93833058578E+03  0.93833058579E+03  0.25500000920E-02 0. -1.
        2   -1    0    0  501    0  0.00000000000E+00  0.00000000000E+00 -0.23319816558E+04  0.23319816558E+04  0.25500000920E-02 0.  1.
    10030    2    1    2    0    0  0.00000000000E+00  0.00000000000E+00 -0.13936510700E+04  0.32703122416E+04  0.29584926656E+04 0.  0.
        3    1    3    3  502    0  0.89818153529E+03  0.87199642226E+03  0.17431085747E+03  0.12639193471E+04  0.10100000352E+00 0.  1.
       -3    1    3    3    0  502 -0.89818153529E+03 -0.87199642226E+03 -0.15679619275E+04  0.20063928945E+04  0.10100000352E+00 0. -1.
</event>
<event>
 5   0  0.3848431E-07  0.3683396E+04  0.7818609E-02  0.8071651E-01
       -1   -1    0    0    0  501  0.00000000000E+00  0.00000000000E+00  0.12691107111E+04  0.12691107111E+04  0.50400001928E-02 0.  1.
        1   -1    0    0  501    0  0.00000000000E+00  0.00000000000E+00 -0.26726206070E+04  0.26726206070E+04  0.50400001928E-02 0. -1.
    10030    2    1    2    0    0  0.00000000000E+00  0.00000000000E+00 -0.14035098959E+04  0.39417313181E+04  0.36833959543E+04 0.  0.
        2    1    3    3  502    0 -0.13881682824E+03 -0.18309252482E+04 -0.54930646449E+03  0.19165841929E+04  0.25500000920E-02 0.  1.
       -2    1    3    3    0  502  0.13881682824E+03  0.18309252482E+04 -0.85420343145E+03  0.20251471252E+04  0.25500000920E-02 0. -1.
</event>
<event>
 5   0  0.1051123E-06  0.3823889E+04  0.7818609E-02  0.8041048E-01
        2   -1    0    0  501    0  0.00000000000E+00  0.00000000000E+00  0.30501374037E+04  0.30501374037E+04  0.25500000920E-02 0. -1.
       -2   -1    0    0    0  501  0.00000000000E+00  0.00000000000E+00 -0.11984812651E+04  0.11984812651E+04  0.25500000920E-02 0.  1.
    10030    2    1    2    0    0  0.00000000000E+00  0.00000000000E+00  0.18516561386E+04  0.42486186688E+04  0.38238893992E+04 0.  0.
        2    1    3    3  502    0  0.30440124137E+03  0.68025185251E+03 -0.10304580440E+04  0.12717100609E+04  0.25500000920E-02 0.  1.
       -2    1    3    3    0  502 -0.30440124137E+03 -0.68025185251E+03  0.28821141826E+04  0.29769086079E+04  0.25500000920E-02 0. -1.
</event>
<event>
 5   0  0.1092116E-06  0.3769398E+04  0.7818609E-02  0.8052754E-01
        2   -1    0    0  501    0  0.00000000000E+00  0.00000000000E+00  0.25945867928E+04  0.25945867928E+04  0.25500000920E-02 0. -1.
       -2   -1    0    0    0  501  0.00000000000E+00  0.00000000000E+00 -0.13690389090E+04  0.13690389090E+04  0.25500000920E-02 0.  1.
    10030    2    1    2    0    0  0.00000000000E+00  0.00000000000E+00  0.12255478838E+04  0.39636257018E+04  0.37693979743E+04 0.  0.
        1    1    3    3  502    0 -0.47336460579E+03 -0.61151723850E+02 -0.13044340255E+04  0.13890146545E+04  0.50400001928E-02 0.  1.
       -1    1    3    3    0  502  0.47336460579E+03  0.61151723850E+02  0.25299819093E+04  0.25746110473E+04  0.50400001928E-02 0. -1.
</event>
<event>
 5   0  0.3704306E-07  0.3623862E+04  0.7818609E-02  0.8085048E-01
       -1   -1    0    0    0  501  0.00000000000E+00  0.00000000000E+00  0.19037514212E+04  0.19037514212E+04  0.50400001928E-02 0. -1.
        1   -1    0    0  501    0  0.00000000000E+00  0.00000000000E+00 -0.17245392626E+04  0.17245392626E+04  0.50400001928E-02 0.  1.
    10030    2    1    2    0    0  0.00000000000E+00  0.00000000000E+00  0.17921215859E+03  0.36282906838E+04  0.36238620681E+04 0.  0.
        3    1    3    3  502    0  0.57824397476E+03  0.32067723389E+03 -0.15994333214E+04  0.17307186202E+04  0.10100000352E+00 0.  1.
       -3    1    3    3    0  502 -0.57824397476E+03 -0.32067723389E+03  0.17786454800E+04  0.18975720635E+04  0.10100000352E+00 0. -1.
</event>
<event>
 5   0  0.3764495E-07  0.3784835E+04  0.7818609E-02  0.8049417E-01
        1   -1    0    0  501    0  0.00000000000E+00  0.00000000000E+00  0.25602619174E+04  0.25602619175E+04  0.50400001928E-02 0. -1.
       -1   -1    0    0    0  501  0.00000000000E+00  0.00000000000E+00 -0.13987800321E+04  0.13987800321E+04  0.50400001928E-02 0.  1.
    10030    2    1    2    0    0  0.00000000000E+00  0.00000000000E+00  0.11614818853E+04  0.39590419496E+04  0.37848346052E+04 0.  0.
        4    1    3    3  502    0  0.88008985005E+03 -0.13443882647E+04 -0.46492254068E+03  0.16727499909E+04  0.12699999809E+01 0.  1.
       -4    1    3    3    0  502 -0.88008985005E+03  0.13443882647E+04  0.16264044260E+04  0.22862919587E+04  0.12699999809E+01 0. -1.
</event>
<event>
 5   0  0.1051123E-06  0.3641931E+04  0.7818609E-02  0.8080954E-01
       -2   -1    0    0    0  501  0.00000000000E+00  0.00000000000E+00  0.12068162124E+04  0.12068162124E+04  0.25500000920E-02 0.  1.
        2   -1    0    0  501    0  0.00000000000E+00  0.00000000000E+00 -0.27476562026E+04  0.27476562026E+04  0.25500000920E-02 0. -1.
    10030    2    1    2    0    0  0.00000000000E+00  0.00000000000E+00 -0.15408399902E+04  0.39544724150E+04  0.36419313840E+04 0.  0.
        2    1    3    3  502    0  0.67235706990E+02 -0.84687980178E+03  0.97845062805E+03  0.12957976966E+04  0.25500000920E-02 0.  1.
       -2    1    3    3    0  502 -0.67235706990E+02  0.84687980178E+03 -0.25192906183E+04  0.26586747184E+04  0.25500000920E-02 0. -1.
</event>
<event>
 5   0  0.1066907E-06  0.3645011E+04  0.7818609E-02  0.8080259E-01
        2   -1    0    0  501    0  0.00000000000E+00  0.00000000000E+00  0.20244845248E+04  0.20244845248E+04  0.25500000920E-02 0.  1.
       -2   -1    0    0    0  501  0.00000000000E+00  0.00000000000E+00 -0.16406772036E+04  0.16406772036E+04  0.25500000920E-02 0. -1.
    10030    2    1    2    0    0  0.00000000000E+00  0.00000000000E+00  0.38380732119E+03  0.36651617285E+04  0.36450106222E+04 0.  0.
        4    1    3    3  502    0  0.11247857398E+03  0.18167202480E+04  0.28406244825E+03  0.18422315209E+04  0.12699999809E+01 0.  1.
       -4    1    3    3    0  502 -0.11247857398E+03 -0.18167202480E+04  0.99744872933E+02  0.18229302076E+04  0.12699999809E+01 0. -1.
</event>
<event>
 5   0  0.1128166E-06  0.3632477E+04  0.7818609E-02  0.8083093E-01
       -2   -1    0    0    0  501  0.00000000000E+00  0.00000000000E+00  0.13104643899E+04  0.13104643899E+04  0.25500000920E-02 0. -1.
        2   -1    0    0  501    0  0.00000000000E+00  0.00000000000E+00 -0.25172166522E+04  0.25172166522E+04  0.25500000920E-02 0.  1.
    10030    2    1    2    0    0  0.00000000000E+00  0.00000000000E+00 -0.12067522622E+04  0.38276810421E+04  0.36324772729E+04 0.  0.
        3    1    3    3  502    0  0.92555607517E+03 -0.15622531388E+04 -0.56347495960E+03  0.19012608864E+04  0.10100000352E+00 0.  1.
       -3    1    3    3    0  502 -0.92555607517E+03  0.15622531388E+04 -0.64327730264E+03  0.19264201557E+04  0.10100000352E+00 0. -1.
</event>
<event>
 5   0  0.1128530E-06  0.3690278E+04  0.7818609E-02  0.8070120E-01
        2   -1    0    0  501    0  0.00000000000E+00  0.00000000000E+00  0.22017380068E+04  0.22017380068E+04  0.25500000920E-02 0.  1.
       -2   -1    0    0    0  501  0.00000000000E+00  0.00000000000E+00 -0.15462952839E+04  0.15462952839E+04  0.25500000920E-02 0. -1.
    10030    2    1    2    0    0  0.00000000000E+00  0.00000000000E+00  0.65544272294E+03  0.37480332907E+04  0.36902775485E+04 0.  0.
        5    1    3    3  502    0  0.84952373050E+03 -0.16047518230E+04 -0.54307123209E+01  0.18157561964E+04  0.46999998093E+01 0.  1.
       -5    1    3    3    0  502 -0.84952373050E+03  0.16047518230E+04  0.66087343526E+03  0.19322770944E+04  0.46999998093E+01 0. -1.
</event>
<event>
 5   0  0.3764495E-07  0.3259107E+04  0.7818609E-02  0.8173379E-01
        1   -1    0    0  501    0  0.00000000000E+00  0.00000000000E+00  0.21693880639E+04  0.21693880639E+04  0.50400001928E-02 0.  1.
       -1   -1    0    0    0  501  0.00000000000E+00  0.00000000000E+00 -0.12240526691E+04  0.12240526692E+04  0.50400001928E-02 0. -1.
    10030    2    1    2    0    0  0.00000000000E+00  0.00000000000E+00  0.94533539472E+03  0.33934407330E+04  0.32591073931E+04 0.  0.
        4    1    3    3  502    0 -0.12579610070E+04 -0.18890675406E+03  0.15331223631E+04  0.19921389133E+04  0.12699999809E+01 0.  1.
       -4    1    3    3    0  502  0.12579610070E+04  0.18890675406E+03 -0.58778696835E+03  0.14013018197E+04  0.12699999809E+01 0. -1.
</event>
<event>
 5   0  0.3675819E-07  0.3652464E+04  0.7818609E-02  0.8078579E-01
       -1   -1    0    0    0  501  0.00000000000E+00  0.00000000000E+00  0.21277292124E+04  0.21277292124E+04  0.50400001928E-02 0.  1.
        1   -1    0    0  501    0  0.00000000000E+00  0.00000000000E+00 -0.15674566074E+04  0.15674566074E+04  0.50400001928E-02 0. -1.
    10030    2    1    2    0    0  0.00000000000E+00  0.00000000000E+00  0.56027260504E+03  0.36951858198E+04  0.36524639424E+04 0.  0.
        5    1    3    3  502    0  0.17820439380E+04  0.30038379609E+03  0.14019481194E+02  0.18072436631E+04  0.46999998093E+01 0. -1.
       -5    1    3    3    0  502 -0.17820439380E+04 -0.30038379609E+03  0.54625312384E+03  0.18879421567E+04  0.46999998093E+01 0.  1.
</event>
<event>
 5   0  0.3682276E-07  0.3724050E+04  0.7818609E-02  0.8062653E-01
       -1   -1    0    0    0  501  0.00000000000E+00  0.00000000000E+00  0.15368695351E+04  0.15368695351E+04  0.50400001928E-02 0. -1.
        1   -1    0    0  501    0  0.00000000000E+00  0.00000000000E+00 -0.22559732258E+04  0.22559732258E+04  0.50400001928E-02 0.  1.
    10030    2    1    2    0    0  0.00000000000E+00  0.00000000000E+00 -0.71910369067E+03  0.37928427609E+04  0.37240496897E+04 0.  0.
        1    1    3    3  502    0 -0.93726222651E+03  0.97283984107E+03 -0.16647310789E+04  0.21438767228E+04  0.50400001928E-02 0.  1.
       -1    1    3    3    0  502  0.93726222651E+03 -0.97283984107E+03  0.94562738820E+03  0.16489660381E+04  0.50400001928E-02 0. -1.
</event>
<event>
 5   0  0.1066907E-06  0.3707821E+04  0.7818609E-02  0.8066231E-01
        2   -1    0    0  501    0  0.00000000000E+00  0.00000000000E+00  0.22396942383E+04  0.22396942383E+04  0.25500000920E-02 0. -1.
       -2   -1    0    0    0  501  0.00000000000E+00  0.00000000000E+00 -0.15345776308E+04  0.15345776308E+04  0.25500000920E-02 0.  1.
    10030    2    1    2    0    0  0.00000000000E+00  0.00000000000E+00  0.70511660747E+03  0.37742718691E+04  0.37078212890E+04 0.  0.
        4    1    3    3  502    0  0.72759118825E+03  0.16630554227E+04  0.73592550571E+03  0.19587573201E+04  0.12699999809E+01 0. -1.
       -4    1    3    3    0  502 -0.72759118825E+03 -0.16630554227E+04 -0.30808898239E+02  0.18155145489E+04  0.12699999809E+01 0.  1.
</event>
<event>
 5   0  0.1066907E-06  0.3585422E+04  0.7818609E-02  0.8093839E-01
        2   -1    0    0  501    0  0.00000000000E+00  0.00000000000E+00  0.22654845709E+04  0.22654845709E+04  0.25500000920E-02 0. -1.
       -2   -1    0    0    0  501  0.00000000000E+00  0.00000000000E+00 -0.14185980297E+04  0.14185980297E+04  0.25500000920E-02 0.  1.
    10030    2    1    2    0    0  0.00000000000E+00  0.00000000000E+00  0.84688654124E+03  0.36840826006E+04  0.35854215644E+04 0.  0.
        4    1    3    3  502    0  0.27204565085E+03  0.99673734145E+03 -0.10819015118E+04  0.14959968777E+04  0.12699999809E+01 0.  1.
       -4    1    3    3    0  502 -0.27204565085E+03 -0.99673734145E+03  0.19287880531E+04  0.21880857229E+04  0.12699999809E+01 0. -1.
</event>
<event>
 5   0  0.1051123E-06  0.3633301E+04  0.7818609E-02  0.8082906E-01
       -2   -1    0    0    0  501  0.00000000000E+00  0.00000000000E+00  0.14939205879E+04  0.14939205879E+04  0.25500000920E-02 0. -1.
        2   -1    0    0  501    0  0.00000000000E+00  0.00000000000E+00 -0.22090989324E+04  0.22090989324E+04  0.25500000920E-02 0.  1.
    10030    2    1    2    0    0  0.00000000000E+00  0.00000000000E+00 -0.71517834456E+03  0.37030195203E+04  0.36333006348E+04 0.  0.
        2    1    3    3  502    0  0.57150055703E+03  0.12863072248E+04  0.81293457072E+03  0.16254420259E+04  0.25500000920E-02 0. -1.
       -2    1    3    3    0  502 -0.57150055703E+03 -0.12863072248E+04 -0.15281129153E+04  0.20775774944E+04  0.25500000920E-02 0.  1.
</event>
<event>
 5   0  0.3848431E-07  0.2520578E+04  0.7818609E-02  0.8395691E-01
       -1   -1    0    0    0  501  0.00000000000E+00  0.00000000000E+00  0.96645233344E+03  0.96645233345E+03  0.50400001928E-02 0.  1.
        1   -1    0    0  501    0  0.00000000000E+00  0.00000000000E+00 -0.16434630333E+04  0.16434630333E+04  0.50400001928E-02 0. -1.
    10030    2    1    2    0    0  0.00000000000E+00  0.00000000000E+00 -0.67701069981E+03  0.26099153667E+04  0.25205782538E+04 0.  0.
        2    1    3    3  502    0 -0.10634806843E+04 -0.29775657770E+03 -0.96721505976E+03  0.14680446578E+04  0.25500000920E-02 0. -1.
       -2    1    3    3    0  502  0.10634806843E+04  0.29775657770E+03  0.29020435994E+03  0.11418707089E+04  0.25500000920E-02 0.  1.
</event>
<event>
 5   0  0.3704306E-07  0.3122743E+04  0.7818609E-02  0.8209524E-01
       -1   -1    0    0    0  501  0.00000000000E+00  0.00000000000E+00  0.12056081069E+04  0.12056081069E+04  0.50400001928E-02 0.  1.
        1   -1    0    0  501    0  0.00000000000E+00  0.00000000000E+00 -0.20221175829E+04  0.20221175829E+04  0.50400001928E-02 0. -1.
    10030    2    1    2    0    0  0.00000000000E+00  0.00000000000E+00 -0.81650947599E+03  0.32277256898E+04  0.31227432498E+04 0.  0.
        3    1    3    3  502    0 -0.20707719490E+03 -0.38434735177E+03 -0.19577444297E+04  0.20058332717E+04  0.10100000352E+00 0. -1.
       -3    1    3    3    0  502  0.20707719490E+03  0.38434735177E+03  0.11412349538E+04  0.12218924181E+04  0.10100000352E+00 0.  1.
</event>
<event>
 5   0  0.1128530E-06  0.3686851E+04  0.7818609E-02  0.8070882E-01
       -2   -1    0    0    0  501  0.00000000000E+00  0.00000000000E+00  0.13602098638E+04  0.13602098638E+04  0.25500000920E-02 0.  1.
        2   -1    0    0  501    0  0.00000000000E+00  0.00000000000E+00 -0.24983040376E+04  0.24983040376E+04  0.25500000920E-02 0. -1.
    10030    2    1    2    0    0  0.00000000000E+00  0.00000000000E+00 -0.11380941737E+04  0.38585139014E+04  0.36868511197E+04 0.  0.
        5    1    3    3  502    0  0.18134983520E+04 -0.23310666290E+03 -0.81466738584E+03  0.20017042810E+04  0.46999998093E+01 0.  1.
       -5    1    3    3    0  502 -0.18134983520E+04  0.23310666290E+03 -0.32342678788E+03  0.18568096204E+04  0.46999998093E+01 0. -1.
</event>
<event>
 5   0  0.1092116E-06  0.3635025E+04  0.7818609E-02  0.8082516E-01
       -2   -1    0    0    0  501  0.00000000000E+00  0.00000000000E+00  0.13453029051E+04  0.13453029051E+04  0.25500000920E-02 0. -1.
        2   -1    0    0  501    0  0.00000000000E+00  0.00000000000E+00 -0.24554703796E+04  0.24554703796E+04  0.25500000920E-02 0.  1.
    10030    2    1    2    0    0  0.00000000000E+00  0.00000000000E+00 -0.11101674745E+04  0.38007732847E+04  0.36350248610E+04 0.  0.
        1    1    3    3  502    0 -0.24783231597E+02 -0.20473302186E+03  0.13330297737E+04  0.13488877628E+04  0.50400001928E-02 0. -1.
       -1    1    3    3    0  502  0.24783231597E+02  0.20473302186E+03 -0.24431972482E+04  0.24518855219E+04  0.50400001928E-02 0.  1.
</event>
<event>
 5   0  0.3764495E-07  0.3439364E+04  0.7818609E-02  0.8128312E-01
        1   -1    0    0  501    0  0.00000000000E+00  0.00000000000E+00  0.24666236866E+04  0.24666236866E+04  0.50400001928E-02 0.  1.
       -1   -1    0    0    0  501  0.00000000000E+00  0.00000000000E+00 -0.11989286906E+04  0.11989286906E+04  0.50400001928E-02 0. -1.
    10030    2    1    2    0    0  0.00000000000E+00  0.00000000000E+00  0.12676949960E+04  0.36655523772E+04  0.34393638405E+04 0.  0.
        4    1    3    3  502    0  0.19474885796E+03 -0.16049097075E+04  0.12586092468E+04  0.20488438535E+04  0.12699999809E+01 0.  1.
       -4    1    3    3    0  502 -0.19474885796E+03  0.16049097075E+04  0.90857492672E+01  0.16167085237E+04  0.12699999809E+01 0. -1.
</event>
<event>
 5   0  0.4368968E-07  0.2298252E+04  0.7818609E-02  0.8478611E-01
        1   -1    0    0  501    0  0.00000000000E+00  0.00000000000E+00  0.13006171487E+04  0.13006171487E+04  0.50400001928E-02 0.  1.
       -1   -1    0    0    0  501  0.00000000000E+00  0.00000000000E+00 -0.10152795928E+04  0.10152795928E+04  0.50400001928E-02 0. -1.
    10030    2    1    2    0    0  0.00000000000E+00  0.00000000000E+00  0.28533755588E+03  0.23158967415E+04  0.22982515521E+04 0.  0.
        4    1    3    3  502    0  0.10811992801E+04 -0.25544977247E+03 -0.15325574472E+03  0.11214880319E+04  0.12699999809E+01 0. -1.
       -4    1    3    3    0  502 -0.10811992801E+04  0.25544977247E+03  0.43859330060E+03  0.11944087097E+04  0.12699999809E+01 0.  1.
</event>
<event>
 5   0  0.3675819E-07  0.3015942E+04  0.7818609E-02  0.8239193E-01
        1   -1    0    0  501    0  0.00000000000E+00  0.00000000000E+00  0.21125899014E+04  0.21125899014E+04  0.50400001928E-02 0. -1.
       -1   -1    0    0    0  501  0.00000000000E+00  0.00000000000E+00 -0.10763925508E+04  0.10763925509E+04  0.50400001928E-02 0.  1.
    10030    2    1    2    0    0  0.00000000000E+00  0.00000000000E+00  0.10361973506E+04  0.31889824523E+04  0.30159416658E+04 0.  0.
        5    1    3    3  502    0  0.12528964691E+04 -0.65114147049E+03 -0.41630713644E+02  0.14126181307E+04  0.46999998093E+01 0.  1.
       -5    1    3    3    0  502 -0.12528964691E+04  0.65114147049E+03  0.10778280642E+04  0.17763643216E+04  0.46999998093E+01 0. -1.
</event>
<event>
 5   0  0.1066907E-06  0.3562508E+04  0.7818609E-02  0.8099134E-01
        2   -1    0    0  501    0  0.00000000000E+00  0.00000000000E+00  0.13093858314E+04  0.13093858314E+04  0.25500000920E-02 0. -1.
       -2   -1    0    0    0  501  0.00000000000E+00  0.00000000000E+00 -0.24231708357E+04  0.24231708357E+04  0.25500000920E-02 0.  1.
    10030    2    1    2    0    0  0.00000000000E+00  0.00000000000E+00 -0.11137850043E+04  0.37325566671E+04  0.35625078578E+04 0.  0.
        4    1    3    3  502    0 -0.13251267384E+04 -0.30715018431E+03  0.64802849477E+03  0.15067331056E+04  0.12699999809E+01 0. -1.
       -4    1    3    3    0  502  0.13251267384E+04  0.30715018431E+03 -0.17618134991E+04  0.22258235615E+04  0.12699999809E+01 0.  1.
</event>
<event>
 5   0  0.3490375E-07  0.2413038E+04  0.7818609E-02  0.8434638E-01
        3   -1    0    0  501    0  0.00000000000E+00  0.00000000000E+00  0.14146321107E+04  0.14146321143E+04  0.10100000352E+00 0.  1.
       -3   -1    0    0    0  501  0.00000000000E+00  0.00000000000E+00 -0.10290224286E+04  0.10290224335E+04  0.10100000352E+00 0. -1.
    10030    2    1    2    0    0  0.00000000000E+00  0.00000000000E+00  0.38560968210E+03  0.24436545478E+04  0.24130380689E+04 0.  0.
        5    1    3    3  502    0 -0.47698144412E+03  0.10290995437E+04 -0.22364135316E+03  0.11561118950E+04  0.46999998093E+01 0. -1.
       -5    1    3    3    0  502  0.47698144412E+03 -0.10290995437E+04  0.60925103525E+03  0.12875426528E+04  0.46999998093E+01 0.  1.
</event>
<event>
 5   0  0.1128166E-06  0.2962408E+04  0.7818609E-02  0.8254548E-01
       -2   -1    0    0    0  501  0.00000000000E+00  0.00000000000E+00  0.12291139801E+04  0.12291139801E+04  0.25500000920E-02 0. -1.
        2   -1    0    0  501    0  0.00000000000E+00  0.00000000000E+00 -0.17849972237E+04  0.17849972237E+04  0.25500000920E-02 0.  1.
    10030    2    1    2    0    0  0.00000000000E+00  0.00000000000E+00 -0.55588324360E+03  0.30141112038E+04  0.29624078329E+04 0.  0.
        3    1    3    3  502    0  0.51237174359E+03 -0.61854683227E+03  0.98830327545E+03  0.12735259565E+04  0.10100000352E+00 0. -1.
       -3    1    3    3    0  502 -0.51237174359E+03  0.61854683227E+03 -0.15441865191E+04  0.17405852473E+04  0.10100000352E+00 0.  1.
</event>
<event>
 5   0  0.1128166E-06  0.2288534E+04  0.7818609E-02  0.8482456E-01
       -2   -1    0    0    0  501  0.00000000000E+00  0.00000000000E+00  0.18167470765E+04  0.18167470765E+04  0.25500000920E-02 0.  1.
        2   -1    0    0  501    0  0.00000000000E+00  0.00000000000E+00 -0.72070965013E+03  0.72070965014E+03  0.25500000920E-02 0. -1.
    10030    2    1    2    0    0  0.00000000000E+00  0.00000000000E+00  0.10960374263E+04  0.25374567266E+04  0.22885341596E+04 0.  0.
        3    1    3    3  502    0  0.68106956590E+03 -0.71651767940E+03 -0.90938283266E+02  0.99273517116E+03  0.10100000352E+00 0. -1.
       -3    1    3    3    0  502 -0.68106956590E+03  0.71651767940E+03  0.11869757096E+04  0.15447215555E+04  0.10100000352E+00 0.  1.
</event>
<event>
 5   0  0.3490375E-07  0.3530431E+04  0.7818609E-02  0.8106616E-01
       -3   -1    0    0    0  501  0.00000000000E+00  0.00000000000E+00  0.16702273804E+04  0.16702273835E+04  0.10100000352E+00 0.  1.
        3   -1    0    0  501    0  0.00000000000E+00  0.00000000000E+00 -0.18656056417E+04  0.18656056444E+04  0.10100000352E+00 0. -1.
    10030    2    1    2    0    0  0.00000000000E+00  0.00000000000E+00 -0.19537826128E+03  0.35358330279E+04  0.35304309278E+04 0.  0.
        4    1    3    3  502    0  0.29086106788E+03 -0.17336784291E+04 -0.25838078042E+03  0.17767957950E+04  0.12699999809E+01 0.  1.
       -4    1    3    3    0  502 -0.29086106788E+03  0.17336784291E+04  0.63002519137E+02  0.17590372329E+04  0.12699999809E+01 0. -1.
</event>
<event>
 5   0  0.1128166E-06  0.3613959E+04  0.7818609E-02  0.8087302E-01
        2   -1    0    0  501    0  0.00000000000E+00  0.00000000000E+00  0.17222061103E+04  0.17222061103E+04  0.25500000920E-02 0.  1.
       -2   -1    0    0    0  501  0.00000000000E+00  0.00000000000E+00 -0.18959261238E+04  0.18959261238E+04  0.25500000920E-02 0. -1.
    10030    2    1    2    0    0  0.00000000000E+00  0.00000000000E+00 -0.17372001351E+03  0.36181322341E+04  0.36139593551E+04 0.  0.
        3    1    3    3  502    0 -0.60430556715E+03 -0.29855350379E+03  0.15916366485E+04  0.17284752368E+04  0.10100000352E+00 0.  1.
       -3    1    3    3    0  502  0.60430556715E+03  0.29855350379E+03 -0.17653566620E+04  0.18896569973E+04  0.10100000352E+00 0. -1.
</event>
<event>
 5   0  0.1051123E-06  0.3658361E+04  0.7818609E-02  0.8077253E-01
       -2   -1    0    0    0  501  0.00000000000E+00  0.00000000000E+00  0.14726932934E+04  0.14726932934E+04  0.25500000920E-02 0.  1.
        2   -1    0    0  501    0  0.00000000000E+00  0.00000000000E+00 -0.22719604286E+04  0.22719604286E+04  0.25500000920E-02 0. -1.
    10030    2    1    2    0    0  0.00000000000E+00  0.00000000000E+00 -0.79926713523E+03  0.37446537220E+04  0.36583607728E+04 0.  0.
        2    1    3    3  502    0 -0.10290027026E+04 -0.11069280267E+04 -0.14543586317E+04  0.20974497009E+04  0.25500000920E-02 0. -1.
       -2    1    3    3    0  502  0.10290027026E+04  0.11069280267E+04  0.65509149644E+03  0.16472040211E+04  0.25500000920E-02 0.  1.
</event>
<event>
 5   0  0.1092116E-06  0.3710125E+04  0.7818609E-02  0.8065722E-01
       -2   -1    0    0    0  501  0.00000000000E+00  0.00000000000E+00  0.15475015598E+04  0.15475015598E+04  0.25500000920E-02 0. -1.
        2   -1    0    0  501    0  0.00000000000E+00  0.00000000000E+00 -0.22237504918E+04  0.22237504918E+04  0.25500000920E-02 0.  1.
    10030    2    1    2    0    0  0.00000000000E+00  0.00000000000E+00 -0.67624893209E+03  0.37712520516E+04  0.37101252564E+04 0.  0.
        1    1    3    3  502    0  0.32153397771E+03  0.99130605115E+03  0.12218214924E+04  0.16059014743E+04  0.50400001928E-02 0. -1.
       -1    1    3    3    0  502 -0.32153397771E+03 -0.99130605115E+03 -0.18980704245E+04  0.21653505773E+04  0.50400001928E-02 0.  1.
</event>
<event>
 5   0  0.3704306E-07  0.3686201E+04  0.7818609E-02  0.8071027E-01
       -1   -1    0    0    0  501  0.00000000000E+00  0.00000000000E+00  0.10120948690E+04  0.10120948691E+04  0.50400001928E-02 0.  1.
        1   -1    0    0  501    0  0.00000000000E+00  0.00000000000E+00 -0.33564247615E+04  0.33564247615E+04  0.50400001928E-02 0. -1.
    10030    2    1    2    0    0  0.00000000000E+00  0.00000000000E+00 -0.23443298925E+04  0.43685196306E+04  0.36862014484E+04 0.  0.
        3    1    3    3  502    0  0.95273145017E+03 -0.36850894720E+03  0.64592163389E+03  0.12085987041E+04  0.10100000352E+00 0.  1.
       -3    1    3    3    0  502 -0.95273145017E+03  0.36850894720E+03 -0.29902515263E+04  0.31599209264E+04  0.10100000352E+00 0. -1.
</event>
<event>
 5   0  0.1066907E-06  0.3678715E+04  0.7818609E-02  0.8072695E-01
        2   -1    0    0  501    0  0.00000000000E+00  0.00000000000E+00  0.28048596431E+04  0.28048596431E+04  0.25500000920E-02 0. -1.
       -2   -1    0    0    0  501  0.00000000000E+00  0.00000000000E+00 -0.12062053035E+04  0.12062053035E+04  0.25500000920E-02 0.  1.
    10030    2    1    2    0    0  0.00000000000E+00  0.00000000000E+00  0.15986543396E+04  0.40110649466E+04  0.36787153068E+04 0.  0.
        4    1    3    3  502    0  0.12481304261E+03  0.18262931968E+04  0.60333855800E+03  0.19274190424E+04  0.12699999809E+01 0.  1.
       -4    1    3    3    0  502 -0.12481304261E+03 -0.18262931968E+04  0.99531578164E+03  0.20836459043E+04  0.12699999809E+01 0. -1.
</event>
<event>
 5   0  0.1066907E-06  0.3114606E+04  0.7818609E-02  0.8211741E-01
        2   -1    0    0  501    0  0.00000000000E+00  0.00000000000E+00  0.15539366431E+04  0.15539366431E+04  0.25500000920E-02 0.  1.
       -2   -1    0    0    0  501  0.00000000000E+00  0.00000000000E+00 -0.15606766746E+04  0.15606766746E+04  0.25500000920E-02 0. -1.
    10030    2    1    2    0    0  0.00000000000E+00  0.00000000000E+00 -0.67400315912E+01  0.31146133177E+04  0.31146060250E+04 0.  0.
        4    1    3    3  502    0 -0.12210799466E+04 -0.17356844692E+03  0.94743651101E+03  0.15552491110E+04  0.12699999809E+01 0.  1.
       -4    1    3    3    0  502  0.12210799466E+04  0.17356844692E+03 -0.95417654261E+03  0.15593642067E+04  0.12699999809E+01 0. -1.
</event>
<event>
 5   0  0.1128166E-06  0.3696122E+04  0.7818609E-02  0.8068822E-01
        2   -1    0    0  501    0  0.00000000000E+00  0.00000000000E+00  0.24919706129E+04  0.24919706129E+04  0.25500000920E-02 0. -1.
       -2   -1    0    0    0  501  0.00000000000E+00  0.00000000000E+00 -0.13705336364E+04  0.13705336364E+04  0.25500000920E-02 0.  1.
    10030    2    1    2    0    0  0.00000000000E+00  0.00000000000E+00  0.11214369765E+04  0.38625042493E+04  0.36961220466E+04 0.  0.
        3    1    3    3  502    0  0.49968319635E+03 -0.84860639396E+03 -0.10734908686E+04  0.14567768408E+04  0.10100000352E+00 0.  1.
       -3    1    3    3    0  502 -0.49968319635E+03  0.84860639396E+03  0.21949278451E+04  0.24057274085E+04  0.10100000352E+00 0. -1.
</event>
<event>
 5   0  0.3764495E-07  0.3672007E+04  0.7818609E-02  0.8074194E-01
        1   -1    0    0  501    0  0.00000000000E+00  0.00000000000E+00  0.20125877843E+04  0.20125877843E+04  0.50400001928E-02 0. -1.
       -1   -1    0    0    0  501  0.00000000000E+00  0.00000000000E+00 -0.16749127605E+04  0.16749127605E+04  0.50400001928E-02 0.  1.
    10030    2    1    2    0    0  0.00000000000E+00  0.00000000000E+00  0.33767502382E+03  0.36875005449E+04  0.36720070597E+04 0.  0.
        4    1    3    3  502    0 -0.23888771242E+03  0.39011816631E+01  0.19969097652E+04  0.20111521031E+04  0.12699999809E+01 0. -1.
       -4    1    3    3    0  502  0.23888771242E+03 -0.39011816631E+01 -0.16592347414E+04  0.16763484418E+04  0.12699999809E+01 0.  1.
</event>
<event>
 5   0  0.5193126E-07  0.2286188E+04  0.7818609E-02  0.8483387E-01
        1   -1    0    0  501    0  0.00000000000E+00  0.00000000000E+00  0.10035713621E+04  0.10035713621E+04  0.50400001928E-02 0. -1.
       -1   -1    0    0    0  501  0.00000000000E+00  0.00000000000E+00 -0.13020133891E+04  0.13020133891E+04  0.50400001928E-02 0.  1.
    10030    2    1    2    0    0  0.00000000000E+00  0.00000000000E+00 -0.29844202698E+03  0.23055847512E+04  0.22861875255E+04 0.  0.
        2    1    3    3  502    0  0.95586929692E+03  0.13475037528E+02 -0.78127268073E+03  0.12346070999E+04  0.25500000920E-02 0.  1.
       -2    1    3    3    0  502 -0.95586929692E+03 -0.13475037528E+02  0.48283065376E+03  0.10709776513E+04  0.25500000920E-02 0. -1.
</event>
<event>
 5   0  0.1128166E-06  0.3769914E+04  0.7818609E-02  0.8052642E-01
        2   -1    0    0  501    0  0.00000000000E+00  0.00000000000E+00  0.16997976640E+04  0.16997976640E+04  0.25500000920E-02 0. -1.
       -2   -1    0    0    0  501  0.00000000000E+00  0.00000000000E+00 -0.20902859293E+04  0.20902859293E+04  0.25500000920E-02 0.  1.
    10030    2    1    2    0    0  0.00000000000E+00  0.00000000000E+00 -0.39048826523E+03  0.37900835933E+04  0.37699141315E+04 0.  0.
        3    1    3    3  502    0  0.12647167628E+04  0.13131199092E+04  0.28613986623E+03  0.18454453173E+04  0.10100000352E+00 0. -1.
       -3    1    3    3    0  502 -0.12647167628E+04 -0.13131199092E+04 -0.67662813146E+03  0.19446382760E+04  0.10100000352E+00 0.  1.
</event>
<event>
 5   0  0.1066907E-06  0.3759414E+04  0.7818609E-02  0.8054921E-01
        2   -1    0    0  501    0  0.00000000000E+00  0.00000000000E+00  0.12497399368E+04  0.12497399368E+04  0.25500000920E-02 0. -1.
       -2   -1    0    0    0  501  0.00000000000E+00  0.00000000000E+00 -0.28272275601E+04  0.28272275601E+04  0.25500000920E-02 0.  1.
    10030    2    1    2    0    0  0.00000000000E+00  0.00000000000E+00 -0.15774876233E+04  0.40769674968E+04  0.37594144183E+04 0.  0.
        4    1    3    3  502    0 -0.18735500217E+04  0.57588569817E+02 -0.94130915031E+03  0.20975153531E+04  0.12699999809E+01 0. -1.
       -4    1    3    3    0  502  0.18735500217E+04 -0.57588569817E+02 -0.63617847299E+03  0.19794521438E+04  0.12699999809E+01 0.  1.
</event>
<event>
 5   0  0.1066907E-06  0.3499461E+04  0.7818609E-02  0.8113918E-01
       -2   -1    0    0    0  501  0.00000000000E+00  0.00000000000E+00  0.16230884152E+04  0.16230884152E+04  0.25500000920E-02 0. -1.
        2   -1    0    0  501    0  0.00000000000E+00  0.00000000000E+00 -0.18862542817E+04  0.18862542817E+04  0.25500000920E-02 0.  1.
    10030    2    1    2    0    0  0.00000000000E+00  0.00000000000E+00 -0.26316586642E+03  0.35093426969E+04  0.34994613716E+04 0.  0.
        4    1    3    3  502    0  0.35060609191E+03  0.14553963093E+04  0.77676321733E+03  0.16865544040E+04  0.12699999809E+01 0. -1.
       -4    1    3    3    0  502 -0.35060609191E+03 -0.14553963093E+04 -0.10399290838E+04  0.18227882930E+04  0.12699999809E+01 0.  1.
</event>
<event>
 5   0  0.3704306E-07  0.3627901E+04  0.7818609E-02  0.8084130E-01
        1   -1    0    0  501    0  0.00000000000E+00  0.00000000000E+00  0.21678896187E+04  0.21678896187E+04  0.50400001928E-02 0. -1.
       -1   -1    0    0    0  501  0.00000000000E+00  0.00000000000E+00 -0.15177971539E+04  0.15177971539E+04  0.50400001928E-02 0.  1.
    10030    2    1    2    0    0  0.00000000000E+00  0.00000000000E+00  0.65009246486E+03  0.36856867726E+04  0.36279011526E+04 0.  0.
        3    1    3    3  502    0  0.19161828028E+03 -0.17774511624E+04  0.12961974305E+02  0.17877970307E+04  0.10100000352E+00 0.  1.
       -3    1    3    3    0  502 -0.19161828028E+03  0.17774511624E+04  0.63713049056E+03  0.18978897419E+04  0.10100000352E+00 0. -1.
</event>
<event>
 5   0  0.3682276E-07  0.2479743E+04  0.7818609E-02  0.8410238E-01
       -1   -1    0    0    0  501  0.00000000000E+00  0.00000000000E+00  0.16453718047E+04  0.16453718047E+04  0.50400001928E-02 0. -1.
        1   -1    0    0  501    0  0.00000000000E+00  0.00000000000E+00 -0.93430662424E+03  0.93430662425E+03  0.50400001928E-02 0.  1.
    10030    2    1    2    0    0  0.00000000000E+00  0.00000000000E+00  0.71106518043E+03  0.25796784289E+04  0.24797433548E+04 0.  0.
        1    1    3    3  502    0 -0.66657549243E+03  0.41524850250E+03  0.13536399024E+04  0.15649585270E+04  0.50400001928E-02 0. -1.
       -1    1    3    3    0  502  0.66657549243E+03 -0.41524850250E+03 -0.64257472198E+03  0.10147199019E+04  0.50400001928E-02 0.  1.
</event>
<event>
 5   0  0.3764495E-07  0.2757035E+04  0.7818609E-02  0.8316733E-01
        1   -1    0    0  501    0  0.00000000000E+00  0.00000000000E+00  0.10067251228E+04  0.10067251228E+04  0.50400001928E-02 0. -1.
       -1   -1    0    0    0  501  0.00000000000E+00  0.00000000000E+00 -0.18876162537E+04  0.18876162537E+04  0.50400001928E-02 0.  1.
    10030    2    1    2    0    0  0.00000000000E+00  0.00000000000E+00 -0.88089113089E+03  0.28943413766E+04  0.27570351503E+04 0.  0.
        4    1    3    3  502    0  0.97391730050E+03  0.94078863164E+03 -0.16929784231E+03  0.13646470349E+04  0.12699999809E+01 0.  1.
       -4    1    3    3    0  502 -0.97391730050E+03 -0.94078863164E+03 -0.71159328859E+03  0.15296943417E+04  0.12699999809E+01 0. -1.
</event>
<event>
 5   0  0.1092116E-06  0.3712460E+04  0.7818609E-02  0.8065206E-01
       -2   -1    0    0    0  501  0.00000000000E+00  0.00000000000E+00  0.22582834781E+04  0.22582834781E+04  0.25500000920E-02 0.  1.
        2   -1    0    0  501    0  0.00000000000E+00  0.00000000000E+00 -0.15257564744E+04  0.15257564744E+04  0.25500000920E-02 0. -1.
    10030    2    1    2    0    0  0.00000000000E+00  0.00000000000E+00  0.73252700369E+03  0.37840399524E+04  0.37124604443E+04 0.  0.
        1    1    3    3  502    0 -0.14324763368E+04  0.40889694846E+03  0.14950476897E+04  0.21105337629E+04  0.50400001928E-02 0.  1.
       -1    1    3    3    0  502  0.14324763368E+04 -0.40889694846E+03 -0.76252068598E+03  0.16735061895E+04  0.50400001928E-02 0. -1.
</event>
<event>
 5   0  0.1066907E-06  0.2548193E+04  0.7818609E-02  0.8386015E-01
       -2   -1    0    0    0  501  0.00000000000E+00  0.00000000000E+00  0.50491378921E+03  0.50491378921E+03  0.25500000920E-02 0.  1.
        2   -1    0    0  501    0  0.00000000000E+00  0.00000000000E+00 -0.32150479874E+04  0.32150479874E+04  0.25500000920E-02 0. -1.
    10030    2    1    2    0    0  0.00000000000E+00  0.00000000000E+00 -0.27101341982E+04  0.37199617766E+04  0.25481931338E+04 0.  0.
        4    1    3    3  502    0  0.11617271893E+04  0.51970964514E+03 -0.14428068338E+04  0.19239026353E+04  0.12699999809E+01 0.  1.
       -4    1    3    3    0  502 -0.11617271893E+04 -0.51970964514E+03 -0.12673273644E+04  0.17960591413E+04  0.12699999809E+01 0. -1.
</event>
<event>
 5   0  0.3675819E-07  0.3287265E+04  0.7818609E-02  0.8166143E-01
       -1   -1    0    0    0  501  0.00000000000E+00  0.00000000000E+00  0.14987810740E+04  0.14987810740E+04  0.50400001928E-02 0.  1.
        1   -1    0    0  501    0  0.00000000000E+00  0.00000000000E+00 -0.18024828493E+04  0.18024828494E+04  0.50400001928E-02 0. -1.
    10030    2    1    2    0    0  0.00000000000E+00  0.00000000000E+00 -0.30370177535E+03  0.33012639233E+04  0.32872646263E+04 0.  0.
        5    1    3    3  502    0  0.73364126750E+03 -0.22839328478E+03  0.13073034342E+04  0.15163961755E+04  0.46999998093E+01 0.  1.
       -5    1    3    3    0  502 -0.73364126750E+03  0.22839328478E+03 -0.16110052096E+04  0.17848677478E+04  0.46999998093E+01 0. -1.
</event>
<event>
 5   0  0.1092116E-06  0.3672492E+04  0.7818609E-02  0.8074085E-01
        2   -1    0    0  501    0  0.00000000000E+00  0.00000000000E+00  0.14580734416E+04  0.14580734416E+04  0.25500000920E-02 0.  1.
       -2   -1    0    0    0  501  0.00000000000E+00  0.00000000000E+00 -0.23125034975E+04  0.23125034975E+04  0.25500000920E-02 0. -1.
    10030    2    1    2    0    0  0.00000000000E+00  0.00000000000E+00 -0.85443005589E+03  0.37705769391E+04  0.36724923054E+04 0.  0.
        1    1    3    3  502    0 -0.66624227202E+03 -0.16799329226E+04 -0.93343024081E+02  0.18096315397E+04  0.50400001928E-02 0. -1.
       -1    1    3    3    0  502  0.66624227202E+03  0.16799329226E+04 -0.76108703181E+03  0.19609453994E+04  0.50400001928E-02 0.  1.
</event>
<event>
 5   0  0.3704306E-07  0.3767324E+04  0.7818609E-02  0.8053204E-01
       -1   -1    0    0    0  501  0.00000000000E+00  0.00000000000E+00  0.20149649443E+04  0.20149649443E+04  0.50400001928E-02 0. -1.
        1   -1    0    0  501    0  0.00000000000E+00  0.00000000000E+00 -0.17609148997E+04  0.17609148997E+04  0.50400001928E-02 0.  1.
    10030    2    1    2    0    0  0.00000000000E+00  0.00000000000E+00  0.25405004460E+03  0.37758798440E+04  0.37673236085E+04 0.  0.
        3    1    3    3  502    0 -0.83966620082E+03 -0.16375042306E+04  0.53008553993E+03  0.19150587782E+04  0.10100000352E+00 0.  1.
       -3    1    3    3    0  502  0.83966620082E+03  0.16375042306E+04 -0.27603549533E+03  0.18608210658E+04  0.10100000352E+00 0. -1.
</event>
<event>
 5   0  0.3675819E-07  0.3659567E+04  0.7818609E-02  0.8076982E-01
        1   -1    0    0  501    0  0.00000000000E+00  0.00000000000E+00  0.11074824649E+04  0.11074824649E+04  0.50400001928E-02 0.  1.
       -1   -1    0    0    0  501  0.00000000000E+00  0.00000000000E+00 -0.30231697167E+04  0.30231697167E+04  0.50400001928E-02 0. -1.
    10030    2    1    2    0    0  0.00000000000E+00  0.00000000000E+00 -0.19156872518E+04  0.41306521816E+04  0.36595668867E+04 0.  0.
        5    1    3    3  502    0  0.16689190206E+04  0.47758074260E+03 -0.30482717397E+03  0.17624743286E+04  0.46999998093E+01 0.  1.
       -5    1    3    3    0  502 -0.16689190206E+04 -0.47758074260E+03 -0.16108600779E+04  0.23681778530E+04  0.46999998093E+01 0. -1.
</event>
<event>
 5   0  0.1128530E-06  0.3430639E+04  0.7818609E-02  0.8130427E-01
        2   -1    0    0  501    0  0.00000000000E+00  0.00000000000E+00  0.21133297230E+04  0.21133297230E+04  0.25500000920E-02 0.  1.
       -2   -1    0    0    0  501  0.00000000000E+00  0.00000000000E+00 -0.13922676977E+04  0.13922676977E+04  0.25500000920E-02 0. -1.
    10030    2    1    2    0    0  0.00000000000E+00  0.00000000000E+00  0.72106202533E+03  0.35055974207E+04  0.34306388373E+04 0.  0.
        5    1    3    3  502    0 -0.18249368369E+03  0.15208878086E+04 -0.42827805120E+03  0.15905495434E+04  0.46999998093E+01 0. -1.
       -5    1    3    3    0  502  0.18249368369E+03 -0.15208878086E+04  0.11493400765E+04  0.19150478773E+04  0.46999998093E+01 0.  1.
</event>
<event>
 5   0  0.1128530E-06  0.3707427E+04  0.7818609E-02  0.8066318E-01
        2   -1    0    0  501    0  0.00000000000E+00  0.00000000000E+00  0.17061771130E+04  0.17061771130E+04  0.25500000920E-02 0. -1.
       -2   -1    0    0    0  501  0.00000000000E+00  0.00000000000E+00 -0.20140081769E+04  0.20140081769E+04  0.25500000920E-02 0.  1.
    10030    2    1    2    0    0  0.00000000000E+00  0.00000000000E+00 -0.30783106387E+03  0.37201852899E+04  0.37074274946E+04 0.  0.
        5    1    3    3  502    0 -0.16673762331E+04  0.69452180336E+03 -0.57215737106E+03  0.18947005530E+04  0.46999998093E+01 0. -1.
       -5    1    3    3    0  502  0.16673762331E+04 -0.69452180336E+03  0.26432630719E+03  0.18254847370E+04  0.46999998093E+01 0.  1.
</event>
<event>
 5   0  0.1051123E-06  0.3643769E+04  0.7818609E-02  0.8080539E-01
        2   -1    0    0  501    0  0.00000000000E+00  0.00000000000E+00  0.24830796165E+04  0.24830796165E+04  0.25500000920E-02 0.  1.
       -2   -1    0    0    0  501  0.00000000000E+00  0.00000000000E+00 -0.13367526097E+04  0.13367526097E+04  0.25500000920E-02 0. -1.
    10030    2    1    2    0    0  0.00000000000E+00  0.00000000000E+00  0.11463270068E+04  0.38198322262E+04  0.36437690143E+04 0.  0.
        2    1    3    3  502    0 -0.75937047995E+03 -0.41900521030E+03  0.22527832609E+04  0.24139679602E+04  0.25500000920E-02 0.  1.
       -2    1    3    3    0  502  0.75937047995E+03  0.41900521030E+03 -0.11064562541E+04  0.14058642660E+04  0.25500000920E-02 0. -1.
</event>
<event>
 5   0  0.3682276E-07  0.3569863E+04  0.7818609E-02  0.8097430E-01
       -1   -1    0    0    0  501  0.00000000000E+00  0.00000000000E+00  0.97925822998E+03  0.97925822999E+03  0.50400001928E-02 0. -1.
        1   -1    0    0  501    0  0.00000000000E+00  0.00000000000E+00 -0.32534636952E+04  0.32534636952E+04  0.50400001928E-02 0.  1.
    10030    2    1    2    0    0  0.00000000000E+00  0.00000000000E+00 -0.22742054652E+04  0.42327219252E+04  0.35698633585E+04 0.  0.
        1    1    3    3  502    0  0.72344868320E+03 -0.10592354160E+04 -0.26087929214E+04  0.29070875753E+04  0.50400001928E-02 0.  1.
       -1    1    3    3    0  502 -0.72344868320E+03  0.10592354160E+04  0.33458745620E+03  0.13256343499E+04  0.50400001928E-02 0. -1.
</event>
<event>
 5   0  0.1128530E-06  0.2288737E+04  0.7818609E-02  0.8482375E-01
       -2   -1    0    0    0  501  0.00000000000E+00  0.00000000000E+00  0.11407896009E+04  0.11407896009E+04  0.25500000920E-02 0. -1.
        2   -1    0    0  501    0  0.00000000000E+00  0.00000000000E+00 -0.11479582255E+04  0.11479582255E+04  0.25500000920E-02 0.  1.
    10030    2    1    2    0    0  0.00000000000E+00  0.00000000000E+00 -0.71686245589E+01  0.22887478264E+04  0.22887365999E+04 0.  0.
        5    1    3    3  502    0 -0.76287698620E+03 -0.74545090527E+03 -0.41816850616E+03  0.11456724391E+04  0.46999998093E+01 0.  1.
       -5    1    3    3    0  502  0.76287698620E+03  0.74545090527E+03  0.41099988160E+03  0.11430753872E+04  0.46999998093E+01 0. -1.
</event>
<event>
 5   0  0.3675819E-07  0.3654973E+04  0.7818609E-02  0.8078014E-01
        1   -1    0    0  501    0  0.00000000000E+00  0.00000000000E+00  0.13308464374E+04  0.13308464374E+04  0.50400001928E-02 0. -1.
       -1   -1    0    0    0  501  0.00000000000E+00  0.00000000000E+00 -0.25094611002E+04  0.25094611002E+04  0.50400001928E-02 0.  1.
    10030    2    1    2    0    0  0.00000000000E+00  0.00000000000E+00 -0.11786146628E+04  0.38403075376E+04  0.36549732502E+04 0.  0.
        5    1    3    3  502    0  0.11221227655E+04 -0.81880628242E+03 -0.18369895718E+04  0.23030753366E+04  0.46999998093E+01 0.  1.
       -5    1    3    3    0  502 -0.11221227655E+04  0.81880628242E+03  0.65837490903E+03  0.15372322010E+04  0.46999998093E+01 0. -1.
</event>
<event>
 5   0  0.1128166E-06  0.3752599E+04  0.7818609E-02  0.8056404E-01
        2   -1    0    0  501    0  0.00000000000E+00  0.00000000000E+00  0.21415059493E+04  0.21415059493E+04  0.25500000920E-02 0. -1.
       -2   -1    0    0    0  501  0.00000000000E+00  0.00000000000E+00 -0.16439365716E+04  0.16439365716E+04  0.25500000920E-02 0.  1.
    10030    2    1    2    0    0  0.00000000000E+00  0.00000000000E+00  0.49756937774E+03  0.37854425209E+04  0.37525990718E+04 0.  0.
        3    1    3    3  502    0 -0.98701470669E+03 -0.15955840492E+04  0.26929609778E+03  0.18954173386E+04  0.10100000352E+00 0.  1.
       -3    1    3    3    0  502  0.98701470669E+03  0.15955840492E+04  0.22827327996E+03  0.18900251823E+04  0.10100000352E+00 0. -1.
</event>
<event>
 5   0  0.1128530E-06  0.3754879E+04  0.7818609E-02  0.8055908E-01
       -2   -1    0    0    0  501  0.00000000000E+00  0.00000000000E+00  0.20881495909E+04  0.20881495909E+04  0.25500000920E-02 0.  1.
        2   -1    0    0  501    0  0.00000000000E+00  0.00000000000E+00 -0.16879916475E+04  0.16879916475E+04  0.25500000920E-02 0. -1.
    10030    2    1    2    0    0  0.00000000000E+00  0.00000000000E+00  0.40015794337E+03  0.37761412384E+04  0.37548789957E+04 0.  0.
        5    1    3    3  502    0 -0.15734719311E+04 -0.47319436217E+03  0.11135340512E+04  0.19848695160E+04  0.46999998093E+01 0.  1.
       -5    1    3    3    0  502  0.15734719311E+04  0.47319436217E+03 -0.71337610783E+03  0.17912717224E+04  0.46999998093E+01 0. -1.
</event>
<event>
 5   0  0.3764495E-07  0.3714298E+04  0.7818609E-02  0.8064801E-01
       -1   -1    0    0    0  501  0.00000000000E+00  0.00000000000E+00  0.16908666285E+04  0.16908666285E+04  0.50400001928E-02 0.  1.
        1   -1    0    0  501    0  0.00000000000E+00  0.00000000000E+00 -0.20397833048E+04  0.20397833048E+04  0.50400001928E-02 0. -1.
    10030    2    1    2    0    0  0.00000000000E+00  0.00000000000E+00 -0.34891667628E+03  0.37306499334E+04  0.37142975215E+04 0.  0.
        4    1    3    3  502    0  0.85573776198E+03 -0.41261243242E+03  0.14283314291E+04  0.17154207708E+04  0.12699999809E+01 0.  1.
       -4    1    3    3    0  502 -0.85573776198E+03  0.41261243242E+03 -0.17772481054E+04  0.20152291626E+04  0.12699999809E+01 0. -1.
</event>
<event>
 5   0  0.1128166E-06  0.3740077E+04  0.7818609E-02  0.8059138E-01
        2   -1    0    0  501    0  0.00000000000E+00  0.00000000000E+00  0.11696203821E+04  0.11696203821E+04  0.25500000920E-02 0. -1.
       -2   -1    0    0    0  501  0.00000000000E+00  0.00000000000E+00 -0.29898958641E+04  0.29898958641E+04  0.25500000920E-02 0.  1.
    10030    2    1    2    0    0  0.00000000000E+00  0.00000000000E+00 -0.18202754819E+04  0.41595162462E+04  0.37400765463E+04 0.  0.
        3    1    3    3  502    0 -0.97158513212E+03 -0.41299962976E+03  0.80649935936E+03  0.13285283550E+04  0.10100000352E+00 0. -1.
       -3    1    3    3    0  502  0.97158513212E+03  0.41299962976E+03 -0.26267748413E+04  0.28309878912E+04  0.10100000352E+00 0.  1.
</event>
<event>
 5   0  0.1051123E-06  0.3635576E+04  0.7818609E-02  0.8082391E-01
       -2   -1    0    0    0  501  0.00000000000E+00  0.00000000000E+00  0.20697322688E+04  0.20697322688E+04  0.25500000920E-02 0. -1.
        2   -1    0    0  501    0  0.00000000000E+00  0.00000000000E+00 -0.15965127451E+04  0.15965127451E+04  0.25500000920E-02 0.  1.
    10030    2    1    2    0    0  0.00000000000E+00  0.00000000000E+00  0.47321952373E+03  0.36662450138E+04  0.36355764032E+04 0.  0.
        2    1    3    3  502    0  0.93877208976E+03  0.15368613371E+04  0.48591607392E+03  0.18653016477E+04  0.25500000920E-02 0. -1.
       -2    1    3    3    0  502 -0.93877208976E+03 -0.15368613371E+04 -0.12696550193E+02  0.18009433662E+04  0.25500000920E-02 0.  1.
</event>
<event>
 5   0  0.1066907E-06  0.3456024E+04  0.7818609E-02  0.8124291E-01
       -2   -1    0    0    0  501  0.00000000000E+00  0.00000000000E+00  0.14931169779E+04  0.14931169779E+04  0.25500000920E-02 0.  1.
        2   -1    0    0  501    0  0.00000000000E+00  0.00000000000E+00 -0.19998608404E+04  0.19998608404E+04  0.25500000920E-02 0. -1.
    10030    2    1    2    0    0  0.00000000000E+00  0.00000000000E+00 -0.50674386250E+03  0.34929778182E+04  0.34560244062E+04 0.  0.
        4    1    3    3  502    0 -0.77501509359E+03  0.31576893959E+03 -0.17813792153E+04  0.19681646120E+04  0.12699999809E+01 0. -1.
       -4    1    3    3    0  502  0.77501509359E+03 -0.31576893959E+03  0.12746353528E+04  0.15248132062E+04  0.12699999809E+01 0.  1.
</event>
<event>
 5   0  0.1128166E-06  0.3419773E+04  0.7818609E-02  0.8133070E-01
       -2   -1    0    0    0  501  0.00000000000E+00  0.00000000000E+00  0.15304396071E+04  0.15304396071E+04  0.25500000920E-02 0. -1.
        2   -1    0    0  501    0  0.00000000000E+00  0.00000000000E+00 -0.19103742314E+04  0.19103742314E+04  0.25500000920E-02 0.  1.
    10030    2    1    2    0    0  0.00000000000E+00  0.00000000000E+00 -0.37993462431E+03  0.34408138385E+04  0.34197733189E+04 0.  0.
        3    1    3    3  502    0 -0.14315024185E+04 -0.92055312516E+03 -0.24348518687E+02  0.17021192940E+04  0.10100000352E+00 0. -1.
       -3    1    3    3    0  502  0.14315024185E+04  0.92055312516E+03 -0.35558610562E+03  0.17386945445E+04  0.10100000352E+00 0.  1.
</event>
<event>
 5   0  0.1092116E-06  0.3734079E+04  0.7818609E-02  0.8060451E-01
        2   -1    0    0  501    0  0.00000000000E+00  0.00000000000E+00  0.26617797224E+04  0.26617797224E+04  0.25500000920E-02 0.  1.
       -2   -1    0    0    0  501  0.00000000000E+00  0.00000000000E+00 -0.13095884326E+04  0.13095884326E+04  0.25500000920E-02 0. -1.
    10030    2    1    2    0    0  0.00000000000E+00  0.00000000000E+00  0.13521912898E+04  0.39713681550E+04  0.37340787000E+04 0.  0.
        1    1    3    3  502    0  0.30984319284E+03  0.26223943198E+03 -0.12620895823E+04  0.13257610787E+04  0.50400001928E-02 0. -1.
       -1    1    3    3    0  502 -0.30984319284E+03 -0.26223943198E+03  0.26142808721E+04  0.26456070763E+04  0.50400001928E-02 0.  1.
</event>
<event>
 5   0  0.1092116E-06  0.3526322E+04  0.7818609E-02  0.8107580E-01
        2   -1    0    0  501    0  0.00000000000E+00  0.00000000000E+00  0.16762642777E+04  0.16762642777E+04  0.25500000920E-02 0. -1.
       -2   -1    0    0    0  501  0.00000000000E+00  0.00000000000E+00 -0.18545620329E+04  0.18545620329E+04  0.25500000920E-02 0.  1.
    10030    2    1    2    0    0  0.00000000000E+00  0.00000000000E+00 -0.17829775518E+03  0.35308263106E+04  0.35263216453E+04 0.  0.
        1    1    3    3  502    0  0.13049217875E+04 -0.95169222808E+03 -0.79729849333E+03  0.18011729112E+04  0.50400001928E-02 0.  1.
       -1    1    3    3    0  502 -0.13049217875E+04  0.95169222808E+03  0.61900073816E+03  0.17296533995E+04  0.50400001928E-02 0. -1.
</event>
<event>
 5   0  0.3682276E-07  0.3812298E+04  0.7818609E-02  0.8043521E-01
       -1   -1    0    0    0  501  0.00000000000E+00  0.00000000000E+00  0.15760816292E+04  0.15760816292E+04  0.50400001928E-02 0.  1.
        1   -1    0    0  501    0  0.00000000000E+00  0.00000000000E+00 -0.23053401968E+04  0.23053401968E+04  0.50400001928E-02 0. -1.
    10030    2    1    2    0    0  0.00000000000E+00  0.00000000000E+00 -0.72925856753E+03  0.38814218260E+04  0.38122981695E+04 0.  0.
        1    1    3    3  502    0  0.68774467717E+03  0.17196219732E+04 -0.82370607952E+03  0.20269642762E+04  0.50400001928E-02 0.  1.
       -1    1    3    3    0  502 -0.68774467717E+03 -0.17196219732E+04  0.94447511991E+02  0.18544575498E+04  0.50400001928E-02 0. -1.
</event>
<event>
 5   0  0.3848431E-07  0.3480860E+04  0.7818609E-02  0.8118341E-01
        1   -1    0    0  501    0  0.00000000000E+00  0.00000000000E+00  0.10715093416E+04  0.10715093416E+04  0.50400001928E-02 0.  1.
       -1   -1    0    0    0  501  0.00000000000E+00  0.00000000000E+00 -0.28269429154E+04  0.28269429154E+04  0.50400001928E-02 0. -1.
    10030    2    1    2    0    0  0.00000000000E+00  0.00000000000E+00 -0.17554335738E+04  0.38984522570E+04  0.34808595157E+04 0.  0.
        2    1    3    3  502    0 -0.14905770014E+04 -0.16411647351E+02  0.12839043882E+03  0.14961862331E+04  0.25500000920E-02 0.  1.
       -2    1    3    3    0  502  0.14905770014E+04  0.16411647351E+02 -0.18838240126E+04  0.24022660239E+04  0.25500000920E-02 0. -1.
</event>
<event>
 5   0  0.1092116E-06  0.3556169E+04  0.7818609E-02  0.8100606E-01
        2   -1    0    0  501    0  0.00000000000E+00  0.00000000000E+00  0.18969184209E+04  0.18969184209E+04  0.25500000920E-02 0. -1.
       -2   -1    0    0    0  501  0.00000000000E+00  0.00000000000E+00 -0.16666950199E+04  0.16666950199E+04  0.25500000920E-02 0.  1.
    10030    2    1    2    0    0  0.00000000000E+00  0.00000000000E+00  0.23022340104E+03  0.35636134408E+04  0.35561689978E+04 0.  0.
        1    1    3    3  502    0  0.12354028842E+04 -0.12642036648E+04  0.30826709975E+03  0.17942853165E+04  0.50400001928E-02 0.  1.
       -1    1    3    3    0  502 -0.12354028842E+04  0.12642036648E+04 -0.78043698707E+02  0.17693281242E+04  0.50400001928E-02 0. -1.
</event>
<event>
 5   0  0.3675819E-07  0.2273854E+04  0.7818609E-02  0.8488302E-01
       -1   -1    0    0    0  501  0.00000000000E+00  0.00000000000E+00  0.71670714403E+03  0.71670714404E+03  0.50400001928E-02 0.  1.
        1   -1    0    0  501    0  0.00000000000E+00  0.00000000000E+00 -0.18035296159E+04  0.18035296159E+04  0.50400001928E-02 0. -1.
    10030    2    1    2    0    0  0.00000000000E+00  0.00000000000E+00 -0.10868224719E+04  0.25202367600E+04  0.22738536103E+04 0.  0.
        5    1    3    3  502    0  0.68431902800E+03 -0.88987817596E+03 -0.74292980103E+03  0.13461584154E+04  0.46999998093E+01 0. -1.
       -5    1    3    3    0  502 -0.68431902800E+03  0.88987817596E+03 -0.34389267088E+03  0.11740783446E+04  0.46999998093E+01 0.  1.
</event>
<event>
 5   0  0.1128530E-06  0.3654634E+04  0.7818609E-02  0.8078091E-01
       -2   -1    0    0    0  501  0.00000000000E+00  0.00000000000E+00  0.16330564085E+04  0.16330564085E+04  0.25500000920E-02 0. -1.
        2   -1    0    0  501    0  0.00000000000E+00  0.00000000000E+00 -0.20446857060E+04  0.20446857060E+04  0.25500000920E-02 0.  1.
    10030    2    1    2    0    0  0.00000000000E+00  0.00000000000E+00 -0.41162929756E+03  0.36777421145E+04  0.36546338233E+04 0.  0.
        5    1    3    3  502    0 -0.39028668176E+03 -0.73602757648E+03  0.14308158094E+04  0.16556920782E+04  0.46999998093E+01 0. -1.
       -5    1    3    3    0  502  0.39028668176E+03  0.73602757648E+03 -0.18424451070E+04  0.20220500363E+04  0.46999998093E+01 0.  1.
</event>
<event>
 5   0  0.3704306E-07  0.3569271E+04  0.7818609E-02  0.8097567E-01
       -1   -1    0    0    0  501  0.00000000000E+00  0.00000000000E+00  0.28307905911E+04  0.28307905911E+04  0.50400001928E-02 0.  1.
        1   -1    0    0  501    0  0.00000000000E+00  0.00000000000E+00 -0.11251004205E+04  0.11251004205E+04  0.50400001928E-02 0. -1.
    10030    2    1    2    0    0  0.00000000000E+00  0.00000000000E+00  0.17056901706E+04  0.39558910117E+04  0.35692708972E+04 0.  0.
        3    1    3    3  502    0 -0.12005126511E+03  0.84987444251E+01  0.28262877692E+04  0.28288490768E+04  0.10100000352E+00 0.  1.
       -3    1    3    3    0  502  0.12005126511E+03 -0.84987444251E+01 -0.11205975985E+04  0.11270419349E+04  0.10100000352E+00 0. -1.
</event>
<event>
 5   0  0.1051123E-06  0.3748113E+04  0.7818609E-02  0.8057382E-01
       -2   -1    0    0    0  501  0.00000000000E+00  0.00000000000E+00  0.13603084935E+04  0.13603084935E+04  0.25500000920E-02 0.  1.
        2   -1    0    0  501    0  0.00000000000E+00  0.00000000000E+00 -0.25818316745E+04  0.25818316745E+04  0.25500000920E-02 0. -1.
    10030    2    1    2    0    0  0.00000000000E+00  0.00000000000E+00 -0.12215231810E+04  0.39421401680E+04  0.37481128882E+04 0.  0.
        2    1    3    3  502    0 -0.27298619210E+03 -0.15479829301E+04  0.46251201619E+03  0.16385023583E+04  0.25500000920E-02 0. -1.
       -2    1    3    3    0  502  0.27298619210E+03  0.15479829301E+04 -0.16840351972E+04  0.23036378097E+04  0.25500000920E-02 0.  1.
</event>
<event>
 5   0  0.3764495E-07  0.3723071E+04  0.7818609E-02  0.8062868E-01
        1   -1    0    0  501    0  0.00000000000E+00  0.00000000000E+00  0.13172539807E+04  0.13172539808E+04  0.50400001928E-02 0.  1.
       -1   -1    0    0    0  501  0.00000000000E+00  0.00000000000E+00 -0.26307111730E+04  0.26307111730E+04  0.50400001928E-02 0. -1.
    10030    2    1    2    0    0  0.00000000000E+00  0.00000000000E+00 -0.13134571922E+04  0.39479651537E+04  0.37230711864E+04 0.  0.
        4    1    3    3  502    0  0.21650842673E+03 -0.81567748369E+03  0.11027482457E+04  0.13886183646E+04  0.12699999809E+01 0.  1.
       -4    1    3    3    0  502 -0.21650842673E+03  0.81567748369E+03 -0.24162054379E+04  0.25593467891E+04  0.12699999809E+01 0. -1.
</event>
<event>
 5   0  0.3490375E-07  0.3663207E+04  0.7818609E-02  0.8076165E-01
       -3   -1    0    0    0  501  0.00000000000E+00  0.00000000000E+00  0.23764143804E+04  0.23764143825E+04  0.10100000352E+00 0.  1.
        3   -1    0    0  501    0  0.00000000000E+00  0.00000000000E+00 -0.14116946547E+04  0.14116946583E+04  0.10100000352E+00 0. -1.
    10030    2    1    2    0    0  0.00000000000E+00  0.00000000000E+00  0.96471972573E+03  0.37881090408E+04  0.36632070588E+04 0.  0.
        2    1    3    3  502    0  0.14602494473E+04  0.10497138774E+04  0.12332760336E+03  0.18026195857E+04  0.25500000920E-02 0. -1.
       -2    1    3    3    0  502 -0.14602494473E+04 -0.10497138774E+04  0.84139212236E+03  0.19854894551E+04  0.25500000920E-02 0.  1.
</event>
<event>
 5   0  0.3704306E-07  0.3647975E+04  0.7818609E-02  0.8079590E-01
        1   -1    0    0  501    0  0.00000000000E+00  0.00000000000E+00  0.16199375330E+04  0.16199375330E+04  0.50400001928E-02 0.  1.
       -1   -1    0    0    0  501  0.00000000000E+00  0.00000000000E+00 -0.20537400398E+04  0.20537400398E+04  0.50400001928E-02 0. -1.
    10030    2    1    2    0    0  0.00000000000E+00  0.00000000000E+00 -0.43380250679E+03  0.36736775727E+04  0.36479750950E+04 0.  0.
        3    1    3    3  502    0  0.15776357543E+03  0.17889619647E+04  0.10418102439E+03  0.17989241098E+04  0.10100000352E+00 0.  1.
       -3    1    3    3    0  502 -0.15776357543E+03 -0.17889619647E+04 -0.53798353118E+03  0.18747534629E+04  0.10100000352E+00 0. -1.
</event>
<event>
 5   0  0.3848431E-07  0.3103340E+04  0.7818609E-02  0.8214822E-01
       -1   -1    0    0    0  501  0.00000000000E+00  0.00000000000E+00  0.12293398920E+04  0.12293398920E+04  0.50400001928E-02 0. -1.
        1   -1    0    0  501    0  0.00000000000E+00  0.00000000000E+00 -0.19585149542E+04  0.19585149542E+04  0.50400001928E-02 0.  1.
    10030    2    1    2    0    0  0.00000000000E+00  0.00000000000E+00 -0.72917506221E+03  0.31878548462E+04  0.31033404984E+04 0.  0.
        2    1    3    3  502    0 -0.14116087722E+04  0.62812150709E+03 -0.21749356639E+03  0.15602818351E+04  0.25500000920E-02 0. -1.
       -2    1    3    3    0  502  0.14116087722E+04 -0.62812150709E+03 -0.51168149582E+03  0.16275730111E+04  0.25500000920E-02 0.  1.
</event>
<event>
 5   0  0.1128166E-06  0.3716688E+04  0.7818609E-02  0.8064274E-01
        2   -1    0    0  501    0  0.00000000000E+00  0.00000000000E+00  0.28737980438E+04  0.28737980438E+04  0.25500000920E-02 0. -1.
       -2   -1    0    0    0  501  0.00000000000E+00  0.00000000000E+00 -0.12016999309E+04  0.12016999309E+04  0.25500000920E-02 0.  1.
    10030    2    1    2    0    0  0.00000000000E+00  0.00000000000E+00  0.16720981129E+04  0.40754979748E+04  0.37166882629E+04 0.  0.
        3    1    3    3  502    0 -0.11674928947E+04  0.10005179922E+04  0.19805381298E+04  0.25073107518E+04  0.10100000352E+00 0. -1.
       -3    1    3    3    0  502  0.11674928947E+04 -0.10005179922E+04 -0.30844001694E+03  0.15681872230E+04  0.10100000352E+00 0.  1.
</event>
<event>
 5   0  0.1092116E-06  0.3553285E+04  0.7818609E-02  0.8101277E-01
        2   -1    0    0  501    0  0.00000000000E+00  0.00000000000E+00  0.22977661061E+04  0.22977661061E+04  0.25500000920E-02 0. -1.
       -2   -1    0    0    0  501  0.00000000000E+00  0.00000000000E+00 -0.13737073262E+04  0.13737073262E+04  0.25500000920E-02 0.  1.
    10030    2    1    2    0    0  0.00000000000E+00  0.00000000000E+00  0.92405877990E+03  0.36714734322E+04  0.35532847529E+04 0.  0.
        1    1    3    3  502    0  0.15146053151E+04 -0.86403108551E+03  0.81376232829E+03  0.19242630029E+04  0.50400001928E-02 0. -1.
       -1    1    3    3    0  502 -0.15146053151E+04  0.86403108551E+03  0.11029645162E+03  0.17472104294E+04  0.50400001928E-02 0.  1.
</event>
<event>
 5   0  0.3848431E-07  0.3702951E+04  0.7818609E-02  0.8067308E-01
       -1   -1    0    0    0  501  0.00000000000E+00  0.00000000000E+00  0.14874352803E+04  0.14874352803E+04  0.50400001928E-02 0. -1.
        1   -1    0    0  501    0  0.00000000000E+00  0.00000000000E+00 -0.23046125374E+04  0.23046125374E+04  0.50400001928E-02 0.  1.
    10030    2    1    2    0    0  0.00000000000E+00  0.00000000000E+00 -0.81717725713E+03  0.37920478177E+04  0.37029512530E+04 0.  0.
        2    1    3    3  502    0 -0.86412942968E+03 -0.61510768844E+03  0.11454504021E+04  0.15611322056E+04  0.25500000920E-02 0. -1.
       -2    1    3    3    0  502  0.86412942968E+03  0.61510768844E+03 -0.19626276592E+04  0.22309156121E+04  0.25500000920E-02 0.  1.
</event>
<event>
 5   0  0.3764495E-07  0.3037512E+04  0.7818609E-02  0.8233099E-01
       -1   -1    0    0    0  501  0.00000000000E+00  0.00000000000E+00  0.14450579044E+04  0.14450579044E+04  0.50400001928E-02 0.  1.
        1   -1    0    0  501    0  0.00000000000E+00  0.00000000000E+00 -0.15962128399E+04  0.15962128399E+04  0.50400001928E-02 0. -1.
    10030    2    1    2    0    0  0.00000000000E+00  0.00000000000E+00 -0.15115493547E+03  0.30412707443E+04  0.30375121276E+04 0.  0.
        4    1    3    3  502    0  0.41645059877E+03  0.49625475604E+03  0.12997738032E+04  0.14522787048E+04  0.12699999809E+01 0.  1.
       -4    1    3    3    0  502 -0.41645059877E+03 -0.49625475604E+03 -0.14509287386E+04  0.15889920395E+04  0.12699999809E+01 0. -1.
</event>
<event>
 5   0  0.3704306E-07  0.3708618E+04  0.7818609E-02  0.8066055E-01
        1   -1    0    0  501    0  0.00000000000E+00  0.00000000000E+00  0.20292822992E+04  0.20292822992E+04  0.50400001928E-02 0.  1.
       -1   -1    0    0    0  501  0.00000000000E+00  0.00000000000E+00 -0.16944225742E+04  0.16944225742E+04  0.50400001928E-02 0. -1.
    10030    2    1    2    0    0  0.00000000000E+00  0.00000000000E+00  0.33485972496E+03  0.37237048734E+04  0.37086179298E+04 0.  0.
        3    1    3    3  502    0  0.50703219632E+02 -0.18334918507E+04 -0.10607235481E+03  0.18372573411E+04  0.10100000352E+00 0. -1.
       -3    1    3    3    0  502 -0.50703219632E+02  0.18334918507E+04  0.44093207978E+03  0.18864475323E+04  0.10100000352E+00 0.  1.
</event>
<event>
 5   0  0.3764495E-07  0.3878779E+04  0.7818609E-02  0.8029457E-01
       -1   -1    0    0    0  501  0.00000000000E+00  0.00000000000E+00  0.14259548535E+04  0.14259548535E+04  0.50400001928E-02 0. -1.
        1   -1    0    0  501    0  0.00000000000E+00  0.00000000000E+00 -0.26376935393E+04  0.26376935393E+04  0.50400001928E-02 0.  1.
    10030    2    1    2    0    0  0.00000000000E+00  0.00000000000E+00 -0.12117386858E+04  0.40636483928E+04  0.38787791401E+04 0.  0.
        4    1    3    3  502    0  0.88529068091E+03  0.17499689446E+03 -0.24043315848E+04  0.25681073742E+04  0.12699999809E+01 0.  1.
       -4    1    3    3    0  502 -0.88529068091E+03 -0.17499689446E+03  0.11925928990E+04  0.14955410186E+04  0.12699999809E+01 0. -1.
</event>
<event>
 5   0  0.1051123E-06  0.3652887E+04  0.7818609E-02  0.8078484E-01
        2   -1    0    0  501    0  0.00000000000E+00  0.00000000000E+00  0.25033563972E+04  0.25033563972E+04  0.25500000920E-02 0. -1.
       -2   -1    0    0    0  501  0.00000000000E+00  0.00000000000E+00 -0.13325690381E+04  0.13325690381E+04  0.25500000920E-02 0.  1.
    10030    2    1    2    0    0  0.00000000000E+00  0.00000000000E+00  0.11707873590E+04  0.38359254353E+04  0.36528866538E+04 0.  0.
        2    1    3    3  502    0 -0.16506948053E+04  0.40845042523E+02  0.14051733536E+04  0.21681729201E+04  0.25500000920E-02 0.  1.
       -2    1    3    3    0  502  0.16506948053E+04 -0.40845042523E+02 -0.23438599456E+03  0.16677525153E+04  0.25500000920E-02 0. -1.
</event>
<event>
 5   0  0.1092116E-06  0.2729977E+04  0.7818609E-02  0.8325343E-01
       -2   -1    0    0    0  501  0.00000000000E+00  0.00000000000E+00  0.11910317731E+04  0.11910317731E+04  0.25500000920E-02 0. -1.
        2   -1    0    0  501    0  0.00000000000E+00  0.00000000000E+00 -0.15643528938E+04  0.15643528938E+04  0.25500000920E-02 0.  1.
    10030    2    1    2    0    0  0.00000000000E+00  0.00000000000E+00 -0.37332112073E+03  0.27553846669E+04  0.27299772899E+04 0.  0.
        1    1    3    3  502    0  0.12260212787E+04  0.57096618747E+03 -0.38004041309E+00  0.13524535879E+04  0.50400001928E-02 0. -1.
       -1    1    3    3    0  502 -0.12260212787E+04 -0.57096618747E+03 -0.37294108032E+03  0.14029310790E+04  0.50400001928E-02 0.  1.
</event>
<event>
 5   0  0.3682276E-07  0.3303215E+04  0.7818609E-02  0.8162078E-01
       -1   -1    0    0    0  501  0.00000000000E+00  0.00000000000E+00  0.19215252485E+04  0.19215252485E+04  0.50400001928E-02 0. -1.
        1   -1    0    0  501    0  0.00000000000E+00  0.00000000000E+00 -0.14196052763E+04  0.14196052763E+04  0.50400001928E-02 0.  1.
    10030    2    1    2    0    0  0.00000000000E+00  0.00000000000E+00  0.50191997221E+03  0.33411305249E+04  0.33032150287E+04 0.  0.
        1    1    3    3  502    0  0.57594467091E+03  0.15434094996E+04  0.37056375852E+03  0.16885326904E+04  0.50400001928E-02 0. -1.
       -1    1    3    3    0  502 -0.57594467091E+03 -0.15434094996E+04  0.13135621370E+03  0.16525978344E+04  0.50400001928E-02 0.  1.
</event>
<event>
 5   0  0.1051123E-06  0.2602921E+04  0.7818609E-02  0.8367210E-01
       -2   -1    0    0    0  501  0.00000000000E+00  0.00000000000E+00  0.14085540778E+04  0.14085540778E+04  0.25500000920E-02 0. -1.
        2   -1    0    0  501    0  0.00000000000E+00  0.00000000000E+00 -0.12025093421E+04  0.12025093421E+04  0.25500000920E-02 0.  1.
    10030    2    1    2    0    0  0.00000000000E+00  0.00000000000E+00  0.20604473566E+03  0.26110634199E+04  0.26029210034E+04 0.  0.
        2    1    3    3  502    0 -0.18341250656E+03 -0.18066132953E+02  0.13953975740E+04  0.14075158692E+04  0.25500000920E-02 0. -1.
       -2    1    3    3    0  502  0.18341250656E+03  0.18066132953E+02 -0.11893528383E+04  0.12035475507E+04  0.25500000920E-02 0.  1.
</event>
<event>
 5   0  0.3704306E-07  0.3649557E+04  0.7818609E-02  0.8079234E-01
       -1   -1    0    0    0  501  0.00000000000E+00  0.00000000000E+00  0.23788811677E+04  0.23788811677E+04  0.50400001928E-02 0. -1.
        1   -1    0    0  501    0  0.00000000000E+00  0.00000000000E+00 -0.13997403807E+04  0.13997403807E+04  0.50400001928E-02 0.  1.
    10030    2    1    2    0    0  0.00000000000E+00  0.00000000000E+00  0.97914078707E+03  0.37786215484E+04  0.36495567025E+04 0.  0.
        3    1    3    3  502    0 -0.17742403775E+04  0.42578214740E+03  0.46427978487E+03  0.18827573086E+04  0.10100000352E+00 0. -1.
       -3    1    3    3    0  502  0.17742403775E+04 -0.42578214740E+03  0.51486100220E+03  0.18958642398E+04  0.10100000352E+00 0.  1.
</event>
<event>
 5   0  0.1092116E-06  0.3629124E+04  0.7818609E-02  0.8083853E-01
       -2   -1    0    0    0  501  0.00000000000E+00  0.00000000000E+00  0.12252405778E+04  0.12252405778E+04  0.25500000920E-02 0. -1.
        2   -1    0    0  501    0  0.00000000000E+00  0.00000000000E+00 -0.26873380541E+04  0.26873380541E+04  0.25500000920E-02 0.  1.
    10030    2    1    2    0    0  0.00000000000E+00  0.00000000000E+00 -0.14620974762E+04  0.39125786319E+04  0.36291242085E+04 0.  0.
        1    1    3    3  502    0 -0.15174212461E+04 -0.48781448080E+03 -0.16660250477E+04  0.23056820391E+04  0.50400001928E-02 0.  1.
       -1    1    3    3    0  502  0.15174212461E+04  0.48781448080E+03  0.20392757149E+03  0.16068965928E+04  0.50400001928E-02 0. -1.
</event>
<event>
 5   0  0.3704306E-07  0.3508513E+04  0.7818609E-02  0.8111775E-01
       -1   -1    0    0    0  501  0.00000000000E+00  0.00000000000E+00  0.12183604085E+04  0.12183604085E+04  0.50400001928E-02 0. -1.
        1   -1    0    0  501    0  0.00000000000E+00  0.00000000000E+00 -0.25258666803E+04  0.25258666803E+04  0.50400001928E-02 0.  1.
    10030    2    1    2    0    0  0.00000000000E+00  0.00000000000E+00 -0.13075062718E+04  0.37442270889E+04  0.35085130529E+04 0.  0.
        3    1    3    3  502    0  0.97591380149E+02  0.11837603041E+04  0.72394863973E+03  0.13910119260E+04  0.10100000352E+00 0. -1.
       -3    1    3    3    0  502 -0.97591380149E+02 -0.11837603041E+04 -0.20314549115E+04  0.23532151629E+04  0.10100000352E+00 0.  1.
</event>
<event>
 5   0  0.1128530E-06  0.3349415E+04  0.7818609E-02  0.8150434E-01
       -2   -1    0    0    0  501  0.00000000000E+00  0.00000000000E+00  0.14696440589E+04  0.14696440589E+04  0.25500000920E-02 0.  1.
        2   -1    0    0  501    0  0.00000000000E+00  0.00000000000E+00 -0.19083838756E+04  0.19083838756E+04  0.25500000920E-02 0. -1.
    10030    2    1    2    0    0  0.00000000000E+00  0.00000000000E+00 -0.43873981670E+03  0.33780279344E+04  0.33494148890E+04 0.  0.
        5    1    3    3  502    0  0.10962392980E+04 -0.10720027907E+04  0.45995105954E+03  0.16007834485E+04  0.46999998093E+01 0.  1.
       -5    1    3    3    0  502 -0.10962392980E+04  0.10720027907E+04 -0.89869087625E+03  0.17772444859E+04  0.46999998093E+01 0. -1.
</event>
<event>
 5   0  0.1092116E-06  0.3085203E+04  0.7818609E-02  0.8219811E-01
        2   -1    0    0  501    0  0.00000000000E+00  0.00000000000E+00  0.18037896075E+04  0.18037896075E+04  0.25500000920E-02 0. -1.
       -2   -1    0    0    0  501  0.00000000000E+00  0.00000000000E+00 -0.13192329236E+04  0.13192329236E+04  0.25500000920E-02 0.  1.
    10030    2    1    2    0    0  0.00000000000E+00  0.00000000000E+00  0.48455668391E+03  0.31230225311E+04  0.30852025136E+04 0.  0.
        1    1    3    3  502    0 -0.37376364970E+03 -0.44648380704E+03  0.16882752289E+04  0.17858668216E+04  0.50400001928E-02 0. -1.
       -1    1    3    3    0  502  0.37376364970E+03  0.44648380704E+03 -0.12037185450E+04  0.13371557095E+04  0.50400001928E-02 0.  1.
</event>
<event>
 5   0  0.3848431E-07  0.2559319E+04  0.7818609E-02  0.8382152E-01
       -1   -1    0    0    0  501  0.00000000000E+00  0.00000000000E+00  0.11472467529E+04  0.11472467530E+04  0.50400001928E-02 0. -1.
        1   -1    0    0  501    0  0.00000000000E+00  0.00000000000E+00 -0.14273553297E+04  0.14273553297E+04  0.50400001928E-02 0.  1.
    10030    2    1    2    0    0  0.00000000000E+00  0.00000000000E+00 -0.28010857676E+03  0.25746020827E+04  0.25593192590E+04 0.  0.
        2    1    3    3  502    0  0.38896882323E+03 -0.43386421413E+03 -0.12861528604E+04  0.14119929469E+04  0.25500000920E-02 0.  1.
       -2    1    3    3    0  502 -0.38896882323E+03  0.43386421413E+03  0.10060442837E+04  0.11626091357E+04  0.25500000920E-02 0. -1.
</event>
<event>
 5   0  0.1051123E-06  0.3807545E+04  0.7818609E-02  0.8044538E-01
       -2   -1    0    0    0  501  0.00000000000E+00  0.00000000000E+00  0.15855673841E+04  0.15855673841E+04  0.25500000920E-02 0. -1.
        2   -1    0    0  501    0  0.00000000000E+00  0.00000000000E+00 -0.22858372742E+04  0.22858372742E+04  0.25500000920E-02 0.  1.
    10030    2    1    2    0    0  0.00000000000E+00  0.00000000000E+00 -0.70026989008E+03  0.38714046582E+04  0.38075446299E+04 0.  0.
        2    1    3    3  502    0  0.12546663107E+04 -0.41663831542E+03  0.10427216728E+04  0.16837587487E+04  0.25500000920E-02 0. -1.
       -2    1    3    3    0  502 -0.12546663107E+04  0.41663831542E+03 -0.17429915629E+04  0.21876459095E+04  0.25500000920E-02 0.  1.
</event>
<event>
 5   0  0.1092116E-06  0.2922664E+04  0.7818609E-02  0.8266166E-01
       -2   -1    0    0    0  501  0.00000000000E+00  0.00000000000E+00  0.15969843877E+04  0.15969843877E+04  0.25500000920E-02 0.  1.
        2   -1    0    0  501    0  0.00000000000E+00  0.00000000000E+00 -0.13372027225E+04  0.13372027225E+04  0.25500000920E-02 0. -1.
    10030    2    1    2    0    0  0.00000000000E+00  0.00000000000E+00  0.25978166522E+03  0.29341871102E+04  0.29226644495E+04 0.  0.
        1    1    3    3  502    0  0.67764895155E+03  0.10088711846E+04 -0.68476550044E+03  0.13949670101E+04  0.50400001928E-02 0. -1.
       -1    1    3    3    0  502 -0.67764895155E+03 -0.10088711846E+04  0.94454716566E+03  0.15392201002E+04  0.50400001928E-02 0.  1.
</event>
<event>
 5   0  0.3848431E-07  0.3157093E+04  0.7818609E-02  0.8200242E-01
        1   -1    0    0  501    0  0.00000000000E+00  0.00000000000E+00  0.18231216570E+04  0.18231216570E+04  0.50400001928E-02 0. -1.
       -1   -1    0    0    0  501  0.00000000000E+00  0.00000000000E+00 -0.13667816434E+04  0.13667816434E+04  0.50400001928E-02 0.  1.
    10030    2    1    2    0    0  0.00000000000E+00  0.00000000000E+00  0.45634001367E+03  0.31899033004E+04  0.31570931025E+04 0.  0.
        2    1    3    3  502    0 -0.11288385801E+04 -0.45128189987E+03  0.12455491566E+04  0.17404955026E+04  0.25500000920E-02 0. -1.
       -2    1    3    3    0  502  0.11288385801E+04  0.45128189987E+03 -0.78920914290E+03  0.14494077978E+04  0.25500000920E-02 0.  1.
</event>
<event>
 5   0  0.3764495E-07  0.3547686E+04  0.7818609E-02  0.8102581E-01
       -1   -1    0    0    0  501  0.00000000000E+00  0.00000000000E+00  0.13207828775E+04  0.13207828775E+04  0.50400001928E-02 0.  1.
        1   -1    0    0  501    0  0.00000000000E+00  0.00000000000E+00 -0.23823140822E+04  0.23823140822E+04  0.50400001928E-02 0. -1.
    10030    2    1    2    0    0  0.00000000000E+00  0.00000000000E+00 -0.10615312047E+04  0.37030969597E+04  0.35476863721E+04 0.  0.
        4    1    3    3  502    0  0.26241415044E+02  0.11136041639E+04 -0.19717154374E+04  0.22646117161E+04  0.12699999809E+01 0. -1.
       -4    1    3    3    0  502 -0.26241415044E+02 -0.11136041639E+04  0.91018423275E+03  0.14384852436E+04  0.12699999809E+01 0.  1.
</event>
<event>
 5   0  0.1128530E-06  0.3757113E+04  0.7818609E-02  0.8055421E-01
        2   -1    0    0  501    0  0.00000000000E+00  0.00000000000E+00  0.24755108213E+04  0.24755108213E+04  0.25500000920E-02 0.  1.
       -2   -1    0    0    0  501  0.00000000000E+00  0.00000000000E+00 -0.14255544065E+04  0.14255544065E+04  0.25500000920E-02 0. -1.
    10030    2    1    2    0    0  0.00000000000E+00  0.00000000000E+00  0.10499564148E+04  0.39010652278E+04  0.37571134450E+04 0.  0.
        5    1    3    3  502    0 -0.10576706508E+04  0.19333453129E+03 -0.10744668912E+04  0.15200482351E+04  0.46999998093E+01 0. -1.
       -5    1    3    3    0  502  0.10576706508E+04 -0.19333453129E+03  0.21244233060E+04  0.23810169927E+04  0.46999998093E+01 0.  1.
</event>
<event>
 5   0  0.3675819E-07  0.3658872E+04  0.7818609E-02  0.8077138E-01
        1   -1    0    0  501    0  0.00000000000E+00  0.00000000000E+00  0.20690962479E+04  0.20690962479E+04  0.50400001928E-02 0.  1.
       -1   -1    0    0    0  501  0.00000000000E+00  0.00000000000E+00 -0.16175349990E+04  0.16175349990E+04  0.50400001928E-02 0. -1.
    10030    2    1    2    0    0  0.00000000000E+00  0.00000000000E+00  0.45156124889E+03  0.36866312469E+04  0.36588717372E+04 0.  0.
        5    1    3    3  502    0 -0.87254275310E+03  0.42961511936E+03  0.17870245842E+04  0.20345463773E+04  0.46999998093E+01 0.  1.
       -5    1    3    3    0  502  0.87254275310E+03 -0.42961511936E+03 -0.13354633353E+04  0.16520848697E+04  0.46999998093E+01 0. -1.
</event>
<event>
 5   0  0.3704306E-07  0.3642441E+04  0.7818609E-02  0.8080839E-01
        1   -1    0    0  501    0  0.00000000000E+00  0.00000000000E+00  0.21933489254E+04  0.21933489254E+04  0.50400001928E-02 0. -1.
       -1   -1    0    0    0  501  0.00000000000E+00  0.00000000000E+00 -0.15122280460E+04  0.15122280460E+04  0.50400001928E-02 0.  1.
    10030    2    1    2    0    0  0.00000000000E+00  0.00000000000E+00  0.68112087939E+03  0.37055769714E+04  0.36424408078E+04 0.  0.
        3    1    3    3  502    0  0.16455234968E+04  0.27809192614E+03  0.10824198298E+04  0.19891494152E+04  0.10100000352E+00 0. -1.
       -3    1    3    3    0  502 -0.16455234968E+04 -0.27809192614E+03 -0.40129895041E+03  0.17164275562E+04  0.10100000352E+00 0.  1.
</event>
<event>
 5   0  0.1128166E-06  0.3682159E+04  0.7818609E-02  0.8071927E-01
        2   -1    0    0  501    0  0.00000000000E+00  0.00000000000E+00  0.15087501296E+04  0.15087501297E+04  0.25500000920E-02 0.  1.
       -2   -1    0    0    0  501  0.00000000000E+00  0.00000000000E+00 -0.22466107070E+04  0.22466107070E+04  0.25500000920E-02 0. -1.
    10030    2    1    2    0    0  0.00000000000E+00  0.00000000000E+00 -0.73786057739E+03  0.37553608367E+04  0.36821592554E+04 0.  0.
        3    1    3    3  502    0 -0.27092458632E+03 -0.94488555556E+03 -0.19565941191E+04  0.21896276856E+04  0.10100000352E+00 0. -1.
       -3    1    3    3    0  502  0.27092458632E+03  0.94488555556E+03  0.12187335417E+04  0.15657331511E+04  0.10100000352E+00 0.  1.
</event>
<event>
 5   0  0.1128530E-06  0.3676609E+04  0.7818609E-02  0.8073165E-01
        2   -1    0    0  501    0  0.00000000000E+00  0.00000000000E+00  0.20802390752E+04  0.20802390752E+04  0.25500000920E-02 0.  1.
       -2   -1    0    0    0  501  0.00000000000E+00  0.00000000000E+00 -0.16245076715E+04  0.16245076715E+04  0.25500000920E-02 0. -1.
    10030    2    1    2    0    0  0.00000000000E+00  0.00000000000E+00  0.45573140367E+03  0.37047467467E+04  0.36766094904E+04 0.  0.
        5    1    3    3  502    0 -0.17451656501E+04  0.18645378753E+03  0.77883550121E+03  0.19201497309E+04  0.46999998093E+01 0. -1.
       -5    1    3    3    0  502  0.17451656501E+04 -0.18645378753E+03 -0.32310409753E+03  0.17845970158E+04  0.46999998093E+01 0.  1.
</event>
<event>
 5   0  0.3675819E-07  0.3883562E+04  0.7818609E-02  0.8028457E-01
        1   -1    0    0  501    0  0.00000000000E+00  0.00000000000E+00  0.24328660991E+04  0.24328660991E+04  0.50400001928E-02 0. -1.
       -1   -1    0    0    0  501  0.00000000000E+00  0.00000000000E+00 -0.15498236933E+04  0.15498236933E+04  0.50400001928E-02 0.  1.
    10030    2    1    2    0    0  0.00000000000E+00  0.00000000000E+00  0.88304240579E+03  0.39826897925E+04  0.38835620367E+04 0.  0.
        5    1    3    3  502    0 -0.18143059096E+04 -0.68056344567E+03  0.31335562538E+03  0.19629280107E+04  0.46999998093E+01 0.  1.
       -5    1    3    3    0  502  0.18143059096E+04  0.68056344567E+03  0.56968678041E+03  0.20197617818E+04  0.46999998093E+01 0. -1.
</event>
<event>
 5   0  0.3848431E-07  0.3588947E+04  0.7818609E-02  0.8093028E-01
        1   -1    0    0  501    0  0.00000000000E+00  0.00000000000E+00  0.11430943330E+04  0.11430943330E+04  0.50400001928E-02 0.  1.
       -1   -1    0    0    0  501  0.00000000000E+00  0.00000000000E+00 -0.28170331442E+04  0.28170331442E+04  0.50400001928E-02 0. -1.
    10030    2    1    2    0    0  0.00000000000E+00  0.00000000000E+00 -0.16739388112E+04  0.39601274772E+04  0.35889467107E+04 0.  0.
        2    1    3    3  502    0  0.54428624931E+03  0.16990251166E+04 -0.10497921467E+04  0.20700235311E+04  0.25500000920E-02 0. -1.
       -2    1    3    3    0  502 -0.54428624931E+03 -0.16990251166E+04 -0.62414666449E+03  0.18901039461E+04  0.25500000920E-02 0.  1.
</event>
<event>
 5   0  0.1066907E-06  0.3756363E+04  0.7818609E-02  0.8055585E-01
        2   -1    0    0  501    0  0.00000000000E+00  0.00000000000E+00  0.16723830969E+04  0.16723830969E+04  0.25500000920E-02 0. -1.
       -2   -1    0    0    0  501  0.00000000000E+00  0.00000000000E+00 -0.21093053041E+04  0.21093053041E+04  0.25500000920E-02 0.  1.
    10030    2    1    2    0    0  0.00000000000E+00  0.00000000000E+00 -0.43692220722E+03  0.37816884010E+04  0.37563634206E+04 0.  0.
        4    1    3    3  502    0 -0.75711115860E+03  0.76362772670E+03 -0.17687194995E+04  0.20699552875E+04  0.12699999809E+01 0.  1.
       -4    1    3    3    0  502  0.75711115860E+03 -0.76362772670E+03  0.13317972923E+04  0.17117331135E+04  0.12699999809E+01 0. -1.
</event>
<event>
 5   0  0.1128530E-06  0.3729662E+04  0.7818609E-02  0.8061420E-01
       -2   -1    0    0    0  501  0.00000000000E+00  0.00000000000E+00  0.34030955690E+04  0.34030955690E+04  0.25500000920E-02 0.  1.
        2   -1    0    0  501    0  0.00000000000E+00  0.00000000000E+00 -0.10218916226E+04  0.10218916226E+04  0.25500000920E-02 0. -1.
    10030    2    1    2    0    0  0.00000000000E+00  0.00000000000E+00  0.23812039464E+04  0.44249871916E+04  0.37296621042E+04 0.  0.
        5    1    3    3  502    0  0.53883983751E+03 -0.45336885009E+03 -0.85807329545E+03  0.11100466455E+04  0.46999998093E+01 0. -1.
       -5    1    3    3    0  502 -0.53883983751E+03  0.45336885009E+03  0.32392772419E+04  0.33149405461E+04  0.46999998093E+01 0.  1.
</event>
<event>
 5   0  0.3682276E-07  0.3790347E+04  0.7818609E-02  0.8048229E-01
       -1   -1    0    0    0  501  0.00000000000E+00  0.00000000000E+00  0.20204689134E+04  0.20204689134E+04  0.50400001928E-02 0.  1.
        1   -1    0    0  501    0  0.00000000000E+00  0.00000000000E+00 -0.17776483219E+04  0.17776483219E+04  0.50400001928E-02 0. -1.
    10030    2    1    2    0    0  0.00000000000E+00  0.00000000000E+00  0.24282059153E+03  0.37981172353E+04  0.37903473051E+04 0.  0.
        1    1    3    3  502    0  0.11334581712E+04  0.14556769131E+04 -0.31302252077E+03  0.18712845320E+04  0.50400001928E-02 0. -1.
       -1    1    3    3    0  502 -0.11334581712E+04 -0.14556769131E+04  0.55584311231E+03  0.19268327033E+04  0.50400001928E-02 0.  1.
</event>
<event>
 5   0  0.1051123E-06  0.3191526E+04  0.7818609E-02  0.8191059E-01
        2   -1    0    0  501    0  0.00000000000E+00  0.00000000000E+00  0.17251197931E+04  0.17251197931E+04  0.25500000920E-02 0. -1.
       -2   -1    0    0    0  501  0.00000000000E+00  0.00000000000E+00 -0.14761062030E+04  0.14761062030E+04  0.25500000920E-02 0.  1.
    10030    2    1    2    0    0  0.00000000000E+00  0.00000000000E+00  0.24901359013E+03  0.32012259960E+04  0.31915262978E+04 0.  0.
        2    1    3    3  502    0 -0.80018124659E+03 -0.13700984091E+04  0.29531924557E+03  0.16138999767E+04  0.25500000920E-02 0.  1.
       -2    1    3    3    0  502  0.80018124659E+03  0.13700984091E+04 -0.46305655440E+02  0.15873260193E+04  0.25500000920E-02 0. -1.
</event>
<event>
 5   0  0.3848431E-07  0.2840899E+04  0.7818609E-02  0.8290682E-01
       -1   -1    0    0    0  501  0.00000000000E+00  0.00000000000E+00  0.11966609136E+04  0.11966609136E+04  0.50400001928E-02 0. -1.
        1   -1    0    0  501    0  0.00000000000E+00  0.00000000000E+00 -0.16860894413E+04  0.16860894413E+04  0.50400001928E-02 0.  1.
    10030    2    1    2    0    0  0.00000000000E+00  0.00000000000E+00 -0.48942852765E+03  0.28827503549E+04  0.28408993866E+04 0.  0.
        2    1    3    3  502    0 -0.67581469328E+03 -0.10902994364E+04  0.37435431986E+03  0.13362707500E+04  0.25500000920E-02 0. -1.
       -2    1    3    3    0  502  0.67581469328E+03  0.10902994364E+04 -0.86378284751E+03  0.15464796049E+04  0.25500000920E-02 0.  1.
</event>
<event>
 5   0  0.1092116E-06  0.3685845E+04  0.7818609E-02  0.8071106E-01
        2   -1    0    0  501    0  0.00000000000E+00  0.00000000000E+00  0.19754201287E+04  0.19754201287E+04  0.25500000920E-02 0. -1.
       -2   -1    0    0    0  501  0.00000000000E+00  0.00000000000E+00 -0.17193114467E+04  0.17193114467E+04  0.25500000920E-02 0.  1.
    10030    2    1    2    0    0  0.00000000000E+00  0.00000000000E+00  0.25610868194E+03  0.36947315754E+04  0.36858445107E+04 0.  0.
        1    1    3    3  502    0  0.32091407919E+03  0.24913164790E+03  0.19299730525E+04  0.19722698617E+04  0.50400001928E-02 0. -1.
       -1    1    3    3    0  502 -0.32091407919E+03 -0.24913164790E+03 -0.16738643705E+04  0.17224617137E+04  0.50400001928E-02 0.  1.
</event>
<event>
 5   0  0.3704306E-07  0.3702829E+04  0.7818609E-02  0.8067335E-01
        1   -1    0    0  501    0  0.00000000000E+00  0.00000000000E+00  0.12696178144E+04  0.12696178145E+04  0.50400001928E-02 0. -1.
       -1   -1    0    0    0  501  0.00000000000E+00  0.00000000000E+00 -0.26998175172E+04  0.26998175172E+04  0.50400001928E-02 0.  1.
    10030    2    1    2    0    0  0.00000000000E+00  0.00000000000E+00 -0.14301997028E+04  0.39694353317E+04  0.37028294131E+04 0.  0.
        3    1    3    3  502    0 -0.13538492624E+04  0.10746581346E+03 -0.20639814964E+04  0.24707238523E+04  0.10100000352E+00 0.  1.
       -3    1    3    3    0  502  0.13538492624E+04 -0.10746581346E+03  0.63378179362E+03  0.14987114794E+04  0.10100000352E+00 0. -1.
</event>
<event>
 5   0  0.3704306E-07  0.3698172E+04  0.7818609E-02  0.8068367E-01
       -1   -1    0    0    0  501  0.00000000000E+00  0.00000000000E+00  0.17547325656E+04  0.17547325656E+04  0.50400001928E-02 0. -1.
        1   -1    0    0  501    0  0.00000000000E+00  0.00000000000E+00 -0.19485130930E+04  0.19485130930E+04  0.50400001928E-02 0.  1.
    10030    2    1    2    0    0  0.00000000000E+00  0.00000000000E+00 -0.19378052741E+03  0.37032456587E+04  0.36981721858E+04 0.  0.
        3    1    3    3  502    0  0.69602213400E+03 -0.14322188703E+03 -0.18063233065E+04  0.19410726977E+04  0.10100000352E+00 0.  1.
       -3    1    3    3    0  502 -0.69602213400E+03  0.14322188703E+03  0.16125427791E+04  0.17621729610E+04  0.10100000352E+00 0. -1.
</event>
<event>
 5   0  0.1066907E-06  0.3652961E+04  0.7818609E-02  0.8078467E-01
       -2   -1    0    0    0  501  0.00000000000E+00  0.00000000000E+00  0.12676183970E+04  0.12676183970E+04  0.25500000920E-02 0.  1.
        2   -1    0    0  501    0  0.00000000000E+00  0.00000000000E+00 -0.26317306942E+04  0.26317306942E+04  0.25500000920E-02 0. -1.
    10030    2    1    2    0    0  0.00000000000E+00  0.00000000000E+00 -0.13641122972E+04  0.38993490912E+04  0.36529605768E+04 0.  0.
        4    1    3    3  502    0  0.93360714635E+03 -0.14945049009E+04 -0.11949444831E+04  0.21290986668E+04  0.12699999809E+01 0. -1.
       -4    1    3    3    0  502 -0.93360714635E+03  0.14945049009E+04 -0.16916781414E+03  0.17702504243E+04  0.12699999809E+01 0.  1.
</event>
<event>
 5   0  0.1092116E-06  0.3670893E+04  0.7818609E-02  0.8074443E-01
        2   -1    0    0  501    0  0.00000000000E+00  0.00000000000E+00  0.14313845364E+04  0.14313845364E+04  0.25500000920E-02 0.  1.
       -2   -1    0    0    0  501  0.00000000000E+00  0.00000000000E+00 -0.23535696003E+04  0.23535696003E+04  0.25500000920E-02 0. -1.
    10030    2    1    2    0    0  0.00000000000E+00  0.00000000000E+00 -0.92218506388E+03  0.37849541367E+04  0.36708926060E+04 0.  0.
        1    1    3    3  502    0  0.16966070588E+03 -0.26811583227E+03 -0.23250789430E+04  0.23466279947E+04  0.50400001928E-02 0. -1.
       -1    1    3    3    0  502 -0.16966070588E+03  0.26811583227E+03  0.14028938791E+04  0.14383261420E+04  0.50400001928E-02 0.  1.
</event>
<event>
 5   0  0.3848431E-07  0.3606424E+04  0.7818609E-02  0.8089022E-01
       -1   -1    0    0    0  501  0.00000000000E+00  0.00000000000E+00  0.14105271855E+04  0.14105271855E+04  0.50400001928E-02 0. -1.
        1   -1    0    0  501    0  0.00000000000E+00  0.00000000000E+00 -0.23052180389E+04  0.23052180389E+04  0.50400001928E-02 0.  1.
    10030    2    1    2    0    0  0.00000000000E+00  0.00000000000E+00 -0.89469085344E+03  0.37157452244E+04  0.36064235538E+04 0.  0.
        2    1    3    3  502    0  0.11601178045E+04  0.11136638951E+04 -0.12878258540E+04  0.20602465925E+04  0.25500000920E-02 0.  1.
       -2    1    3    3    0  502 -0.11601178045E+04 -0.11136638951E+04  0.39313500059E+03  0.16554986319E+04  0.25500000920E-02 0. -1.
</event>
<event>
 5   0  0.3682276E-07  0.2614847E+04  0.7818609E-02  0.8363175E-01
       -1   -1    0    0    0  501  0.00000000000E+00  0.00000000000E+00  0.13091514045E+04  0.13091514045E+04  0.50400001928E-02 0. -1.
        1   -1    0    0  501    0  0.00000000000E+00  0.00000000000E+00 -0.13056979378E+04  0.13056979378E+04  0.50400001928E-02 0.  1.
    10030    2    1    2    0    0  0.00000000000E+00  0.00000000000E+00  0.34534666746E+01  0.26148493423E+04  0.26148470618E+04 0.  0.
        1    1    3    3  502    0  0.10712212603E+04 -0.37503159073E+03  0.65072083294E+03  0.13082818064E+04  0.50400001928E-02 0. -1.
       -1    1    3    3    0  502 -0.10712212603E+04  0.37503159073E+03 -0.64726736626E+03  0.13065675359E+04  0.50400001928E-02 0.  1.
</event>
<event>
 5   0  0.3675819E-07  0.3875392E+04  0.7818609E-02  0.8030167E-01
        1   -1    0    0  501    0  0.00000000000E+00  0.00000000000E+00  0.19430497386E+04  0.19430497386E+04  0.50400001928E-02 0.  1.
       -1   -1    0    0    0  501  0.00000000000E+00  0.00000000000E+00 -0.19323568612E+04  0.19323568612E+04  0.50400001928E-02 0. -1.
    10030    2    1    2    0    0  0.00000000000E+00  0.00000000000E+00  0.10692877444E+02  0.38754065998E+04  0.38753918481E+04 0.  0.
        5    1    3    3  502    0 -0.76187952344E+03 -0.64327101232E+03 -0.16561006460E+04  0.19331190970E+04  0.46999998093E+01 0. -1.
       -5    1    3    3    0  502  0.76187952344E+03  0.64327101232E+03  0.16667935235E+04  0.19422875028E+04  0.46999998093E+01 0.  1.
</event>
<event>
 5   0  0.1051123E-06  0.3646993E+04  0.7818609E-02  0.8079811E-01
       -2   -1    0    0    0  501  0.00000000000E+00  0.00000000000E+00  0.12039793940E+04  0.12039793940E+04  0.25500000920E-02 0.  1.
        2   -1    0    0  501    0  0.00000000000E+00  0.00000000000E+00 -0.27617915593E+04  0.27617915593E+04  0.25500000920E-02 0. -1.
    10030    2    1    2    0    0  0.00000000000E+00  0.00000000000E+00 -0.15578121653E+04  0.39657709533E+04  0.36469933523E+04 0.  0.
        2    1    3    3  502    0  0.20059826082E+02 -0.87602908792E+03 -0.25178453301E+04  0.26659659536E+04  0.25500000920E-02 0. -1.
       -2    1    3    3    0  502 -0.20059826082E+02  0.87602908792E+03  0.96003316485E+03  0.12998049997E+04  0.25500000920E-02 0.  1.
</event>
<event>
 5   0  0.3764495E-07  0.3710319E+04  0.7818609E-02  0.8065679E-01
        1   -1    0    0  501    0  0.00000000000E+00  0.00000000000E+00  0.17189601773E+04  0.17189601773E+04  0.50400001928E-02 0.  1.
       -1   -1    0    0    0  501  0.00000000000E+00  0.00000000000E+00 -0.20021499110E+04  0.20021499110E+04  0.50400001928E-02 0. -1.
    10030    2    1    2    0    0  0.00000000000E+00  0.00000000000E+00 -0.28318973370E+03  0.37211100884E+04  0.37103185665E+04 0.  0.
        4    1    3    3  502    0 -0.11422145889E+04 -0.14353201803E+04 -0.41955827833E+03  0.18817090500E+04  0.12699999809E+01 0.  1.
       -4    1    3    3    0  502  0.11422145889E+04  0.14353201803E+04  0.13636854463E+03  0.18394010384E+04  0.12699999809E+01 0. -1.
</event>
<event>
 5   0  0.1128530E-06  0.3823306E+04  0.7818609E-02  0.8041172E-01
       -2   -1    0    0    0  501  0.00000000000E+00  0.00000000000E+00  0.16177587968E+04  0.16177587968E+04  0.25500000920E-02 0.  1.
        2   -1    0    0  501    0  0.00000000000E+00  0.00000000000E+00 -0.22589386058E+04  0.22589386058E+04  0.25500000920E-02 0. -1.
    10030    2    1    2    0    0  0.00000000000E+00  0.00000000000E+00 -0.64117980904E+03  0.38766974026E+04  0.38233063183E+04 0.  0.
        5    1    3    3  502    0  0.18229574344E+04  0.12626272480E+03  0.24874887123E+03  0.18441838776E+04  0.46999998093E+01 0. -1.
       -5    1    3    3    0  502 -0.18229574344E+04 -0.12626272480E+03 -0.88992868027E+03  0.20325135250E+04  0.46999998093E+01 0.  1.
</event>
<event>
 5   0  0.3675819E-07  0.3844513E+04  0.7818609E-02  0.8036669E-01
        1   -1    0    0  501    0  0.00000000000E+00  0.00000000000E+00  0.19741369192E+04  0.19741369192E+04  0.50400001928E-02 0.  1.
       -1   -1    0    0    0  501  0.00000000000E+00  0.00000000000E+00 -0.18717399583E+04  0.18717399583E+04  0.50400001928E-02 0. -1.
    10030    2    1    2    0    0  0.00000000000E+00  0.00000000000E+00  0.10239696091E+03  0.38458768775E+04  0.38445134698E+04 0.  0.
        5    1    3    3  502    0  0.10681586051E+04 -0.80417994345E+03  0.14327677962E+04  0.19597228975E+04  0.46999998093E+01 0.  1.
       -5    1    3    3    0  502 -0.10681586051E+04  0.80417994345E+03 -0.13303708353E+04  0.18861539800E+04  0.46999998093E+01 0. -1.
</event>
<event>
 5   0  0.3682276E-07  0.3603741E+04  0.7818609E-02  0.8089635E-01
       -1   -1    0    0    0  501  0.00000000000E+00  0.00000000000E+00  0.12401564505E+04  0.12401564505E+04  0.50400001928E-02 0.  1.
        1   -1    0    0  501    0  0.00000000000E+00  0.00000000000E+00 -0.26180060478E+04  0.26180060478E+04  0.50400001928E-02 0. -1.
    10030    2    1    2    0    0  0.00000000000E+00  0.00000000000E+00 -0.13778495973E+04  0.38581624984E+04  0.36037408829E+04 0.  0.
        1    1    3    3  502    0  0.15274394069E+04  0.31006642829E+03 -0.16569293850E+04  0.22747807188E+04  0.50400001928E-02 0. -1.
       -1    1    3    3    0  502 -0.15274394069E+04 -0.31006642829E+03  0.27907978771E+03  0.15833817795E+04  0.50400001928E-02 0.  1.
</event>
<event>
 5   0  0.1051123E-06  0.3697580E+04  0.7818609E-02  0.8068498E-01
       -2   -1    0    0    0  501  0.00000000000E+00  0.00000000000E+00  0.12413222847E+04  0.12413222847E+04  0.25500000920E-02 0.  1.
        2   -1    0    0  501    0  0.00000000000E+00  0.00000000000E+00 -0.27535344995E+04  0.27535344995E+04  0.25500000920E-02 0. -1.
    10030    2    1    2    0    0  0.00000000000E+00  0.00000000000E+00 -0.15122122148E+04  0.39948567843E+04  0.36975796062E+04 0.  0.
        2    1    3    3  502    0  0.10765680138E+04 -0.70466800610E+03  0.67820812531E+03  0.14544833957E+04  0.25500000920E-02 0.  1.
       -2    1    3    3    0  502 -0.10765680138E+04  0.70466800610E+03 -0.21904203401E+04  0.25403733886E+04  0.25500000920E-02 0. -1.
</event>
<event>
 5   0  0.3675819E-07  0.3537843E+04  0.7818609E-02  0.8104880E-01
       -1   -1    0    0    0  501  0.00000000000E+00  0.00000000000E+00  0.24975501218E+04  0.24975501218E+04  0.50400001928E-02 0. -1.
        1   -1    0    0  501    0  0.00000000000E+00  0.00000000000E+00 -0.12528613563E+04  0.12528613563E+04  0.50400001928E-02 0.  1.
    10030    2    1    2    0    0  0.00000000000E+00  0.00000000000E+00  0.12446887654E+04  0.37504114781E+04  0.35378434296E+04 0.  0.
        5    1    3    3  502    0  0.60499132191E+03  0.14163492321E+03 -0.11333631979E+04  0.12925204754E+04  0.46999998093E+01 0.  1.
       -5    1    3    3    0  502 -0.60499132191E+03 -0.14163492321E+03  0.23780519633E+04  0.24578910027E+04  0.46999998093E+01 0. -1.
</event>
<event>
 5   0  0.1092116E-06  0.2275465E+04  0.7818609E-02  0.8487658E-01
       -2   -1    0    0    0  501  0.00000000000E+00  0.00000000000E+00  0.14484385798E+04  0.14484385798E+04  0.25500000920E-02 0.  1.
        2   -1    0    0  501    0  0.00000000000E+00  0.00000000000E+00 -0.89367592377E+03  0.89367592377E+03  0.25500000920E-02 0. -1.
    10030    2    1    2    0    0  0.00000000000E+00  0.00000000000E+00  0.55476265607E+03  0.23421145036E+04  0.22754645116E+04 0.  0.
        1    1    3    3  502    0  0.37807767511E+03 -0.10862020721E+03 -0.82145273346E+03  0.91078299895E+03  0.50400001928E-02 0. -1.
       -1    1    3    3    0  502 -0.37807767511E+03  0.10862020721E+03  0.13762153895E+04  0.14313315047E+04  0.50400001928E-02 0.  1.
</event>
<event>
 5   0  0.3682276E-07  0.3631065E+04  0.7818609E-02  0.8083413E-01
       -1   -1    0    0    0  501  0.00000000000E+00  0.00000000000E+00  0.18481382350E+04  0.18481382350E+04  0.50400001928E-02 0. -1.
        1   -1    0    0  501    0  0.00000000000E+00  0.00000000000E+00 -0.17835017978E+04  0.17835017978E+04  0.50400001928E-02 0.  1.
    10030    2    1    2    0    0  0.00000000000E+00  0.00000000000E+00  0.64636437219E+02  0.36316400328E+04  0.36310647830E+04 0.  0.
        1    1    3    3  502    0 -0.10021356445E+04  0.94629403229E+03 -0.11495667611E+04  0.17947846622E+04  0.50400001928E-02 0.  1.
       -1    1    3    3    0  502  0.10021356445E+04 -0.94629403229E+03  0.12142031983E+04  0.18368553705E+04  0.50400001928E-02 0. -1.
</event>
<event>
 5   0  0.3848431E-07  0.2583218E+04  0.7818609E-02  0.8373924E-01
       -1   -1    0    0    0  501  0.00000000000E+00  0.00000000000E+00  0.75706407698E+03  0.75706407699E+03  0.50400001928E-02 0. -1.
        1   -1    0    0  501    0  0.00000000000E+00  0.00000000000E+00 -0.22035826725E+04  0.22035826725E+04  0.50400001928E-02 0.  1.
    10030    2    1    2    0    0  0.00000000000E+00  0.00000000000E+00 -0.14465185955E+04  0.29606467495E+04  0.25832175921E+04 0.  0.
        2    1    3    3  502    0 -0.48161087518E+03  0.11642776643E+04 -0.39755123488E+03  0.13211882906E+04  0.25500000920E-02 0. -1.
       -2    1    3    3    0  502  0.48161087518E+03 -0.11642776643E+04 -0.10489673606E+04  0.16394584589E+04  0.25500000920E-02 0.  1.
</event>
<event>
 5   0  0.1066907E-06  0.3634409E+04  0.7818609E-02  0.8082655E-01
       -2   -1    0    0    0  501  0.00000000000E+00  0.00000000000E+00  0.17148939450E+04  0.17148939450E+04  0.25500000920E-02 0. -1.
        2   -1    0    0  501    0  0.00000000000E+00  0.00000000000E+00 -0.19256184934E+04  0.19256184934E+04  0.25500000920E-02 0.  1.
    10030    2    1    2    0    0  0.00000000000E+00  0.00000000000E+00 -0.21072454835E+03  0.36405124384E+04  0.36344086147E+04 0.  0.
        4    1    3    3  502    0 -0.92261538229E+03 -0.24889655329E+03  0.14428924275E+04  0.17306382661E+04  0.12699999809E+01 0. -1.
       -4    1    3    3    0  502  0.92261538229E+03  0.24889655329E+03 -0.16536169759E+04  0.19098741722E+04  0.12699999809E+01 0.  1.
</event>
<event>
 5   0  0.1051123E-06  0.3745467E+04  0.7818609E-02  0.8057960E-01
       -2   -1    0    0    0  501  0.00000000000E+00  0.00000000000E+00  0.20322791080E+04  0.20322791080E+04  0.25500000920E-02 0. -1.
        2   -1    0    0  501    0  0.00000000000E+00  0.00000000000E+00 -0.17257135215E+04  0.17257135215E+04  0.25500000920E-02 0.  1.
    10030    2    1    2    0    0  0.00000000000E+00  0.00000000000E+00  0.30656558654E+03  0.37579926295E+04  0.37454674133E+04 0.  0.
        2    1    3    3  502    0 -0.16310655610E+04 -0.91690731272E+03  0.23124496456E+03  0.18853562311E+04  0.25500000920E-02 0. -1.
       -2    1    3    3    0  502  0.16310655610E+04  0.91690731272E+03  0.75320621983E+02  0.18726363984E+04  0.25500000920E-02 0.  1.
</event>
<event>
 5   0  0.1066907E-06  0.3303569E+04  0.7818609E-02  0.8161988E-01
       -2   -1    0    0    0  501  0.00000000000E+00  0.00000000000E+00  0.94674296096E+03  0.94674296097E+03  0.25500000920E-02 0.  1.
        2   -1    0    0  501    0  0.00000000000E+00  0.00000000000E+00 -0.28818723157E+04  0.28818723157E+04  0.25500000920E-02 0. -1.
    10030    2    1    2    0    0  0.00000000000E+00  0.00000000000E+00 -0.19351293548E+04  0.38286152767E+04  0.33035691785E+04 0.  0.
        4    1    3    3  502    0 -0.38475767118E+03  0.58462011572E+03  0.76641424627E+03  0.10378880262E+04  0.12699999809E+01 0.  1.
       -4    1    3    3    0  502  0.38475767118E+03 -0.58462011572E+03 -0.27015436010E+04  0.27907272505E+04  0.12699999809E+01 0. -1.
</event>
<event>
 5   0  0.3848431E-07  0.2646902E+04  0.7818609E-02  0.8352442E-01
        1   -1    0    0  501    0  0.00000000000E+00  0.00000000000E+00  0.18647590035E+04  0.18647590035E+04  0.50400001928E-02 0. -1.
       -1   -1    0    0    0  501  0.00000000000E+00  0.00000000000E+00 -0.93927524790E+03  0.93927524791E+03  0.50400001928E-02 0.  1.
    10030    2    1    2    0    0  0.00000000000E+00  0.00000000000E+00  0.92548375558E+03  0.28040342514E+04  0.26469015662E+04 0.  0.
        2    1    3    3  502    0  0.19471934182E+03 -0.70503220268E+03  0.16311861295E+04  0.17876672559E+04  0.25500000920E-02 0. -1.
       -2    1    3    3    0  502 -0.19471934182E+03  0.70503220268E+03 -0.70570237392E+03  0.10163669955E+04  0.25500000920E-02 0.  1.
</event>
<event>
 5   0  0.1092116E-06  0.3727004E+04  0.7818609E-02  0.8062004E-01
       -2   -1    0    0    0  501  0.00000000000E+00  0.00000000000E+00  0.13718129623E+04  0.13718129623E+04  0.25500000920E-02 0. -1.
        2   -1    0    0  501    0  0.00000000000E+00  0.00000000000E+00 -0.25314238399E+04  0.25314238399E+04  0.25500000920E-02 0.  1.
    10030    2    1    2    0    0  0.00000000000E+00  0.00000000000E+00 -0.11596108776E+04  0.39032368022E+04  0.37270041785E+04 0.  0.
        1    1    3    3  502    0 -0.11547564205E+04 -0.14510412434E+04 -0.77193864816E+03  0.20086991704E+04  0.50400001928E-02 0.  1.
       -1    1    3    3    0  502  0.11547564205E+04  0.14510412434E+04 -0.38767222948E+03  0.18945376318E+04  0.50400001928E-02 0. -1.
</event>
<event>
 5   0  0.3764495E-07  0.3702918E+04  0.7818609E-02  0.8067316E-01
       -1   -1    0    0    0  501  0.00000000000E+00  0.00000000000E+00  0.28267999394E+04  0.28267999395E+04  0.50400001928E-02 0. -1.
        1   -1    0    0  501    0  0.00000000000E+00  0.00000000000E+00 -0.12126433362E+04  0.12126433362E+04  0.50400001928E-02 0.  1.
    10030    2    1    2    0    0  0.00000000000E+00  0.00000000000E+00  0.16141566033E+04  0.40394432756E+04  0.37029178275E+04 0.  0.
        4    1    3    3  502    0 -0.98152473114E+03 -0.67609925515E+03  0.23526676934E+04  0.26373372726E+04  0.12699999809E+01 0. -1.
       -4    1    3    3    0  502  0.98152473114E+03  0.67609925515E+03 -0.73851109017E+03  0.14021060031E+04  0.12699999809E+01 0.  1.
</event>
<event>
 5   0  0.3848431E-07  0.3535619E+04  0.7818609E-02  0.8105400E-01
        1   -1    0    0  501    0  0.00000000000E+00  0.00000000000E+00  0.13951759278E+04  0.13951759278E+04  0.50400001928E-02 0.  1.
       -1   -1    0    0    0  501  0.00000000000E+00  0.00000000000E+00 -0.22399691020E+04  0.22399691020E+04  0.50400001928E-02 0. -1.
    10030    2    1    2    0    0  0.00000000000E+00  0.00000000000E+00 -0.84479317427E+03  0.36351450298E+04  0.35356193065E+04 0.  0.
        2    1    3    3  502    0  0.14200230160E+04  0.37356290670E+01 -0.15049708965E+04  0.20691584571E+04  0.25500000920E-02 0. -1.
       -2    1    3    3    0  502 -0.14200230160E+04 -0.37356290670E+01  0.66017772227E+03  0.15659865727E+04  0.25500000920E-02 0.  1.
</event>
<event>
 5   0  0.3682276E-07  0.3694089E+04  0.7818609E-02  0.8069273E-01
       -1   -1    0    0    0  501  0.00000000000E+00  0.00000000000E+00  0.26741039484E+04  0.26741039484E+04  0.50400001928E-02 0.  1.
        1   -1    0    0  501    0  0.00000000000E+00  0.00000000000E+00 -0.12757821874E+04  0.12757821874E+04  0.50400001928E-02 0. -1.
    10030    2    1    2    0    0  0.00000000000E+00  0.00000000000E+00  0.13983217610E+04  0.39498861358E+04  0.36940894329E+04 0.  0.
        1    1    3    3  502    0  0.24962592746E+03 -0.12897368901E+04 -0.68914552286E+03  0.14834607851E+04  0.50400001928E-02 0. -1.
       -1    1    3    3    0  502 -0.24962592746E+03  0.12897368901E+04  0.20874672838E+04  0.24664253507E+04  0.50400001928E-02 0.  1.
</event>
<event>
 5   0  0.1066907E-06  0.3722261E+04  0.7818609E-02  0.8063046E-01
        2   -1    0    0  501    0  0.00000000000E+00  0.00000000000E+00  0.21422154347E+04  0.21422154347E+04  0.25500000920E-02 0. -1.
       -2   -1    0    0    0  501  0.00000000000E+00  0.00000000000E+00 -0.16169273015E+04  0.16169273015E+04  0.25500000920E-02 0.  1.
    10030    2    1    2    0    0  0.00000000000E+00  0.00000000000E+00  0.52528813316E+03  0.37591427363E+04  0.37222609377E+04 0.  0.
        4    1    3    3  502    0 -0.17915763699E+04 -0.20018549903E+03  0.72981256626E+03  0.19448516957E+04  0.12699999809E+01 0. -1.
       -4    1    3    3    0  502  0.17915763699E+04  0.20018549903E+03 -0.20452443309E+03  0.18142910406E+04  0.12699999809E+01 0.  1.
</event>
<event>
 5   0  0.3704306E-07  0.3673172E+04  0.7818609E-02  0.8073933E-01
       -1   -1    0    0    0  501  0.00000000000E+00  0.00000000000E+00  0.16092087184E+04  0.16092087184E+04  0.50400001928E-02 0.  1.
        1   -1    0    0  501    0  0.00000000000E+00  0.00000000000E+00 -0.20960914091E+04  0.20960914091E+04  0.50400001928E-02 0. -1.
    10030    2    1    2    0    0  0.00000000000E+00  0.00000000000E+00 -0.48688269063E+03  0.37053001275E+04  0.36731722367E+04 0.  0.
        3    1    3    3  502    0  0.27135546712E+03  0.16757910908E+04 -0.95038419270E+03  0.19455435471E+04  0.10100000352E+00 0.  1.
       -3    1    3    3    0  502 -0.27135546712E+03 -0.16757910908E+04  0.46350150206E+03  0.17597565804E+04  0.10100000352E+00 0. -1.
</event>
<event>
 5   0  0.3675819E-07  0.3728674E+04  0.7818609E-02  0.8061637E-01
       -1   -1    0    0    0  501  0.00000000000E+00  0.00000000000E+00  0.14090746246E+04  0.14090746246E+04  0.50400001928E-02 0. -1.
        1   -1    0    0  501    0  0.00000000000E+00  0.00000000000E+00 -0.24666915055E+04  0.24666915055E+04  0.50400001928E-02 0.  1.
    10030    2    1    2    0    0  0.00000000000E+00  0.00000000000E+00 -0.10576168808E+04  0.38757661301E+04  0.37286739772E+04 0.  0.
        5    1    3    3  502    0 -0.82343076062E+03 -0.16168072963E+04 -0.83387579484E+02  0.18163368711E+04  0.46999998093E+01 0. -1.
       -5    1    3    3    0  502  0.82343076062E+03  0.16168072963E+04 -0.97422930137E+03  0.20594292590E+04  0.46999998093E+01 0.  1.
</event>
<event>
 5   0  0.3704306E-07  0.3642940E+04  0.7818609E-02  0.8080726E-01
       -1   -1    0    0    0  501  0.00000000000E+00  0.00000000000E+00  0.15867028799E+04  0.15867028799E+04  0.50400001928E-02 0.  1.
        1   -1    0    0  501    0  0.00000000000E+00  0.00000000000E+00 -0.20909733559E+04  0.20909733559E+04  0.50400001928E-02 0. -1.
    10030    2    1    2    0    0  0.00000000000E+00  0.00000000000E+00 -0.50427047597E+03  0.36776762358E+04  0.36429402661E+04 0.  0.
        3    1    3    3  502    0  0.47706018307E+03 -0.10529145146E+04  0.11689582541E+04  0.16439826043E+04  0.10100000352E+00 0.  1.
       -3    1    3    3    0  502 -0.47706018307E+03  0.10529145146E+04 -0.16732287301E+04  0.20336936314E+04  0.10100000352E+00 0. -1.
</event>
<event>
 5   0  0.1051123E-06  0.3697669E+04  0.7818609E-02  0.8068479E-01
       -2   -1    0    0    0  501  0.00000000000E+00  0.00000000000E+00  0.16111848568E+04  0.16111848568E+04  0.25500000920E-02 0. -1.
        2   -1    0    0  501    0  0.00000000000E+00  0.00000000000E+00 -0.21215377734E+04  0.21215377734E+04  0.25500000920E-02 0.  1.
    10030    2    1    2    0    0  0.00000000000E+00  0.00000000000E+00 -0.51035291655E+03  0.37327226302E+04  0.36976692841E+04 0.  0.
        2    1    3    3  502    0 -0.99934808724E+01 -0.11991064427E+04  0.11653713194E+04  0.16721382846E+04  0.25500000920E-02 0. -1.
       -2    1    3    3    0  502  0.99934808724E+01  0.11991064427E+04 -0.16757242359E+04  0.20605843457E+04  0.25500000920E-02 0.  1.
</event>
<event>
 5   0  0.1051123E-06  0.3242482E+04  0.7818609E-02  0.8177687E-01
       -2   -1    0    0    0  501  0.00000000000E+00  0.00000000000E+00  0.15633682574E+04  0.15633682574E+04  0.25500000920E-02 0. -1.
        2   -1    0    0  501    0  0.00000000000E+00  0.00000000000E+00 -0.16812565489E+04  0.16812565489E+04  0.25500000920E-02 0.  1.
    10030    2    1    2    0    0  0.00000000000E+00  0.00000000000E+00 -0.11788829143E+03  0.32446248063E+04  0.32424824571E+04 0.  0.
        2    1    3    3  502    0  0.74639127614E+03 -0.14287915556E+04 -0.23191052669E+03  0.16285968620E+04  0.25500000920E-02 0.  1.
       -2    1    3    3    0  502 -0.74639127614E+03  0.14287915556E+04  0.11402223526E+03  0.16160279443E+04  0.25500000920E-02 0. -1.
</event>
<event>
 5   0  0.1066907E-06  0.2390155E+04  0.7818609E-02  0.8443199E-01
        2   -1    0    0  501    0  0.00000000000E+00  0.00000000000E+00  0.15792296206E+04  0.15792296206E+04  0.25500000920E-02 0.  1.
       -2   -1    0    0    0  501  0.00000000000E+00  0.00000000000E+00 -0.90437143232E+03  0.90437143232E+03  0.25500000920E-02 0. -1.
    10030    2    1    2    0    0  0.00000000000E+00  0.00000000000E+00  0.67485818831E+03  0.24836010529E+04  0.23901549355E+04 0.  0.
        4    1    3    3  502    0 -0.82316855017E+03  0.29158806276E+03 -0.51029673828E+03  0.10114516471E+04  0.12699999809E+01 0. -1.
       -4    1    3    3    0  502  0.82316855017E+03 -0.29158806276E+03  0.11851549266E+04  0.14721494059E+04  0.12699999809E+01 0.  1.
</event>
<event>
 5   0  0.3704306E-07  0.4353957E+04  0.7818609E-02  0.7936716E-01
        1   -1    0    0  501    0  0.00000000000E+00  0.00000000000E+00  0.22920470937E+04  0.22920470937E+04  0.50400001928E-02 0.  1.
       -1   -1    0    0    0  501  0.00000000000E+00  0.00000000000E+00 -0.20676869941E+04  0.20676869941E+04  0.50400001928E-02 0. -1.
    10030    2    1    2    0    0  0.00000000000E+00  0.00000000000E+00  0.22436009956E+03  0.43597340878E+04  0.43539572646E+04 0.  0.
        3    1    3    3  502    0  0.32818757708E+03 -0.14378463347E+04 -0.14912336397E+04  0.20973523658E+04  0.10100000352E+00 0. -1.
       -3    1    3    3    0  502 -0.32818757708E+03  0.14378463347E+04  0.17155937392E+04  0.22623817220E+04  0.10100000352E+00 0.  1.
</event>
<event>
 5   0  0.4063257E-07  0.2356810E+04  0.7818609E-02  0.8455853E-01
        1   -1    0    0  501    0  0.00000000000E+00  0.00000000000E+00  0.10529498800E+04  0.10529498801E+04  0.50400001928E-02 0. -1.
       -1   -1    0    0    0  501  0.00000000000E+00  0.00000000000E+00 -0.13188072691E+04  0.13188072691E+04  0.50400001928E-02 0.  1.
    10030    2    1    2    0    0  0.00000000000E+00  0.00000000000E+00 -0.26585738901E+03  0.23717571491E+04  0.23568096705E+04 0.  0.
        4    1    3    3  502    0  0.90641218586E+03  0.36001752211E+03 -0.79851639634E+03  0.12604863010E+04  0.12699999809E+01 0.  1.
       -4    1    3    3    0  502 -0.90641218586E+03 -0.36001752211E+03  0.53265900733E+03  0.11112708481E+04  0.12699999809E+01 0. -1.
</event>
<event>
 5   0  0.1128530E-06  0.3874400E+04  0.7818609E-02  0.8030375E-01
       -2   -1    0    0    0  501  0.00000000000E+00  0.00000000000E+00  0.27746675959E+04  0.27746675959E+04  0.25500000920E-02 0.  1.
        2   -1    0    0  501    0  0.00000000000E+00  0.00000000000E+00 -0.13525024085E+04  0.13525024085E+04  0.25500000920E-02 0. -1.
    10030    2    1    2    0    0  0.00000000000E+00  0.00000000000E+00  0.14221651874E+04  0.41271700044E+04  0.38744003955E+04 0.  0.
        5    1    3    3  502    0  0.16329812448E+03 -0.18953328252E+04  0.11006896089E+04  0.21978381425E+04  0.46999998093E+01 0.  1.
       -5    1    3    3    0  502 -0.16329812448E+03  0.18953328252E+04  0.32147557850E+03  0.19293318619E+04  0.46999998093E+01 0. -1.
</event>
<event>
 5   0  0.3675819E-07  0.3676656E+04  0.7818609E-02  0.8073155E-01
       -1   -1    0    0    0  501  0.00000000000E+00  0.00000000000E+00  0.13071608570E+04  0.13071608570E+04  0.50400001928E-02 0. -1.
        1   -1    0    0  501    0  0.00000000000E+00  0.00000000000E+00 -0.25853357604E+04  0.25853357605E+04  0.50400001928E-02 0.  1.
    10030    2    1    2    0    0  0.00000000000E+00  0.00000000000E+00 -0.12781749034E+04  0.38924966175E+04  0.36766559308E+04 0.  0.
        5    1    3    3  502    0 -0.12225130292E+04  0.41466999398E+03  0.74653883982E+03  0.14912517023E+04  0.46999998093E+01 0. -1.
       -5    1    3    3    0  502  0.12225130292E+04 -0.41466999398E+03 -0.20247137433E+04  0.24012449151E+04  0.46999998093E+01 0.  1.
</event>
<event>
 5   0  0.3764495E-07  0.3412528E+04  0.7818609E-02  0.8134838E-01
       -1   -1    0    0    0  501  0.00000000000E+00  0.00000000000E+00  0.11634083749E+04  0.11634083749E+04  0.50400001928E-02 0.  1.
        1   -1    0    0  501    0  0.00000000000E+00  0.00000000000E+00 -0.25024208912E+04  0.25024208912E+04  0.50400001928E-02 0. -1.
    10030    2    1    2    0    0  0.00000000000E+00  0.00000000000E+00 -0.13390125164E+04  0.36658292661E+04  0.34125283426E+04 0.  0.
        4    1    3    3  502    0 -0.15862923742E+04  0.61874082267E+03 -0.78802276729E+03  0.18762049986E+04  0.12699999809E+01 0. -1.
       -4    1    3    3    0  502  0.15862923742E+04 -0.61874082267E+03 -0.55098974906E+03  0.17896242675E+04  0.12699999809E+01 0.  1.
</event>
<event>
 5   0  0.1128166E-06  0.3869183E+04  0.7818609E-02  0.8031469E-01
        2   -1    0    0  501    0  0.00000000000E+00  0.00000000000E+00  0.26684071828E+04  0.26684071828E+04  0.25500000920E-02 0.  1.
       -2   -1    0    0    0  501  0.00000000000E+00  0.00000000000E+00 -0.14025764874E+04  0.14025764874E+04  0.25500000920E-02 0. -1.
    10030    2    1    2    0    0  0.00000000000E+00  0.00000000000E+00  0.12658306955E+04  0.40709836702E+04  0.38691834660E+04 0.  0.
        3    1    3    3  502    0 -0.95943379327E+03 -0.81003185361E+03  0.21814013855E+04  0.25169777159E+04  0.10100000352E+00 0.  1.
       -3    1    3    3    0  502  0.95943379327E+03  0.81003185361E+03 -0.91557068998E+03  0.15540059543E+04  0.10100000352E+00 0. -1.
</event>
<event>
 5   0  0.3675819E-07  0.3695139E+04  0.7818609E-02  0.8069040E-01
        1   -1    0    0  501    0  0.00000000000E+00  0.00000000000E+00  0.16559925593E+04  0.16559925594E+04  0.50400001928E-02 0.  1.
       -1   -1    0    0    0  501  0.00000000000E+00  0.00000000000E+00 -0.20613094726E+04  0.20613094726E+04  0.50400001928E-02 0. -1.
    10030    2    1    2    0    0  0.00000000000E+00  0.00000000000E+00 -0.40531691321E+03  0.37173020319E+04  0.36951390497E+04 0.  0.
        5    1    3    3  502    0  0.10458441195E+04 -0.32562478808E+03  0.12941060197E+04  0.16954509445E+04  0.46999998093E+01 0.  1.
       -5    1    3    3    0  502 -0.10458441195E+04  0.32562478808E+03 -0.16994229329E+04  0.20218510874E+04  0.46999998093E+01 0. -1.
</event>
<event>
 5   0  0.3675819E-07  0.3643736E+04  0.7818609E-02  0.8080546E-01
        1   -1    0    0  501    0  0.00000000000E+00  0.00000000000E+00  0.10583496289E+04  0.10583496289E+04  0.50400001928E-02 0.  1.
       -1   -1    0    0    0  501  0.00000000000E+00  0.00000000000E+00 -0.31362060461E+04  0.31362060461E+04  0.50400001928E-02 0. -1.
    10030    2    1    2    0    0  0.00000000000E+00  0.00000000000E+00 -0.20778564171E+04  0.41945556750E+04  0.36437357232E+04 0.  0.
        5    1    3    3  502    0  0.91659351486E+03  0.15399263919E+04 -0.14166510439E+04  0.22843903419E+04  0.46999998093E+01 0. -1.
       -5    1    3    3    0  502 -0.91659351486E+03 -0.15399263919E+04 -0.66120537325E+03  0.19101653331E+04  0.46999998093E+01 0.  1.
</event>
<event>
 5   0  0.3704306E-07  0.2580730E+04  0.7818609E-02  0.8374776E-01
        1   -1    0    0  501    0  0.00000000000E+00  0.00000000000E+00  0.18685168095E+04  0.18685168095E+04  0.50400001928E-02 0.  1.
       -1   -1    0    0    0  501  0.00000000000E+00  0.00000000000E+00 -0.89110371740E+03  0.89110371742E+03  0.50400001928E-02 0. -1.
    10030    2    1    2    0    0  0.00000000000E+00  0.00000000000E+00  0.97741309211E+03  0.27596205269E+04  0.25807303424E+04 0.  0.
        3    1    3    3  502    0 -0.11710026102E+04  0.51349923238E+03  0.67426841005E+03  0.14455332835E+04  0.10100000352E+00 0. -1.
       -3    1    3    3    0  502  0.11710026102E+04 -0.51349923238E+03  0.30314468206E+03  0.13140872434E+04  0.10100000352E+00 0.  1.
</event>
<event>
 5   0  0.4461579E-07  0.2373823E+04  0.7818609E-02  0.8449369E-01
        1   -1    0    0  501    0  0.00000000000E+00  0.00000000000E+00  0.12584129440E+04  0.12584129440E+04  0.50400001928E-02 0. -1.
       -1   -1    0    0    0  501  0.00000000000E+00  0.00000000000E+00 -0.11194722760E+04  0.11194722760E+04  0.50400001928E-02 0.  1.
    10030    2    1    2    0    0  0.00000000000E+00  0.00000000000E+00  0.13894066796E+03  0.23778852200E+04  0.23738225734E+04 0.  0.
        2    1    3    3  502    0  0.85214496667E+03  0.69464540658E+03 -0.37859275885E+03  0.11627621262E+04  0.25500000920E-02 0.  1.
       -2    1    3    3    0  502 -0.85214496667E+03 -0.69464540658E+03  0.51753342681E+03  0.12151230938E+04  0.25500000920E-02 0. -1.
</event>
<event>
 5   0  0.3764495E-07  0.3642599E+04  0.7818609E-02  0.8080803E-01
        1   -1    0    0  501    0  0.00000000000E+00  0.00000000000E+00  0.16558215397E+04  0.16558215397E+04  0.50400001928E-02 0. -1.
       -1   -1    0    0    0  501  0.00000000000E+00  0.00000000000E+00 -0.20033149059E+04  0.20033149060E+04  0.50400001928E-02 0.  1.
    10030    2    1    2    0    0  0.00000000000E+00  0.00000000000E+00 -0.34749336625E+03  0.36591364457E+04  0.36425990568E+04 0.  0.
        4    1    3    3  502    0  0.28286718911E+03  0.12972254659E+02  0.16335735493E+04  0.16579343412E+04  0.12699999809E+01 0. -1.
       -4    1    3    3    0  502 -0.28286718911E+03 -0.12972254659E+02 -0.19810669155E+04  0.20012021044E+04  0.12699999809E+01 0.  1.
</event>
<event>
 5   0  0.3764495E-07  0.3774402E+04  0.7818609E-02  0.8051671E-01
        1   -1    0    0  501    0  0.00000000000E+00  0.00000000000E+00  0.16434426152E+04  0.16434426152E+04  0.50400001928E-02 0.  1.
       -1   -1    0    0    0  501  0.00000000000E+00  0.00000000000E+00 -0.21671137850E+04  0.21671137850E+04  0.50400001928E-02 0. -1.
    10030    2    1    2    0    0  0.00000000000E+00  0.00000000000E+00 -0.52367116986E+03  0.38105564002E+04  0.37744017519E+04 0.  0.
        4    1    3    3  502    0 -0.16691066387E+04  0.85970421229E+03 -0.68910287447E+02  0.18787651648E+04  0.12699999809E+01 0.  1.
       -4    1    3    3    0  502  0.16691066387E+04 -0.85970421229E+03 -0.45476088241E+03  0.19317912354E+04  0.12699999809E+01 0. -1.
</event>
<event>
 5   0  0.1128166E-06  0.3639228E+04  0.7818609E-02  0.8081565E-01
       -2   -1    0    0    0  501  0.00000000000E+00  0.00000000000E+00  0.16542963949E+04  0.16542963949E+04  0.25500000920E-02 0.  1.
        2   -1    0    0  501    0  0.00000000000E+00  0.00000000000E+00 -0.20014523312E+04  0.20014523312E+04  0.25500000920E-02 0. -1.
    10030    2    1    2    0    0  0.00000000000E+00  0.00000000000E+00 -0.34715593636E+03  0.36557487261E+04  0.36392281468E+04 0.  0.
        3    1    3    3  502    0  0.38478948193E+03  0.13524478314E+03  0.16077857777E+04  0.16587131199E+04  0.10100000352E+00 0.  1.
       -3    1    3    3    0  502 -0.38478948193E+03 -0.13524478314E+03 -0.19549417141E+04  0.19970356062E+04  0.10100000352E+00 0. -1.
</event>
<event>
 5   0  0.1066907E-06  0.3700910E+04  0.7818609E-02  0.8067760E-01
        2   -1    0    0  501    0  0.00000000000E+00  0.00000000000E+00  0.22285433856E+04  0.22285433856E+04  0.25500000920E-02 0.  1.
       -2   -1    0    0    0  501  0.00000000000E+00  0.00000000000E+00 -0.15365121860E+04  0.15365121860E+04  0.25500000920E-02 0. -1.
    10030    2    1    2    0    0  0.00000000000E+00  0.00000000000E+00  0.69203119966E+03  0.37650555716E+04  0.37009101956E+04 0.  0.
        4    1    3    3  502    0  0.45950768738E+03  0.35738841587E+03 -0.14409333805E+04  0.15540799254E+04  0.12699999809E+01 0. -1.
       -4    1    3    3    0  502 -0.45950768738E+03 -0.35738841587E+03  0.21329645802E+04  0.22109756462E+04  0.12699999809E+01 0.  1.
</event>
<event>
 5   0  0.1066907E-06  0.3606064E+04  0.7818609E-02  0.8089104E-01
        2   -1    0    0  501    0  0.00000000000E+00  0.00000000000E+00  0.17423873302E+04  0.17423873302E+04  0.25500000920E-02 0.  1.
       -2   -1    0    0    0  501  0.00000000000E+00  0.00000000000E+00 -0.18657871390E+04  0.18657871390E+04  0.25500000920E-02 0. -1.
    10030    2    1    2    0    0  0.00000000000E+00  0.00000000000E+00 -0.12339980878E+03  0.36081744692E+04  0.36060637109E+04 0.  0.
        4    1    3    3  502    0 -0.33039574419E+03  0.12022409702E+04 -0.13649128736E+04  0.18486572055E+04  0.12699999809E+01 0. -1.
       -4    1    3    3    0  502  0.33039574419E+03 -0.12022409702E+04  0.12415130648E+04  0.17595172637E+04  0.12699999809E+01 0.  1.
</event>
<event>
 5   0  0.3675819E-07  0.3656087E+04  0.7818609E-02  0.8077764E-01
        1   -1    0    0  501    0  0.00000000000E+00  0.00000000000E+00  0.19123919266E+04  0.19123919266E+04  0.50400001928E-02 0.  1.
       -1   -1    0    0    0  501  0.00000000000E+00  0.00000000000E+00 -0.17474150929E+04  0.17474150930E+04  0.50400001928E-02 0. -1.
    10030    2    1    2    0    0  0.00000000000E+00  0.00000000000E+00  0.16497683366E+03  0.36598070196E+04  0.36560867146E+04 0.  0.
        5    1    3    3  502    0 -0.39504252872E+03  0.83666874337E+03 -0.14957094251E+04  0.17587614847E+04  0.46999998093E+01 0. -1.
       -5    1    3    3    0  502  0.39504252872E+03 -0.83666874337E+03  0.16606862588E+04  0.19010455349E+04  0.46999998093E+01 0.  1.
</event>
<event>
 5   0  0.3704306E-07  0.2810437E+04  0.7818609E-02  0.8300035E-01
       -1   -1    0    0    0  501  0.00000000000E+00  0.00000000000E+00  0.17767062224E+04  0.17767062224E+04  0.50400001928E-02 0. -1.
        1   -1    0    0  501    0  0.00000000000E+00  0.00000000000E+00 -0.11114043681E+04  0.11114043681E+04  0.50400001928E-02 0.  1.
    10030    2    1    2    0    0  0.00000000000E+00  0.00000000000E+00  0.66530185430E+03  0.28881105904E+04  0.28104370168E+04 0.  0.
        3    1    3    3  502    0 -0.16731661358E+02  0.10282375272E+04  0.13167643516E+04  0.16707545388E+04  0.10100000352E+00 0. -1.
       -3    1    3    3    0  502  0.16731661358E+02 -0.10282375272E+04 -0.65146249733E+03  0.12173560517E+04  0.10100000352E+00 0.  1.
</event>
<event>
 5   0  0.1066907E-06  0.3664142E+04  0.7818609E-02  0.8075955E-01
       -2   -1    0    0    0  501  0.00000000000E+00  0.00000000000E+00  0.15394267751E+04  0.15394267751E+04  0.25500000920E-02 0. -1.
        2   -1    0    0  501    0  0.00000000000E+00  0.00000000000E+00 -0.21803465802E+04  0.21803465802E+04  0.25500000920E-02 0.  1.
    10030    2    1    2    0    0  0.00000000000E+00  0.00000000000E+00 -0.64091980506E+03  0.37197733553E+04  0.36641418665E+04 0.  0.
        4    1    3    3  502    0  0.15903514324E+04 -0.64581685132E+03 -0.97064078624E+03  0.19719133431E+04  0.12699999809E+01 0.  1.
       -4    1    3    3    0  502 -0.15903514324E+04  0.64581685132E+03  0.32972098119E+03  0.17478600122E+04  0.12699999809E+01 0. -1.
</event>
<event>
 5   0  0.1128530E-06  0.3652666E+04  0.7818609E-02  0.8078533E-01
        2   -1    0    0  501    0  0.00000000000E+00  0.00000000000E+00  0.19272491522E+04  0.19272491522E+04  0.25500000920E-02 0.  1.
       -2   -1    0    0    0  501  0.00000000000E+00  0.00000000000E+00 -0.17307014400E+04  0.17307014400E+04  0.25500000920E-02 0. -1.
    10030    2    1    2    0    0  0.00000000000E+00  0.00000000000E+00  0.19654771220E+03  0.36579505922E+04  0.36526663592E+04 0.  0.
        5    1    3    3  502    0  0.16952253332E+04  0.76518244712E+02 -0.57785234837E+03  0.17926459211E+04  0.46999998093E+01 0.  1.
       -5    1    3    3    0  502 -0.16952253332E+04 -0.76518244712E+02  0.77440006057E+03  0.18653046710E+04  0.46999998093E+01 0. -1.
</event>
<event>
 5   0  0.3675819E-07  0.3738303E+04  0.7818609E-02  0.8059526E-01
       -1   -1    0    0    0  501  0.00000000000E+00  0.00000000000E+00  0.15942563898E+04  0.15942563898E+04  0.50400001928E-02 0.  1.
        1   -1    0    0  501    0  0.00000000000E+00  0.00000000000E+00 -0.21914461427E+04  0.21914461427E+04  0.50400001928E-02 0. -1.
    10030    2    1    2    0    0  0.00000000000E+00  0.00000000000E+00 -0.59718975288E+03  0.37857025325E+04  0.37383028320E+04 0.  0.
        5    1    3    3  502    0 -0.59619597632E+03 -0.24340230397E+03  0.14783649036E+04  0.16125381242E+04  0.46999998093E+01 0.  1.
       -5    1    3    3    0  502  0.59619597632E+03  0.24340230397E+03 -0.20755546565E+04  0.21731644083E+04  0.46999998093E+01 0. -1.
</event>
<event>
 5   0  0.3704306E-07  0.3690953E+04  0.7818609E-02  0.8069970E-01
        1   -1    0    0  501    0  0.00000000000E+00  0.00000000000E+00  0.13875303549E+04  0.13875303549E+04  0.50400001928E-02 0. -1.
       -1   -1    0    0    0  501  0.00000000000E+00  0.00000000000E+00 -0.24545648532E+04  0.24545648532E+04  0.50400001928E-02 0.  1.
    10030    2    1    2    0    0  0.00000000000E+00  0.00000000000E+00 -0.10670344982E+04  0.38420952081E+04  0.36909528536E+04 0.  0.
        3    1    3    3  502    0  0.17630319631E+03 -0.85340754537E+03 -0.22269074355E+04  0.23913393719E+04  0.10100000352E+00 0.  1.
       -3    1    3    3    0  502 -0.17630319631E+03  0.85340754537E+03  0.11598729372E+04  0.14507558362E+04  0.10100000352E+00 0. -1.
</event>
<event>
 5   0  0.1051123E-06  0.3606446E+04  0.7818609E-02  0.8089017E-01
        2   -1    0    0  501    0  0.00000000000E+00  0.00000000000E+00  0.18402735856E+04  0.18402735856E+04  0.25500000920E-02 0. -1.
       -2   -1    0    0    0  501  0.00000000000E+00  0.00000000000E+00 -0.17669180889E+04  0.17669180889E+04  0.25500000920E-02 0.  1.
    10030    2    1    2    0    0  0.00000000000E+00  0.00000000000E+00  0.73355496708E+02  0.36071916744E+04  0.36064457222E+04 0.  0.
        2    1    3    3  502    0  0.26350698564E+03  0.13197126565E+04  0.12371490049E+04  0.18280085031E+04  0.25500000920E-02 0.  1.
       -2    1    3    3    0  502 -0.26350698564E+03 -0.13197126565E+04 -0.11637935082E+04  0.17791831713E+04  0.25500000920E-02 0. -1.
</event>
<event>
 5   0  0.1128530E-06  0.3691786E+04  0.7818609E-02  0.8069785E-01
        2   -1    0    0  501    0  0.00000000000E+00  0.00000000000E+00  0.20804656036E+04  0.20804656036E+04  0.25500000920E-02 0.  1.
       -2   -1    0    0    0  501  0.00000000000E+00  0.00000000000E+00 -0.16377687521E+04  0.16377687521E+04  0.25500000920E-02 0. -1.
    10030    2    1    2    0    0  0.00000000000E+00  0.00000000000E+00  0.44269685155E+03  0.37182343557E+04  0.36917863186E+04 0.  0.
        5    1    3    3  502    0  0.14293564703E+04 -0.78899873921E+03  0.10887502976E+04  0.19623909473E+04  0.46999998093E+01 0.  1.
       -5    1    3    3    0  502 -0.14293564703E+04  0.78899873921E+03 -0.64605344603E+03  0.17558434084E+04  0.46999998093E+01 0. -1.
</event>
<event>
 5   0  0.1092116E-06  0.3844761E+04  0.7818609E-02  0.8036617E-01
        2   -1    0    0  501    0  0.00000000000E+00  0.00000000000E+00  0.14574204340E+04  0.14574204340E+04  0.25500000920E-02 0. -1.
       -2   -1    0    0    0  501  0.00000000000E+00  0.00000000000E+00 -0.25356769962E+04  0.25356769962E+04  0.25500000920E-02 0.  1.
    10030    2    1    2    0    0  0.00000000000E+00  0.00000000000E+00 -0.10782565622E+04  0.39930974302E+04  0.38447613545E+04 0.  0.
        1    1    3    3  502    0  0.51317504048E+02 -0.30482947195E+03 -0.25096959154E+04  0.25286613219E+04  0.50400001928E-02 0.  1.
       -1    1    3    3    0  502 -0.51317504048E+02  0.30482947195E+03  0.14314393532E+04  0.14644361082E+04  0.50400001928E-02 0. -1.
</event>
<event>
 5   0  0.1066907E-06  0.3658229E+04  0.7818609E-02  0.8077282E-01
       -2   -1    0    0    0  501  0.00000000000E+00  0.00000000000E+00  0.16422813463E+04  0.16422813463E+04  0.25500000920E-02 0. -1.
        2   -1    0    0  501    0  0.00000000000E+00  0.00000000000E+00 -0.20372030470E+04  0.20372030470E+04  0.25500000920E-02 0.  1.
    10030    2    1    2    0    0  0.00000000000E+00  0.00000000000E+00 -0.39492170067E+03  0.36794843933E+04  0.36582293874E+04 0.  0.
        4    1    3    3  502    0 -0.10489517665E+04  0.12462404386E+04  0.63938526223E+03  0.17499229028E+04  0.12699999809E+01 0. -1.
       -4    1    3    3    0  502  0.10489517665E+04 -0.12462404386E+04 -0.10343069629E+04  0.19295614905E+04  0.12699999809E+01 0.  1.
</event>
<event>
 5   0  0.1128530E-06  0.3702237E+04  0.7818609E-02  0.8067466E-01
       -2   -1    0    0    0  501  0.00000000000E+00  0.00000000000E+00  0.10917611867E+04  0.10917611867E+04  0.25500000920E-02 0. -1.
        2   -1    0    0  501    0  0.00000000000E+00  0.00000000000E+00 -0.31386345828E+04  0.31386345828E+04  0.25500000920E-02 0.  1.
    10030    2    1    2    0    0  0.00000000000E+00  0.00000000000E+00 -0.20468733962E+04  0.42303957695E+04  0.37022368464E+04 0.  0.
        5    1    3    3  502    0  0.88086722463E+03  0.16230385382E+04 -0.11699297463E+04  0.21860784216E+04  0.46999998093E+01 0.  1.
       -5    1    3    3    0  502 -0.88086722463E+03 -0.16230385382E+04 -0.87694364989E+03  0.20443173479E+04  0.46999998093E+01 0. -1.
</event>
<event>
 5   0  0.1128166E-06  0.3198148E+04  0.7818609E-02  0.8189306E-01
       -2   -1    0    0    0  501  0.00000000000E+00  0.00000000000E+00  0.10400012092E+04  0.10400012092E+04  0.25500000920E-02 0. -1.
        2   -1    0    0  501    0  0.00000000000E+00  0.00000000000E+00 -0.24586871122E+04  0.24586871122E+04  0.25500000920E-02 0.  1.
    10030    2    1    2    0    0  0.00000000000E+00  0.00000000000E+00 -0.14186859030E+04  0.34986883214E+04  0.31981479451E+04 0.  0.
        3    1    3    3  502    0 -0.15158396279E+04 -0.49218295576E+03 -0.56660681447E+03  0.16914659713E+04  0.10100000352E+00 0.  1.
       -3    1    3    3    0  502  0.15158396279E+04  0.49218295576E+03 -0.85207908849E+03  0.18072223501E+04  0.10100000352E+00 0. -1.
</event>
<event>
 5   0  0.3764495E-07  0.2881979E+04  0.7818609E-02  0.8278260E-01
       -1   -1    0    0    0  501  0.00000000000E+00  0.00000000000E+00  0.15161089262E+04  0.15161089262E+04  0.50400001928E-02 0. -1.
        1   -1    0    0  501    0  0.00000000000E+00  0.00000000000E+00 -0.13695916226E+04  0.13695916226E+04  0.50400001928E-02 0.  1.
    10030    2    1    2    0    0  0.00000000000E+00  0.00000000000E+00  0.14651730357E+03  0.28857005488E+04  0.28819785456E+04 0.  0.
        4    1    3    3  502    0  0.13857404762E+04  0.27694472478E+03 -0.20901573961E+03  0.14285181973E+04  0.12699999809E+01 0.  1.
       -4    1    3    3    0  502 -0.13857404762E+04 -0.27694472478E+03  0.35553304319E+03  0.14571823515E+04  0.12699999809E+01 0. -1.
</event>
<event>
 5   0  0.1128530E-06  0.3682099E+04  0.7818609E-02  0.8071940E-01
       -2   -1    0    0    0  501  0.00000000000E+00  0.00000000000E+00  0.12858025892E+04  0.12858025892E+04  0.25500000920E-02 0. -1.
        2   -1    0    0  501    0  0.00000000000E+00  0.00000000000E+00 -0.26360685493E+04  0.26360685493E+04  0.25500000920E-02 0.  1.
    10030    2    1    2    0    0  0.00000000000E+00  0.00000000000E+00 -0.13502659601E+04  0.39218711386E+04  0.36820992742E+04 0.  0.
        5    1    3    3  502    0  0.26764883885E+03  0.44802072143E+03  0.12053613324E+04  0.13134978110E+04  0.46999998093E+01 0. -1.
       -5    1    3    3    0  502 -0.26764883885E+03 -0.44802072143E+03 -0.25556272925E+04  0.26083733276E+04  0.46999998093E+01 0.  1.
</event>
<event>
 5   0  0.3675819E-07  0.3837601E+04  0.7818609E-02  0.8038134E-01
        1   -1    0    0  501    0  0.00000000000E+00  0.00000000000E+00  0.24029748382E+04  0.24029748382E+04  0.50400001928E-02 0.  1.
       -1   -1    0    0    0  501  0.00000000000E+00  0.00000000000E+00 -0.15321823750E+04  0.15321823750E+04  0.50400001928E-02 0. -1.
    10030    2    1    2    0    0  0.00000000000E+00  0.00000000000E+00  0.87079246317E+03  0.39351572132E+04  0.38376011750E+04 0.  0.
        5    1    3    3  502    0 -0.67549455640E+03  0.21652074626E+03 -0.13927888167E+04  0.15630281210E+04  0.46999998093E+01 0. -1.
       -5    1    3    3    0  502  0.67549455640E+03 -0.21652074626E+03  0.22635812799E+04  0.23721290921E+04  0.46999998093E+01 0.  1.
</event>
<event>
 5   0  0.3675819E-07  0.3712512E+04  0.7818609E-02  0.8065195E-01
       -1   -1    0    0    0  501  0.00000000000E+00  0.00000000000E+00  0.27257564945E+04  0.27257564945E+04  0.50400001928E-02 0.  1.
        1   -1    0    0  501    0  0.00000000000E+00  0.00000000000E+00 -0.12641211538E+04  0.12641211538E+04  0.50400001928E-02 0. -1.
    10030    2    1    2    0    0  0.00000000000E+00  0.00000000000E+00  0.14616353407E+04  0.39898776483E+04  0.37125120577E+04 0.  0.
        5    1    3    3  502    0  0.10724973182E+04  0.10019819066E+04 -0.49050340210E+03  0.15475250939E+04  0.46999998093E+01 0. -1.
       -5    1    3    3    0  502 -0.10724973182E+04 -0.10019819066E+04  0.19521387428E+04  0.24423525544E+04  0.46999998093E+01 0.  1.
</event>
<event>
 5   0  0.3675819E-07  0.3710212E+04  0.7818609E-02  0.8065703E-01
        1   -1    0    0  501    0  0.00000000000E+00  0.00000000000E+00  0.27223385075E+04  0.27223385075E+04  0.50400001928E-02 0.  1.
       -1   -1    0    0    0  501  0.00000000000E+00  0.00000000000E+00 -0.12641402876E+04  0.12641402876E+04  0.50400001928E-02 0. -1.
    10030    2    1    2    0    0  0.00000000000E+00  0.00000000000E+00  0.14581982199E+04  0.39864787951E+04  0.37102117373E+04 0.  0.
        5    1    3    3  502    0 -0.10051257898E+04 -0.24734111592E+01 -0.94620333419E+03  0.13804371810E+04  0.46999998093E+01 0. -1.
       -5    1    3    3    0  502  0.10051257898E+04  0.24734111592E+01  0.24044015541E+04  0.26060416141E+04  0.46999998093E+01 0.  1.
</event>
<event>
 5   0  0.3682276E-07  0.3647322E+04  0.7818609E-02  0.8079737E-01
        1   -1    0    0  501    0  0.00000000000E+00  0.00000000000E+00  0.19050854725E+04  0.19050854725E+04  0.50400001928E-02 0. -1.
       -1   -1    0    0    0  501  0.00000000000E+00  0.00000000000E+00 -0.17457167829E+04  0.17457167829E+04  0.50400001928E-02 0.  1.
    10030    2    1    2    0    0  0.00000000000E+00  0.00000000000E+00  0.15936868962E+03  0.36508022553E+04  0.36473221312E+04 0.  0.
        1    1    3    3  502    0 -0.45860117960E+03  0.14531405591E+04 -0.92317339788E+03  0.17816233185E+04  0.50400001928E-02 0.  1.
       -1    1    3    3    0  502  0.45860117960E+03 -0.14531405591E+04  0.10825420875E+04  0.18691789368E+04  0.50400001928E-02 0. -1.
</event>
<event>
 5   0  0.1128166E-06  0.3698189E+04  0.7818609E-02  0.8068363E-01
       -2   -1    0    0    0  501  0.00000000000E+00  0.00000000000E+00  0.15063114207E+04  0.15063114207E+04  0.25500000920E-02 0.  1.
        2   -1    0    0  501    0  0.00000000000E+00  0.00000000000E+00 -0.22698834681E+04  0.22698834681E+04  0.25500000920E-02 0. -1.
    10030    2    1    2    0    0  0.00000000000E+00  0.00000000000E+00 -0.76357204745E+03  0.37761948888E+04  0.36981894985E+04 0.  0.
        3    1    3    3  502    0 -0.13848157617E+03  0.58504630086E+03  0.14037241326E+04  0.15270552615E+04  0.10100000352E+00 0.  1.
       -3    1    3    3    0  502  0.13848157617E+03 -0.58504630086E+03 -0.21672961800E+04  0.22491396273E+04  0.10100000352E+00 0. -1.
</event>
<event>
 5   0  0.3490375E-07  0.3696107E+04  0.7818609E-02  0.8068825E-01
        4   -1    0    0  501    0  0.00000000000E+00  0.00000000000E+00  0.17857793180E+04  0.17857797696E+04  0.12699999809E+01 0. -1.
       -4   -1    0    0    0  501  0.00000000000E+00  0.00000000000E+00 -0.19124988539E+04  0.19124992756E+04  0.12699999809E+01 0.  1.
    10030    2    1    2    0    0  0.00000000000E+00  0.00000000000E+00 -0.12671953592E+03  0.36982790452E+04  0.36961074193E+04 0.  0.
        1    1    3    3  502    0  0.14437657704E+04 -0.73905668452E+03  0.82295869674E+03  0.18187702987E+04  0.50400001928E-02 0. -1.
       -1    1    3    3    0  502 -0.14437657704E+04  0.73905668452E+03 -0.94967823267E+03  0.18795087465E+04  0.50400001928E-02 0.  1.
</event>
<event>
 5   0  0.3764495E-07  0.3441094E+04  0.7818609E-02  0.8127894E-01
        1   -1    0    0  501    0  0.00000000000E+00  0.00000000000E+00  0.14442271216E+04  0.14442271217E+04  0.50400001928E-02 0. -1.
       -1   -1    0    0    0  501  0.00000000000E+00  0.00000000000E+00 -0.20497344416E+04  0.20497344416E+04  0.50400001928E-02 0.  1.
    10030    2    1    2    0    0  0.00000000000E+00  0.00000000000E+00 -0.60550731994E+03  0.34939615632E+04  0.34410940544E+04 0.  0.
        4    1    3    3  502    0  0.14593518424E+04  0.88163921615E+03 -0.68371867627E+02  0.17063621634E+04  0.12699999809E+01 0. -1.
       -4    1    3    3    0  502 -0.14593518424E+04 -0.88163921615E+03 -0.53713545232E+03  0.17875993999E+04  0.12699999809E+01 0.  1.
</event>
<event>
 5   0  0.1051123E-06  0.3687454E+04  0.7818609E-02  0.8070748E-01
       -2   -1    0    0    0  501  0.00000000000E+00  0.00000000000E+00  0.18002097139E+04  0.18002097139E+04  0.25500000920E-02 0.  1.
        2   -1    0    0  501    0  0.00000000000E+00  0.00000000000E+00 -0.18882963374E+04  0.18882963374E+04  0.25500000920E-02 0. -1.
    10030    2    1    2    0    0  0.00000000000E+00  0.00000000000E+00 -0.88086623565E+02  0.36885060513E+04  0.36874540861E+04 0.  0.
        2    1    3    3  502    0  0.85102019457E+03 -0.49683887683E+03  0.15146840012E+04  0.18070284626E+04  0.25500000920E-02 0.  1.
       -2    1    3    3    0  502 -0.85102019457E+03  0.49683887683E+03 -0.16027706248E+04  0.18814775887E+04  0.25500000920E-02 0. -1.
</event>
<event>
 5   0  0.1051123E-06  0.3259809E+04  0.7818609E-02  0.8173198E-01
       -2   -1    0    0    0  501  0.00000000000E+00  0.00000000000E+00  0.29035531630E+04  0.29035531630E+04  0.25500000920E-02 0. -1.
        2   -1    0    0  501    0  0.00000000000E+00  0.00000000000E+00 -0.91494396128E+03  0.91494396128E+03  0.25500000920E-02 0.  1.
    10030    2    1    2    0    0  0.00000000000E+00  0.00000000000E+00  0.19886092017E+04  0.38184971242E+04  0.32598088488E+04 0.  0.
        2    1    3    3  502    0  0.55557419264E+03 -0.65187521470E+03 -0.63007759282E+03  0.10632975840E+04  0.25500000920E-02 0.  1.
       -2    1    3    3    0  502 -0.55557419264E+03  0.65187521470E+03  0.26186867945E+04  0.27551995403E+04  0.25500000920E-02 0. -1.
</event>
<event>
 5   0  0.3682276E-07  0.3716304E+04  0.7818609E-02  0.8064358E-01
       -1   -1    0    0    0  501  0.00000000000E+00  0.00000000000E+00  0.17310733778E+04  0.17310733778E+04  0.50400001928E-02 0.  1.
        1   -1    0    0  501    0  0.00000000000E+00  0.00000000000E+00 -0.19945594259E+04  0.19945594259E+04  0.50400001928E-02 0. -1.
    10030    2    1    2    0    0  0.00000000000E+00  0.00000000000E+00 -0.26348604815E+03  0.37256328037E+04  0.37163039287E+04 0.  0.
        1    1    3    3  502    0  0.12723326318E+04 -0.23164822175E+03  0.12058617084E+04  0.17682176575E+04  0.50400001928E-02 0.  1.
       -1    1    3    3    0  502 -0.12723326318E+04  0.23164822175E+03 -0.14693477566E+04  0.19574151461E+04  0.50400001928E-02 0. -1.
</event>
<event>
 5   0  0.1128530E-06  0.3700766E+04  0.7818609E-02  0.8067792E-01
        2   -1    0    0  501    0  0.00000000000E+00  0.00000000000E+00  0.17541191468E+04  0.17541191468E+04  0.25500000920E-02 0. -1.
       -2   -1    0    0    0  501  0.00000000000E+00  0.00000000000E+00 -0.19519297546E+04  0.19519297546E+04  0.25500000920E-02 0.  1.
    10030    2    1    2    0    0  0.00000000000E+00  0.00000000000E+00 -0.19781060778E+03  0.37060489014E+04  0.37007660589E+04 0.  0.
        5    1    3    3  502    0 -0.67274768295E+03 -0.10261703869E+04 -0.14859023318E+04  0.19270555097E+04  0.46999998093E+01 0.  1.
       -5    1    3    3    0  502  0.67274768295E+03  0.10261703869E+04  0.12880917240E+04  0.17789933916E+04  0.46999998093E+01 0. -1.
</event>
<event>
 5   0  0.3704306E-07  0.3532323E+04  0.7818609E-02  0.8106172E-01
       -1   -1    0    0    0  501  0.00000000000E+00  0.00000000000E+00  0.19719799006E+04  0.19719799006E+04  0.50400001928E-02 0.  1.
        1   -1    0    0  501    0  0.00000000000E+00  0.00000000000E+00 -0.15818250326E+04  0.15818250326E+04  0.50400001928E-02 0. -1.
    10030    2    1    2    0    0  0.00000000000E+00  0.00000000000E+00  0.39015486797E+03  0.35538049332E+04  0.35323234114E+04 0.  0.
        3    1    3    3  502    0  0.71051898460E+03 -0.35717451979E+03  0.17816637716E+04  0.19510860233E+04  0.10100000352E+00 0.  1.
       -3    1    3    3    0  502 -0.71051898460E+03  0.35717451979E+03 -0.13915089036E+04  0.16027189099E+04  0.10100000352E+00 0. -1.
</event>
<event>
 5   0  0.1066907E-06  0.3597107E+04  0.7818609E-02  0.8091155E-01
        2   -1    0    0  501    0  0.00000000000E+00  0.00000000000E+00  0.28283283109E+04  0.28283283109E+04  0.25500000920E-02 0. -1.
       -2   -1    0    0    0  501  0.00000000000E+00  0.00000000000E+00 -0.11437124514E+04  0.11437124514E+04  0.25500000920E-02 0.  1.
    10030    2    1    2    0    0  0.00000000000E+00  0.00000000000E+00  0.16846158595E+04  0.39720407622E+04  0.35971067850E+04 0.  0.
        4    1    3    3  502    0 -0.16856556150E+03 -0.12969200178E+04  0.22056553258E+04  0.25642411958E+04  0.12699999809E+01 0. -1.
       -4    1    3    3    0  502  0.16856556150E+03  0.12969200178E+04 -0.52103946628E+03  0.14077995665E+04  0.12699999809E+01 0.  1.
</event>
<event>
 5   0  0.3490375E-07  0.3369050E+04  0.7818609E-02  0.8145545E-01
        4   -1    0    0  501    0  0.00000000000E+00  0.00000000000E+00  0.15628455149E+04  0.15628460309E+04  0.12699999809E+01 0. -1.
       -4   -1    0    0    0  501  0.00000000000E+00  0.00000000000E+00 -0.18156770860E+04  0.18156775302E+04  0.12699999809E+01 0.  1.
    10030    2    1    2    0    0  0.00000000000E+00  0.00000000000E+00 -0.25283157116E+03  0.33785235611E+04  0.33690499625E+04 0.  0.
        1    1    3    3  502    0 -0.11221826151E+04  0.10385575225E+04  0.58248705636E+03  0.16362110866E+04  0.50400001928E-02 0. -1.
       -1    1    3    3    0  502  0.11221826151E+04 -0.10385575225E+04 -0.83531862753E+03  0.17423124745E+04  0.50400001928E-02 0.  1.
</event>
<event>
 5   0  0.3704306E-07  0.3717952E+04  0.7818609E-02  0.8063995E-01
        1   -1    0    0  501    0  0.00000000000E+00  0.00000000000E+00  0.16135789927E+04  0.16135789927E+04  0.50400001928E-02 0. -1.
       -1   -1    0    0    0  501  0.00000000000E+00  0.00000000000E+00 -0.21416933112E+04  0.21416933112E+04  0.50400001928E-02 0.  1.
    10030    2    1    2    0    0  0.00000000000E+00  0.00000000000E+00 -0.52811431849E+03  0.37552723039E+04  0.37179517671E+04 0.  0.
        3    1    3    3  502    0  0.47584601881E+03 -0.44443476776E+03  0.14946389204E+04  0.16303058636E+04  0.10100000352E+00 0. -1.
       -3    1    3    3    0  502 -0.47584601881E+03  0.44443476776E+03 -0.20227532389E+04  0.21249664402E+04  0.10100000352E+00 0.  1.
</event>
<event>
 5   0  0.3682276E-07  0.3395636E+04  0.7818609E-02  0.8138978E-01
       -1   -1    0    0    0  501  0.00000000000E+00  0.00000000000E+00  0.17199387834E+04  0.17199387834E+04  0.50400001928E-02 0.  1.
        1   -1    0    0  501    0  0.00000000000E+00  0.00000000000E+00 -0.16759817139E+04  0.16759817139E+04  0.50400001928E-02 0. -1.
    10030    2    1    2    0    0  0.00000000000E+00  0.00000000000E+00  0.43957069500E+02  0.33959204973E+04  0.33956359935E+04 0.  0.
        1    1    3    3  502    0 -0.41024569368E+03  0.14711710436E+04 -0.71966311638E+03  0.16883603792E+04  0.50400001928E-02 0. -1.
       -1    1    3    3    0  502  0.41024569368E+03 -0.14711710436E+04  0.76362018588E+03  0.17075601182E+04  0.50400001928E-02 0.  1.
</event>
<event>
 5   0  0.3704306E-07  0.3716247E+04  0.7818609E-02  0.8064371E-01
       -1   -1    0    0    0  501  0.00000000000E+00  0.00000000000E+00  0.17502224756E+04  0.17502224756E+04  0.50400001928E-02 0. -1.
        1   -1    0    0  501    0  0.00000000000E+00  0.00000000000E+00 -0.19726766553E+04  0.19726766553E+04  0.50400001928E-02 0.  1.
    10030    2    1    2    0    0  0.00000000000E+00  0.00000000000E+00 -0.22245417971E+03  0.37228991309E+04  0.37162470419E+04 0.  0.
        3    1    3    3  502    0  0.12533979325E+04  0.34086330456E+03 -0.14422998669E+04  0.19409850813E+04  0.10100000352E+00 0.  1.
       -3    1    3    3    0  502 -0.12533979325E+04 -0.34086330456E+03  0.12198456871E+04  0.17819140496E+04  0.10100000352E+00 0. -1.
</event>
<event>
 5   0  0.1066907E-06  0.3335128E+04  0.7818609E-02  0.8154014E-01
        2   -1    0    0  501    0  0.00000000000E+00  0.00000000000E+00  0.27089470545E+04  0.27089470545E+04  0.25500000920E-02 0.  1.
       -2   -1    0    0    0  501  0.00000000000E+00  0.00000000000E+00 -0.10265128688E+04  0.10265128688E+04  0.25500000920E-02 0. -1.
    10030    2    1    2    0    0  0.00000000000E+00  0.00000000000E+00  0.16824341857E+04  0.37354599232E+04  0.33351275911E+04 0.  0.
        4    1    3    3  502    0  0.72603255097E+03  0.14768252463E+04  0.11430687853E+04  0.20036825931E+04  0.12699999809E+01 0.  1.
       -4    1    3    3    0  502 -0.72603255097E+03 -0.14768252463E+04  0.53936540043E+03  0.17317773301E+04  0.12699999809E+01 0. -1.
</event>
<event>
 5   0  0.1092116E-06  0.3743082E+04  0.7818609E-02  0.8058481E-01
       -2   -1    0    0    0  501  0.00000000000E+00  0.00000000000E+00  0.14824760081E+04  0.14824760081E+04  0.25500000920E-02 0. -1.
        2   -1    0    0  501    0  0.00000000000E+00  0.00000000000E+00 -0.23627127748E+04  0.23627127748E+04  0.25500000920E-02 0.  1.
    10030    2    1    2    0    0  0.00000000000E+00  0.00000000000E+00 -0.88023676674E+03  0.38451887829E+04  0.37430816195E+04 0.  0.
        1    1    3    3  502    0  0.99286059005E+03 -0.14440248227E+04  0.23483212758E+03  0.17680853962E+04  0.50400001928E-02 0. -1.
       -1    1    3    3    0  502 -0.99286059005E+03  0.14440248227E+04 -0.11150688943E+04  0.20771033867E+04  0.50400001928E-02 0.  1.
</event>
<event>
 5   0  0.3490375E-07  0.2501819E+04  0.7818609E-02  0.8402338E-01
        4   -1    0    0  501    0  0.00000000000E+00  0.00000000000E+00  0.16555597874E+04  0.16555602745E+04  0.12699999809E+01 0.  1.
       -4   -1    0    0    0  501  0.00000000000E+00  0.00000000000E+00 -0.94516274222E+03  0.94516359546E+03  0.12699999809E+01 0. -1.
    10030    2    1    2    0    0  0.00000000000E+00  0.00000000000E+00  0.71039704517E+03  0.26007238700E+04  0.25018194751E+04 0.  0.
        5    1    3    3  502    0 -0.54100031784E+03  0.43525170248E+03 -0.72642927695E+03  0.10049114254E+04  0.46999998093E+01 0. -1.
       -5    1    3    3    0  502  0.54100031784E+03 -0.43525170248E+03  0.14368263221E+04  0.15958124446E+04  0.46999998093E+01 0.  1.
</event>
<event>
 5   0  0.3848431E-07  0.3692914E+04  0.7818609E-02  0.8069534E-01
        1   -1    0    0  501    0  0.00000000000E+00  0.00000000000E+00  0.12635528158E+04  0.12635528158E+04  0.50400001928E-02 0.  1.
       -1   -1    0    0    0  501  0.00000000000E+00  0.00000000000E+00 -0.26982677470E+04  0.26982677470E+04  0.50400001928E-02 0. -1.
    10030    2    1    2    0    0  0.00000000000E+00  0.00000000000E+00 -0.14347149312E+04  0.39618205628E+04  0.36929141932E+04 0.  0.
        2    1    3    3  502    0 -0.13011522580E+04  0.44370974324E+03  0.60509471749E+03  0.15020037124E+04  0.25500000920E-02 0.  1.
       -2    1    3    3    0  502  0.13011522580E+04 -0.44370974324E+03 -0.20398096487E+04  0.24598168505E+04  0.25500000920E-02 0. -1.
</event>
<event>
 5   0  0.1066907E-06  0.3829792E+04  0.7818609E-02  0.8039792E-01
        2   -1    0    0  501    0  0.00000000000E+00  0.00000000000E+00  0.21749648102E+04  0.21749648102E+04  0.25500000920E-02 0. -1.
       -2   -1    0    0    0  501  0.00000000000E+00  0.00000000000E+00 -0.16859242702E+04  0.16859242702E+04  0.25500000920E-02 0.  1.
    10030    2    1    2    0    0  0.00000000000E+00  0.00000000000E+00  0.48904053997E+03  0.38608890804E+04  0.38297916185E+04 0.  0.
        4    1    3    3  502    0  0.62553604896E+03 -0.51134088095E+03  0.19947219301E+04  0.21521342979E+04  0.12699999809E+01 0. -1.
       -4    1    3    3    0  502 -0.62553604896E+03  0.51134088095E+03 -0.15056813901E+04  0.17087547825E+04  0.12699999809E+01 0.  1.
</event>
<event>
 5   0  0.3704306E-07  0.3773779E+04  0.7818609E-02  0.8051805E-01
        1   -1    0    0  501    0  0.00000000000E+00  0.00000000000E+00  0.25588134797E+04  0.25588134797E+04  0.50400001928E-02 0.  1.
       -1   -1    0    0    0  501  0.00000000000E+00  0.00000000000E+00 -0.13914071536E+04  0.13914071536E+04  0.50400001928E-02 0. -1.
    10030    2    1    2    0    0  0.00000000000E+00  0.00000000000E+00  0.11674063261E+04  0.39502206333E+04  0.37737786794E+04 0.  0.
        3    1    3    3  502    0 -0.23201515214E+03  0.14044921867E+04  0.18801256933E+04  0.23582412867E+04  0.10100000352E+00 0.  1.
       -3    1    3    3    0  502  0.23201515214E+03 -0.14044921867E+04 -0.71271936730E+03  0.15919793466E+04  0.10100000352E+00 0. -1.
</event>
<event>
 5   0  0.1066907E-06  0.3757268E+04  0.7818609E-02  0.8055388E-01
       -2   -1    0    0    0  501  0.00000000000E+00  0.00000000000E+00  0.14134787645E+04  0.14134787645E+04  0.25500000920E-02 0. -1.
        2   -1    0    0  501    0  0.00000000000E+00  0.00000000000E+00 -0.24968650090E+04  0.24968650090E+04  0.25500000920E-02 0.  1.
    10030    2    1    2    0    0  0.00000000000E+00  0.00000000000E+00 -0.10833862445E+04  0.39103437735E+04  0.37572679798E+04 0.  0.
        4    1    3    3  502    0 -0.22850323119E+03  0.17913283068E+04 -0.27205437541E+01  0.18058460188E+04  0.12699999809E+01 0. -1.
       -4    1    3    3    0  502  0.22850323119E+03 -0.17913283068E+04 -0.10806657008E+04  0.21044977546E+04  0.12699999809E+01 0.  1.
</event>
<event>
 5   0  0.3704306E-07  0.3923825E+04  0.7818609E-02  0.8020092E-01
       -1   -1    0    0    0  501  0.00000000000E+00  0.00000000000E+00  0.14723207747E+04  0.14723207747E+04  0.50400001928E-02 0. -1.
        1   -1    0    0  501    0  0.00000000000E+00  0.00000000000E+00 -0.26143085608E+04  0.26143085609E+04  0.50400001928E-02 0.  1.
    10030    2    1    2    0    0  0.00000000000E+00  0.00000000000E+00 -0.11419877861E+04  0.40866293356E+04  0.39238250754E+04 0.  0.
        3    1    3    3  502    0  0.12230374004E+04 -0.14508234616E+04 -0.10900616575E+04  0.21883655149E+04  0.10100000352E+00 0.  1.
       -3    1    3    3    0  502 -0.12230374004E+04  0.14508234616E+04 -0.51926128664E+02  0.18982638206E+04  0.10100000352E+00 0. -1.
</event>
<event>
 5   0  0.3704306E-07  0.3699075E+04  0.7818609E-02  0.8068167E-01
        1   -1    0    0  501    0  0.00000000000E+00  0.00000000000E+00  0.13357075206E+04  0.13357075206E+04  0.50400001928E-02 0. -1.
       -1   -1    0    0    0  501  0.00000000000E+00  0.00000000000E+00 -0.25610307970E+04  0.25610307970E+04  0.50400001928E-02 0.  1.
    10030    2    1    2    0    0  0.00000000000E+00  0.00000000000E+00 -0.12253232764E+04  0.38967383175E+04  0.36990745307E+04 0.  0.
        3    1    3    3  502    0 -0.35920894452E+02 -0.18656942344E+03 -0.25507232770E+04  0.25577896134E+04  0.10100000352E+00 0.  1.
       -3    1    3    3    0  502  0.35920894452E+02  0.18656942344E+03  0.13254000006E+04  0.13389487041E+04  0.10100000352E+00 0. -1.
</event>
<event>
 5   0  0.1066907E-06  0.3159083E+04  0.7818609E-02  0.8199708E-01
        2   -1    0    0  501    0  0.00000000000E+00  0.00000000000E+00  0.26149084508E+04  0.26149084508E+04  0.25500000920E-02 0. -1.
       -2   -1    0    0    0  501  0.00000000000E+00  0.00000000000E+00 -0.95412583292E+03  0.95412583293E+03  0.25500000920E-02 0.  1.
    10030    2    1    2    0    0  0.00000000000E+00  0.00000000000E+00  0.16607826178E+04  0.35690342837E+04  0.31590832237E+04 0.  0.
        4    1    3    3  502    0  0.13993640609E+03  0.39697383641E+03  0.25503805360E+04  0.25848816058E+04  0.12699999809E+01 0. -1.
       -4    1    3    3    0  502 -0.13993640609E+03 -0.39697383641E+03 -0.88959791816E+03  0.98415267791E+03  0.12699999809E+01 0.  1.
</event>
<event>
 5   0  0.1092116E-06  0.2549107E+04  0.7818609E-02  0.8385697E-01
        2   -1    0    0  501    0  0.00000000000E+00  0.00000000000E+00  0.17941101622E+04  0.17941101622E+04  0.25500000920E-02 0.  1.
       -2   -1    0    0    0  501  0.00000000000E+00  0.00000000000E+00 -0.90545562613E+03  0.90545562613E+03  0.25500000920E-02 0. -1.
    10030    2    1    2    0    0  0.00000000000E+00  0.00000000000E+00  0.88865453606E+03  0.26995657883E+04  0.25491074048E+04 0.  0.
        1    1    3    3  502    0 -0.96638209369E+03 -0.10384473894E+03  0.13174981710E+04  0.16372170019E+04  0.50400001928E-02 0.  1.
       -1    1    3    3    0  502  0.96638209369E+03  0.10384473894E+03 -0.42884363490E+03  0.10623487864E+04  0.50400001928E-02 0. -1.
</event>
<event>
 5   0  0.1051123E-06  0.3636351E+04  0.7818609E-02  0.8082216E-01
       -2   -1    0    0    0  501  0.00000000000E+00  0.00000000000E+00  0.11167139647E+04  0.11167139647E+04  0.25500000920E-02 0.  1.
        2   -1    0    0  501    0  0.00000000000E+00  0.00000000000E+00 -0.29602581511E+04  0.29602581511E+04  0.25500000920E-02 0. -1.
    10030    2    1    2    0    0  0.00000000000E+00  0.00000000000E+00 -0.18435441864E+04  0.40769721157E+04  0.36363507072E+04 0.  0.
        2    1    3    3  502    0 -0.36442252959E+03 -0.14278835166E+04  0.27221298366E+03  0.14985843405E+04  0.25500000920E-02 0.  1.
       -2    1    3    3    0  502  0.36442252959E+03  0.14278835166E+04 -0.21157571700E+04  0.25783877753E+04  0.25500000920E-02 0. -1.
</event>
<event>
 5   0  0.1066907E-06  0.3217114E+04  0.7818609E-02  0.8184312E-01
        2   -1    0    0  501    0  0.00000000000E+00  0.00000000000E+00  0.14539751728E+04  0.14539751728E+04  0.25500000920E-02 0. -1.
       -2   -1    0    0    0  501  0.00000000000E+00  0.00000000000E+00 -0.17795738342E+04  0.17795738342E+04  0.25500000920E-02 0.  1.
    10030    2    1    2    0    0  0.00000000000E+00  0.00000000000E+00 -0.32559866139E+03  0.32335490070E+04  0.32171143425E+04 0.  0.
        4    1    3    3  502    0  0.11761037095E+04  0.10016263376E+04  0.28779800565E+03  0.15714021002E+04  0.12699999809E+01 0. -1.
       -4    1    3    3    0  502 -0.11761037095E+04 -0.10016263376E+04 -0.61339666703E+03  0.16621469068E+04  0.12699999809E+01 0.  1.
</event>
<event>
 5   0  0.3682276E-07  0.2644465E+04  0.7818609E-02  0.8353252E-01
        1   -1    0    0  501    0  0.00000000000E+00  0.00000000000E+00  0.24877896175E+04  0.24877896175E+04  0.50400001928E-02 0. -1.
       -1   -1    0    0    0  501  0.00000000000E+00  0.00000000000E+00 -0.70275203673E+03  0.70275203674E+03  0.50400001928E-02 0.  1.
    10030    2    1    2    0    0  0.00000000000E+00  0.00000000000E+00  0.17850375808E+04  0.31905416543E+04  0.26444653302E+04 0.  0.
        1    1    3    3  502    0 -0.32059468280E+03  0.11245567039E+04  0.14791266279E+03  0.11786801461E+04  0.50400001928E-02 0.  1.
       -1    1    3    3    0  502  0.32059468280E+03 -0.11245567039E+04  0.16371249180E+04  0.20118615082E+04  0.50400001928E-02 0. -1.
</event>
<event>
 5   0  0.3704306E-07  0.3357529E+04  0.7818609E-02  0.8148409E-01
       -1   -1    0    0    0  501  0.00000000000E+00  0.00000000000E+00  0.17784580973E+04  0.17784580973E+04  0.50400001928E-02 0.  1.
        1   -1    0    0  501    0  0.00000000000E+00  0.00000000000E+00 -0.15846597099E+04  0.15846597100E+04  0.50400001928E-02 0. -1.
    10030    2    1    2    0    0  0.00000000000E+00  0.00000000000E+00  0.19379838731E+03  0.33631178072E+04  0.33575293849E+04 0.  0.
        3    1    3    3  502    0 -0.94654772518E+03  0.59887611068E+03  0.13494387045E+04  0.17537360176E+04  0.10100000352E+00 0.  1.
       -3    1    3    3    0  502  0.94654772518E+03 -0.59887611068E+03 -0.11556403172E+04  0.16093817896E+04  0.10100000352E+00 0. -1.
</event>
<event>
 5   0  0.1051123E-06  0.3547772E+04  0.7818609E-02  0.8102561E-01
        2   -1    0    0  501    0  0.00000000000E+00  0.00000000000E+00  0.30234648403E+04  0.30234648403E+04  0.25500000920E-02 0.  1.
       -2   -1    0    0    0  501  0.00000000000E+00  0.00000000000E+00 -0.10407499252E+04  0.10407499252E+04  0.25500000920E-02 0. -1.
    10030    2    1    2    0    0  0.00000000000E+00  0.00000000000E+00  0.19827149152E+04  0.40642147655E+04  0.35477715858E+04 0.  0.
        2    1    3    3  502    0 -0.15775365569E+04 -0.47832558362E+02  0.19190282388E+04  0.24846687754E+04  0.25500000920E-02 0.  1.
       -2    1    3    3    0  502  0.15775365569E+04  0.47832558362E+02  0.63686676345E+02  0.15795459901E+04  0.25500000920E-02 0. -1.
</event>
<event>
 5   0  0.3848431E-07  0.3762075E+04  0.7818609E-02  0.8054343E-01
       -1   -1    0    0    0  501  0.00000000000E+00  0.00000000000E+00  0.25047135421E+04  0.25047135421E+04  0.50400001928E-02 0. -1.
        1   -1    0    0  501    0  0.00000000000E+00  0.00000000000E+00 -0.14126570923E+04  0.14126570923E+04  0.50400001928E-02 0.  1.
    10030    2    1    2    0    0  0.00000000000E+00  0.00000000000E+00  0.10920564498E+04  0.39173706344E+04  0.37620746136E+04 0.  0.
        2    1    3    3  502    0 -0.13461487899E+04  0.75282364586E+03  0.16672503262E+04  0.22712515617E+04  0.25500000920E-02 0. -1.
       -2    1    3    3    0  502  0.13461487899E+04 -0.75282364586E+03 -0.57519387639E+03  0.16461190727E+04  0.25500000920E-02 0.  1.
</event>
<event>
 5   0  0.3764495E-07  0.3683160E+04  0.7818609E-02  0.8071704E-01
        1   -1    0    0  501    0  0.00000000000E+00  0.00000000000E+00  0.21924246756E+04  0.21924246756E+04  0.50400001928E-02 0.  1.
       -1   -1    0    0    0  501  0.00000000000E+00  0.00000000000E+00 -0.15468792578E+04  0.15468792578E+04  0.50400001928E-02 0. -1.
    10030    2    1    2    0    0  0.00000000000E+00  0.00000000000E+00  0.64554541783E+03  0.37393039334E+04  0.36831596517E+04 0.  0.
        4    1    3    3  502    0 -0.10587270399E+04 -0.73716849135E+03 -0.10114497566E+04  0.16393146595E+04  0.12699999809E+01 0. -1.
       -4    1    3    3    0  502  0.10587270399E+04  0.73716849135E+03  0.16569951745E+04  0.20999892740E+04  0.12699999809E+01 0.  1.
</event>
<event>
 5   0  0.3764495E-07  0.3664444E+04  0.7818609E-02  0.8075887E-01
        1   -1    0    0  501    0  0.00000000000E+00  0.00000000000E+00  0.19131964777E+04  0.19131964777E+04  0.50400001928E-02 0. -1.
       -1   -1    0    0    0  501  0.00000000000E+00  0.00000000000E+00 -0.17546747854E+04  0.17546747854E+04  0.50400001928E-02 0.  1.
    10030    2    1    2    0    0  0.00000000000E+00  0.00000000000E+00  0.15852169230E+03  0.36678712632E+04  0.36644440883E+04 0.  0.
        4    1    3    3  502    0  0.50136313806E+03 -0.95679441629E+03 -0.14020609193E+04  0.17699144007E+04  0.12699999809E+01 0.  1.
       -4    1    3    3    0  502 -0.50136313806E+03  0.95679441629E+03  0.15605826116E+04  0.18979568625E+04  0.12699999809E+01 0. -1.
</event>
<event>
 5   0  0.1051123E-06  0.3709140E+04  0.7818609E-02  0.8065939E-01
       -2   -1    0    0    0  501  0.00000000000E+00  0.00000000000E+00  0.20637765693E+04  0.20637765693E+04  0.25500000920E-02 0.  1.
        2   -1    0    0  501    0  0.00000000000E+00  0.00000000000E+00 -0.16665704311E+04  0.16665704311E+04  0.25500000920E-02 0. -1.
    10030    2    1    2    0    0  0.00000000000E+00  0.00000000000E+00  0.39720613815E+03  0.37303470004E+04  0.37091395265E+04 0.  0.
        2    1    3    3  502    0 -0.13455262286E+04 -0.92135320212E+03  0.10868837421E+04  0.19597573380E+04  0.25500000920E-02 0.  1.
       -2    1    3    3    0  502  0.13455262286E+04  0.92135320212E+03 -0.68967760397E+03  0.17705896624E+04  0.25500000920E-02 0. -1.
</event>
<event>
 5   0  0.3682276E-07  0.3192067E+04  0.7818609E-02  0.8190915E-01
        1   -1    0    0  501    0  0.00000000000E+00  0.00000000000E+00  0.16127996743E+04  0.16127996743E+04  0.50400001928E-02 0.  1.
       -1   -1    0    0    0  501  0.00000000000E+00  0.00000000000E+00 -0.15794419377E+04  0.15794419377E+04  0.50400001928E-02 0. -1.
    10030    2    1    2    0    0  0.00000000000E+00  0.00000000000E+00  0.33357736611E+02  0.31922416121E+04  0.31920673193E+04 0.  0.
        1    1    3    3  502    0  0.14202205741E+04  0.24742694675E+03 -0.66825039526E+03  0.15889635502E+04  0.50400001928E-02 0. -1.
       -1    1    3    3    0  502 -0.14202205741E+04 -0.24742694675E+03  0.70160813187E+03  0.16032780619E+04  0.50400001928E-02 0.  1.
</event>
<event>
 5   0  0.1051123E-06  0.2551542E+04  0.7818609E-02  0.8384850E-01
       -2   -1    0    0    0  501  0.00000000000E+00  0.00000000000E+00  0.65625127240E+03  0.65625127240E+03  0.25500000920E-02 0.  1.
        2   -1    0    0  501    0  0.00000000000E+00  0.00000000000E+00 -0.24801356325E+04  0.24801356325E+04  0.25500000920E-02 0. -1.
    10030    2    1    2    0    0  0.00000000000E+00  0.00000000000E+00 -0.18238843601E+04  0.31363869049E+04  0.25515424077E+04 0.  0.
        2    1    3    3  502    0 -0.80855585919E+03 -0.29755427934E+03 -0.20685067257E+04  0.22407635308E+04  0.25500000920E-02 0. -1.
       -2    1    3    3    0  502  0.80855585919E+03  0.29755427934E+03  0.24462236558E+03  0.89562337415E+03  0.25500000920E-02 0.  1.
</event>
<event>
 5   0  0.1051123E-06  0.3680693E+04  0.7818609E-02  0.8072254E-01
        2   -1    0    0  501    0  0.00000000000E+00  0.00000000000E+00  0.22049996346E+04  0.22049996346E+04  0.25500000920E-02 0. -1.
       -2   -1    0    0    0  501  0.00000000000E+00  0.00000000000E+00 -0.15359979538E+04  0.15359979538E+04  0.25500000920E-02 0.  1.
    10030    2    1    2    0    0  0.00000000000E+00  0.00000000000E+00  0.66900168084E+03  0.37409975884E+04  0.36806928298E+04 0.  0.
        2    1    3    3  502    0  0.47046170106E+03 -0.10809969384E+04 -0.11017999501E+04  0.16136454763E+04  0.25500000920E-02 0.  1.
       -2    1    3    3    0  502 -0.47046170106E+03  0.10809969384E+04  0.17708016310E+04  0.21273521122E+04  0.25500000920E-02 0. -1.
</event>
<event>
 5   0  0.1051123E-06  0.3714285E+04  0.7818609E-02  0.8064803E-01
        2   -1    0    0  501    0  0.00000000000E+00  0.00000000000E+00  0.24613066218E+04  0.24613066218E+04  0.25500000920E-02 0.  1.
       -2   -1    0    0    0  501  0.00000000000E+00  0.00000000000E+00 -0.14012793487E+04  0.14012793487E+04  0.25500000920E-02 0. -1.
    10030    2    1    2    0    0  0.00000000000E+00  0.00000000000E+00  0.10600272732E+04  0.38625859705E+04  0.37142849325E+04 0.  0.
        2    1    3    3  502    0 -0.85036925115E+03 -0.11613680631E+04 -0.69032864912E+03  0.15963888264E+04  0.25500000920E-02 0. -1.
       -2    1    3    3    0  502  0.85036925115E+03  0.11613680631E+04  0.17503559223E+04  0.22661971441E+04  0.25500000920E-02 0.  1.
</event>
<event>
 5   0  0.1092116E-06  0.3609150E+04  0.7818609E-02  0.8088399E-01
        2   -1    0    0  501    0  0.00000000000E+00  0.00000000000E+00  0.12338752172E+04  0.12338752172E+04  0.25500000920E-02 0. -1.
       -2   -1    0    0    0  501  0.00000000000E+00  0.00000000000E+00 -0.26392382007E+04  0.26392382007E+04  0.25500000920E-02 0.  1.
    10030    2    1    2    0    0  0.00000000000E+00  0.00000000000E+00 -0.14053629836E+04  0.38731134179E+04  0.36091498212E+04 0.  0.
        1    1    3    3  502    0 -0.29317396308E+03 -0.10775317446E+04  0.81855076061E+03  0.13845761015E+04  0.50400001928E-02 0. -1.
       -1    1    3    3    0  502  0.29317396308E+03  0.10775317446E+04 -0.22239137442E+04  0.24885373163E+04  0.50400001928E-02 0.  1.
</event>
<event>
 5   0  0.3764495E-07  0.3708930E+04  0.7818609E-02  0.8065986E-01
       -1   -1    0    0    0  501  0.00000000000E+00  0.00000000000E+00  0.16070503414E+04  0.16070503414E+04  0.50400001928E-02 0. -1.
        1   -1    0    0  501    0  0.00000000000E+00  0.00000000000E+00 -0.21399704850E+04  0.21399704850E+04  0.50400001928E-02 0.  1.
    10030    2    1    2    0    0  0.00000000000E+00  0.00000000000E+00 -0.53292014357E+03  0.37470208265E+04  0.37089299258E+04 0.  0.
        4    1    3    3  502    0  0.18233427719E+04 -0.19337560194E+03 -0.54691820484E+03  0.19133985792E+04  0.12699999809E+01 0. -1.
       -4    1    3    3    0  502 -0.18233427719E+04  0.19337560194E+03  0.13998061265E+02  0.18336222473E+04  0.12699999809E+01 0.  1.
</event>
<event>
 5   0  0.1066907E-06  0.3652912E+04  0.7818609E-02  0.8078478E-01
       -2   -1    0    0    0  501  0.00000000000E+00  0.00000000000E+00  0.25238512952E+04  0.25238512952E+04  0.25500000920E-02 0.  1.
        2   -1    0    0  501    0  0.00000000000E+00  0.00000000000E+00 -0.13217661114E+04  0.13217661114E+04  0.25500000920E-02 0. -1.
    10030    2    1    2    0    0  0.00000000000E+00  0.00000000000E+00  0.12020851839E+04  0.38456174066E+04  0.36529117767E+04 0.  0.
        4    1    3    3  502    0  0.89220967058E+03 -0.96292127361E+03  0.19379506261E+04  0.23407070978E+04  0.12699999809E+01 0.  1.
       -4    1    3    3    0  502 -0.89220967058E+03  0.96292127361E+03 -0.73586544227E+03  0.15049103088E+04  0.12699999809E+01 0. -1.
</event>
<event>
 5   0  0.1128530E-06  0.3794553E+04  0.7818609E-02  0.8047325E-01
       -2   -1    0    0    0  501  0.00000000000E+00  0.00000000000E+00  0.18632937400E+04  0.18632937400E+04  0.25500000920E-02 0. -1.
        2   -1    0    0  501    0  0.00000000000E+00  0.00000000000E+00 -0.19318788628E+04  0.19318788628E+04  0.25500000920E-02 0.  1.
    10030    2    1    2    0    0  0.00000000000E+00  0.00000000000E+00 -0.68585122831E+02  0.37951726029E+04  0.37945528283E+04 0.  0.
        5    1    3    3  502    0 -0.18078992303E+04 -0.41416735733E+02  0.53975303598E+03  0.18872123364E+04  0.46999998093E+01 0. -1.
       -5    1    3    3    0  502  0.18078992303E+04  0.41416735733E+02 -0.60833815882E+03  0.19079602664E+04  0.46999998093E+01 0.  1.
</event>
<event>
 5   0  0.3675819E-07  0.3559848E+04  0.7818609E-02  0.8099751E-01
       -1   -1    0    0    0  501  0.00000000000E+00  0.00000000000E+00  0.12237389845E+04  0.12237389845E+04  0.50400001928E-02 0.  1.
        1   -1    0    0  501    0  0.00000000000E+00  0.00000000000E+00 -0.25888930500E+04  0.25888930500E+04  0.50400001928E-02 0. -1.
    10030    2    1    2    0    0  0.00000000000E+00  0.00000000000E+00 -0.13651540654E+04  0.38126320345E+04  0.35598479473E+04 0.  0.
        5    1    3    3  502    0 -0.12958041564E+04 -0.28449889232E+03  0.58830109774E+03  0.14512643808E+04  0.46999998093E+01 0.  1.
       -5    1    3    3    0  502  0.12958041564E+04  0.28449889232E+03 -0.19534551632E+04  0.23613676537E+04  0.46999998093E+01 0. -1.
</event>
<event>
 5   0  0.1128530E-06  0.3680912E+04  0.7818609E-02  0.8072205E-01
        2   -1    0    0  501    0  0.00000000000E+00  0.00000000000E+00  0.15803379683E+04  0.15803379683E+04  0.25500000920E-02 0.  1.
       -2   -1    0    0    0  501  0.00000000000E+00  0.00000000000E+00 -0.21433889368E+04  0.21433889368E+04  0.25500000920E-02 0. -1.
    10030    2    1    2    0    0  0.00000000000E+00  0.00000000000E+00 -0.56305096846E+03  0.37237269051E+04  0.36809123421E+04 0.  0.
        5    1    3    3  502    0 -0.82758021145E+03  0.16437941286E+04 -0.26375172031E+03  0.18591759474E+04  0.46999998093E+01 0. -1.
       -5    1    3    3    0  502  0.82758021145E+03 -0.16437941286E+04 -0.29929924815E+03  0.18645509576E+04  0.46999998093E+01 0.  1.
</event>
<event>
 5   0  0.3675819E-07  0.3613655E+04  0.7818609E-02  0.8087371E-01
        1   -1    0    0  501    0  0.00000000000E+00  0.00000000000E+00  0.17506655872E+04  0.17506655872E+04  0.50400001928E-02 0. -1.
       -1   -1    0    0    0  501  0.00000000000E+00  0.00000000000E+00 -0.18647906983E+04  0.18647906983E+04  0.50400001928E-02 0.  1.
    10030    2    1    2    0    0  0.00000000000E+00  0.00000000000E+00 -0.11412511107E+03  0.36154562855E+04  0.36136546060E+04 0.  0.
        5    1    3    3  502    0  0.21531951026E+03  0.10390528619E+03 -0.18488893094E+04  0.18642887567E+04  0.46999998093E+01 0.  1.
       -5    1    3    3    0  502 -0.21531951026E+03 -0.10390528619E+03  0.17347641983E+04  0.17511675288E+04  0.46999998093E+01 0. -1.
</event>
<event>
 5   0  0.1128530E-06  0.3870044E+04  0.7818609E-02  0.8031289E-01
        2   -1    0    0  501    0  0.00000000000E+00  0.00000000000E+00  0.22906575342E+04  0.22906575342E+04  0.25500000920E-02 0.  1.
       -2   -1    0    0    0  501  0.00000000000E+00  0.00000000000E+00 -0.16346003646E+04  0.16346003646E+04  0.25500000920E-02 0. -1.
    10030    2    1    2    0    0  0.00000000000E+00  0.00000000000E+00  0.65605716954E+03  0.39252578988E+04  0.38700437417E+04 0.  0.
        5    1    3    3  502    0 -0.87846312406E+03 -0.17080088202E+04  0.56653442884E+03  0.20024921821E+04  0.46999998093E+01 0. -1.
       -5    1    3    3    0  502  0.87846312406E+03  0.17080088202E+04  0.89522740696E+02  0.19227657167E+04  0.46999998093E+01 0.  1.
</event>
<event>
 5   0  0.1051123E-06  0.3692655E+04  0.7818609E-02  0.8069592E-01
        2   -1    0    0  501    0  0.00000000000E+00  0.00000000000E+00  0.18945970548E+04  0.18945970548E+04  0.25500000920E-02 0. -1.
       -2   -1    0    0    0  501  0.00000000000E+00  0.00000000000E+00 -0.17992875636E+04  0.17992875636E+04  0.25500000920E-02 0.  1.
    10030    2    1    2    0    0  0.00000000000E+00  0.00000000000E+00  0.95309491264E+02  0.36938846184E+04  0.36926548275E+04 0.  0.
        2    1    3    3  502    0 -0.88332015700E+03 -0.46347034502E+03 -0.15065246968E+04  0.18068414216E+04  0.25500000920E-02 0.  1.
       -2    1    3    3    0  502  0.88332015700E+03  0.46347034502E+03  0.16018341881E+04  0.18870431968E+04  0.25500000920E-02 0. -1.
</event>
<event>
 5   0  0.3682276E-07  0.3375893E+04  0.7818609E-02  0.8143848E-01
        1   -1    0    0  501    0  0.00000000000E+00  0.00000000000E+00  0.18836684248E+04  0.18836684248E+04  0.50400001928E-02 0.  1.
       -1   -1    0    0    0  501  0.00000000000E+00  0.00000000000E+00 -0.15125611196E+04  0.15125611196E+04  0.50400001928E-02 0. -1.
    10030    2    1    2    0    0  0.00000000000E+00  0.00000000000E+00  0.37110730522E+03  0.33962295444E+04  0.33758931391E+04 0.  0.
        1    1    3    3  502    0  0.10034002495E+04  0.19828002654E+03 -0.11653071964E+04  0.15505056890E+04  0.50400001928E-02 0. -1.
       -1    1    3    3    0  502 -0.10034002495E+04 -0.19828002654E+03  0.15364145016E+04  0.18457238554E+04  0.50400001928E-02 0.  1.
</event>
<event>
 5   0  0.3704306E-07  0.3854971E+04  0.7818609E-02  0.8034460E-01
        1   -1    0    0  501    0  0.00000000000E+00  0.00000000000E+00  0.23949660425E+04  0.23949660425E+04  0.50400001928E-02 0. -1.
       -1   -1    0    0    0  501  0.00000000000E+00  0.00000000000E+00 -0.15512538464E+04  0.15512538464E+04  0.50400001928E-02 0.  1.
    10030    2    1    2    0    0  0.00000000000E+00  0.00000000000E+00  0.84371219607E+03  0.39462198889E+04  0.38549709651E+04 0.  0.
        3    1    3    3  502    0  0.32148431750E+03  0.17893623019E+04 -0.23363732213E+03  0.18329637264E+04  0.10100000352E+00 0.  1.
       -3    1    3    3    0  502 -0.32148431750E+03 -0.17893623019E+04  0.10773495182E+04  0.21132561625E+04  0.10100000352E+00 0. -1.
</event>
<event>
 5   0  0.1066907E-06  0.3754416E+04  0.7818609E-02  0.8056008E-01
        2   -1    0    0  501    0  0.00000000000E+00  0.00000000000E+00  0.24597767975E+04  0.24597767975E+04  0.25500000920E-02 0.  1.
       -2   -1    0    0    0  501  0.00000000000E+00  0.00000000000E+00 -0.14326136985E+04  0.14326136985E+04  0.25500000920E-02 0. -1.
    10030    2    1    2    0    0  0.00000000000E+00  0.00000000000E+00  0.10271630990E+04  0.38923904960E+04  0.37544160320E+04 0.  0.
        4    1    3    3  502    0  0.14321740017E+04  0.10333793456E+04 -0.14613125050E+03  0.17721036082E+04  0.12699999809E+01 0.  1.
       -4    1    3    3    0  502 -0.14321740017E+04 -0.10333793456E+04  0.11732943495E+04  0.21202868878E+04  0.12699999809E+01 0. -1.
</event>
<event>
 5   0  0.1066907E-06  0.3648279E+04  0.7818609E-02  0.8079521E-01
        2   -1    0    0  501    0  0.00000000000E+00  0.00000000000E+00  0.29265862571E+04  0.29265862571E+04  0.25500000920E-02 0. -1.
       -2   -1    0    0    0  501  0.00000000000E+00  0.00000000000E+00 -0.11369853456E+04  0.11369853456E+04  0.25500000920E-02 0.  1.
    10030    2    1    2    0    0  0.00000000000E+00  0.00000000000E+00  0.17896009115E+04  0.40635716027E+04  0.36482794230E+04 0.  0.
        4    1    3    3  502    0  0.13119300446E+04  0.24528076793E+03  0.22797921758E+04  0.26417375106E+04  0.12699999809E+01 0.  1.
       -4    1    3    3    0  502 -0.13119300446E+04 -0.24528076793E+03 -0.49019126434E+03  0.14218340921E+04  0.12699999809E+01 0. -1.
</event>
<event>
 5   0  0.1092116E-06  0.3731205E+04  0.7818609E-02  0.8061081E-01
       -2   -1    0    0    0  501  0.00000000000E+00  0.00000000000E+00  0.31163996267E+04  0.31163996267E+04  0.25500000920E-02 0. -1.
        2   -1    0    0  501    0  0.00000000000E+00  0.00000000000E+00 -0.11168251599E+04  0.11168251599E+04  0.25500000920E-02 0.  1.
    10030    2    1    2    0    0  0.00000000000E+00  0.00000000000E+00  0.19995744667E+04  0.42332247866E+04  0.37312054414E+04 0.  0.
        1    1    3    3  502    0 -0.54926267552E+03 -0.49537619007E+03  0.29429393922E+04  0.30344652449E+04  0.50400001928E-02 0. -1.
       -1    1    3    3    0  502  0.54926267552E+03  0.49537619007E+03 -0.94336492542E+03  0.11987595418E+04  0.50400001928E-02 0.  1.
</event>
<event>
 5   0  0.1128530E-06  0.3669528E+04  0.7818609E-02  0.8074749E-01
        2   -1    0    0  501    0  0.00000000000E+00  0.00000000000E+00  0.28969089049E+04  0.28969089049E+04  0.25500000920E-02 0.  1.
       -2   -1    0    0    0  501  0.00000000000E+00  0.00000000000E+00 -0.11620520996E+04  0.11620520996E+04  0.25500000920E-02 0. -1.
    10030    2    1    2    0    0  0.00000000000E+00  0.00000000000E+00  0.17348568052E+04  0.40589610045E+04  0.36695280761E+04 0.  0.
        5    1    3    3  502    0  0.10258756314E+03  0.17369958602E+04  0.22372554736E+03  0.17543528827E+04  0.46999998093E+01 0. -1.
       -5    1    3    3    0  502 -0.10258756314E+03 -0.17369958602E+04  0.15111312579E+04  0.23046081218E+04  0.46999998093E+01 0.  1.
</event>
<event>
 5   0  0.3704306E-07  0.3559413E+04  0.7818609E-02  0.8099852E-01
        1   -1    0    0  501    0  0.00000000000E+00  0.00000000000E+00  0.10504754924E+04  0.10504754924E+04  0.50400001928E-02 0. -1.
       -1   -1    0    0    0  501  0.00000000000E+00  0.00000000000E+00 -0.30151630692E+04  0.30151630692E+04  0.50400001928E-02 0.  1.
    10030    2    1    2    0    0  0.00000000000E+00  0.00000000000E+00 -0.19646875769E+04  0.40656385616E+04  0.35594128222E+04 0.  0.
        3    1    3    3  502    0  0.80189358052E+03 -0.15126594403E+04 -0.42723931642E+03  0.17645694491E+04  0.10100000352E+00 0.  1.
       -3    1    3    3    0  502 -0.80189358052E+03  0.15126594403E+04 -0.15374482605E+04  0.23010691125E+04  0.10100000352E+00 0. -1.
</event>
<event>
 5   0  0.3682276E-07  0.3654538E+04  0.7818609E-02  0.8078112E-01
        1   -1    0    0  501    0  0.00000000000E+00  0.00000000000E+00  0.16806901289E+04  0.16806901289E+04  0.50400001928E-02 0.  1.
       -1   -1    0    0    0  501  0.00000000000E+00  0.00000000000E+00 -0.19866312405E+04  0.19866312405E+04  0.50400001928E-02 0. -1.
    10030    2    1    2    0    0  0.00000000000E+00  0.00000000000E+00 -0.30594111164E+03  0.36673213694E+04  0.36545377358E+04 0.  0.
        1    1    3    3  502    0  0.66738105139E+03  0.91338851994E+03 -0.15929938668E+04  0.19537925979E+04  0.50400001928E-02 0. -1.
       -1    1    3    3    0  502 -0.66738105139E+03 -0.91338851994E+03  0.12870527551E+04  0.17135287715E+04  0.50400001928E-02 0.  1.
</event>
<event>
 5   0  0.1051123E-06  0.2564948E+04  0.7818609E-02  0.8380206E-01
        2   -1    0    0  501    0  0.00000000000E+00  0.00000000000E+00  0.19449750972E+04  0.19449750973E+04  0.25500000920E-02 0. -1.
       -2   -1    0    0    0  501  0.00000000000E+00  0.00000000000E+00 -0.84563521729E+03  0.84563521729E+03  0.25500000920E-02 0.  1.
    10030    2    1    2    0    0  0.00000000000E+00  0.00000000000E+00  0.10993398800E+04  0.27906103145E+04  0.25649479051E+04 0.  0.
        2    1    3    3  502    0 -0.10262966065E+04  0.70321879191E+03  0.21092893247E+03  0.12618606930E+04  0.25500000920E-02 0.  1.
       -2    1    3    3    0  502  0.10262966065E+04 -0.70321879191E+03  0.88841094749E+03  0.15287496216E+04  0.25500000920E-02 0. -1.
</event>
<event>
 5   0  0.3675819E-07  0.3691050E+04  0.7818609E-02  0.8069948E-01
        1   -1    0    0  501    0  0.00000000000E+00  0.00000000000E+00  0.22517881076E+04  0.22517881076E+04  0.50400001928E-02 0. -1.
       -1   -1    0    0    0  501  0.00000000000E+00  0.00000000000E+00 -0.15125592116E+04  0.15125592116E+04  0.50400001928E-02 0.  1.
    10030    2    1    2    0    0  0.00000000000E+00  0.00000000000E+00  0.73922889600E+03  0.37643473192E+04  0.36910501729E+04 0.  0.
        5    1    3    3  502    0  0.10612794073E+04  0.21595308386E+03 -0.11543794515E+04  0.15828972559E+04  0.46999998093E+01 0.  1.
       -5    1    3    3    0  502 -0.10612794073E+04 -0.21595308386E+03  0.18936083475E+04  0.21814500633E+04  0.46999998093E+01 0. -1.
</event>
<event>
 5   0  0.3704306E-07  0.3433461E+04  0.7818609E-02  0.8129742E-01
        1   -1    0    0  501    0  0.00000000000E+00  0.00000000000E+00  0.29171087036E+04  0.29171087036E+04  0.50400001928E-02 0. -1.
       -1   -1    0    0    0  501  0.00000000000E+00  0.00000000000E+00 -0.10103031734E+04  0.10103031734E+04  0.50400001928E-02 0.  1.
    10030    2    1    2    0    0  0.00000000000E+00  0.00000000000E+00  0.19068055302E+04  0.39274118770E+04  0.34334613325E+04 0.  0.
        3    1    3    3  502    0  0.12300020551E+02 -0.15110218549E+04  0.18853715430E+04  0.24161879484E+04  0.10100000352E+00 0. -1.
       -3    1    3    3    0  502 -0.12300020551E+02  0.15110218549E+04  0.21433987127E+02  0.15112239286E+04  0.10100000352E+00 0.  1.
</event>
<event>
 5   0  0.3848431E-07  0.3733331E+04  0.7818609E-02  0.8060615E-01
        1   -1    0    0  501    0  0.00000000000E+00  0.00000000000E+00  0.20056135760E+04  0.20056135760E+04  0.50400001928E-02 0. -1.
       -1   -1    0    0    0  501  0.00000000000E+00  0.00000000000E+00 -0.17373432932E+04  0.17373432932E+04  0.50400001928E-02 0.  1.
    10030    2    1    2    0    0  0.00000000000E+00  0.00000000000E+00  0.26827028286E+03  0.37429568692E+04  0.37333305747E+04 0.  0.
        2    1    3    3  502    0 -0.80522072520E+03 -0.10571448541E+04  0.14484324039E+04  0.19656785311E+04  0.25500000920E-02 0. -1.
       -2    1    3    3    0  502  0.80522072520E+03  0.10571448541E+04 -0.11801621211E+04  0.17772783381E+04  0.25500000920E-02 0.  1.
</event>
<event>
 5   0  0.1051123E-06  0.3687120E+04  0.7818609E-02  0.8070822E-01
        2   -1    0    0  501    0  0.00000000000E+00  0.00000000000E+00  0.22709329448E+04  0.22709329448E+04  0.25500000920E-02 0. -1.
       -2   -1    0    0    0  501  0.00000000000E+00  0.00000000000E+00 -0.14966151917E+04  0.14966151917E+04  0.25500000920E-02 0.  1.
    10030    2    1    2    0    0  0.00000000000E+00  0.00000000000E+00  0.77431775316E+03  0.37675481365E+04  0.36871196045E+04 0.  0.
        2    1    3    3  502    0 -0.81861454706E+02  0.13610407914E+04 -0.88070500921E+03  0.16231988932E+04  0.25500000920E-02 0.  1.
       -2    1    3    3    0  502  0.81861454706E+02 -0.13610407914E+04  0.16550227624E+04  0.21443492434E+04  0.25500000920E-02 0. -1.
</event>
<event>
 5   0  0.1128166E-06  0.3774363E+04  0.7818609E-02  0.8051679E-01
       -2   -1    0    0    0  501  0.00000000000E+00  0.00000000000E+00  0.13991065578E+04  0.13991065578E+04  0.25500000920E-02 0.  1.
        2   -1    0    0  501    0  0.00000000000E+00  0.00000000000E+00 -0.25455202372E+04  0.25455202372E+04  0.25500000920E-02 0. -1.
    10030    2    1    2    0    0  0.00000000000E+00  0.00000000000E+00 -0.11464136794E+04  0.39446267950E+04  0.37743630228E+04 0.  0.
        3    1    3    3  502    0 -0.41160206883E+03  0.16156330209E+04 -0.14972688587E+04  0.22408704485E+04  0.10100000352E+00 0. -1.
       -3    1    3    3    0  502  0.41160206883E+03 -0.16156330209E+04  0.35085517927E+03  0.17037563465E+04  0.10100000352E+00 0.  1.
</event>
<event>
 5   0  0.3675819E-07  0.3607881E+04  0.7818609E-02  0.8088689E-01
       -1   -1    0    0    0  501  0.00000000000E+00  0.00000000000E+00  0.17099221734E+04  0.17099221734E+04  0.50400001928E-02 0.  1.
        1   -1    0    0  501    0  0.00000000000E+00  0.00000000000E+00 -0.19031283907E+04  0.19031283907E+04  0.50400001928E-02 0. -1.
    10030    2    1    2    0    0  0.00000000000E+00  0.00000000000E+00 -0.19320621731E+03  0.36130505641E+04  0.36078810591E+04 0.  0.
        5    1    3    3  502    0  0.10254867261E+04 -0.91854224842E+03  0.10707585440E+04  0.17441011545E+04  0.46999998093E+01 0.  1.
       -5    1    3    3    0  502 -0.10254867261E+04  0.91854224842E+03 -0.12639647613E+04  0.18689494096E+04  0.46999998093E+01 0. -1.
</event>
<event>
 5   0  0.3682276E-07  0.3902928E+04  0.7818609E-02  0.8024420E-01
       -1   -1    0    0    0  501  0.00000000000E+00  0.00000000000E+00  0.28689517115E+04  0.28689517115E+04  0.50400001928E-02 0.  1.
        1   -1    0    0  501    0  0.00000000000E+00  0.00000000000E+00 -0.13273879753E+04  0.13273879753E+04  0.50400001928E-02 0. -1.
    10030    2    1    2    0    0  0.00000000000E+00  0.00000000000E+00  0.15415637362E+04  0.41963396868E+04  0.39029281334E+04 0.  0.
        1    1    3    3  502    0  0.53375926746E+03 -0.30449624866E+03 -0.12206470634E+04  0.13666002248E+04  0.50400001928E-02 0. -1.
       -1    1    3    3    0  502 -0.53375926746E+03  0.30449624866E+03  0.27622107996E+04  0.28297394620E+04  0.50400001928E-02 0.  1.
</event>
<event>
 5   0  0.3675819E-07  0.3558516E+04  0.7818609E-02  0.8100061E-01
       -1   -1    0    0    0  501  0.00000000000E+00  0.00000000000E+00  0.20874587519E+04  0.20874587519E+04  0.50400001928E-02 0. -1.
        1   -1    0    0  501    0  0.00000000000E+00  0.00000000000E+00 -0.15165616465E+04  0.15165616465E+04  0.50400001928E-02 0.  1.
    10030    2    1    2    0    0  0.00000000000E+00  0.00000000000E+00  0.57089710538E+03  0.36040203985E+04  0.35585164785E+04 0.  0.
        5    1    3    3  502    0 -0.50048391182E+03 -0.92123322172E+03 -0.11704954944E+04  0.15713804718E+04  0.46999998093E+01 0.  1.
       -5    1    3    3    0  502  0.50048391182E+03  0.92123322172E+03  0.17413925998E+04  0.20326399266E+04  0.46999998093E+01 0. -1.
</event>
<event>
 5   0  0.1128530E-06  0.3717048E+04  0.7818609E-02  0.8064194E-01
        2   -1    0    0  501    0  0.00000000000E+00  0.00000000000E+00  0.16043987626E+04  0.16043987626E+04  0.25500000920E-02 0.  1.
       -2   -1    0    0    0  501  0.00000000000E+00  0.00000000000E+00 -0.21529004507E+04  0.21529004507E+04  0.25500000920E-02 0. -1.
    10030    2    1    2    0    0  0.00000000000E+00  0.00000000000E+00 -0.54850168813E+03  0.37572992134E+04  0.37170476560E+04 0.  0.
        5    1    3    3  502    0 -0.89149788092E+03 -0.10177071558E+04 -0.15622517177E+04  0.20666757961E+04  0.46999998093E+01 0. -1.
       -5    1    3    3    0  502  0.89149788092E+03  0.10177071558E+04  0.10137500295E+04  0.16906234173E+04  0.46999998093E+01 0.  1.
</event>
<event>
 5   0  0.1051123E-06  0.3718081E+04  0.7818609E-02  0.8063967E-01
       -2   -1    0    0    0  501  0.00000000000E+00  0.00000000000E+00  0.29046214171E+04  0.29046214171E+04  0.25500000920E-02 0.  1.
        2   -1    0    0  501    0  0.00000000000E+00  0.00000000000E+00 -0.11898391881E+04  0.11898391881E+04  0.25500000920E-02 0. -1.
    10030    2    1    2    0    0  0.00000000000E+00  0.00000000000E+00  0.17147822290E+04  0.40944606053E+04  0.37180814347E+04 0.  0.
        2    1    3    3  502    0  0.24044151931E+03  0.16098060838E+04  0.18465039618E+04  0.24614761085E+04  0.25500000920E-02 0.  1.
       -2    1    3    3    0  502 -0.24044151931E+03 -0.16098060838E+04 -0.13172173277E+03  0.16329844968E+04  0.25500000920E-02 0. -1.
</event>
<event>
 5   0  0.1051123E-06  0.3741626E+04  0.7818609E-02  0.8058799E-01
        2   -1    0    0  501    0  0.00000000000E+00  0.00000000000E+00  0.14744225868E+04  0.14744225868E+04  0.25500000920E-02 0.  1.
       -2   -1    0    0    0  501  0.00000000000E+00  0.00000000000E+00 -0.23737711942E+04  0.23737711942E+04  0.25500000920E-02 0. -1.
    10030    2    1    2    0    0  0.00000000000E+00  0.00000000000E+00 -0.89934860737E+03  0.38481937810E+04  0.37416263119E+04 0.  0.
        2    1    3    3  502    0  0.10310493055E+04 -0.13435748616E+04  0.36774911255E+03  0.17330595746E+04  0.25500000920E-02 0. -1.
       -2    1    3    3    0  502 -0.10310493055E+04  0.13435748616E+04 -0.12670977199E+04  0.21151342064E+04  0.25500000920E-02 0.  1.
</event>
<event>
 5   0  0.1128530E-06  0.3643155E+04  0.7818609E-02  0.8080678E-01
       -2   -1    0    0    0  501  0.00000000000E+00  0.00000000000E+00  0.17847970228E+04  0.17847970228E+04  0.25500000920E-02 0. -1.
        2   -1    0    0  501    0  0.00000000000E+00  0.00000000000E+00 -0.18591156030E+04  0.18591156030E+04  0.25500000920E-02 0.  1.
    10030    2    1    2    0    0  0.00000000000E+00  0.00000000000E+00 -0.74318580260E+02  0.36439126258E+04  0.36431546732E+04 0.  0.
        5    1    3    3  502    0  0.87533516520E+03  0.12466589422E+04 -0.10362423388E+04  0.18423328810E+04  0.46999998093E+01 0.  1.
       -5    1    3    3    0  502 -0.87533516520E+03 -0.12466589422E+04  0.96192375858E+03  0.18015797448E+04  0.46999998093E+01 0. -1.
</event>
<event>
 5   0  0.1092116E-06  0.3071259E+04  0.7818609E-02  0.8223670E-01
        2   -1    0    0  501    0  0.00000000000E+00  0.00000000000E+00  0.16580824533E+04  0.16580824533E+04  0.25500000920E-02 0. -1.
       -2   -1    0    0    0  501  0.00000000000E+00  0.00000000000E+00 -0.14222203721E+04  0.14222203721E+04  0.25500000920E-02 0.  1.
    10030    2    1    2    0    0  0.00000000000E+00  0.00000000000E+00  0.23586208120E+03  0.30803028254E+04  0.30712594444E+04 0.  0.
        1    1    3    3  502    0 -0.31364274195E+03 -0.87722861209E+03 -0.11064242736E+04  0.14464012171E+04  0.50400001928E-02 0.  1.
       -1    1    3    3    0  502  0.31364274195E+03  0.87722861209E+03  0.13422863548E+04  0.16339016084E+04  0.50400001928E-02 0. -1.
</event>
<event>
 5   0  0.1051123E-06  0.3730887E+04  0.7818609E-02  0.8061151E-01
       -2   -1    0    0    0  501  0.00000000000E+00  0.00000000000E+00  0.18649619426E+04  0.18649619426E+04  0.25500000920E-02 0. -1.
        2   -1    0    0  501    0  0.00000000000E+00  0.00000000000E+00 -0.18659252701E+04  0.18659252701E+04  0.25500000920E-02 0.  1.
    10030    2    1    2    0    0  0.00000000000E+00  0.00000000000E+00 -0.96332749267E+00  0.37308872126E+04  0.37308870883E+04 0.  0.
        2    1    3    3  502    0 -0.36858403510E+03  0.14600583879E+04  0.11005428637E+04  0.18651593181E+04  0.25500000920E-02 0.  1.
       -2    1    3    3    0  502  0.36858403510E+03 -0.14600583879E+04 -0.11015061912E+04  0.18657278945E+04  0.25500000920E-02 0. -1.
</event>
<event>
 5   0  0.1092116E-06  0.3617944E+04  0.7818609E-02  0.8086394E-01
       -2   -1    0    0    0  501  0.00000000000E+00  0.00000000000E+00  0.15597385570E+04  0.15597385570E+04  0.25500000920E-02 0. -1.
        2   -1    0    0  501    0  0.00000000000E+00  0.00000000000E+00 -0.20980308827E+04  0.20980308827E+04  0.25500000920E-02 0.  1.
    10030    2    1    2    0    0  0.00000000000E+00  0.00000000000E+00 -0.53829232571E+03  0.36577694397E+04  0.36179439805E+04 0.  0.
        1    1    3    3  502    0  0.13187521049E+03 -0.89029324171E+03 -0.18556124187E+04  0.20623555891E+04  0.50400001928E-02 0.  1.
       -1    1    3    3    0  502 -0.13187521049E+03  0.89029324171E+03  0.13173200930E+04  0.15954138506E+04  0.50400001928E-02 0. -1.
</event>
<event>
 5   0  0.3764495E-07  0.2784763E+04  0.7818609E-02  0.8308014E-01
       -1   -1    0    0    0  501  0.00000000000E+00  0.00000000000E+00  0.20568419519E+04  0.20568419519E+04  0.50400001928E-02 0.  1.
        1   -1    0    0  501    0  0.00000000000E+00  0.00000000000E+00 -0.94257442836E+03  0.94257442837E+03  0.50400001928E-02 0. -1.
    10030    2    1    2    0    0  0.00000000000E+00  0.00000000000E+00  0.11142675235E+04  0.29994163803E+04  0.27847632769E+04 0.  0.
        4    1    3    3  502    0 -0.10705192508E+04  0.69963230484E+03 -0.35973524712E+02  0.12793719302E+04  0.12699999809E+01 0. -1.
       -4    1    3    3    0  502  0.10705192508E+04 -0.69963230484E+03  0.11502410483E+04  0.17200444501E+04  0.12699999809E+01 0.  1.
</event>
<event>
 5   0  0.3682276E-07  0.3644971E+04  0.7818609E-02  0.8080268E-01
       -1   -1    0    0    0  501  0.00000000000E+00  0.00000000000E+00  0.11709163021E+04  0.11709163021E+04  0.50400001928E-02 0.  1.
        1   -1    0    0  501    0  0.00000000000E+00  0.00000000000E+00 -0.28366273124E+04  0.28366273124E+04  0.50400001928E-02 0. -1.
    10030    2    1    2    0    0  0.00000000000E+00  0.00000000000E+00 -0.16657110104E+04  0.40075436145E+04  0.36449708713E+04 0.  0.
        1    1    3    3  502    0 -0.48265239924E+02 -0.18202904346E+04 -0.75009247083E+03  0.19693718579E+04  0.50400001928E-02 0.  1.
       -1    1    3    3    0  502  0.48265239924E+02  0.18202904346E+04 -0.91561853952E+03  0.20381717567E+04  0.50400001928E-02 0. -1.
</event>
<event>
 5   0  0.3682276E-07  0.3725753E+04  0.7818609E-02  0.8062279E-01
        1   -1    0    0  501    0  0.00000000000E+00  0.00000000000E+00  0.13398440165E+04  0.13398440165E+04  0.50400001928E-02 0.  1.
       -1   -1    0    0    0  501  0.00000000000E+00  0.00000000000E+00 -0.25900841355E+04  0.25900841355E+04  0.50400001928E-02 0. -1.
    10030    2    1    2    0    0  0.00000000000E+00  0.00000000000E+00 -0.12502401189E+04  0.39299281520E+04  0.37257529340E+04 0.  0.
        1    1    3    3  502    0  0.36221919491E+03 -0.99377396680E+03  0.99238195864E+03  0.14503831887E+04  0.50400001928E-02 0.  1.
       -1    1    3    3    0  502 -0.36221919491E+03  0.99377396680E+03 -0.22426220776E+04  0.24795449633E+04  0.50400001928E-02 0. -1.
</event>
<event>
 5   0  0.1066907E-06  0.3717311E+04  0.7818609E-02  0.8064136E-01
       -2   -1    0    0    0  501  0.00000000000E+00  0.00000000000E+00  0.14221542380E+04  0.14221542380E+04  0.25500000920E-02 0.  1.
        2   -1    0    0  501    0  0.00000000000E+00  0.00000000000E+00 -0.24291314327E+04  0.24291314327E+04  0.25500000920E-02 0. -1.
    10030    2    1    2    0    0  0.00000000000E+00  0.00000000000E+00 -0.10069771947E+04  0.38512856707E+04  0.37173106202E+04 0.  0.
        4    1    3    3  502    0  0.15314513418E+03 -0.18724006018E+03  0.14057763547E+04  0.14264364846E+04  0.12699999809E+01 0.  1.
       -4    1    3    3    0  502 -0.15314513418E+03  0.18724006018E+03 -0.24127535494E+04  0.24248491861E+04  0.12699999809E+01 0. -1.
</event>
<event>
 5   0  0.3490375E-07  0.2436234E+04  0.7818609E-02  0.8426061E-01
       -3   -1    0    0    0  501  0.00000000000E+00  0.00000000000E+00  0.67377454717E+03  0.67377455474E+03  0.10100000352E+00 0. -1.
        3   -1    0    0  501    0  0.00000000000E+00  0.00000000000E+00 -0.22022342883E+04  0.22022342906E+04  0.10100000352E+00 0.  1.
    10030    2    1    2    0    0  0.00000000000E+00  0.00000000000E+00 -0.15284597411E+04  0.28760088454E+04  0.24362343275E+04 0.  0.
        4    1    3    3  502    0 -0.63162918267E+03 -0.20402449525E+03  0.44152893443E+03  0.79720187650E+03  0.12699999809E+01 0. -1.
       -4    1    3    3    0  502  0.63162918267E+03  0.20402449525E+03 -0.19699886756E+04  0.20788069689E+04  0.12699999809E+01 0.  1.
</event>
<event>
 5   0  0.3848431E-07  0.3673455E+04  0.7818609E-02  0.8073870E-01
        1   -1    0    0  501    0  0.00000000000E+00  0.00000000000E+00  0.28023206997E+04  0.28023206997E+04  0.50400001928E-02 0.  1.
       -1   -1    0    0    0  501  0.00000000000E+00  0.00000000000E+00 -0.12038477887E+04  0.12038477887E+04  0.50400001928E-02 0. -1.
    10030    2    1    2    0    0  0.00000000000E+00  0.00000000000E+00  0.15984729109E+04  0.40061684884E+04  0.36734548194E+04 0.  0.
        2    1    3    3  502    0  0.46557203972E+03 -0.11244194884E+04 -0.70104046033E+03  0.14044693792E+04  0.25500000920E-02 0. -1.
       -2    1    3    3    0  502 -0.46557203972E+03  0.11244194884E+04  0.22995133713E+04  0.26016991092E+04  0.25500000920E-02 0.  1.
</event>
<event>
 5   0  0.3682276E-07  0.3618334E+04  0.7818609E-02  0.8086305E-01
       -1   -1    0    0    0  501  0.00000000000E+00  0.00000000000E+00  0.14380989596E+04  0.14380989596E+04  0.50400001928E-02 0.  1.
        1   -1    0    0  501    0  0.00000000000E+00  0.00000000000E+00 -0.22759809265E+04  0.22759809265E+04  0.50400001928E-02 0. -1.
    10030    2    1    2    0    0  0.00000000000E+00  0.00000000000E+00 -0.83788196689E+03  0.37140798862E+04  0.36183343144E+04 0.  0.
        1    1    3    3  502    0 -0.11697914682E+04  0.10190022145E+03  0.99381056205E+03  0.15383286929E+04  0.50400001928E-02 0.  1.
       -1    1    3    3    0  502  0.11697914682E+04 -0.10190022145E+03 -0.18316925289E+04  0.21757511932E+04  0.50400001928E-02 0. -1.
</event>
<event>
 5   0  0.3682276E-07  0.3669313E+04  0.7818609E-02  0.8074797E-01
       -1   -1    0    0    0  501  0.00000000000E+00  0.00000000000E+00  0.18105839128E+04  0.18105839128E+04  0.50400001928E-02 0.  1.
        1   -1    0    0  501    0  0.00000000000E+00  0.00000000000E+00 -0.18590492783E+04  0.18590492783E+04  0.50400001928E-02 0. -1.
    10030    2    1    2    0    0  0.00000000000E+00  0.00000000000E+00 -0.48465365529E+02  0.36696331910E+04  0.36693131326E+04 0.  0.
        1    1    3    3  502    0 -0.13174861222E+04 -0.31445835713E+03 -0.12618021259E+04  0.18511613505E+04  0.50400001928E-02 0. -1.
       -1    1    3    3    0  502  0.13174861222E+04  0.31445835713E+03  0.12133367604E+04  0.18184718405E+04  0.50400001928E-02 0.  1.
</event>
<event>
 5   0  0.1128166E-06  0.3722954E+04  0.7818609E-02  0.8062894E-01
        2   -1    0    0  501    0  0.00000000000E+00  0.00000000000E+00  0.11473654376E+04  0.11473654376E+04  0.25500000920E-02 0.  1.
       -2   -1    0    0    0  501  0.00000000000E+00  0.00000000000E+00 -0.30200465200E+04  0.30200465200E+04  0.25500000920E-02 0. -1.
    10030    2    1    2    0    0  0.00000000000E+00  0.00000000000E+00 -0.18726810823E+04  0.41674119576E+04  0.37229542018E+04 0.  0.
        3    1    3    3  502    0 -0.13437692180E+04 -0.11209652461E+04 -0.16467901477E+04  0.24029558038E+04  0.10100000352E+00 0. -1.
       -3    1    3    3    0  502  0.13437692180E+04  0.11209652461E+04 -0.22589093462E+03  0.17644561538E+04  0.10100000352E+00 0.  1.
</event>
<event>
 5   0  0.3848431E-07  0.2831570E+04  0.7818609E-02  0.8293534E-01
        1   -1    0    0  501    0  0.00000000000E+00  0.00000000000E+00  0.16202158588E+04  0.16202158588E+04  0.50400001928E-02 0.  1.
       -1   -1    0    0    0  501  0.00000000000E+00  0.00000000000E+00 -0.12371480160E+04  0.12371480160E+04  0.50400001928E-02 0. -1.
    10030    2    1    2    0    0  0.00000000000E+00  0.00000000000E+00  0.38306784277E+03  0.28573638747E+04  0.28315697661E+04 0.  0.
        2    1    3    3  502    0 -0.12358209248E+04  0.41551667090E+03  0.74841185337E+03  0.15033388720E+04  0.25500000920E-02 0. -1.
       -2    1    3    3    0  502  0.12358209248E+04 -0.41551667090E+03 -0.36534401059E+03  0.13540250027E+04  0.25500000920E-02 0.  1.
</event>
<event>
 5   0  0.1128166E-06  0.3640408E+04  0.7818609E-02  0.8081298E-01
        2   -1    0    0  501    0  0.00000000000E+00  0.00000000000E+00  0.11468446807E+04  0.11468446807E+04  0.25500000920E-02 0.  1.
       -2   -1    0    0    0  501  0.00000000000E+00  0.00000000000E+00 -0.28889205836E+04  0.28889205836E+04  0.25500000920E-02 0. -1.
    10030    2    1    2    0    0  0.00000000000E+00  0.00000000000E+00 -0.17420759029E+04  0.40357652644E+04  0.36404083312E+04 0.  0.
        3    1    3    3  502    0 -0.43003176873E+03  0.17260596988E+03 -0.28224373013E+04  0.28602224517E+04  0.10100000352E+00 0. -1.
       -3    1    3    3    0  502  0.43003176873E+03 -0.17260596988E+03  0.10803613985E+04  0.11755428127E+04  0.10100000352E+00 0.  1.
</event>
<event>
 5   0  0.3490375E-07  0.3638785E+04  0.7818609E-02  0.8081665E-01
       -3   -1    0    0    0  501  0.00000000000E+00  0.00000000000E+00  0.14971450162E+04  0.14971450197E+04  0.10100000352E+00 0. -1.
        3   -1    0    0  501    0  0.00000000000E+00  0.00000000000E+00 -0.22110004693E+04  0.22110004716E+04  0.10100000352E+00 0.  1.
    10030    2    1    2    0    0  0.00000000000E+00  0.00000000000E+00 -0.71385545303E+03  0.37081454912E+04  0.36387846015E+04 0.  0.
        5    1    3    3  502    0 -0.23058400900E+03 -0.15096587885E+03 -0.21895978293E+04  0.22068802472E+04  0.46999998093E+01 0.  1.
       -5    1    3    3    0  502  0.23058400900E+03  0.15096587885E+03  0.14757423762E+04  0.15012652440E+04  0.46999998093E+01 0. -1.
</event>
<event>
 5   0  0.1128166E-06  0.3720816E+04  0.7818609E-02  0.8063364E-01
       -2   -1    0    0    0  501  0.00000000000E+00  0.00000000000E+00  0.20557019606E+04  0.20557019606E+04  0.25500000920E-02 0. -1.
        2   -1    0    0  501    0  0.00000000000E+00  0.00000000000E+00 -0.16836670022E+04  0.16836670022E+04  0.25500000920E-02 0.  1.
    10030    2    1    2    0    0  0.00000000000E+00  0.00000000000E+00  0.37203495842E+03  0.37393689628E+04  0.37208158016E+04 0.  0.
        3    1    3    3  502    0  0.31511505345E+03 -0.25302503483E+03  0.20110566848E+04  0.20512601407E+04  0.10100000352E+00 0. -1.
       -3    1    3    3    0  502 -0.31511505345E+03  0.25302503483E+03 -0.16390217264E+04  0.16881088220E+04  0.10100000352E+00 0.  1.
</event>
<event>
 5   0  0.3704306E-07  0.3502472E+04  0.7818609E-02  0.8113204E-01
        1   -1    0    0  501    0  0.00000000000E+00  0.00000000000E+00  0.11151036703E+04  0.11151036703E+04  0.50400001928E-02 0.  1.
       -1   -1    0    0    0  501  0.00000000000E+00  0.00000000000E+00 -0.27502629341E+04  0.27502629341E+04  0.50400001928E-02 0. -1.
    10030    2    1    2    0    0  0.00000000000E+00  0.00000000000E+00 -0.16351592638E+04  0.38653666044E+04  0.35024724365E+04 0.  0.
        3    1    3    3  502    0 -0.38073277706E+02  0.78371834854E+02  0.11127100737E+04  0.11161162293E+04  0.10100000352E+00 0.  1.
       -3    1    3    3    0  502  0.38073277706E+02 -0.78371834854E+02 -0.27478693375E+04  0.27492503751E+04  0.10100000352E+00 0. -1.
</event>
<event>
 5   0  0.3675819E-07  0.3752723E+04  0.7818609E-02  0.8056377E-01
       -1   -1    0    0    0  501  0.00000000000E+00  0.00000000000E+00  0.14619011580E+04  0.14619011580E+04  0.50400001928E-02 0. -1.
        1   -1    0    0  501    0  0.00000000000E+00  0.00000000000E+00 -0.24083239984E+04  0.24083239984E+04  0.50400001928E-02 0.  1.
    10030    2    1    2    0    0  0.00000000000E+00  0.00000000000E+00 -0.94642284042E+03  0.38702251564E+04  0.37527225542E+04 0.  0.
        5    1    3    3  502    0 -0.15706204166E+04 -0.39860773504E+03  0.50244009771E+03  0.16965272651E+04  0.46999998093E+01 0. -1.
       -5    1    3    3    0  502  0.15706204166E+04  0.39860773504E+03 -0.14488629381E+04  0.21736978914E+04  0.46999998093E+01 0.  1.
</event>
<event>
 5   0  0.1128530E-06  0.3706864E+04  0.7818609E-02  0.8066442E-01
       -2   -1    0    0    0  501  0.00000000000E+00  0.00000000000E+00  0.10584483858E+04  0.10584483858E+04  0.25500000920E-02 0. -1.
        2   -1    0    0  501    0  0.00000000000E+00  0.00000000000E+00 -0.32455143123E+04  0.32455143123E+04  0.25500000920E-02 0.  1.
    10030    2    1    2    0    0  0.00000000000E+00  0.00000000000E+00 -0.21870659265E+04  0.43039626982E+04  0.37068635719E+04 0.  0.
        5    1    3    3  502    0  0.12112338937E+04 -0.66653630805E+03  0.33974369331E+03  0.14236593912E+04  0.46999998093E+01 0. -1.
       -5    1    3    3    0  502 -0.12112338937E+04  0.66653630805E+03 -0.25268096198E+04  0.28803033069E+04  0.46999998093E+01 0.  1.
</event>
<event>
 5   0  0.3704306E-07  0.3657521E+04  0.7818609E-02  0.8077441E-01
        1   -1    0    0  501    0  0.00000000000E+00  0.00000000000E+00  0.21143128788E+04  0.21143128788E+04  0.50400001928E-02 0. -1.
       -1   -1    0    0    0  501  0.00000000000E+00  0.00000000000E+00 -0.15817740831E+04  0.15817740831E+04  0.50400001928E-02 0.  1.
    10030    2    1    2    0    0  0.00000000000E+00  0.00000000000E+00  0.53253879571E+03  0.36960869620E+04  0.36575211909E+04 0.  0.
        3    1    3    3  502    0 -0.11977778530E+04 -0.97564791683E+03  0.12552637312E+04  0.19905395469E+04  0.10100000352E+00 0. -1.
       -3    1    3    3    0  502  0.11977778530E+04  0.97564791683E+03 -0.72272493546E+03  0.17055474151E+04  0.10100000352E+00 0.  1.
</event>
<event>
 5   0  0.3848431E-07  0.3675549E+04  0.7818609E-02  0.8073402E-01
        1   -1    0    0  501    0  0.00000000000E+00  0.00000000000E+00  0.22278844119E+04  0.22278844119E+04  0.50400001928E-02 0.  1.
       -1   -1    0    0    0  501  0.00000000000E+00  0.00000000000E+00 -0.15159741832E+04  0.15159741832E+04  0.50400001928E-02 0. -1.
    10030    2    1    2    0    0  0.00000000000E+00  0.00000000000E+00  0.71191022873E+03  0.37438585951E+04  0.36755490755E+04 0.  0.
        2    1    3    3  502    0  0.11723011738E+04 -0.69521003439E+03  0.16116716280E+04  0.21107089971E+04  0.25500000920E-02 0.  1.
       -2    1    3    3    0  502 -0.11723011738E+04  0.69521003439E+03 -0.89976139927E+03  0.16331495980E+04  0.25500000920E-02 0. -1.
</event>
<event>
 5   0  0.1051123E-06  0.2469197E+04  0.7818609E-02  0.8414042E-01
       -2   -1    0    0    0  501  0.00000000000E+00  0.00000000000E+00  0.11798706727E+04  0.11798706727E+04  0.25500000920E-02 0. -1.
        2   -1    0    0  501    0  0.00000000000E+00  0.00000000000E+00 -0.12918649149E+04  0.12918649149E+04  0.25500000920E-02 0.  1.
    10030    2    1    2    0    0  0.00000000000E+00  0.00000000000E+00 -0.11199424211E+03  0.24717355876E+04  0.24691970567E+04 0.  0.
        2    1    3    3  502    0  0.34711131003E+03  0.67352028530E+03  0.91974479524E+03  0.11916569660E+04  0.25500000920E-02 0. -1.
       -2    1    3    3    0  502 -0.34711131003E+03 -0.67352028530E+03 -0.10317390374E+04  0.12800786216E+04  0.25500000920E-02 0.  1.
</event>
<event>
 5   0  0.1051123E-06  0.3652075E+04  0.7818609E-02  0.8078666E-01
       -2   -1    0    0    0  501  0.00000000000E+00  0.00000000000E+00  0.15243830825E+04  0.15243830825E+04  0.25500000920E-02 0.  1.
        2   -1    0    0  501    0  0.00000000000E+00  0.00000000000E+00 -0.21873853711E+04  0.21873853711E+04  0.25500000920E-02 0. -1.
    10030    2    1    2    0    0  0.00000000000E+00  0.00000000000E+00 -0.66300228861E+03  0.37117684535E+04  0.36520751660E+04 0.  0.
        2    1    3    3  502    0  0.40595870477E+03 -0.17802818636E+04 -0.31686892743E+03  0.18532705957E+04  0.25500000920E-02 0.  1.
       -2    1    3    3    0  502 -0.40595870477E+03  0.17802818636E+04 -0.34613336118E+03  0.18584978578E+04  0.25500000920E-02 0. -1.
</event>
<event>
 5   0  0.1066907E-06  0.3722697E+04  0.7818609E-02  0.8062950E-01
       -2   -1    0    0    0  501  0.00000000000E+00  0.00000000000E+00  0.23894190341E+04  0.23894190341E+04  0.25500000920E-02 0.  1.
        2   -1    0    0  501    0  0.00000000000E+00  0.00000000000E+00 -0.14499835168E+04  0.14499835168E+04  0.25500000920E-02 0. -1.
    10030    2    1    2    0    0  0.00000000000E+00  0.00000000000E+00  0.93943551722E+03  0.38394025509E+04  0.37226969870E+04 0.  0.
        4    1    3    3  502    0 -0.13975774245E+04  0.11933280433E+04  0.77455467224E+03  0.19942896052E+04  0.12699999809E+01 0.  1.
       -4    1    3    3    0  502  0.13975774245E+04 -0.11933280433E+04  0.16488084498E+03  0.18451129457E+04  0.12699999809E+01 0. -1.
</event>
<event>
 5   0  0.1092116E-06  0.3668914E+04  0.7818609E-02  0.8074886E-01
       -2   -1    0    0    0  501  0.00000000000E+00  0.00000000000E+00  0.14026971724E+04  0.14026971724E+04  0.25500000920E-02 0. -1.
        2   -1    0    0  501    0  0.00000000000E+00  0.00000000000E+00 -0.23991158041E+04  0.23991158041E+04  0.25500000920E-02 0.  1.
    10030    2    1    2    0    0  0.00000000000E+00  0.00000000000E+00 -0.99641863167E+03  0.38018129765E+04  0.36689142561E+04 0.  0.
        1    1    3    3  502    0 -0.12627714272E+04 -0.87601225169E+03  0.53969288138E+03  0.16288823005E+04  0.50400001928E-02 0. -1.
       -1    1    3    3    0  502  0.12627714272E+04  0.87601225169E+03 -0.15361115130E+04  0.21729306761E+04  0.50400001928E-02 0.  1.
</event>
<event>
 5   0  0.3848431E-07  0.3004799E+04  0.7818609E-02  0.8242362E-01
        1   -1    0    0  501    0  0.00000000000E+00  0.00000000000E+00  0.15075697419E+04  0.15075697419E+04  0.50400001928E-02 0.  1.
       -1   -1    0    0    0  501  0.00000000000E+00  0.00000000000E+00 -0.14972466262E+04  0.14972466262E+04  0.50400001928E-02 0. -1.
    10030    2    1    2    0    0  0.00000000000E+00  0.00000000000E+00  0.10323115681E+02  0.30048163681E+04  0.30047986354E+04 0.  0.
        2    1    3    3  502    0 -0.94141520886E+03 -0.64604443030E+03  0.98167523587E+03  0.15057630192E+04  0.25500000920E-02 0.  1.
       -2    1    3    3    0  502  0.94141520886E+03  0.64604443030E+03 -0.97135212019E+03  0.14990533489E+04  0.25500000920E-02 0. -1.
</event>
<event>
 5   0  0.1051123E-06  0.2622547E+04  0.7818609E-02  0.8360582E-01
       -2   -1    0    0    0  501  0.00000000000E+00  0.00000000000E+00  0.10922029425E+04  0.10922029425E+04  0.25500000920E-02 0. -1.
        2   -1    0    0  501    0  0.00000000000E+00  0.00000000000E+00 -0.15742849628E+04  0.15742849628E+04  0.25500000920E-02 0.  1.
    10030    2    1    2    0    0  0.00000000000E+00  0.00000000000E+00 -0.48208202032E+03  0.26664879052E+04  0.26225473636E+04 0.  0.
        2    1    3    3  502    0 -0.22512311927E+03 -0.10357569868E+04  0.54388173761E+03  0.11913355107E+04  0.25500000920E-02 0. -1.
       -2    1    3    3    0  502  0.22512311927E+03  0.10357569868E+04 -0.10259637579E+04  0.14751523945E+04  0.25500000920E-02 0.  1.
</event>
<event>
 5   0  0.1092116E-06  0.3661618E+04  0.7818609E-02  0.8076521E-01
        2   -1    0    0  501    0  0.00000000000E+00  0.00000000000E+00  0.24165611204E+04  0.24165611204E+04  0.25500000920E-02 0.  1.
       -2   -1    0    0    0  501  0.00000000000E+00  0.00000000000E+00 -0.13870377879E+04  0.13870377879E+04  0.25500000920E-02 0. -1.
    10030    2    1    2    0    0  0.00000000000E+00  0.00000000000E+00  0.10295233325E+04  0.38035989083E+04  0.36616179980E+04 0.  0.
        1    1    3    3  502    0  0.10706269445E+04  0.13597058248E+04  0.11352677371E+04  0.20697523570E+04  0.50400001928E-02 0.  1.
       -1    1    3    3    0  502 -0.10706269445E+04 -0.13597058248E+04 -0.10574440469E+03  0.17338465513E+04  0.50400001928E-02 0. -1.
</event>
<event>
 5   0  0.3704306E-07  0.2570620E+04  0.7818609E-02  0.8378250E-01
        1   -1    0    0  501    0  0.00000000000E+00  0.00000000000E+00  0.20457461345E+04  0.20457461345E+04  0.50400001928E-02 0. -1.
       -1   -1    0    0    0  501  0.00000000000E+00  0.00000000000E+00 -0.80754012894E+03  0.80754012896E+03  0.50400001928E-02 0.  1.
    10030    2    1    2    0    0  0.00000000000E+00  0.00000000000E+00  0.12382060056E+04  0.28532862635E+04  0.25706202343E+04 0.  0.
        3    1    3    3  502    0 -0.79330702822E+03 -0.28757393871E+03 -0.45703609748E+03  0.95964410895E+03  0.10100000352E+00 0.  1.
       -3    1    3    3    0  502  0.79330702822E+03  0.28757393871E+03  0.16952421031E+04  0.18936421545E+04  0.10100000352E+00 0. -1.
</event>
<event>
 5   0  0.1128530E-06  0.3671928E+04  0.7818609E-02  0.8074211E-01
        2   -1    0    0  501    0  0.00000000000E+00  0.00000000000E+00  0.24765850064E+04  0.24765850064E+04  0.25500000920E-02 0. -1.
       -2   -1    0    0    0  501  0.00000000000E+00  0.00000000000E+00 -0.13610534473E+04  0.13610534473E+04  0.25500000920E-02 0.  1.
    10030    2    1    2    0    0  0.00000000000E+00  0.00000000000E+00  0.11155315591E+04  0.38376384537E+04  0.36719284091E+04 0.  0.
        5    1    3    3  502    0  0.10356278097E+04  0.12144360352E+04 -0.39057718553E+03  0.16431532101E+04  0.46999998093E+01 0.  1.
       -5    1    3    3    0  502 -0.10356278097E+04 -0.12144360352E+04  0.15061087446E+04  0.21944852436E+04  0.46999998093E+01 0. -1.
</event>
<event>
 5   0  0.3764495E-07  0.2467710E+04  0.7818609E-02  0.8414580E-01
       -1   -1    0    0    0  501  0.00000000000E+00  0.00000000000E+00  0.91348333556E+03  0.91348333557E+03  0.50400001928E-02 0.  1.
        1   -1    0    0  501    0  0.00000000000E+00  0.00000000000E+00 -0.16665861244E+04  0.16665861244E+04  0.50400001928E-02 0. -1.
    10030    2    1    2    0    0  0.00000000000E+00  0.00000000000E+00 -0.75310278880E+03  0.25800694599E+04  0.24677103978E+04 0.  0.
        4    1    3    3  502    0 -0.96758064471E+03  0.35249955308E+03  0.33404782679E+03  0.10826161843E+04  0.12699999809E+01 0.  1.
       -4    1    3    3    0  502  0.96758064471E+03 -0.35249955308E+03 -0.10871506156E+04  0.14974532757E+04  0.12699999809E+01 0. -1.
</event>
<event>
 5   0  0.1092116E-06  0.2872659E+04  0.7818609E-02  0.8281059E-01
       -2   -1    0    0    0  501  0.00000000000E+00  0.00000000000E+00  0.15109100942E+04  0.15109100942E+04  0.25500000920E-02 0.  1.
        2   -1    0    0  501    0  0.00000000000E+00  0.00000000000E+00 -0.13654302752E+04  0.13654302752E+04  0.25500000920E-02 0. -1.
    10030    2    1    2    0    0  0.00000000000E+00  0.00000000000E+00  0.14547981909E+03  0.28763403694E+04  0.28726589674E+04 0.  0.
        1    1    3    3  502    0 -0.30333754432E+03  0.11520153926E+03 -0.13282520228E+04  0.13673106804E+04  0.50400001928E-02 0. -1.
       -1    1    3    3    0  502  0.30333754432E+03 -0.11520153926E+03  0.14737318419E+04  0.15090296890E+04  0.50400001928E-02 0.  1.
</event>
<event>
 5   0  0.1051123E-06  0.2334649E+04  0.7818609E-02  0.8464383E-01
       -2   -1    0    0    0  501  0.00000000000E+00  0.00000000000E+00  0.90499324903E+03  0.90499324903E+03  0.25500000920E-02 0. -1.
        2   -1    0    0  501    0  0.00000000000E+00  0.00000000000E+00 -0.15056980990E+04  0.15056980990E+04  0.25500000920E-02 0.  1.
    10030    2    1    2    0    0  0.00000000000E+00  0.00000000000E+00 -0.60070485000E+03  0.24106913481E+04  0.23346491083E+04 0.  0.
        2    1    3    3  502    0 -0.10797448188E+04 -0.30064258909E+02  0.15666254732E+03  0.10914650187E+04  0.25500000920E-02 0. -1.
       -2    1    3    3    0  502  0.10797448188E+04  0.30064258909E+02 -0.75736739732E+03  0.13192263293E+04  0.25500000920E-02 0.  1.
</event>
<event>
 5   0  0.3490375E-07  0.3716371E+04  0.7818609E-02  0.8064343E-01
       -3   -1    0    0    0  501  0.00000000000E+00  0.00000000000E+00  0.20929759230E+04  0.20929759254E+04  0.10100000352E+00 0. -1.
        3   -1    0    0  501    0  0.00000000000E+00  0.00000000000E+00 -0.16497341711E+04  0.16497341742E+04  0.10100000352E+00 0.  1.
    10030    2    1    2    0    0  0.00000000000E+00  0.00000000000E+00  0.44324175186E+03  0.37427100996E+04  0.37163712999E+04 0.  0.
        1    1    3    3  502    0 -0.61733422982E+03 -0.10308547050E+04  0.16490905437E+04  0.20404074582E+04  0.50400001928E-02 0. -1.
       -1    1    3    3    0  502  0.61733422982E+03  0.10308547050E+04 -0.12058487919E+04  0.17023026414E+04  0.50400001928E-02 0.  1.
</event>
<event>
 5   0  0.1051123E-06  0.2881159E+04  0.7818609E-02  0.8278505E-01
        2   -1    0    0  501    0  0.00000000000E+00  0.00000000000E+00  0.16841265805E+04  0.16841265805E+04  0.25500000920E-02 0. -1.
       -2   -1    0    0    0  501  0.00000000000E+00  0.00000000000E+00 -0.12322527377E+04  0.12322527377E+04  0.25500000920E-02 0.  1.
    10030    2    1    2    0    0  0.00000000000E+00  0.00000000000E+00  0.45187384277E+03  0.29163793182E+04  0.28811592039E+04 0.  0.
        2    1    3    3  502    0  0.14189490912E+04  0.13434481070E+03  0.43779074416E+03  0.14910150191E+04  0.25500000920E-02 0. -1.
       -2    1    3    3    0  502 -0.14189490912E+04 -0.13434481070E+03  0.14083098613E+02  0.14253642991E+04  0.25500000920E-02 0.  1.
</event>
<event>
 5   0  0.1128530E-06  0.3644121E+04  0.7818609E-02  0.8080459E-01
       -2   -1    0    0    0  501  0.00000000000E+00  0.00000000000E+00  0.29132897025E+04  0.29132897025E+04  0.25500000920E-02 0.  1.
        2   -1    0    0  501    0  0.00000000000E+00  0.00000000000E+00 -0.11395723712E+04  0.11395723712E+04  0.25500000920E-02 0. -1.
    10030    2    1    2    0    0  0.00000000000E+00  0.00000000000E+00  0.17737173313E+04  0.40528620737E+04  0.36441209938E+04 0.  0.
        5    1    3    3  502    0  0.16984713226E+04 -0.64948488694E+03  0.75885383367E+03  0.19704102829E+04  0.46999998093E+01 0.  1.
       -5    1    3    3    0  502 -0.16984713226E+04  0.64948488694E+03  0.10148634977E+04  0.20824517908E+04  0.46999998093E+01 0. -1.
</event>
<event>
 5   0  0.3764495E-07  0.3617715E+04  0.7818609E-02  0.8086446E-01
        1   -1    0    0  501    0  0.00000000000E+00  0.00000000000E+00  0.20628654369E+04  0.20628654369E+04  0.50400001928E-02 0. -1.
       -1   -1    0    0    0  501  0.00000000000E+00  0.00000000000E+00 -0.15861264137E+04  0.15861264137E+04  0.50400001928E-02 0.  1.
    10030    2    1    2    0    0  0.00000000000E+00  0.00000000000E+00  0.47673902318E+03  0.36489918507E+04  0.36177149459E+04 0.  0.
        4    1    3    3  502    0  0.52084218322E+03 -0.13587527779E+04  0.13221252001E+04  0.19660880827E+04  0.12699999809E+01 0. -1.
       -4    1    3    3    0  502 -0.52084218322E+03  0.13587527779E+04 -0.84538617695E+03  0.16829037680E+04  0.12699999809E+01 0.  1.
</event>
<event>
 5   0  0.1092116E-06  0.3409446E+04  0.7818609E-02  0.8135592E-01
       -2   -1    0    0    0  501  0.00000000000E+00  0.00000000000E+00  0.10341793696E+04  0.10341793696E+04  0.25500000920E-02 0. -1.
        2   -1    0    0  501    0  0.00000000000E+00  0.00000000000E+00 -0.28100350203E+04  0.28100350203E+04  0.25500000920E-02 0.  1.
    10030    2    1    2    0    0  0.00000000000E+00  0.00000000000E+00 -0.17758556507E+04  0.38442143899E+04  0.34094458469E+04 0.  0.
        1    1    3    3  502    0 -0.12522094484E+04  0.91792689916E+02  0.41220740694E+03  0.13215026852E+04  0.50400001928E-02 0. -1.
       -1    1    3    3    0  502  0.12522094484E+04 -0.91792689916E+02 -0.21880630577E+04  0.25227117047E+04  0.50400001928E-02 0.  1.
</event>
<event>
 5   0  0.3704306E-07  0.3656460E+04  0.7818609E-02  0.8077680E-01
        1   -1    0    0  501    0  0.00000000000E+00  0.00000000000E+00  0.30820002771E+04  0.30820002771E+04  0.50400001928E-02 0.  1.
       -1   -1    0    0    0  501  0.00000000000E+00  0.00000000000E+00 -0.10844987394E+04  0.10844987394E+04  0.50400001928E-02 0. -1.
    10030    2    1    2    0    0  0.00000000000E+00  0.00000000000E+00  0.19975015377E+04  0.41664990165E+04  0.36564602640E+04 0.  0.
        3    1    3    3  502    0  0.51805438122E+03  0.27219311356E+03 -0.97488890184E+03  0.11370478504E+04  0.10100000352E+00 0. -1.
       -3    1    3    3    0  502 -0.51805438122E+03 -0.27219311356E+03  0.29723904395E+04  0.30294511661E+04  0.10100000352E+00 0.  1.
</event>
<event>
 5   0  0.3675819E-07  0.3671368E+04  0.7818609E-02  0.8074337E-01
        1   -1    0    0  501    0  0.00000000000E+00  0.00000000000E+00  0.21553097099E+04  0.21553097099E+04  0.50400001928E-02 0. -1.
       -1   -1    0    0    0  501  0.00000000000E+00  0.00000000000E+00 -0.15634580505E+04  0.15634580505E+04  0.50400001928E-02 0.  1.
    10030    2    1    2    0    0  0.00000000000E+00  0.00000000000E+00  0.59185165944E+03  0.37187677604E+04  0.36713683102E+04 0.  0.
        5    1    3    3  502    0 -0.11918550083E+04 -0.65048583445E+03 -0.95536275470E+03  0.16602380145E+04  0.46999998093E+01 0.  1.
       -5    1    3    3    0  502  0.11918550083E+04  0.65048583445E+03  0.15472144141E+04  0.20585297459E+04  0.46999998093E+01 0. -1.
</event>
<event>
 5   0  0.3682276E-07  0.3679364E+04  0.7818609E-02  0.8072550E-01
       -1   -1    0    0    0  501  0.00000000000E+00  0.00000000000E+00  0.25254008613E+04  0.25254008614E+04  0.50400001928E-02 0.  1.
        1   -1    0    0  501    0  0.00000000000E+00  0.00000000000E+00 -0.13401554414E+04  0.13401554414E+04  0.50400001928E-02 0. -1.
    10030    2    1    2    0    0  0.00000000000E+00  0.00000000000E+00  0.11852454199E+04  0.38655563028E+04  0.36793639158E+04 0.  0.
        1    1    3    3  502    0 -0.13912764132E+04 -0.13890005016E+03 -0.66349192632E+03  0.15476320035E+04  0.50400001928E-02 0. -1.
       -1    1    3    3    0  502  0.13912764132E+04  0.13890005016E+03  0.18487373462E+04  0.23179242993E+04  0.50400001928E-02 0.  1.
</event>
<event>
 5   0  0.1128166E-06  0.3614912E+04  0.7818609E-02  0.8087084E-01
       -2   -1    0    0    0  501  0.00000000000E+00  0.00000000000E+00  0.22187704348E+04  0.22187704348E+04  0.25500000920E-02 0. -1.
        2   -1    0    0  501    0  0.00000000000E+00  0.00000000000E+00 -0.14723911002E+04  0.14723911002E+04  0.25500000920E-02 0.  1.
    10030    2    1    2    0    0  0.00000000000E+00  0.00000000000E+00  0.74637933456E+03  0.36911615350E+04  0.36149123594E+04 0.  0.
        3    1    3    3  502    0 -0.14007239104E+04  0.21964903881E+03  0.15178274245E+04  0.20770347311E+04  0.10100000352E+00 0. -1.
       -3    1    3    3    0  502  0.14007239104E+04 -0.21964903881E+03 -0.77144808992E+03  0.16141268039E+04  0.10100000352E+00 0.  1.
</event>
<event>
 5   0  0.1128166E-06  0.2858233E+04  0.7818609E-02  0.8285414E-01
       -2   -1    0    0    0  501  0.00000000000E+00  0.00000000000E+00  0.16003457536E+04  0.16003457536E+04  0.25500000920E-02 0. -1.
        2   -1    0    0  501    0  0.00000000000E+00  0.00000000000E+00 -0.12762082037E+04  0.12762082037E+04  0.25500000920E-02 0.  1.
    10030    2    1    2    0    0  0.00000000000E+00  0.00000000000E+00  0.32413754990E+03  0.28765539573E+04  0.28582332861E+04 0.  0.
        3    1    3    3  502    0  0.22951197090E+03  0.13333644102E+04 -0.30113998027E+03  0.13860814164E+04  0.10100000352E+00 0.  1.
       -3    1    3    3    0  502 -0.22951197090E+03 -0.13333644102E+04  0.62527753017E+03  0.14904725409E+04  0.10100000352E+00 0. -1.
</event>
<event>
 5   0  0.1128530E-06  0.2319121E+04  0.7818609E-02  0.8470420E-01
        2   -1    0    0  501    0  0.00000000000E+00  0.00000000000E+00  0.11255556975E+04  0.11255556975E+04  0.25500000920E-02 0.  1.
       -2   -1    0    0    0  501  0.00000000000E+00  0.00000000000E+00 -0.11945921564E+04  0.11945921564E+04  0.25500000920E-02 0. -1.
    10030    2    1    2    0    0  0.00000000000E+00  0.00000000000E+00 -0.69036458909E+02  0.23201478540E+04  0.23191205298E+04 0.  0.
        5    1    3    3  502    0 -0.24773574322E+03 -0.10831719202E+02 -0.11677457405E+04  0.11937933360E+04  0.46999998093E+01 0. -1.
       -5    1    3    3    0  502  0.24773574322E+03  0.10831719202E+02  0.10987092816E+04  0.11263545180E+04  0.46999998093E+01 0.  1.
</event>
<event>
 5   0  0.3764495E-07  0.3690713E+04  0.7818609E-02  0.8070023E-01
        1   -1    0    0  501    0  0.00000000000E+00  0.00000000000E+00  0.23486057957E+04  0.23486057958E+04  0.50400001928E-02 0. -1.
       -1   -1    0    0    0  501  0.00000000000E+00  0.00000000000E+00 -0.14499413549E+04  0.14499413549E+04  0.50400001928E-02 0.  1.
    10030    2    1    2    0    0  0.00000000000E+00  0.00000000000E+00  0.89866444084E+03  0.37985471507E+04  0.36907130312E+04 0.  0.
        4    1    3    3  502    0 -0.82521670224E+03 -0.14873316625E+03 -0.12425448026E+04  0.14990074582E+04  0.12699999809E+01 0.  1.
       -4    1    3    3    0  502  0.82521670224E+03  0.14873316625E+03  0.21412092434E+04  0.22995396925E+04  0.12699999809E+01 0. -1.
</event>
<event>
 5   0  0.3682276E-07  0.2649229E+04  0.7818609E-02  0.8351669E-01
       -1   -1    0    0    0  501  0.00000000000E+00  0.00000000000E+00  0.14753703447E+04  0.14753703447E+04  0.50400001928E-02 0. -1.
        1   -1    0    0  501    0  0.00000000000E+00  0.00000000000E+00 -0.11892629420E+04  0.11892629420E+04  0.50400001928E-02 0.  1.
    10030    2    1    2    0    0  0.00000000000E+00  0.00000000000E+00  0.28610740271E+03  0.26646332867E+04  0.26492287758E+04 0.  0.
        1    1    3    3  502    0  0.34141475824E+03 -0.12722600669E+04  0.29831707714E+01  0.13172769694E+04  0.50400001928E-02 0. -1.
       -1    1    3    3    0  502 -0.34141475824E+03  0.12722600669E+04  0.28312423194E+03  0.13473563172E+04  0.50400001928E-02 0.  1.
</event>
<event>
 5   0  0.1051123E-06  0.3768375E+04  0.7818609E-02  0.8052976E-01
       -2   -1    0    0    0  501  0.00000000000E+00  0.00000000000E+00  0.19818057225E+04  0.19818057225E+04  0.25500000920E-02 0. -1.
        2   -1    0    0  501    0  0.00000000000E+00  0.00000000000E+00 -0.17913781361E+04  0.17913781361E+04  0.25500000920E-02 0.  1.
    10030    2    1    2    0    0  0.00000000000E+00  0.00000000000E+00  0.19042758634E+03  0.37731838586E+04  0.37683754809E+04 0.  0.
        2    1    3    3  502    0  0.15326704088E+03 -0.14951797665E+04 -0.10425063345E+04  0.18291727030E+04  0.25500000920E-02 0.  1.
       -2    1    3    3    0  502 -0.15326704088E+03  0.14951797665E+04  0.12329339209E+04  0.19440111556E+04  0.25500000920E-02 0. -1.
</event>
<event>
 5   0  0.1128166E-06  0.3773927E+04  0.7818609E-02  0.8051773E-01
        2   -1    0    0  501    0  0.00000000000E+00  0.00000000000E+00  0.13266047963E+04  0.13266047963E+04  0.25500000920E-02 0. -1.
       -2   -1    0    0    0  501  0.00000000000E+00  0.00000000000E+00 -0.26840180370E+04  0.26840180370E+04  0.25500000920E-02 0.  1.
    10030    2    1    2    0    0  0.00000000000E+00  0.00000000000E+00 -0.13574132407E+04  0.40106228332E+04  0.37739269739E+04 0.  0.
        3    1    3    3  502    0 -0.15149203233E+04  0.61849816594E+03 -0.16773838474E+04  0.23433181920E+04  0.10100000352E+00 0.  1.
       -3    1    3    3    0  502  0.15149203233E+04 -0.61849816594E+03  0.31997060670E+03  0.16673046412E+04  0.10100000352E+00 0. -1.
</event>
<event>
 5   0  0.3682276E-07  0.3695554E+04  0.7818609E-02  0.8068948E-01
       -1   -1    0    0    0  501  0.00000000000E+00  0.00000000000E+00  0.12291031797E+04  0.12291031797E+04  0.50400001928E-02 0.  1.
        1   -1    0    0  501    0  0.00000000000E+00  0.00000000000E+00 -0.27778628286E+04  0.27778628286E+04  0.50400001928E-02 0. -1.
    10030    2    1    2    0    0  0.00000000000E+00  0.00000000000E+00 -0.15487596489E+04  0.40069660082E+04  0.36955541048E+04 0.  0.
        1    1    3    3  502    0  0.81900069836E+03  0.97849819086E+03  0.67467232681E+03  0.14434000146E+04  0.50400001928E-02 0.  1.
       -1    1    3    3    0  502 -0.81900069836E+03 -0.97849819086E+03 -0.22234319757E+04  0.25635659937E+04  0.50400001928E-02 0. -1.
</event>
<event>
 5   0  0.1128530E-06  0.3613369E+04  0.7818609E-02  0.8087436E-01
       -2   -1    0    0    0  501  0.00000000000E+00  0.00000000000E+00  0.22469703910E+04  0.22469703910E+04  0.25500000920E-02 0.  1.
        2   -1    0    0  501    0  0.00000000000E+00  0.00000000000E+00 -0.14526707335E+04  0.14526707335E+04  0.25500000920E-02 0. -1.
    10030    2    1    2    0    0  0.00000000000E+00  0.00000000000E+00  0.79429965750E+03  0.36996411245E+04  0.36133685813E+04 0.  0.
        5    1    3    3  502    0 -0.17658297863E+04  0.32984662936E+03  0.19985129338E+03  0.18074612756E+04  0.46999998093E+01 0. -1.
       -5    1    3    3    0  502  0.17658297863E+04 -0.32984662936E+03  0.59444836412E+03  0.18921798489E+04  0.46999998093E+01 0.  1.
</event>
<event>
 5   0  0.3682276E-07  0.2275604E+04  0.7818609E-02  0.8487603E-01
       -1   -1    0    0    0  501  0.00000000000E+00  0.00000000000E+00  0.95376531414E+03  0.95376531416E+03  0.50400001928E-02 0. -1.
        1   -1    0    0  501    0  0.00000000000E+00  0.00000000000E+00 -0.13573503068E+04  0.13573503069E+04  0.50400001928E-02 0.  1.
    10030    2    1    2    0    0  0.00000000000E+00  0.00000000000E+00 -0.40358499270E+03  0.23111156210E+04  0.22756042203E+04 0.  0.
        1    1    3    3  502    0  0.77658619295E+02 -0.85675216753E+03 -0.95808674151E+03  0.12876277964E+04  0.50400001928E-02 0.  1.
       -1    1    3    3    0  502 -0.77658619295E+02  0.85675216753E+03  0.55450174881E+03  0.10234878246E+04  0.50400001928E-02 0. -1.
</event>
<event>
 5   0  0.3675819E-07  0.3687692E+04  0.7818609E-02  0.8070695E-01
        1   -1    0    0  501    0  0.00000000000E+00  0.00000000000E+00  0.17640380090E+04  0.17640380090E+04  0.50400001928E-02 0.  1.
       -1   -1    0    0    0  501  0.00000000000E+00  0.00000000000E+00 -0.19272648484E+04  0.19272648484E+04  0.50400001928E-02 0. -1.
    10030    2    1    2    0    0  0.00000000000E+00  0.00000000000E+00 -0.16322683940E+03  0.36913028574E+04  0.36876922030E+04 0.  0.
        5    1    3    3  502    0  0.16156852019E+02 -0.17177105495E+04 -0.75231108954E+03  0.18753092122E+04  0.46999998093E+01 0.  1.
       -5    1    3    3    0  502 -0.16156852019E+02  0.17177105495E+04  0.58908425014E+03  0.18159936452E+04  0.46999998093E+01 0. -1.
</event>
<event>
 5   0  0.1051123E-06  0.3609015E+04  0.7818609E-02  0.8088430E-01
       -2   -1    0    0    0  501  0.00000000000E+00  0.00000000000E+00  0.14300353705E+04  0.14300353705E+04  0.25500000920E-02 0.  1.
        2   -1    0    0  501    0  0.00000000000E+00  0.00000000000E+00 -0.22770399792E+04  0.22770399792E+04  0.25500000920E-02 0. -1.
    10030    2    1    2    0    0  0.00000000000E+00  0.00000000000E+00 -0.84700460869E+03  0.37070753497E+04  0.36090152176E+04 0.  0.
        2    1    3    3  502    0 -0.13131187455E+04 -0.12369500015E+04 -0.46852900590E+03  0.18638255218E+04  0.25500000920E-02 0. -1.
       -2    1    3    3    0  502  0.13131187455E+04  0.12369500015E+04 -0.37847560279E+03  0.18432498279E+04  0.25500000920E-02 0.  1.
</event>
<event>
 5   0  0.3682276E-07  0.2262619E+04  0.7818609E-02  0.8492808E-01
       -1   -1    0    0    0  501  0.00000000000E+00  0.00000000000E+00  0.78017990947E+03  0.78017990949E+03  0.50400001928E-02 0. -1.
        1   -1    0    0  501    0  0.00000000000E+00  0.00000000000E+00 -0.16404689653E+04  0.16404689653E+04  0.50400001928E-02 0.  1.
    10030    2    1    2    0    0  0.00000000000E+00  0.00000000000E+00 -0.86028905587E+03  0.24206488748E+04  0.22626187738E+04 0.  0.
        1    1    3    3  502    0  0.10865764012E+04 -0.25275694852E+03 -0.63122560277E+03  0.12817878578E+04  0.50400001928E-02 0.  1.
       -1    1    3    3    0  502 -0.10865764012E+04  0.25275694852E+03 -0.22906345310E+03  0.11388610171E+04  0.50400001928E-02 0. -1.
</event>
<event>
 5   0  0.3848431E-07  0.3531566E+04  0.7818609E-02  0.8106350E-01
        1   -1    0    0  501    0  0.00000000000E+00  0.00000000000E+00  0.19505669076E+04  0.19505669076E+04  0.50400001928E-02 0. -1.
       -1   -1    0    0    0  501  0.00000000000E+00  0.00000000000E+00 -0.15985045099E+04  0.15985045099E+04  0.50400001928E-02 0.  1.
    10030    2    1    2    0    0  0.00000000000E+00  0.00000000000E+00  0.35206239768E+03  0.35490714175E+04  0.35315662240E+04 0.  0.
        2    1    3    3  502    0 -0.17360127458E+04  0.28121024919E+03  0.33546986625E+03  0.17903517780E+04  0.25500000920E-02 0. -1.
       -2    1    3    3    0  502  0.17360127458E+04 -0.28121024919E+03  0.16592531430E+02  0.17587196394E+04  0.25500000920E-02 0.  1.
</event>
<event>
 5   0  0.1128530E-06  0.3552933E+04  0.7818609E-02  0.8101359E-01
        2   -1    0    0  501    0  0.00000000000E+00  0.00000000000E+00  0.27343225414E+04  0.27343225414E+04  0.25500000920E-02 0.  1.
       -2   -1    0    0    0  501  0.00000000000E+00  0.00000000000E+00 -0.11541555941E+04  0.11541555941E+04  0.25500000920E-02 0. -1.
    10030    2    1    2    0    0  0.00000000000E+00  0.00000000000E+00  0.15801669473E+04  0.38884781355E+04  0.35529332430E+04 0.  0.
        5    1    3    3  502    0  0.19316655689E+02 -0.38622880830E+03 -0.11075236312E+04  0.11731054979E+04  0.46999998093E+01 0. -1.
       -5    1    3    3    0  502 -0.19316655689E+02  0.38622880830E+03  0.26876905785E+04  0.27153726376E+04  0.46999998093E+01 0.  1.
</event>
<event>
 5   0  0.1066907E-06  0.3742200E+04  0.7818609E-02  0.8058674E-01
        2   -1    0    0  501    0  0.00000000000E+00  0.00000000000E+00  0.20395765918E+04  0.20395765918E+04  0.25500000920E-02 0. -1.
       -2   -1    0    0    0  501  0.00000000000E+00  0.00000000000E+00 -0.17165400106E+04  0.17165400106E+04  0.25500000920E-02 0.  1.
    10030    2    1    2    0    0  0.00000000000E+00  0.00000000000E+00  0.32303658118E+03  0.37561166024E+04  0.37421997940E+04 0.  0.
        4    1    3    3  502    0 -0.68508148704E+03  0.17409580627E+04  0.18885174362E+03  0.18804090550E+04  0.12699999809E+01 0. -1.
       -4    1    3    3    0  502  0.68508148704E+03 -0.17409580627E+04  0.13418483756E+03  0.18757075475E+04  0.12699999809E+01 0.  1.
</event>
<event>
 5   0  0.3848431E-07  0.3605720E+04  0.7818609E-02  0.8089183E-01
        1   -1    0    0  501    0  0.00000000000E+00  0.00000000000E+00  0.17129296789E+04  0.17129296789E+04  0.50400001928E-02 0. -1.
       -1   -1    0    0    0  501  0.00000000000E+00  0.00000000000E+00 -0.18975118036E+04  0.18975118036E+04  0.50400001928E-02 0.  1.
    10030    2    1    2    0    0  0.00000000000E+00  0.00000000000E+00 -0.18458212472E+03  0.36104414825E+04  0.36057200582E+04 0.  0.
        2    1    3    3  502    0  0.16421638333E+04 -0.32207927754E+03  0.57930857671E+03  0.17708855252E+04  0.25500000920E-02 0. -1.
       -2    1    3    3    0  502 -0.16421638333E+04  0.32207927754E+03 -0.76389070143E+03  0.18395559573E+04  0.25500000920E-02 0.  1.
</event>
<event>
 5   0  0.3675819E-07  0.3772674E+04  0.7818609E-02  0.8052044E-01
       -1   -1    0    0    0  501  0.00000000000E+00  0.00000000000E+00  0.26831798833E+04  0.26831798833E+04  0.50400001928E-02 0. -1.
        1   -1    0    0  501    0  0.00000000000E+00  0.00000000000E+00 -0.13261384271E+04  0.13261384271E+04  0.50400001928E-02 0.  1.
    10030    2    1    2    0    0  0.00000000000E+00  0.00000000000E+00  0.13570414562E+04  0.40093183104E+04  0.37726743565E+04 0.  0.
        5    1    3    3  502    0 -0.82492786063E+02  0.12401775124E+04  0.21864685262E+04  0.25150570626E+04  0.46999998093E+01 0. -1.
       -5    1    3    3    0  502  0.82492786063E+02 -0.12401775124E+04 -0.82942707007E+03  0.14942612478E+04  0.46999998093E+01 0.  1.
</event>
<event>
 5   0  0.3848431E-07  0.3761667E+04  0.7818609E-02  0.8054431E-01
       -1   -1    0    0    0  501  0.00000000000E+00  0.00000000000E+00  0.21872601663E+04  0.21872601663E+04  0.50400001928E-02 0. -1.
        1   -1    0    0  501    0  0.00000000000E+00  0.00000000000E+00 -0.16173357450E+04  0.16173357450E+04  0.50400001928E-02 0.  1.
    10030    2    1    2    0    0  0.00000000000E+00  0.00000000000E+00  0.56992442134E+03  0.38045959113E+04  0.37616666788E+04 0.  0.
        2    1    3    3  502    0 -0.71335055272E+03 -0.36977524547E+03  0.20049375225E+04  0.21599484282E+04  0.25500000920E-02 0. -1.
       -2    1    3    3    0  502  0.71335055272E+03  0.36977524547E+03 -0.14350131011E+04  0.16446474831E+04  0.25500000920E-02 0.  1.
</event>
<event>
 5   0  0.1128166E-06  0.3588590E+04  0.7818609E-02  0.8093110E-01
       -2   -1    0    0    0  501  0.00000000000E+00  0.00000000000E+00  0.13633732738E+04  0.13633732738E+04  0.25500000920E-02 0.  1.
        2   -1    0    0  501    0  0.00000000000E+00  0.00000000000E+00 -0.23614187482E+04  0.23614187482E+04  0.25500000920E-02 0. -1.
    10030    2    1    2    0    0  0.00000000000E+00  0.00000000000E+00 -0.99804547442E+03  0.37247920219E+04  0.35885903692E+04 0.  0.
        3    1    3    3  502    0  0.52602120822E+03  0.15248688570E+04  0.31666116126E+03  0.16438362582E+04  0.10100000352E+00 0.  1.
       -3    1    3    3    0  502 -0.52602120822E+03 -0.15248688570E+04 -0.13147066357E+04  0.20809557637E+04  0.10100000352E+00 0. -1.
</event>
<event>
 5   0  0.3682276E-07  0.3646156E+04  0.7818609E-02  0.8080000E-01
       -1   -1    0    0    0  501  0.00000000000E+00  0.00000000000E+00  0.13507661601E+04  0.13507661601E+04  0.50400001928E-02 0.  1.
        1   -1    0    0  501    0  0.00000000000E+00  0.00000000000E+00 -0.24605391224E+04  0.24605391224E+04  0.50400001928E-02 0. -1.
    10030    2    1    2    0    0  0.00000000000E+00  0.00000000000E+00 -0.11097729622E+04  0.38113052825E+04  0.36461557740E+04 0.  0.
        1    1    3    3  502    0 -0.89282582125E+03  0.78128672474E+03 -0.20018039505E+04  0.23269649652E+04  0.50400001928E-02 0. -1.
       -1    1    3    3    0  502  0.89282582125E+03 -0.78128672474E+03  0.89203098823E+03  0.14843403172E+04  0.50400001928E-02 0.  1.
</event>
<event>
 5   0  0.3704306E-07  0.3650047E+04  0.7818609E-02  0.8079123E-01
       -1   -1    0    0    0  501  0.00000000000E+00  0.00000000000E+00  0.17705499866E+04  0.17705499866E+04  0.50400001928E-02 0.  1.
        1   -1    0    0  501    0  0.00000000000E+00  0.00000000000E+00 -0.18811731181E+04  0.18811731181E+04  0.50400001928E-02 0. -1.
    10030    2    1    2    0    0  0.00000000000E+00  0.00000000000E+00 -0.11062313149E+03  0.36517231046E+04  0.36500471443E+04 0.  0.
        3    1    3    3  502    0  0.11357190205E+04 -0.13186921330E+03 -0.14784498109E+04  0.18689732573E+04  0.10100000352E+00 0. -1.
       -3    1    3    3    0  502 -0.11357190205E+04  0.13186921330E+03  0.13678266794E+04  0.17827498473E+04  0.10100000352E+00 0.  1.
</event>
<event>
 5   0  0.1092116E-06  0.3779101E+04  0.7818609E-02  0.8050655E-01
        2   -1    0    0  501    0  0.00000000000E+00  0.00000000000E+00  0.20839283523E+04  0.20839283523E+04  0.25500000920E-02 0. -1.
       -2   -1    0    0    0  501  0.00000000000E+00  0.00000000000E+00 -0.17133030827E+04  0.17133030827E+04  0.25500000920E-02 0.  1.
    10030    2    1    2    0    0  0.00000000000E+00  0.00000000000E+00  0.37062526964E+03  0.37972314350E+04  0.37791008826E+04 0.  0.
        1    1    3    3  502    0  0.90620089803E+03  0.81023157402E+03 -0.12682532629E+04  0.17567417596E+04  0.50400001928E-02 0.  1.
       -1    1    3    3    0  502 -0.90620089803E+03 -0.81023157402E+03  0.16388785325E+04  0.20404896754E+04  0.50400001928E-02 0. -1.
</event>
<event>
 5   0  0.3704306E-07  0.2379164E+04  0.7818609E-02  0.8447346E-01
        1   -1    0    0  501    0  0.00000000000E+00  0.00000000000E+00  0.19722568195E+04  0.19722568195E+04  0.50400001928E-02 0. -1.
       -1   -1    0    0    0  501  0.00000000000E+00  0.00000000000E+00 -0.71750562151E+03  0.71750562153E+03  0.50400001928E-02 0.  1.
    10030    2    1    2    0    0  0.00000000000E+00  0.00000000000E+00  0.12547511979E+04  0.26897624410E+04  0.23791640171E+04 0.  0.
        3    1    3    3  502    0 -0.11225622867E+04 -0.33851617982E+03  0.85451772513E+03  0.14508410817E+04  0.10100000352E+00 0. -1.
       -3    1    3    3    0  502  0.11225622867E+04  0.33851617982E+03  0.40023347281E+03  0.12389213593E+04  0.10100000352E+00 0.  1.
</event>
<event>
 5   0  0.1128166E-06  0.3421669E+04  0.7818609E-02  0.8132608E-01
        2   -1    0    0  501    0  0.00000000000E+00  0.00000000000E+00  0.23214002112E+04  0.23214002112E+04  0.25500000920E-02 0. -1.
       -2   -1    0    0    0  501  0.00000000000E+00  0.00000000000E+00 -0.12608577325E+04  0.12608577325E+04  0.25500000920E-02 0.  1.
    10030    2    1    2    0    0  0.00000000000E+00  0.00000000000E+00  0.10605424787E+04  0.35822579437E+04  0.34216694209E+04 0.  0.
        3    1    3    3  502    0  0.12373961763E+04  0.10103976230E+03 -0.70208788035E+03  0.14262838892E+04  0.10100000352E+00 0.  1.
       -3    1    3    3    0  502 -0.12373961763E+04 -0.10103976230E+03  0.17626303591E+04  0.21559740545E+04  0.10100000352E+00 0. -1.
</event>
<event>
 5   0  0.1128166E-06  0.3720471E+04  0.7818609E-02  0.8063440E-01
        2   -1    0    0  501    0  0.00000000000E+00  0.00000000000E+00  0.24068354767E+04  0.24068354767E+04  0.25500000920E-02 0.  1.
       -2   -1    0    0    0  501  0.00000000000E+00  0.00000000000E+00 -0.14377700250E+04  0.14377700250E+04  0.25500000920E-02 0. -1.
    10030    2    1    2    0    0  0.00000000000E+00  0.00000000000E+00  0.96906545171E+03  0.38446055017E+04  0.37204708861E+04 0.  0.
        3    1    3    3  502    0 -0.52160049001E+03 -0.10227383512E+04  0.19970685921E+04  0.23035502552E+04  0.10100000352E+00 0.  1.
       -3    1    3    3    0  502  0.52160049001E+03  0.10227383512E+04 -0.10280031404E+04  0.15410552466E+04  0.10100000352E+00 0. -1.
</event>
<event>
 5   0  0.1066907E-06  0.3556813E+04  0.7818609E-02  0.8100456E-01
       -2   -1    0    0    0  501  0.00000000000E+00  0.00000000000E+00  0.21136203712E+04  0.21136203712E+04  0.25500000920E-02 0.  1.
        2   -1    0    0  501    0  0.00000000000E+00  0.00000000000E+00 -0.14963569032E+04  0.14963569032E+04  0.25500000920E-02 0. -1.
    10030    2    1    2    0    0  0.00000000000E+00  0.00000000000E+00  0.61726346799E+03  0.36099772744E+04  0.35568134240E+04 0.  0.
        4    1    3    3  502    0 -0.41453881814E+03 -0.16891082958E+04 -0.68130435209E+02  0.17405667571E+04  0.12699999809E+01 0. -1.
       -4    1    3    3    0  502  0.41453881814E+03  0.16891082958E+04  0.68539390320E+03  0.18694105173E+04  0.12699999809E+01 0.  1.
</event>
<event>
 5   0  0.3675819E-07  0.3688788E+04  0.7818609E-02  0.8070451E-01
       -1   -1    0    0    0  501  0.00000000000E+00  0.00000000000E+00  0.15342472718E+04  0.15342472718E+04  0.50400001928E-02 0. -1.
        1   -1    0    0  501    0  0.00000000000E+00  0.00000000000E+00 -0.22172371659E+04  0.22172371659E+04  0.50400001928E-02 0.  1.
    10030    2    1    2    0    0  0.00000000000E+00  0.00000000000E+00 -0.68298989406E+03  0.37514844377E+04  0.36887884584E+04 0.  0.
        5    1    3    3  502    0  0.27505739938E+03  0.74693570526E+03 -0.20335637187E+04  0.21837978406E+04  0.46999998093E+01 0.  1.
       -5    1    3    3    0  502 -0.27505739938E+03 -0.74693570526E+03  0.13505738246E+04  0.15676865970E+04  0.46999998093E+01 0. -1.
</event>
<event>
 5   0  0.1066907E-06  0.3656748E+04  0.7818609E-02  0.8077615E-01
       -2   -1    0    0    0  501  0.00000000000E+00  0.00000000000E+00  0.15785912734E+04  0.15785912734E+04  0.25500000920E-02 0.  1.
        2   -1    0    0  501    0  0.00000000000E+00  0.00000000000E+00 -0.21176806652E+04  0.21176806652E+04  0.25500000920E-02 0. -1.
    10030    2    1    2    0    0  0.00000000000E+00  0.00000000000E+00 -0.53908939184E+03  0.36962719386E+04  0.36567484015E+04 0.  0.
        4    1    3    3  502    0  0.48084669749E+03 -0.14568635515E+04  0.73583402703E+03  0.17015047113E+04  0.12699999809E+01 0.  1.
       -4    1    3    3    0  502 -0.48084669749E+03  0.14568635515E+04 -0.12749234189E+04  0.19947672273E+04  0.12699999809E+01 0. -1.
</event>
<event>
 5   0  0.3675819E-07  0.3704873E+04  0.7818609E-02  0.8066883E-01
        1   -1    0    0  501    0  0.00000000000E+00  0.00000000000E+00  0.19341906972E+04  0.19341906972E+04  0.50400001928E-02 0. -1.
       -1   -1    0    0    0  501  0.00000000000E+00  0.00000000000E+00 -0.17741376792E+04  0.17741376792E+04  0.50400001928E-02 0.  1.
    10030    2    1    2    0    0  0.00000000000E+00  0.00000000000E+00  0.16005301804E+03  0.37083283764E+04  0.37048727884E+04 0.  0.
        5    1    3    3  502    0  0.11524067957E+04 -0.50701763929E+03 -0.12800602936E+04  0.17954622677E+04  0.46999998093E+01 0.  1.
       -5    1    3    3    0  502 -0.11524067957E+04  0.50701763929E+03  0.14401133116E+04  0.19128661087E+04  0.46999998093E+01 0. -1.
</event>
<event>
 5   0  0.1092116E-06  0.3273433E+04  0.7818609E-02  0.8169688E-01
        2   -1    0    0  501    0  0.00000000000E+00  0.00000000000E+00  0.20791896387E+04  0.20791896387E+04  0.25500000920E-02 0.  1.
       -2   -1    0    0    0  501  0.00000000000E+00  0.00000000000E+00 -0.12884064818E+04  0.12884064818E+04  0.25500000920E-02 0. -1.
    10030    2    1    2    0    0  0.00000000000E+00  0.00000000000E+00  0.79078315687E+03  0.33675961205E+04  0.32734333092E+04 0.  0.
        1    1    3    3  502    0 -0.15340847968E+03 -0.71356917055E+03  0.19024987624E+04  0.20376988649E+04  0.50400001928E-02 0.  1.
       -1    1    3    3    0  502  0.15340847968E+03  0.71356917055E+03 -0.11117156056E+04  0.13298972556E+04  0.50400001928E-02 0. -1.
</event>
<event>
 5   0  0.3848431E-07  0.3717957E+04  0.7818609E-02  0.8063994E-01
        1   -1    0    0  501    0  0.00000000000E+00  0.00000000000E+00  0.12621696903E+04  0.12621696903E+04  0.50400001928E-02 0.  1.
       -1   -1    0    0    0  501  0.00000000000E+00  0.00000000000E+00 -0.27379847588E+04  0.27379847588E+04  0.50400001928E-02 0. -1.
    10030    2    1    2    0    0  0.00000000000E+00  0.00000000000E+00 -0.14758150686E+04  0.40001544491E+04  0.37179571676E+04 0.  0.
        2    1    3    3  502    0  0.91316304944E+03 -0.85056217274E+02  0.10018283295E+04  0.13582199074E+04  0.25500000920E-02 0.  1.
       -2    1    3    3    0  502 -0.91316304944E+03  0.85056217274E+02 -0.24776433981E+04  0.26419345418E+04  0.25500000920E-02 0. -1.
</event>
<event>
 5   0  0.1128530E-06  0.3366678E+04  0.7818609E-02  0.8146133E-01
        2   -1    0    0  501    0  0.00000000000E+00  0.00000000000E+00  0.14440730346E+04  0.14440730346E+04  0.25500000920E-02 0.  1.
       -2   -1    0    0    0  501  0.00000000000E+00  0.00000000000E+00 -0.19622486995E+04  0.19622486995E+04  0.25500000920E-02 0. -1.
    10030    2    1    2    0    0  0.00000000000E+00  0.00000000000E+00 -0.51817566493E+03  0.34063217341E+04  0.33666781457E+04 0.  0.
        5    1    3    3  502    0  0.13870232928E+03  0.13791312241E+03 -0.19507052979E+04  0.19604926969E+04  0.46999998093E+01 0. -1.
       -5    1    3    3    0  502 -0.13870232928E+03 -0.13791312241E+03  0.14325296330E+04  0.14458290372E+04  0.46999998093E+01 0.  1.
</event>
<event>
 5   0  0.3704306E-07  0.3750933E+04  0.7818609E-02  0.8056767E-01
       -1   -1    0    0    0  501  0.00000000000E+00  0.00000000000E+00  0.12272896156E+04  0.12272896156E+04  0.50400001928E-02 0. -1.
        1   -1    0    0  501    0  0.00000000000E+00  0.00000000000E+00 -0.28659702257E+04  0.28659702257E+04  0.50400001928E-02 0.  1.
    10030    2    1    2    0    0  0.00000000000E+00  0.00000000000E+00 -0.16386806101E+04  0.40932598414E+04  0.37509334821E+04 0.  0.
        3    1    3    3  502    0  0.69046800643E+03  0.15454173313E+04  0.62030238450E+02  0.16937852746E+04  0.10100000352E+00 0. -1.
       -3    1    3    3    0  502 -0.69046800643E+03 -0.15454173313E+04 -0.17007108486E+04  0.23994745667E+04  0.10100000352E+00 0.  1.
</event>
<event>
 5   0  0.3704306E-07  0.3685103E+04  0.7818609E-02  0.8071271E-01
       -1   -1    0    0    0  501  0.00000000000E+00  0.00000000000E+00  0.17826461001E+04  0.17826461001E+04  0.50400001928E-02 0.  1.
        1   -1    0    0  501    0  0.00000000000E+00  0.00000000000E+00 -0.19044697079E+04  0.19044697079E+04  0.50400001928E-02 0. -1.
    10030    2    1    2    0    0  0.00000000000E+00  0.00000000000E+00 -0.12182360786E+03  0.36871158080E+04  0.36851027109E+04 0.  0.
        3    1    3    3  502    0  0.15637779657E+04 -0.11470557250E+03  0.90731336877E+03  0.18115674025E+04  0.10100000352E+00 0.  1.
       -3    1    3    3    0  502 -0.15637779657E+04  0.11470557250E+03 -0.10291369766E+04  0.18755484055E+04  0.10100000352E+00 0. -1.
</event>
<event>
 5   0  0.3704306E-07  0.3866532E+04  0.7818609E-02  0.8032026E-01
        1   -1    0    0  501    0  0.00000000000E+00  0.00000000000E+00  0.20536387044E+04  0.20536387044E+04  0.50400001928E-02 0.  1.
       -1   -1    0    0    0  501  0.00000000000E+00  0.00000000000E+00 -0.18199485215E+04  0.18199485215E+04  0.50400001928E-02 0. -1.
    10030    2    1    2    0    0  0.00000000000E+00  0.00000000000E+00  0.23369018289E+03  0.38735872259E+04  0.38665316364E+04 0.  0.
        3    1    3    3  502    0  0.39025056580E+03  0.13601338036E+03  0.20088679369E+04  0.20509377225E+04  0.10100000352E+00 0.  1.
       -3    1    3    3    0  502 -0.39025056580E+03 -0.13601338036E+03 -0.17751777540E+04  0.18226495034E+04  0.10100000352E+00 0. -1.
</event>
<event>
 5   0  0.3764495E-07  0.3681200E+04  0.7818609E-02  0.8072141E-01
       -1   -1    0    0    0  501  0.00000000000E+00  0.00000000000E+00  0.18156528387E+04  0.18156528387E+04  0.50400001928E-02 0. -1.
        1   -1    0    0  501    0  0.00000000000E+00  0.00000000000E+00 -0.18658900605E+04  0.18658900605E+04  0.50400001928E-02 0.  1.
    10030    2    1    2    0    0  0.00000000000E+00  0.00000000000E+00 -0.50237221876E+02  0.36815428992E+04  0.36812001223E+04 0.  0.
        4    1    3    3  502    0 -0.10916755212E+03 -0.21831191268E+03 -0.18496320187E+04  0.18656682082E+04  0.12699999809E+01 0.  1.
       -4    1    3    3    0  502  0.10916755212E+03  0.21831191268E+03  0.17993947968E+04  0.18158746910E+04  0.12699999809E+01 0. -1.
</event>
<event>
 5   0  0.3675819E-07  0.2442084E+04  0.7818609E-02  0.8423914E-01
        1   -1    0    0  501    0  0.00000000000E+00  0.00000000000E+00  0.13017459025E+04  0.13017459025E+04  0.50400001928E-02 0. -1.
       -1   -1    0    0    0  501  0.00000000000E+00  0.00000000000E+00 -0.11453418213E+04  0.11453418213E+04  0.50400001928E-02 0.  1.
    10030    2    1    2    0    0  0.00000000000E+00  0.00000000000E+00  0.15640408121E+03  0.24470877238E+04  0.24420843743E+04 0.  0.
        5    1    3    3  502    0 -0.22468405895E+03 -0.54053135617E+03 -0.99556460822E+03  0.11549147382E+04  0.46999998093E+01 0.  1.
       -5    1    3    3    0  502  0.22468405895E+03  0.54053135617E+03  0.11519686894E+04  0.12921729856E+04  0.46999998093E+01 0. -1.
</event>
<event>
 5   0  0.1128530E-06  0.3671070E+04  0.7818609E-02  0.8074404E-01
       -2   -1    0    0    0  501  0.00000000000E+00  0.00000000000E+00  0.15230330412E+04  0.15230330412E+04  0.25500000920E-02 0.  1.
        2   -1    0    0  501    0  0.00000000000E+00  0.00000000000E+00 -0.22121567486E+04  0.22121567486E+04  0.25500000920E-02 0. -1.
    10030    2    1    2    0    0  0.00000000000E+00  0.00000000000E+00 -0.68912370741E+03  0.37351897897E+04  0.36710695010E+04 0.  0.
        5    1    3    3  502    0 -0.15169475646E+04  0.51304711738E+03  0.56822428182E+03  0.16991904493E+04  0.46999998093E+01 0.  1.
       -5    1    3    3    0  502  0.15169475646E+04 -0.51304711738E+03 -0.12573479892E+04  0.20359993405E+04  0.46999998093E+01 0. -1.
</event>
<event>
 5   0  0.1092116E-06  0.2384677E+04  0.7818609E-02  0.8445263E-01
       -2   -1    0    0    0  501  0.00000000000E+00  0.00000000000E+00  0.90518506391E+03  0.90518506391E+03  0.25500000920E-02 0.  1.
        2   -1    0    0  501    0  0.00000000000E+00  0.00000000000E+00 -0.15705863367E+04  0.15705863367E+04  0.25500000920E-02 0. -1.
    10030    2    1    2    0    0  0.00000000000E+00  0.00000000000E+00 -0.66540127282E+03  0.24757714006E+04  0.23846771636E+04 0.  0.
        1    1    3    3  502    0  0.49602550085E+03 -0.65655496334E+03 -0.12285447115E+04  0.14786574403E+04  0.50400001928E-02 0. -1.
       -1    1    3    3    0  502 -0.49602550085E+03  0.65655496334E+03  0.56314343872E+03  0.99711396038E+03  0.50400001928E-02 0.  1.
</event>
<event>
 5   0  0.3682276E-07  0.3763468E+04  0.7818609E-02  0.8054040E-01
       -1   -1    0    0    0  501  0.00000000000E+00  0.00000000000E+00  0.13059118113E+04  0.13059118113E+04  0.50400001928E-02 0.  1.
        1   -1    0    0  501    0  0.00000000000E+00  0.00000000000E+00 -0.27114564003E+04  0.27114564003E+04  0.50400001928E-02 0. -1.
    10030    2    1    2    0    0  0.00000000000E+00  0.00000000000E+00 -0.14055445890E+04  0.40173682117E+04  0.37634680491E+04 0.  0.
        1    1    3    3  502    0  0.40328237249E+03  0.18204703187E+04 -0.43235575490E+03  0.19140742807E+04  0.50400001928E-02 0.  1.
       -1    1    3    3    0  502 -0.40328237249E+03 -0.18204703187E+04 -0.97318883406E+03  0.21032939310E+04  0.50400001928E-02 0. -1.
</event>
<event>
 5   0  0.1066907E-06  0.3886420E+04  0.7818609E-02  0.8027859E-01
        2   -1    0    0  501    0  0.00000000000E+00  0.00000000000E+00  0.25172081675E+04  0.25172081675E+04  0.25500000920E-02 0. -1.
       -2   -1    0    0    0  501  0.00000000000E+00  0.00000000000E+00 -0.15001007093E+04  0.15001007093E+04  0.25500000920E-02 0.  1.
    10030    2    1    2    0    0  0.00000000000E+00  0.00000000000E+00  0.10171074582E+04  0.40173088768E+04  0.38864203363E+04 0.  0.
        4    1    3    3  502    0  0.80997837951E+03  0.17444533311E+04  0.79516751178E+03  0.20812196867E+04  0.12699999809E+01 0. -1.
       -4    1    3    3    0  502 -0.80997837951E+03 -0.17444533311E+04  0.22193994644E+03  0.19360891902E+04  0.12699999809E+01 0.  1.
</event>
<event>
 5   0  0.1128166E-06  0.2513586E+04  0.7818609E-02  0.8398162E-01
        2   -1    0    0  501    0  0.00000000000E+00  0.00000000000E+00  0.14078122682E+04  0.14078122682E+04  0.25500000920E-02 0.  1.
       -2   -1    0    0    0  501  0.00000000000E+00  0.00000000000E+00 -0.11219736246E+04  0.11219736246E+04  0.25500000920E-02 0. -1.
    10030    2    1    2    0    0  0.00000000000E+00  0.00000000000E+00  0.28583864365E+03  0.25297858928E+04  0.25135856725E+04 0.  0.
        3    1    3    3  502    0 -0.38622063386E+03 -0.64385538553E+03  0.11572901765E+04  0.13795059617E+04  0.10100000352E+00 0.  1.
       -3    1    3    3    0  502  0.38622063386E+03  0.64385538553E+03 -0.87145153287E+03  0.11502799311E+04  0.10100000352E+00 0. -1.
</event>
<event>
 5   0  0.3704306E-07  0.3542558E+04  0.7818609E-02  0.8103778E-01
       -1   -1    0    0    0  501  0.00000000000E+00  0.00000000000E+00  0.15058217187E+04  0.15058217187E+04  0.50400001928E-02 0. -1.
        1   -1    0    0  501    0  0.00000000000E+00  0.00000000000E+00 -0.20835335083E+04  0.20835335083E+04  0.50400001928E-02 0.  1.
    10030    2    1    2    0    0  0.00000000000E+00  0.00000000000E+00 -0.57771178961E+03  0.35893552270E+04  0.35425584024E+04 0.  0.
        3    1    3    3  502    0  0.82744836103E+03  0.14488817055E+04 -0.89126947407E+03  0.18916369293E+04  0.10100000352E+00 0. -1.
       -3    1    3    3    0  502 -0.82744836103E+03 -0.14488817055E+04  0.31355768447E+03  0.16977182977E+04  0.10100000352E+00 0.  1.
</event>
<event>
 5   0  0.3490375E-07  0.3705969E+04  0.7818609E-02  0.8066640E-01
       -3   -1    0    0    0  501  0.00000000000E+00  0.00000000000E+00  0.18275558133E+04  0.18275558161E+04  0.10100000352E+00 0. -1.
        3   -1    0    0  501    0  0.00000000000E+00  0.00000000000E+00 -0.18787670323E+04  0.18787670351E+04  0.10100000352E+00 0.  1.
    10030    2    1    2    0    0  0.00000000000E+00  0.00000000000E+00 -0.51211219044E+02  0.37063228512E+04  0.37059690350E+04 0.  0.
        2    1    3    3  502    0  0.24559879264E+02  0.14242009170E+03  0.18219107262E+04  0.18276338157E+04  0.25500000920E-02 0. -1.
       -2    1    3    3    0  502 -0.24559879264E+02 -0.14242009170E+03 -0.18731219452E+04  0.18786890354E+04  0.25500000920E-02 0.  1.
</event>
<event>
 5   0  0.3764495E-07  0.3405301E+04  0.7818609E-02  0.8136606E-01
        1   -1    0    0  501    0  0.00000000000E+00  0.00000000000E+00  0.25590513671E+04  0.25590513671E+04  0.50400001928E-02 0.  1.
       -1   -1    0    0    0  501  0.00000000000E+00  0.00000000000E+00 -0.11328490637E+04  0.11328490637E+04  0.50400001928E-02 0. -1.
    10030    2    1    2    0    0  0.00000000000E+00  0.00000000000E+00  0.14262023034E+04  0.36919004308E+04  0.34053011292E+04 0.  0.
        4    1    3    3  502    0  0.12425887746E+04  0.99805689003E+03  0.13625796799E+04  0.20968474945E+04  0.12699999809E+01 0.  1.
       -4    1    3    3    0  502 -0.12425887746E+04 -0.99805689003E+03  0.63622623506E+02  0.15950529363E+04  0.12699999809E+01 0. -1.
</event>
<event>
 5   0  0.1128166E-06  0.3608520E+04  0.7818609E-02  0.8088543E-01
        2   -1    0    0  501    0  0.00000000000E+00  0.00000000000E+00  0.14694815053E+04  0.14694815053E+04  0.25500000920E-02 0.  1.
       -2   -1    0    0    0  501  0.00000000000E+00  0.00000000000E+00 -0.22153079907E+04  0.22153079907E+04  0.25500000920E-02 0. -1.
    10030    2    1    2    0    0  0.00000000000E+00  0.00000000000E+00 -0.74582648535E+03  0.36847894960E+04  0.36085199852E+04 0.  0.
        3    1    3    3  502    0 -0.59253222990E+03  0.16317680514E+04  0.12899631502E+03  0.17408048358E+04  0.10100000352E+00 0. -1.
       -3    1    3    3    0  502  0.59253222990E+03 -0.16317680514E+04 -0.87482280036E+03  0.19439846602E+04  0.10100000352E+00 0.  1.
</event>
<event>
 5   0  0.1051123E-06  0.3603752E+04  0.7818609E-02  0.8089633E-01
       -2   -1    0    0    0  501  0.00000000000E+00  0.00000000000E+00  0.14809949590E+04  0.14809949590E+04  0.25500000920E-02 0.  1.
        2   -1    0    0  501    0  0.00000000000E+00  0.00000000000E+00 -0.21922804755E+04  0.21922804755E+04  0.25500000920E-02 0. -1.
    10030    2    1    2    0    0  0.00000000000E+00  0.00000000000E+00 -0.71128551650E+03  0.36732754346E+04  0.36037515636E+04 0.  0.
        2    1    3    3  502    0 -0.12058100789E+04  0.11320137749E+04 -0.10845065898E+04  0.19777734138E+04  0.25500000920E-02 0. -1.
       -2    1    3    3    0  502  0.12058100789E+04 -0.11320137749E+04  0.37322107331E+03  0.16955020208E+04  0.25500000920E-02 0.  1.
</event>
<event>
 5   0  0.1128166E-06  0.3603585E+04  0.7818609E-02  0.8089671E-01
        2   -1    0    0  501    0  0.00000000000E+00  0.00000000000E+00  0.29607415073E+04  0.29607415073E+04  0.25500000920E-02 0.  1.
       -2   -1    0    0    0  501  0.00000000000E+00  0.00000000000E+00 -0.10965009566E+04  0.10965009566E+04  0.25500000920E-02 0. -1.
    10030    2    1    2    0    0  0.00000000000E+00  0.00000000000E+00  0.18642405507E+04  0.40572424639E+04  0.36035848235E+04 0.  0.
        3    1    3    3  502    0 -0.16007331090E+04  0.15285645004E+03  0.18473137757E+04  0.24491385785E+04  0.10100000352E+00 0.  1.
       -3    1    3    3    0  502  0.16007331090E+04 -0.15285645004E+03  0.16926775002E+02  0.16081038854E+04  0.10100000352E+00 0. -1.
</event>
<event>
 5   0  0.1051123E-06  0.3745087E+04  0.7818609E-02  0.8058043E-01
        2   -1    0    0  501    0  0.00000000000E+00  0.00000000000E+00  0.30226062195E+04  0.30226062195E+04  0.25500000920E-02 0. -1.
       -2   -1    0    0    0  501  0.00000000000E+00  0.00000000000E+00 -0.11600649319E+04  0.11600649319E+04  0.25500000920E-02 0.  1.
    10030    2    1    2    0    0  0.00000000000E+00  0.00000000000E+00  0.18625412877E+04  0.41826711514E+04  0.37450871702E+04 0.  0.
        2    1    3    3  502    0  0.99661814576E+03  0.84857090633E+03 -0.56425527644E+03  0.14253786615E+04  0.25500000920E-02 0.  1.
       -2    1    3    3    0  502 -0.99661814576E+03 -0.84857090633E+03  0.24267965641E+04  0.27572924900E+04  0.25500000920E-02 0. -1.
</event>
<event>
 5   0  0.1128166E-06  0.2511706E+04  0.7818609E-02  0.8398827E-01
        2   -1    0    0  501    0  0.00000000000E+00  0.00000000000E+00  0.12438787889E+04  0.12438787889E+04  0.25500000920E-02 0.  1.
       -2   -1    0    0    0  501  0.00000000000E+00  0.00000000000E+00 -0.12679424254E+04  0.12679424254E+04  0.25500000920E-02 0. -1.
    10030    2    1    2    0    0  0.00000000000E+00  0.00000000000E+00 -0.24063636467E+02  0.25118212143E+04  0.25117059450E+04 0.  0.
        3    1    3    3  502    0 -0.10503291549E+04  0.68806850300E+03  0.11144229539E+02  0.12556885770E+04  0.10100000352E+00 0. -1.
       -3    1    3    3    0  502  0.10503291549E+04 -0.68806850300E+03 -0.35207866007E+02  0.12561326373E+04  0.10100000352E+00 0.  1.
</event>
<event>
 5   0  0.1128530E-06  0.3588476E+04  0.7818609E-02  0.8093137E-01
       -2   -1    0    0    0  501  0.00000000000E+00  0.00000000000E+00  0.18688216427E+04  0.18688216427E+04  0.25500000920E-02 0. -1.
        2   -1    0    0  501    0  0.00000000000E+00  0.00000000000E+00 -0.17226307621E+04  0.17226307621E+04  0.25500000920E-02 0.  1.
    10030    2    1    2    0    0  0.00000000000E+00  0.00000000000E+00  0.14619088063E+03  0.35914524048E+04  0.35884758049E+04 0.  0.
        5    1    3    3  502    0  0.11895658346E+04 -0.95092425276E+03  0.10225359897E+04  0.18343733942E+04  0.46999998093E+01 0.  1.
       -5    1    3    3    0  502 -0.11895658346E+04  0.95092425276E+03 -0.87634510906E+03  0.17570790106E+04  0.46999998093E+01 0. -1.
</event>
<event>
 5   0  0.1066907E-06  0.3716085E+04  0.7818609E-02  0.8064407E-01
       -2   -1    0    0    0  501  0.00000000000E+00  0.00000000000E+00  0.31072157764E+04  0.31072157764E+04  0.25500000920E-02 0. -1.
        2   -1    0    0  501    0  0.00000000000E+00  0.00000000000E+00 -0.11110659454E+04  0.11110659455E+04  0.25500000920E-02 0.  1.
    10030    2    1    2    0    0  0.00000000000E+00  0.00000000000E+00  0.19961498309E+04  0.42182817218E+04  0.37160848399E+04 0.  0.
        4    1    3    3  502    0  0.10059122733E+04 -0.60117944003E+03 -0.63867293811E+03  0.13346089148E+04  0.12699999809E+01 0.  1.
       -4    1    3    3    0  502 -0.10059122733E+04  0.60117944003E+03  0.26348227690E+04  0.28836728070E+04  0.12699999809E+01 0. -1.
</event>
<event>
 5   0  0.1066907E-06  0.3524815E+04  0.7818609E-02  0.8107934E-01
       -2   -1    0    0    0  501  0.00000000000E+00  0.00000000000E+00  0.16058584302E+04  0.16058584302E+04  0.25500000920E-02 0. -1.
        2   -1    0    0  501    0  0.00000000000E+00  0.00000000000E+00 -0.19342176367E+04  0.19342176367E+04  0.25500000920E-02 0.  1.
    10030    2    1    2    0    0  0.00000000000E+00  0.00000000000E+00 -0.32835920648E+03  0.35400760670E+04  0.35248147173E+04 0.  0.
        4    1    3    3  502    0  0.96307557420E+03  0.10116109933E+04  0.91527940372E+03  0.16699129807E+04  0.12699999809E+01 0. -1.
       -4    1    3    3    0  502 -0.96307557420E+03 -0.10116109933E+04 -0.12436386102E+04  0.18701630862E+04  0.12699999809E+01 0.  1.
</event>
<event>
 5   0  0.3682276E-07  0.3605209E+04  0.7818609E-02  0.8089300E-01
        1   -1    0    0  501    0  0.00000000000E+00  0.00000000000E+00  0.19113262851E+04  0.19113262851E+04  0.50400001928E-02 0. -1.
       -1   -1    0    0    0  501  0.00000000000E+00  0.00000000000E+00 -0.17000669596E+04  0.17000669596E+04  0.50400001928E-02 0.  1.
    10030    2    1    2    0    0  0.00000000000E+00  0.00000000000E+00  0.21125932551E+03  0.36113932447E+04  0.36052088241E+04 0.  0.
        1    1    3    3  502    0 -0.90685538112E+02 -0.17433272391E+04  0.55581012792E+03  0.18320312846E+04  0.50400001928E-02 0. -1.
       -1    1    3    3    0  502  0.90685538112E+02  0.17433272391E+04 -0.34455080241E+03  0.17793619601E+04  0.50400001928E-02 0.  1.
</event>
<event>
 5   0  0.1051123E-06  0.2987553E+04  0.7818609E-02  0.8247294E-01
        2   -1    0    0  501    0  0.00000000000E+00  0.00000000000E+00  0.16848917295E+04  0.16848917295E+04  0.25500000920E-02 0.  1.
       -2   -1    0    0    0  501  0.00000000000E+00  0.00000000000E+00 -0.13243389946E+04  0.13243389946E+04  0.25500000920E-02 0. -1.
    10030    2    1    2    0    0  0.00000000000E+00  0.00000000000E+00  0.36055273482E+03  0.30092307241E+04  0.29875527236E+04 0.  0.
        2    1    3    3  502    0 -0.10936550493E+04 -0.10136499722E+04  0.91316855353E+02  0.14939566262E+04  0.25500000920E-02 0.  1.
       -2    1    3    3    0  502  0.10936550493E+04  0.10136499722E+04  0.26923587947E+03  0.15152740979E+04  0.25500000920E-02 0. -1.
</event>
<event>
 5   0  0.3490375E-07  0.3731217E+04  0.7818609E-02  0.8061079E-01
       -3   -1    0    0    0  501  0.00000000000E+00  0.00000000000E+00  0.17274884476E+04  0.17274884506E+04  0.10100000352E+00 0. -1.
        3   -1    0    0  501    0  0.00000000000E+00  0.00000000000E+00 -0.20147714265E+04  0.20147714291E+04  0.10100000352E+00 0.  1.
    10030    2    1    2    0    0  0.00000000000E+00  0.00000000000E+00 -0.28728297893E+03  0.37422598796E+04  0.37312166242E+04 0.  0.
        2    1    3    3  502    0  0.15634554252E+04 -0.74056671769E+03  0.55675366918E+03  0.18173625335E+04  0.25500000920E-02 0. -1.
       -2    1    3    3    0  502 -0.15634554252E+04  0.74056671769E+03 -0.84403664811E+03  0.19248973462E+04  0.25500000920E-02 0.  1.
</event>
<event>
 5   0  0.3682276E-07  0.3719820E+04  0.7818609E-02  0.8063584E-01
        1   -1    0    0  501    0  0.00000000000E+00  0.00000000000E+00  0.22517879296E+04  0.22517879296E+04  0.50400001928E-02 0.  1.
       -1   -1    0    0    0  501  0.00000000000E+00  0.00000000000E+00 -0.15362304901E+04  0.15362304901E+04  0.50400001928E-02 0. -1.
    10030    2    1    2    0    0  0.00000000000E+00  0.00000000000E+00  0.71555743947E+03  0.37880184198E+04  0.37198200359E+04 0.  0.
        1    1    3    3  502    0  0.13420077532E+04  0.64332260745E+02 -0.95193544459E+03  0.16466039415E+04  0.50400001928E-02 0. -1.
       -1    1    3    3    0  502 -0.13420077532E+04 -0.64332260745E+02  0.16674928841E+04  0.21414144783E+04  0.50400001928E-02 0.  1.
</event>
<event>
 5   0  0.3675819E-07  0.3646469E+04  0.7818609E-02  0.8079930E-01
        1   -1    0    0  501    0  0.00000000000E+00  0.00000000000E+00  0.18230563871E+04  0.18230563871E+04  0.50400001928E-02 0. -1.
       -1   -1    0    0    0  501  0.00000000000E+00  0.00000000000E+00 -0.18234122548E+04  0.18234122548E+04  0.50400001928E-02 0.  1.
    10030    2    1    2    0    0  0.00000000000E+00  0.00000000000E+00 -0.35586770912E+00  0.36464686419E+04  0.36464686245E+04 0.  0.
        5    1    3    3  502    0  0.12221669657E+04  0.82535891521E+03  0.10718537109E+04  0.18231296988E+04  0.46999998093E+01 0. -1.
       -5    1    3    3    0  502 -0.12221669657E+04 -0.82535891521E+03 -0.10722095786E+04  0.18233389431E+04  0.46999998093E+01 0.  1.
</event>
<event>
 5   0  0.1092116E-06  0.3615380E+04  0.7818609E-02  0.8086978E-01
        2   -1    0    0  501    0  0.00000000000E+00  0.00000000000E+00  0.16421307856E+04  0.16421307856E+04  0.25500000920E-02 0. -1.
       -2   -1    0    0    0  501  0.00000000000E+00  0.00000000000E+00 -0.19899412783E+04  0.19899412783E+04  0.25500000920E-02 0.  1.
    10030    2    1    2    0    0  0.00000000000E+00  0.00000000000E+00 -0.34781049263E+03  0.36320720639E+04  0.36153803864E+04 0.  0.
        1    1    3    3  502    0 -0.12491027787E+04  0.12111534510E+04 -0.66667303915E+03  0.18632239197E+04  0.50400001928E-02 0. -1.
       -1    1    3    3    0  502  0.12491027787E+04 -0.12111534510E+04  0.31886254651E+03  0.17688481442E+04  0.50400001928E-02 0.  1.
</event>
<event>
 5   0  0.1128166E-06  0.3687338E+04  0.7818609E-02  0.8070774E-01
       -2   -1    0    0    0  501  0.00000000000E+00  0.00000000000E+00  0.15325494096E+04  0.15325494096E+04  0.25500000920E-02 0.  1.
        2   -1    0    0  501    0  0.00000000000E+00  0.00000000000E+00 -0.22179483125E+04  0.22179483125E+04  0.25500000920E-02 0. -1.
    10030    2    1    2    0    0  0.00000000000E+00  0.00000000000E+00 -0.68539890290E+03  0.37504977220E+04  0.36873379974E+04 0.  0.
        3    1    3    3  502    0 -0.10493660579E+04  0.15131227142E+04 -0.24944535107E+03  0.18582067874E+04  0.10100000352E+00 0.  1.
       -3    1    3    3    0  502  0.10493660579E+04 -0.15131227142E+04 -0.43595355183E+03  0.18922909346E+04  0.10100000352E+00 0. -1.
</event>
<event>
 5   0  0.1128530E-06  0.3701070E+04  0.7818609E-02  0.8067725E-01
       -2   -1    0    0    0  501  0.00000000000E+00  0.00000000000E+00  0.14624245305E+04  0.14624245305E+04  0.25500000920E-02 0. -1.
        2   -1    0    0  501    0  0.00000000000E+00  0.00000000000E+00 -0.23416460083E+04  0.23416460083E+04  0.25500000920E-02 0.  1.
    10030    2    1    2    0    0  0.00000000000E+00  0.00000000000E+00 -0.87922147778E+03  0.38040705387E+04  0.37010704204E+04 0.  0.
        5    1    3    3  502    0 -0.90257141845E+03  0.78394561643E+03  0.10122339272E+04  0.15664755052E+04  0.46999998093E+01 0. -1.
       -5    1    3    3    0  502  0.90257141845E+03 -0.78394561643E+03 -0.18914554050E+04  0.22375950335E+04  0.46999998093E+01 0.  1.
</event>
<event>
 5   0  0.3490375E-07  0.3661074E+04  0.7818609E-02  0.8076643E-01
        3   -1    0    0  501    0  0.00000000000E+00  0.00000000000E+00  0.15573731953E+04  0.15573731986E+04  0.10100000352E+00 0.  1.
       -3   -1    0    0    0  501  0.00000000000E+00  0.00000000000E+00 -0.21516139095E+04  0.21516139118E+04  0.10100000352E+00 0. -1.
    10030    2    1    2    0    0  0.00000000000E+00  0.00000000000E+00 -0.59424071416E+03  0.37089871104E+04  0.36610740717E+04 0.  0.
        4    1    3    3  502    0  0.47158245238E+03 -0.52290634198E+02  0.14939936371E+04  0.15675276458E+04  0.12699999809E+01 0.  1.
       -4    1    3    3    0  502 -0.47158245238E+03  0.52290634198E+02 -0.20882343512E+04  0.21414594646E+04  0.12699999809E+01 0. -1.
</event>
<event>
 5   0  0.1128166E-06  0.3608753E+04  0.7818609E-02  0.8088490E-01
        2   -1    0    0  501    0  0.00000000000E+00  0.00000000000E+00  0.16937945173E+04  0.16937945173E+04  0.25500000920E-02 0.  1.
       -2   -1    0    0    0  501  0.00000000000E+00  0.00000000000E+00 -0.19221779744E+04  0.19221779744E+04  0.25500000920E-02 0. -1.
    10030    2    1    2    0    0  0.00000000000E+00  0.00000000000E+00 -0.22838345710E+03  0.36159724917E+04  0.36087529782E+04 0.  0.
        3    1    3    3  502    0 -0.80532542067E+03  0.11060862710E+04 -0.12928947889E+04  0.18824326860E+04  0.10100000352E+00 0. -1.
       -3    1    3    3    0  502  0.80532542067E+03 -0.11060862710E+04  0.10645113318E+04  0.17335398057E+04  0.10100000352E+00 0.  1.
</event>
<event>
 5   0  0.1066907E-06  0.2315998E+04  0.7818609E-02  0.8471640E-01
       -2   -1    0    0    0  501  0.00000000000E+00  0.00000000000E+00  0.80546770313E+03  0.80546770314E+03  0.25500000920E-02 0.  1.
        2   -1    0    0  501    0  0.00000000000E+00  0.00000000000E+00 -0.16648242462E+04  0.16648242462E+04  0.25500000920E-02 0. -1.
    10030    2    1    2    0    0  0.00000000000E+00  0.00000000000E+00 -0.85935654304E+03  0.24702919493E+04  0.23159984125E+04 0.  0.
        4    1    3    3  502    0 -0.78359627639E+03  0.73484449029E+03 -0.89084960735E+03  0.13955766497E+04  0.12699999809E+01 0.  1.
       -4    1    3    3    0  502  0.78359627639E+03 -0.73484449029E+03  0.31493064302E+02  0.10747152996E+04  0.12699999809E+01 0. -1.
</event>
<event>
 5   0  0.1128530E-06  0.3771936E+04  0.7818609E-02  0.8052204E-01
        2   -1    0    0  501    0  0.00000000000E+00  0.00000000000E+00  0.19724126843E+04  0.19724126843E+04  0.25500000920E-02 0.  1.
       -2   -1    0    0    0  501  0.00000000000E+00  0.00000000000E+00 -0.18033120620E+04  0.18033120620E+04  0.25500000920E-02 0. -1.
    10030    2    1    2    0    0  0.00000000000E+00  0.00000000000E+00  0.16910062233E+03  0.37757247463E+04  0.37719361526E+04 0.  0.
        5    1    3    3  502    0  0.10197823060E+04  0.73452081828E+03 -0.13230543648E+04  0.18248210122E+04  0.46999998093E+01 0.  1.
       -5    1    3    3    0  502 -0.10197823060E+04 -0.73452081828E+03  0.14921549871E+04  0.19509037341E+04  0.46999998093E+01 0. -1.
</event>
<event>
 5   0  0.3675819E-07  0.3613108E+04  0.7818609E-02  0.8087496E-01
       -1   -1    0    0    0  501  0.00000000000E+00  0.00000000000E+00  0.12277605038E+04  0.12277605038E+04  0.50400001928E-02 0.  1.
        1   -1    0    0  501    0  0.00000000000E+00  0.00000000000E+00 -0.26582041825E+04  0.26582041825E+04  0.50400001928E-02 0. -1.
    10030    2    1    2    0    0  0.00000000000E+00  0.00000000000E+00 -0.14304436787E+04  0.38859646863E+04  0.36131084160E+04 0.  0.
        5    1    3    3  502    0  0.16349747718E+03  0.16348833806E+04  0.92521087489E+02  0.16456479984E+04  0.46999998093E+01 0.  1.
       -5    1    3    3    0  502 -0.16349747718E+03 -0.16348833806E+04 -0.15229647661E+04  0.22403166879E+04  0.46999998093E+01 0. -1.
</event>
<event>
 5   0  0.1128166E-06  0.3401684E+04  0.7818609E-02  0.8137493E-01
       -2   -1    0    0    0  501  0.00000000000E+00  0.00000000000E+00  0.18178881187E+04  0.18178881187E+04  0.25500000920E-02 0.  1.
        2   -1    0    0  501    0  0.00000000000E+00  0.00000000000E+00 -0.15913322031E+04  0.15913322031E+04  0.25500000920E-02 0. -1.
    10030    2    1    2    0    0  0.00000000000E+00  0.00000000000E+00  0.22655591557E+03  0.34092203218E+04  0.34016842328E+04 0.  0.
        3    1    3    3  502    0 -0.99365978261E+03  0.33871696053E+03 -0.12278850838E+04  0.16154846741E+04  0.10100000352E+00 0. -1.
       -3    1    3    3    0  502  0.99365978261E+03 -0.33871696053E+03  0.14544409994E+04  0.17937356477E+04  0.10100000352E+00 0.  1.
</event>
<event>
 5   0  0.1092116E-06  0.3336760E+04  0.7818609E-02  0.8153604E-01
       -2   -1    0    0    0  501  0.00000000000E+00  0.00000000000E+00  0.10895912576E+04  0.10895912576E+04  0.25500000920E-02 0. -1.
        2   -1    0    0  501    0  0.00000000000E+00  0.00000000000E+00 -0.25546208758E+04  0.25546208758E+04  0.25500000920E-02 0.  1.
    10030    2    1    2    0    0  0.00000000000E+00  0.00000000000E+00 -0.14650296182E+04  0.36442121334E+04  0.33367604485E+04 0.  0.
        1    1    3    3  502    0  0.46824764834E+03  0.56687320759E+03 -0.23681360852E+04  0.24796511069E+04  0.50400001928E-02 0.  1.
       -1    1    3    3    0  502 -0.46824764834E+03 -0.56687320759E+03  0.90310646704E+03  0.11645610265E+04  0.50400001928E-02 0. -1.
</event>
<event>
 5   0  0.1066907E-06  0.3670106E+04  0.7818609E-02  0.8074619E-01
       -2   -1    0    0    0  501  0.00000000000E+00  0.00000000000E+00  0.11448801298E+04  0.11448801298E+04  0.25500000920E-02 0.  1.
        2   -1    0    0  501    0  0.00000000000E+00  0.00000000000E+00 -0.29412849690E+04  0.29412849690E+04  0.25500000920E-02 0. -1.
    10030    2    1    2    0    0  0.00000000000E+00  0.00000000000E+00 -0.17964048392E+04  0.40861650988E+04  0.36701055663E+04 0.  0.
        4    1    3    3  502    0  0.25898618874E+03  0.18134001508E+04 -0.77663061018E+03  0.19896358135E+04  0.12699999809E+01 0.  1.
       -4    1    3    3    0  502 -0.25898618874E+03 -0.18134001508E+04 -0.10197742290E+04  0.20965292853E+04  0.12699999809E+01 0. -1.
</event>
<event>
 5   0  0.1092116E-06  0.2390185E+04  0.7818609E-02  0.8443187E-01
       -2   -1    0    0    0  501  0.00000000000E+00  0.00000000000E+00  0.15150436092E+04  0.15150436092E+04  0.25500000920E-02 0.  1.
        2   -1    0    0  501    0  0.00000000000E+00  0.00000000000E+00 -0.94270961677E+03  0.94270961678E+03  0.25500000920E-02 0. -1.
    10030    2    1    2    0    0  0.00000000000E+00  0.00000000000E+00  0.57233399247E+03  0.24577532260E+04  0.23901850809E+04 0.  0.
        1    1    3    3  502    0  0.10653284718E+04  0.39839196340E+03 -0.91090411987E+02  0.11410251410E+04  0.50400001928E-02 0. -1.
       -1    1    3    3    0  502 -0.10653284718E+04 -0.39839196340E+03  0.66342440445E+03  0.13167280850E+04  0.50400001928E-02 0.  1.
</event>
<event>
 5   0  0.1128166E-06  0.3772820E+04  0.7818609E-02  0.8052013E-01
        2   -1    0    0  501    0  0.00000000000E+00  0.00000000000E+00  0.21097158236E+04  0.21097158236E+04  0.25500000920E-02 0. -1.
       -2   -1    0    0    0  501  0.00000000000E+00  0.00000000000E+00 -0.16867398551E+04  0.16867398551E+04  0.25500000920E-02 0.  1.
    10030    2    1    2    0    0  0.00000000000E+00  0.00000000000E+00  0.42297596844E+03  0.37964556787E+04  0.37728195094E+04 0.  0.
        3    1    3    3  502    0  0.50648598213E+03  0.81602915859E+03 -0.14222939094E+04  0.17162026724E+04  0.10100000352E+00 0.  1.
       -3    1    3    3    0  502 -0.50648598213E+03 -0.81602915859E+03  0.18452698779E+04  0.20802530063E+04  0.10100000352E+00 0. -1.
</event>
<event>
 5   0  0.1051123E-06  0.3033846E+04  0.7818609E-02  0.8234131E-01
       -2   -1    0    0    0  501  0.00000000000E+00  0.00000000000E+00  0.16389865165E+04  0.16389865165E+04  0.25500000920E-02 0.  1.
        2   -1    0    0  501    0  0.00000000000E+00  0.00000000000E+00 -0.14039501227E+04  0.14039501227E+04  0.25500000920E-02 0. -1.
    10030    2    1    2    0    0  0.00000000000E+00  0.00000000000E+00  0.23503639375E+03  0.30429366392E+04  0.30338459558E+04 0.  0.
        2    1    3    3  502    0 -0.91080211458E+03 -0.33972622215E+03 -0.10504800396E+04  0.14312521482E+04  0.25500000920E-02 0. -1.
       -2    1    3    3    0  502  0.91080211458E+03  0.33972622215E+03  0.12855164334E+04  0.16116844910E+04  0.25500000920E-02 0.  1.
</event>
<event>
 5   0  0.1092116E-06  0.3721671E+04  0.7818609E-02  0.8063176E-01
        2   -1    0    0  501    0  0.00000000000E+00  0.00000000000E+00  0.22382237354E+04  0.22382237354E+04  0.25500000920E-02 0.  1.
       -2   -1    0    0    0  501  0.00000000000E+00  0.00000000000E+00 -0.15470790514E+04  0.15470790514E+04  0.25500000920E-02 0. -1.
    10030    2    1    2    0    0  0.00000000000E+00  0.00000000000E+00  0.69114468400E+03  0.37853027868E+04  0.37216711587E+04 0.  0.
        1    1    3    3  502    0  0.16005272898E+04 -0.52365793385E+03  0.11508180963E+04  0.20396782902E+04  0.50400001928E-02 0.  1.
       -1    1    3    3    0  502 -0.16005272898E+04  0.52365793385E+03 -0.45967341227E+03  0.17456244965E+04  0.50400001928E-02 0. -1.
</event>
<event>
 5   0  0.1051123E-06  0.3705897E+04  0.7818609E-02  0.8066656E-01
       -2   -1    0    0    0  501  0.00000000000E+00  0.00000000000E+00  0.16357985357E+04  0.16357985357E+04  0.25500000920E-02 0. -1.
        2   -1    0    0  501    0  0.00000000000E+00  0.00000000000E+00 -0.20989248831E+04  0.20989248831E+04  0.25500000920E-02 0.  1.
    10030    2    1    2    0    0  0.00000000000E+00  0.00000000000E+00 -0.46312634744E+03  0.37347234189E+04  0.37058970576E+04 0.  0.
        2    1    3    3  502    0  0.10541093444E+04  0.96080915417E+03 -0.14236069085E+04  0.20151817215E+04  0.25500000920E-02 0.  1.
       -2    1    3    3    0  502 -0.10541093444E+04 -0.96080915417E+03  0.96048056110E+03  0.17195416973E+04  0.25500000920E-02 0. -1.
</event>
<event>
 5   0  0.3682276E-07  0.3650026E+04  0.7818609E-02  0.8079128E-01
       -1   -1    0    0    0  501  0.00000000000E+00  0.00000000000E+00  0.17720980584E+04  0.17720980584E+04  0.50400001928E-02 0. -1.
        1   -1    0    0  501    0  0.00000000000E+00  0.00000000000E+00 -0.18795083360E+04  0.18795083360E+04  0.50400001928E-02 0.  1.
    10030    2    1    2    0    0  0.00000000000E+00  0.00000000000E+00 -0.10741027760E+03  0.36516063944E+04  0.36500263412E+04 0.  0.
        1    1    3    3  502    0 -0.10348527331E+04 -0.87112412728E+03 -0.12793459384E+04  0.18618548425E+04  0.50400001928E-02 0. -1.
       -1    1    3    3    0  502  0.10348527331E+04  0.87112412728E+03  0.11719356608E+04  0.17897515519E+04  0.50400001928E-02 0.  1.
</event>
<event>
 5   0  0.3848431E-07  0.3722977E+04  0.7818609E-02  0.8062889E-01
       -1   -1    0    0    0  501  0.00000000000E+00  0.00000000000E+00  0.13037402695E+04  0.13037402695E+04  0.50400001928E-02 0. -1.
        1   -1    0    0  501    0  0.00000000000E+00  0.00000000000E+00 -0.26578444450E+04  0.26578444450E+04  0.50400001928E-02 0.  1.
    10030    2    1    2    0    0  0.00000000000E+00  0.00000000000E+00 -0.13541041755E+04  0.39615847145E+04  0.37229766763E+04 0.  0.
        2    1    3    3  502    0  0.58203538939E+02 -0.16946505710E+04  0.14022954799E+03  0.17014383726E+04  0.25500000920E-02 0. -1.
       -2    1    3    3    0  502 -0.58203538939E+02  0.16946505710E+04 -0.14943337235E+04  0.22601463419E+04  0.25500000920E-02 0.  1.
</event>
<event>
 5   0  0.3764495E-07  0.3677311E+04  0.7818609E-02  0.8073009E-01
       -1   -1    0    0    0  501  0.00000000000E+00  0.00000000000E+00  0.24906641301E+04  0.24906641301E+04  0.50400001928E-02 0. -1.
        1   -1    0    0  501    0  0.00000000000E+00  0.00000000000E+00 -0.13573306705E+04  0.13573306705E+04  0.50400001928E-02 0.  1.
    10030    2    1    2    0    0  0.00000000000E+00  0.00000000000E+00  0.11333334596E+04  0.38479948006E+04  0.36773114166E+04 0.  0.
        4    1    3    3  502    0 -0.89650734182E+03  0.15785023670E+04  0.87220935132E+03  0.20139875625E+04  0.12699999809E+01 0. -1.
       -4    1    3    3    0  502  0.89650734182E+03 -0.15785023670E+04  0.26112410828E+03  0.18340072381E+04  0.12699999809E+01 0.  1.
</event>
<event>
 5   0  0.1128166E-06  0.2321746E+04  0.7818609E-02  0.8469396E-01
       -2   -1    0    0    0  501  0.00000000000E+00  0.00000000000E+00  0.55045105517E+03  0.55045105518E+03  0.25500000920E-02 0.  1.
        2   -1    0    0  501    0  0.00000000000E+00  0.00000000000E+00 -0.24482214072E+04  0.24482214072E+04  0.25500000920E-02 0. -1.
    10030    2    1    2    0    0  0.00000000000E+00  0.00000000000E+00 -0.18977703520E+04  0.29986724624E+04  0.23217459438E+04 0.  0.
        3    1    3    3  502    0  0.24070970306E+03 -0.44208244260E+03  0.40216729653E+03  0.64429542277E+03  0.10100000352E+00 0.  1.
       -3    1    3    3    0  502 -0.24070970306E+03  0.44208244260E+03 -0.22999376485E+04  0.23543770396E+04  0.10100000352E+00 0. -1.
</event>
<event>
 5   0  0.1128166E-06  0.3703126E+04  0.7818609E-02  0.8067269E-01
        2   -1    0    0  501    0  0.00000000000E+00  0.00000000000E+00  0.26252728013E+04  0.26252728013E+04  0.25500000920E-02 0.  1.
       -2   -1    0    0    0  501  0.00000000000E+00  0.00000000000E+00 -0.13058777676E+04  0.13058777676E+04  0.25500000920E-02 0. -1.
    10030    2    1    2    0    0  0.00000000000E+00  0.00000000000E+00  0.13193950337E+04  0.39311505689E+04  0.37031259148E+04 0.  0.
        3    1    3    3  502    0  0.96067646294E+03 -0.15826474699E+04  0.68598293380E+03  0.19743973451E+04  0.10100000352E+00 0. -1.
       -3    1    3    3    0  502 -0.96067646294E+03  0.15826474699E+04  0.63341209989E+03  0.19567532239E+04  0.10100000352E+00 0.  1.
</event>
<event>
 5   0  0.3704306E-07  0.3439820E+04  0.7818609E-02  0.8128202E-01
        1   -1    0    0  501    0  0.00000000000E+00  0.00000000000E+00  0.18173579243E+04  0.18173579243E+04  0.50400001928E-02 0.  1.
       -1   -1    0    0    0  501  0.00000000000E+00  0.00000000000E+00 -0.16276870422E+04  0.16276870422E+04  0.50400001928E-02 0. -1.
    10030    2    1    2    0    0  0.00000000000E+00  0.00000000000E+00  0.18967088217E+03  0.34450449665E+04  0.34398197304E+04 0.  0.
        3    1    3    3  502    0  0.20617070549E+03  0.10017836026E+04  0.14796915573E+04  0.17987673172E+04  0.10100000352E+00 0.  1.
       -3    1    3    3    0  502 -0.20617070549E+03 -0.10017836026E+04 -0.12900206752E+04  0.16462776494E+04  0.10100000352E+00 0. -1.
</event>
<event>
 5   0  0.3764495E-07  0.3437109E+04  0.7818609E-02  0.8128858E-01
       -1   -1    0    0    0  501  0.00000000000E+00  0.00000000000E+00  0.24751186029E+04  0.24751186029E+04  0.50400001928E-02 0.  1.
        1   -1    0    0  501    0  0.00000000000E+00  0.00000000000E+00 -0.11932477408E+04  0.11932477408E+04  0.50400001928E-02 0. -1.
    10030    2    1    2    0    0  0.00000000000E+00  0.00000000000E+00  0.12818708621E+04  0.36683663437E+04  0.34371090650E+04 0.  0.
        4    1    3    3  502    0  0.55848546568E+03 -0.56810314617E+03 -0.98427365345E+03  0.12662714708E+04  0.12699999809E+01 0. -1.
       -4    1    3    3    0  502 -0.55848546568E+03  0.56810314617E+03  0.22661445155E+04  0.24020948729E+04  0.12699999809E+01 0.  1.
</event>
<event>
 5   0  0.3490375E-07  0.3709026E+04  0.7818609E-02  0.8065964E-01
        3   -1    0    0  501    0  0.00000000000E+00  0.00000000000E+00  0.15058852237E+04  0.15058852271E+04  0.10100000352E+00 0.  1.
       -3   -1    0    0    0  501  0.00000000000E+00  0.00000000000E+00 -0.22838518724E+04  0.22838518746E+04  0.10100000352E+00 0. -1.
    10030    2    1    2    0    0  0.00000000000E+00  0.00000000000E+00 -0.77796664864E+03  0.37897371017E+04  0.37090261786E+04 0.  0.
        5    1    3    3  502    0  0.32569273498E+03 -0.11241523465E+04 -0.18588287483E+04  0.21966020716E+04  0.46999998093E+01 0. -1.
       -5    1    3    3    0  502 -0.32569273498E+03  0.11241523465E+04  0.10808620996E+04  0.15931350301E+04  0.46999998093E+01 0.  1.
</event>
<event>
 5   0  0.1066907E-06  0.3426960E+04  0.7818609E-02  0.8131321E-01
        2   -1    0    0  501    0  0.00000000000E+00  0.00000000000E+00  0.23310589400E+04  0.23310589400E+04  0.25500000920E-02 0. -1.
       -2   -1    0    0    0  501  0.00000000000E+00  0.00000000000E+00 -0.12595195211E+04  0.12595195211E+04  0.25500000920E-02 0.  1.
    10030    2    1    2    0    0  0.00000000000E+00  0.00000000000E+00  0.10715394189E+04  0.35905784612E+04  0.34269603090E+04 0.  0.
        4    1    3    3  502    0  0.42347657019E+03  0.45414739539E+03 -0.11374851003E+04  0.12959383583E+04  0.12699999809E+01 0.  1.
       -4    1    3    3    0  502 -0.42347657019E+03 -0.45414739539E+03  0.22090245192E+04  0.22946401029E+04  0.12699999809E+01 0. -1.
</event>
<event>
 5   0  0.1066907E-06  0.3056097E+04  0.7818609E-02  0.8227891E-01
       -2   -1    0    0    0  501  0.00000000000E+00  0.00000000000E+00  0.20354157497E+04  0.20354157497E+04  0.25500000920E-02 0.  1.
        2   -1    0    0  501    0  0.00000000000E+00  0.00000000000E+00 -0.11471524710E+04  0.11471524710E+04  0.25500000920E-02 0. -1.
    10030    2    1    2    0    0  0.00000000000E+00  0.00000000000E+00  0.88826327877E+03  0.31825682207E+04  0.30560969924E+04 0.  0.
        4    1    3    3  502    0  0.49668767321E+03  0.79120499137E+02 -0.10584843980E+04  0.11718999666E+04  0.12699999809E+01 0. -1.
       -4    1    3    3    0  502 -0.49668767321E+03 -0.79120499137E+02  0.19467476768E+04  0.20106682541E+04  0.12699999809E+01 0.  1.
</event>
<event>
 5   0  0.1128166E-06  0.3682934E+04  0.7818609E-02  0.8071754E-01
        2   -1    0    0  501    0  0.00000000000E+00  0.00000000000E+00  0.11525272830E+04  0.11525272830E+04  0.25500000920E-02 0.  1.
       -2   -1    0    0    0  501  0.00000000000E+00  0.00000000000E+00 -0.29422300854E+04  0.29422300854E+04  0.25500000920E-02 0. -1.
    10030    2    1    2    0    0  0.00000000000E+00  0.00000000000E+00 -0.17897028024E+04  0.40947573684E+04  0.36829338557E+04 0.  0.
        3    1    3    3  502    0 -0.10890854710E+04 -0.95246065162E+03 -0.21614045265E+04  0.26009532856E+04  0.10100000352E+00 0. -1.
       -3    1    3    3    0  502  0.10890854710E+04  0.95246065162E+03  0.37170172415E+03  0.14938040829E+04  0.10100000352E+00 0.  1.
</event>
<event>
 5   0  0.3682276E-07  0.3748232E+04  0.7818609E-02  0.8057356E-01
       -1   -1    0    0    0  501  0.00000000000E+00  0.00000000000E+00  0.14454416091E+04  0.14454416091E+04  0.50400001928E-02 0.  1.
        1   -1    0    0  501    0  0.00000000000E+00  0.00000000000E+00 -0.24299220642E+04  0.24299220642E+04  0.50400001928E-02 0. -1.
    10030    2    1    2    0    0  0.00000000000E+00  0.00000000000E+00 -0.98448045513E+03  0.38753636733E+04  0.37482318276E+04 0.  0.
        1    1    3    3  502    0 -0.24697194303E+03 -0.12890644040E+04 -0.18753843540E+04  0.22890497272E+04  0.50400001928E-02 0. -1.
       -1    1    3    3    0  502  0.24697194303E+03  0.12890644040E+04  0.89090389892E+03  0.15863139461E+04  0.50400001928E-02 0.  1.
</event>
<event>
 5   0  0.1066907E-06  0.2897446E+04  0.7818609E-02  0.8273638E-01
        2   -1    0    0  501    0  0.00000000000E+00  0.00000000000E+00  0.11168545624E+04  0.11168545624E+04  0.25500000920E-02 0.  1.
       -2   -1    0    0    0  501  0.00000000000E+00  0.00000000000E+00 -0.18792042722E+04  0.18792042722E+04  0.25500000920E-02 0. -1.
    10030    2    1    2    0    0  0.00000000000E+00  0.00000000000E+00 -0.76234970980E+03  0.29960588346E+04  0.28974456786E+04 0.  0.
        4    1    3    3  502    0  0.82323250996E+03  0.67835402683E+03  0.63245342630E+03  0.12401108420E+04  0.12699999809E+01 0.  1.
       -4    1    3    3    0  502 -0.82323250996E+03 -0.67835402683E+03 -0.13948031361E+04  0.17559479926E+04  0.12699999809E+01 0. -1.
</event>
<event>
 5   0  0.3764495E-07  0.2855530E+04  0.7818609E-02  0.8286233E-01
       -1   -1    0    0    0  501  0.00000000000E+00  0.00000000000E+00  0.18602305985E+04  0.18602305985E+04  0.50400001928E-02 0. -1.
        1   -1    0    0  501    0  0.00000000000E+00  0.00000000000E+00 -0.10958391214E+04  0.10958391214E+04  0.50400001928E-02 0.  1.
    10030    2    1    2    0    0  0.00000000000E+00  0.00000000000E+00  0.76439147713E+03  0.29560697199E+04  0.28555303989E+04 0.  0.
        4    1    3    3  502    0  0.53221581689E+03 -0.13207131313E+04  0.49064589061E+03  0.15060783027E+04  0.12699999809E+01 0.  1.
       -4    1    3    3    0  502 -0.53221581689E+03  0.13207131313E+04  0.27374558652E+03  0.14499914172E+04  0.12699999809E+01 0. -1.
</event>
<event>
 5   0  0.1092116E-06  0.3666715E+04  0.7818609E-02  0.8075378E-01
       -2   -1    0    0    0  501  0.00000000000E+00  0.00000000000E+00  0.19005245265E+04  0.19005245265E+04  0.25500000920E-02 0.  1.
        2   -1    0    0  501    0  0.00000000000E+00  0.00000000000E+00 -0.17685644543E+04  0.17685644543E+04  0.25500000920E-02 0. -1.
    10030    2    1    2    0    0  0.00000000000E+00  0.00000000000E+00  0.13196007222E+03  0.36690889809E+04  0.36667152179E+04 0.  0.
        1    1    3    3  502    0  0.16078693860E+04 -0.69596326949E+03  0.60632154948E+03  0.18539780625E+04  0.50400001928E-02 0.  1.
       -1    1    3    3    0  502 -0.16078693860E+04  0.69596326949E+03 -0.47436147726E+03  0.18151109184E+04  0.50400001928E-02 0. -1.
</event>
<event>
 5   0  0.1128530E-06  0.3271348E+04  0.7818609E-02  0.8170224E-01
        2   -1    0    0  501    0  0.00000000000E+00  0.00000000000E+00  0.28917449299E+04  0.28917449299E+04  0.25500000920E-02 0.  1.
       -2   -1    0    0    0  501  0.00000000000E+00  0.00000000000E+00 -0.92519561360E+03  0.92519561360E+03  0.25500000920E-02 0. -1.
    10030    2    1    2    0    0  0.00000000000E+00  0.00000000000E+00  0.19665493163E+04  0.38169405435E+04  0.32713481776E+04 0.  0.
        5    1    3    3  502    0 -0.54295369505E+03  0.98673471845E+03  0.23672553881E+04  0.26215194606E+04  0.46999998093E+01 0.  1.
       -5    1    3    3    0  502  0.54295369505E+03 -0.98673471845E+03 -0.40070607182E+03  0.11954210829E+04  0.46999998093E+01 0. -1.
</event>
<event>
 5   0  0.3682276E-07  0.3677158E+04  0.7818609E-02  0.8073043E-01
        1   -1    0    0  501    0  0.00000000000E+00  0.00000000000E+00  0.27831102358E+04  0.27831102358E+04  0.50400001928E-02 0. -1.
       -1   -1    0    0    0  501  0.00000000000E+00  0.00000000000E+00 -0.12146024436E+04  0.12146024436E+04  0.50400001928E-02 0.  1.
    10030    2    1    2    0    0  0.00000000000E+00  0.00000000000E+00  0.15685077923E+04  0.39977126794E+04  0.36771578661E+04 0.  0.
        1    1    3    3  502    0 -0.14125830684E+04  0.78795539904E+03 -0.16608090877E+03  0.16259912375E+04  0.50400001928E-02 0.  1.
       -1    1    3    3    0  502  0.14125830684E+04 -0.78795539904E+03  0.17345887010E+04  0.23717214419E+04  0.50400001928E-02 0. -1.
</event>
<event>
 5   0  0.3682276E-07  0.3686848E+04  0.7818609E-02  0.8070883E-01
       -1   -1    0    0    0  501  0.00000000000E+00  0.00000000000E+00  0.22239898702E+04  0.22239898702E+04  0.50400001928E-02 0. -1.
        1   -1    0    0  501    0  0.00000000000E+00  0.00000000000E+00 -0.15279799919E+04  0.15279799919E+04  0.50400001928E-02 0.  1.
    10030    2    1    2    0    0  0.00000000000E+00  0.00000000000E+00  0.69600987833E+03  0.37519698621E+04  0.36868479892E+04 0.  0.
        1    1    3    3  502    0  0.72455624010E+03 -0.50087762514E+03 -0.12999661681E+04  0.15702777394E+04  0.50400001928E-02 0.  1.
       -1    1    3    3    0  502 -0.72455624010E+03  0.50087762514E+03  0.19959760465E+04  0.21816921228E+04  0.50400001928E-02 0. -1.
</event>
<event>
 5   0  0.3764495E-07  0.3719135E+04  0.7818609E-02  0.8063735E-01
        1   -1    0    0  501    0  0.00000000000E+00  0.00000000000E+00  0.29280220384E+04  0.29280220384E+04  0.50400001928E-02 0. -1.
       -1   -1    0    0    0  501  0.00000000000E+00  0.00000000000E+00 -0.11809989333E+04  0.11809989333E+04  0.50400001928E-02 0.  1.
    10030    2    1    2    0    0  0.00000000000E+00  0.00000000000E+00  0.17470231051E+04  0.41090209717E+04  0.37191347940E+04 0.  0.
        4    1    3    3  502    0 -0.83907959820E+03 -0.14964286113E+04  0.80925226983E+02  0.17175283597E+04  0.12699999809E+01 0. -1.
       -4    1    3    3    0  502  0.83907959820E+03  0.14964286113E+04  0.16660978782E+04  0.23914926120E+04  0.12699999809E+01 0.  1.
</event>
<event>
 5   0  0.1066907E-06  0.3592743E+04  0.7818609E-02  0.8092156E-01
       -2   -1    0    0    0  501  0.00000000000E+00  0.00000000000E+00  0.13036653654E+04  0.13036653654E+04  0.25500000920E-02 0.  1.
        2   -1    0    0  501    0  0.00000000000E+00  0.00000000000E+00 -0.24752908120E+04  0.24752908120E+04  0.25500000920E-02 0. -1.
    10030    2    1    2    0    0  0.00000000000E+00  0.00000000000E+00 -0.11716254466E+04  0.37789561774E+04  0.35927431864E+04 0.  0.
        4    1    3    3  502    0  0.24253258480E+03 -0.90612213418E+03 -0.21972325179E+04  0.23890817750E+04  0.12699999809E+01 0. -1.
       -4    1    3    3    0  502 -0.24253258480E+03  0.90612213418E+03  0.10256070714E+04  0.13898744024E+04  0.12699999809E+01 0.  1.
</event>
<event>
 5   0  0.3682276E-07  0.2407179E+04  0.7818609E-02  0.8436821E-01
       -1   -1    0    0    0  501  0.00000000000E+00  0.00000000000E+00  0.81226413705E+03  0.81226413706E+03  0.50400001928E-02 0.  1.
        1   -1    0    0  501    0  0.00000000000E+00  0.00000000000E+00 -0.17834439089E+04  0.17834439089E+04  0.50400001928E-02 0. -1.
    10030    2    1    2    0    0  0.00000000000E+00  0.00000000000E+00 -0.97117977185E+03  0.25957080460E+04  0.24071788697E+04 0.  0.
        1    1    3    3  502    0 -0.12559189502E+03 -0.29346425435E+03  0.76578726645E+03  0.82965337953E+03  0.50400001928E-02 0.  1.
       -1    1    3    3    0  502  0.12559189502E+03  0.29346425435E+03 -0.17369670383E+04  0.17660546664E+04  0.50400001928E-02 0. -1.
</event>
<event>
 5   0  0.1092116E-06  0.2506775E+04  0.7818609E-02  0.8400576E-01
        2   -1    0    0  501    0  0.00000000000E+00  0.00000000000E+00  0.25223653336E+04  0.25223653336E+04  0.25500000920E-02 0.  1.
       -2   -1    0    0    0  501  0.00000000000E+00  0.00000000000E+00 -0.62282014198E+03  0.62282014198E+03  0.25500000920E-02 0. -1.
    10030    2    1    2    0    0  0.00000000000E+00  0.00000000000E+00  0.18995451916E+04  0.31451854756E+04  0.25067747687E+04 0.  0.
        1    1    3    3  502    0  0.10229988250E+04  0.34403839221E+03  0.17493170004E+04  0.20554802308E+04  0.50400001928E-02 0.  1.
       -1    1    3    3    0  502 -0.10229988250E+04 -0.34403839221E+03  0.15022819125E+03  0.10897052448E+04  0.50400001928E-02 0. -1.
</event>
<event>
 5   0  0.1128166E-06  0.3442813E+04  0.7818609E-02  0.8127478E-01
        2   -1    0    0  501    0  0.00000000000E+00  0.00000000000E+00  0.18833099634E+04  0.18833099634E+04  0.25500000920E-02 0.  1.
       -2   -1    0    0    0  501  0.00000000000E+00  0.00000000000E+00 -0.15734216681E+04  0.15734216681E+04  0.25500000920E-02 0. -1.
    10030    2    1    2    0    0  0.00000000000E+00  0.00000000000E+00  0.30988829534E+03  0.34567316314E+04  0.34428132125E+04 0.  0.
        3    1    3    3  502    0 -0.13209909342E+04  0.80301081380E+03 -0.60534714446E+03  0.16602073940E+04  0.10100000352E+00 0. -1.
       -3    1    3    3    0  502  0.13209909342E+04 -0.80301081380E+03  0.91523543980E+03  0.17965242375E+04  0.10100000352E+00 0.  1.
</event>
<event>
 5   0  0.3682276E-07  0.3790682E+04  0.7818609E-02  0.8048157E-01
       -1   -1    0    0    0  501  0.00000000000E+00  0.00000000000E+00  0.12713162103E+04  0.12713162103E+04  0.50400001928E-02 0. -1.
        1   -1    0    0  501    0  0.00000000000E+00  0.00000000000E+00 -0.28256683992E+04  0.28256683992E+04  0.50400001928E-02 0.  1.
    10030    2    1    2    0    0  0.00000000000E+00  0.00000000000E+00 -0.15543521889E+04  0.40969846095E+04  0.37906822820E+04 0.  0.
        1    1    3    3  502    0  0.59745419900E+03  0.83284421853E+03 -0.25002831277E+04  0.27022207036E+04  0.50400001928E-02 0.  1.
       -1    1    3    3    0  502 -0.59745419900E+03 -0.83284421853E+03  0.94593093874E+03  0.13947639059E+04  0.50400001928E-02 0. -1.
</event>
<event>
 5   0  0.1128530E-06  0.3625972E+04  0.7818609E-02  0.8084568E-01
       -2   -1    0    0    0  501  0.00000000000E+00  0.00000000000E+00  0.24541236990E+04  0.24541236990E+04  0.25500000920E-02 0. -1.
        2   -1    0    0  501    0  0.00000000000E+00  0.00000000000E+00 -0.13393453342E+04  0.13393453342E+04  0.25500000920E-02 0.  1.
    10030    2    1    2    0    0  0.00000000000E+00  0.00000000000E+00  0.11147783648E+04  0.37934690332E+04  0.36259724906E+04 0.  0.
        5    1    3    3  502    0 -0.49669541860E+03 -0.87602703348E+03 -0.10198208381E+04  0.14332432920E+04  0.46999998093E+01 0.  1.
       -5    1    3    3    0  502  0.49669541860E+03  0.87602703348E+03  0.21345992029E+04  0.23602257412E+04  0.46999998093E+01 0. -1.
</event>
<event>
 5   0  0.3682276E-07  0.3613418E+04  0.7818609E-02  0.8087425E-01
        1   -1    0    0  501    0  0.00000000000E+00  0.00000000000E+00  0.19629401512E+04  0.19629401512E+04  0.50400001928E-02 0.  1.
       -1   -1    0    0    0  501  0.00000000000E+00  0.00000000000E+00 -0.16629126680E+04  0.16629126680E+04  0.50400001928E-02 0. -1.
    10030    2    1    2    0    0  0.00000000000E+00  0.00000000000E+00  0.30002748324E+03  0.36258528193E+04  0.36134183506E+04 0.  0.
        1    1    3    3  502    0 -0.13355169117E+04 -0.10530059388E+04  0.76184230412E+03  0.18635532257E+04  0.50400001928E-02 0.  1.
       -1    1    3    3    0  502  0.13355169117E+04  0.10530059388E+04 -0.46181482088E+03  0.17622995936E+04  0.50400001928E-02 0. -1.
</event>
<event>
 5   0  0.3490375E-07  0.3688877E+04  0.7818609E-02  0.8070431E-01
       -3   -1    0    0    0  501  0.00000000000E+00  0.00000000000E+00  0.15147819869E+04  0.15147819902E+04  0.10100000352E+00 0.  1.
        3   -1    0    0  501    0  0.00000000000E+00  0.00000000000E+00 -0.22458364187E+04  0.22458364209E+04  0.10100000352E+00 0. -1.
    10030    2    1    2    0    0  0.00000000000E+00  0.00000000000E+00 -0.73105443177E+03  0.37606184112E+04  0.36888765569E+04 0.  0.
        1    1    3    3  502    0  0.15022881411E+04  0.10599477493E+04 -0.21572149249E+03  0.18511873628E+04  0.50400001928E-02 0.  1.
       -1    1    3    3    0  502 -0.15022881411E+04 -0.10599477493E+04 -0.51533293928E+03  0.19094310483E+04  0.50400001928E-02 0. -1.
</event>
<event>
 5   0  0.3704306E-07  0.3687752E+04  0.7818609E-02  0.8070681E-01
        1   -1    0    0  501    0  0.00000000000E+00  0.00000000000E+00  0.17095251802E+04  0.17095251802E+04  0.50400001928E-02 0.  1.
       -1   -1    0    0    0  501  0.00000000000E+00  0.00000000000E+00 -0.19887857819E+04  0.19887857819E+04  0.50400001928E-02 0. -1.
    10030    2    1    2    0    0  0.00000000000E+00  0.00000000000E+00 -0.27926060163E+03  0.36983109621E+04  0.36877523627E+04 0.  0.
        3    1    3    3  502    0  0.20616690807E+02 -0.10492079879E+04 -0.16600902113E+04  0.19639658779E+04  0.10100000352E+00 0. -1.
       -3    1    3    3    0  502 -0.20616690807E+02  0.10492079879E+04  0.13808296097E+04  0.17343450842E+04  0.10100000352E+00 0.  1.
</event>
<event>
 5   0  0.1066907E-06  0.3655345E+04  0.7818609E-02  0.8077930E-01
        2   -1    0    0  501    0  0.00000000000E+00  0.00000000000E+00  0.18730963401E+04  0.18730963401E+04  0.25500000920E-02 0. -1.
       -2   -1    0    0    0  501  0.00000000000E+00  0.00000000000E+00 -0.17833506909E+04  0.17833506909E+04  0.25500000920E-02 0.  1.
    10030    2    1    2    0    0  0.00000000000E+00  0.00000000000E+00  0.89745649180E+02  0.36564470310E+04  0.36553454842E+04 0.  0.
        4    1    3    3  502    0 -0.12795744150E+04 -0.82895253756E+03  0.10531016846E+04  0.18529699846E+04  0.12699999809E+01 0. -1.
       -4    1    3    3    0  502  0.12795744150E+04  0.82895253756E+03 -0.96335603545E+03  0.18034770464E+04  0.12699999809E+01 0.  1.
</event>
<event>
 5   0  0.3848431E-07  0.3981339E+04  0.7818609E-02  0.8008322E-01
       -1   -1    0    0    0  501  0.00000000000E+00  0.00000000000E+00  0.32440064883E+04  0.32440064883E+04  0.50400001928E-02 0. -1.
        1   -1    0    0  501    0  0.00000000000E+00  0.00000000000E+00 -0.12215651027E+04  0.12215651027E+04  0.50400001928E-02 0.  1.
    10030    2    1    2    0    0  0.00000000000E+00  0.00000000000E+00  0.20224413856E+04  0.44655715910E+04  0.39813390305E+04 0.  0.
        2    1    3    3  502    0  0.25553083152E+03 -0.77090726030E+03  0.30497334351E+04  0.31560209181E+04  0.25500000920E-02 0. -1.
       -2    1    3    3    0  502 -0.25553083152E+03  0.77090726030E+03 -0.10272920495E+04  0.13095506729E+04  0.25500000920E-02 0.  1.
</event>
<event>
 5   0  0.1092116E-06  0.4010862E+04  0.7818609E-02  0.8002359E-01
        2   -1    0    0  501    0  0.00000000000E+00  0.00000000000E+00  0.25501780593E+04  0.25501780593E+04  0.25500000920E-02 0.  1.
       -2   -1    0    0    0  501  0.00000000000E+00  0.00000000000E+00 -0.15770479976E+04  0.15770479976E+04  0.25500000920E-02 0. -1.
    10030    2    1    2    0    0  0.00000000000E+00  0.00000000000E+00  0.97313006171E+03  0.41272260568E+04  0.40108618534E+04 0.  0.
        1    1    3    3  502    0  0.77795442939E+02 -0.16553302287E+04  0.16487490467E+04  0.23376363524E+04  0.50400001928E-02 0.  1.
       -1    1    3    3    0  502 -0.77795442939E+02  0.16553302287E+04 -0.67561898502E+03  0.17895897044E+04  0.50400001928E-02 0. -1.
</event>
<event>
 5   0  0.1066907E-06  0.3703340E+04  0.7818609E-02  0.8067222E-01
       -2   -1    0    0    0  501  0.00000000000E+00  0.00000000000E+00  0.23516017021E+04  0.23516017021E+04  0.25500000920E-02 0. -1.
        2   -1    0    0  501    0  0.00000000000E+00  0.00000000000E+00 -0.14580196970E+04  0.14580196970E+04  0.25500000920E-02 0.  1.
    10030    2    1    2    0    0  0.00000000000E+00  0.00000000000E+00  0.89358200508E+03  0.38096213992E+04  0.37033398987E+04 0.  0.
        4    1    3    3  502    0  0.47289075145E+03  0.12888941409E+04 -0.83136727368E+03  0.16050068305E+04  0.12699999809E+01 0.  1.
       -4    1    3    3    0  502 -0.47289075145E+03 -0.12888941409E+04  0.17249492788E+04  0.22046145687E+04  0.12699999809E+01 0. -1.
</event>
<event>
 5   0  0.1066907E-06  0.3642005E+04  0.7818609E-02  0.8080937E-01
        2   -1    0    0  501    0  0.00000000000E+00  0.00000000000E+00  0.25678692606E+04  0.25678692606E+04  0.25500000920E-02 0.  1.
       -2   -1    0    0    0  501  0.00000000000E+00  0.00000000000E+00 -0.12913624838E+04  0.12913624838E+04  0.25500000920E-02 0. -1.
    10030    2    1    2    0    0  0.00000000000E+00  0.00000000000E+00  0.12765067768E+04  0.38592317444E+04  0.36420049569E+04 0.  0.
        4    1    3    3  502    0  0.92480063950E+03  0.21875018226E+03 -0.10077610361E+04  0.13851685038E+04  0.12699999809E+01 0. -1.
       -4    1    3    3    0  502 -0.92480063950E+03 -0.21875018226E+03  0.22842678129E+04  0.24740632407E+04  0.12699999809E+01 0.  1.
</event>
<event>
 5   0  0.1051123E-06  0.2886476E+04  0.7818609E-02  0.8276913E-01
        2   -1    0    0  501    0  0.00000000000E+00  0.00000000000E+00  0.22199472042E+04  0.22199472042E+04  0.25500000920E-02 0. -1.
       -2   -1    0    0    0  501  0.00000000000E+00  0.00000000000E+00 -0.93828196267E+03  0.93828196267E+03  0.25500000920E-02 0.  1.
    10030    2    1    2    0    0  0.00000000000E+00  0.00000000000E+00  0.12816652416E+04  0.31582291669E+04  0.28864763431E+04 0.  0.
        2    1    3    3  502    0 -0.42495648539E+03  0.10977910865E+04 -0.27276572268E+03  0.12083602209E+04  0.25500000920E-02 0. -1.
       -2    1    3    3    0  502  0.42495648539E+03 -0.10977910865E+04  0.15544309643E+04  0.19498689460E+04  0.25500000920E-02 0.  1.
</event>
<event>
 5   0  0.1128166E-06  0.3686421E+04  0.7818609E-02  0.8070978E-01
        2   -1    0    0  501    0  0.00000000000E+00  0.00000000000E+00  0.17724459535E+04  0.17724459535E+04  0.25500000920E-02 0.  1.
       -2   -1    0    0    0  501  0.00000000000E+00  0.00000000000E+00 -0.19168007052E+04  0.19168007052E+04  0.25500000920E-02 0. -1.
    10030    2    1    2    0    0  0.00000000000E+00  0.00000000000E+00 -0.14435475165E+03  0.36892466587E+04  0.36864213832E+04 0.  0.
        3    1    3    3  502    0  0.96633065436E+03 -0.73169268587E+03  0.13175036270E+04  0.17902471722E+04  0.10100000352E+00 0.  1.
       -3    1    3    3    0  502 -0.96633065436E+03  0.73169268587E+03 -0.14618583787E+04  0.18989994865E+04  0.10100000352E+00 0. -1.
</event>
<event>
 5   0  0.3704306E-07  0.3038378E+04  0.7818609E-02  0.8232856E-01
       -1   -1    0    0    0  501  0.00000000000E+00  0.00000000000E+00  0.12533588990E+04  0.12533588990E+04  0.50400001928E-02 0.  1.
        1   -1    0    0  501    0  0.00000000000E+00  0.00000000000E+00 -0.18414001265E+04  0.18414001265E+04  0.50400001928E-02 0. -1.
    10030    2    1    2    0    0  0.00000000000E+00  0.00000000000E+00 -0.58804122751E+03  0.30947590255E+04  0.30383780115E+04 0.  0.
        3    1    3    3  502    0 -0.45521057645E+03  0.14055062809E+04 -0.65452429162E+03  0.16158795231E+04  0.10100000352E+00 0. -1.
       -3    1    3    3    0  502  0.45521057645E+03 -0.14055062809E+04  0.66483064104E+02  0.14788795024E+04  0.10100000352E+00 0.  1.
</event>
<event>
 5   0  0.3682276E-07  0.2315603E+04  0.7818609E-02  0.8471794E-01
        1   -1    0    0  501    0  0.00000000000E+00  0.00000000000E+00  0.99020666726E+03  0.99020666728E+03  0.50400001928E-02 0. -1.
       -1   -1    0    0    0  501  0.00000000000E+00  0.00000000000E+00 -0.13537623947E+04  0.13537623947E+04  0.50400001928E-02 0.  1.
    10030    2    1    2    0    0  0.00000000000E+00  0.00000000000E+00 -0.36355572747E+03  0.23439690620E+04  0.23156032036E+04 0.  0.
        1    1    3    3  502    0 -0.48314624209E+03 -0.95872015112E+03 -0.62059715241E+03  0.12400465495E+04  0.50400001928E-02 0.  1.
       -1    1    3    3    0  502  0.48314624209E+03  0.95872015112E+03  0.25704142494E+03  0.11039225125E+04  0.50400001928E-02 0. -1.
</event>
<event>
 5   0  0.1128166E-06  0.3685491E+04  0.7818609E-02  0.8071185E-01
        2   -1    0    0  501    0  0.00000000000E+00  0.00000000000E+00  0.20030033445E+04  0.20030033445E+04  0.25500000920E-02 0.  1.
       -2   -1    0    0    0  501  0.00000000000E+00  0.00000000000E+00 -0.16953095305E+04  0.16953095305E+04  0.25500000920E-02 0. -1.
    10030    2    1    2    0    0  0.00000000000E+00  0.00000000000E+00  0.30769381402E+03  0.36983128750E+04  0.36854908273E+04 0.  0.
        3    1    3    3  502    0 -0.30546997854E+02  0.50793800505E+03 -0.16234095614E+04  0.17012914948E+04  0.10100000352E+00 0. -1.
       -3    1    3    3    0  502  0.30546997854E+02 -0.50793800505E+03  0.19311033755E+04  0.19970213802E+04  0.10100000352E+00 0.  1.
</event>
<event>
 5   0  0.1051123E-06  0.3696393E+04  0.7818609E-02  0.8068762E-01
       -2   -1    0    0    0  501  0.00000000000E+00  0.00000000000E+00  0.22773141845E+04  0.22773141845E+04  0.25500000920E-02 0.  1.
        2   -1    0    0  501    0  0.00000000000E+00  0.00000000000E+00 -0.14999382918E+04  0.14999382918E+04  0.25500000920E-02 0. -1.
    10030    2    1    2    0    0  0.00000000000E+00  0.00000000000E+00  0.77737589274E+03  0.37772524763E+04  0.36963932409E+04 0.  0.
        2    1    3    3  502    0 -0.82301835877E+03 -0.70018919953E+03  0.19208897093E+04  0.22039603920E+04  0.25500000920E-02 0.  1.
       -2    1    3    3    0  502  0.82301835877E+03  0.70018919953E+03 -0.11435138166E+04  0.15732920844E+04  0.25500000920E-02 0. -1.
</event>
<event>
 5   0  0.3682276E-07  0.3706009E+04  0.7818609E-02  0.8066631E-01
       -1   -1    0    0    0  501  0.00000000000E+00  0.00000000000E+00  0.16663700087E+04  0.16663700087E+04  0.50400001928E-02 0. -1.
        1   -1    0    0  501    0  0.00000000000E+00  0.00000000000E+00 -0.20605426233E+04  0.20605426233E+04  0.50400001928E-02 0.  1.
    10030    2    1    2    0    0  0.00000000000E+00  0.00000000000E+00 -0.39417261454E+03  0.37269126320E+04  0.37060094059E+04 0.  0.
        1    1    3    3  502    0  0.17817732832E+04  0.59772664994E+02  0.31107325441E+03  0.18097114063E+04  0.50400001928E-02 0. -1.
       -1    1    3    3    0  502 -0.17817732832E+04 -0.59772664994E+02 -0.70524586895E+03  0.19172012258E+04  0.50400001928E-02 0.  1.
</event>
<event>
 5   0  0.1092116E-06  0.3417779E+04  0.7818609E-02  0.8133556E-01
        2   -1    0    0  501    0  0.00000000000E+00  0.00000000000E+00  0.17664833456E+04  0.17664833456E+04  0.25500000920E-02 0.  1.
       -2   -1    0    0    0  501  0.00000000000E+00  0.00000000000E+00 -0.16531736046E+04  0.16531736046E+04  0.25500000920E-02 0. -1.
    10030    2    1    2    0    0  0.00000000000E+00  0.00000000000E+00  0.11330974096E+03  0.34196569502E+04  0.34177791854E+04 0.  0.
        1    1    3    3  502    0  0.13799808479E+04  0.61142281105E+02 -0.94998839975E+03  0.16764735247E+04  0.50400001928E-02 0. -1.
       -1    1    3    3    0  502 -0.13799808479E+04 -0.61142281105E+02  0.10632981407E+04  0.17431834256E+04  0.50400001928E-02 0.  1.
</event>
<event>
 5   0  0.3848431E-07  0.3282060E+04  0.7818609E-02  0.8167475E-01
       -1   -1    0    0    0  501  0.00000000000E+00  0.00000000000E+00  0.15736125340E+04  0.15736125340E+04  0.50400001928E-02 0. -1.
        1   -1    0    0  501    0  0.00000000000E+00  0.00000000000E+00 -0.17113358640E+04  0.17113358640E+04  0.50400001928E-02 0.  1.
    10030    2    1    2    0    0  0.00000000000E+00  0.00000000000E+00 -0.13772332996E+03  0.32849483980E+04  0.32820600637E+04 0.  0.
        2    1    3    3  502    0  0.81836088095E+02 -0.10880192043E+04 -0.12957040754E+04  0.16939102648E+04  0.25500000920E-02 0.  1.
       -2    1    3    3    0  502 -0.81836088095E+02  0.10880192043E+04  0.11579807455E+04  0.15910381332E+04  0.25500000920E-02 0. -1.
</event>
<event>
 5   0  0.1128530E-06  0.3724352E+04  0.7818609E-02  0.8062586E-01
       -2   -1    0    0    0  501  0.00000000000E+00  0.00000000000E+00  0.20539507573E+04  0.20539507573E+04  0.25500000920E-02 0.  1.
        2   -1    0    0  501    0  0.00000000000E+00  0.00000000000E+00 -0.16883072714E+04  0.16883072714E+04  0.25500000920E-02 0. -1.
    10030    2    1    2    0    0  0.00000000000E+00  0.00000000000E+00  0.36564348591E+03  0.37422580287E+04  0.37243522920E+04 0.  0.
        5    1    3    3  502    0 -0.80595429090E+03  0.80055090436E+03 -0.12998175711E+04  0.17262652976E+04  0.46999998093E+01 0. -1.
       -5    1    3    3    0  502  0.80595429090E+03 -0.80055090436E+03  0.16654610570E+04  0.20159927311E+04  0.46999998093E+01 0.  1.
</event>
<event>
 5   0  0.4203465E-07  0.2350900E+04  0.7818609E-02  0.8458118E-01
        1   -1    0    0  501    0  0.00000000000E+00  0.00000000000E+00  0.17335507735E+04  0.17335507735E+04  0.50400001928E-02 0. -1.
       -1   -1    0    0    0  501  0.00000000000E+00  0.00000000000E+00 -0.79702457906E+03  0.79702457908E+03  0.50400001928E-02 0.  1.
    10030    2    1    2    0    0  0.00000000000E+00  0.00000000000E+00  0.93652619445E+03  0.25305753526E+04  0.23508998920E+04 0.  0.
        2    1    3    3  502    0  0.78840510928E+03  0.75264432257E+03  0.94192397579E+03  0.14405821284E+04  0.25500000920E-02 0.  1.
       -2    1    3    3    0  502 -0.78840510928E+03 -0.75264432257E+03 -0.53977813357E+01  0.10899932241E+04  0.25500000920E-02 0. -1.
</event>
<event>
 5   0  0.3704306E-07  0.3555901E+04  0.7818609E-02  0.8100668E-01
        1   -1    0    0  501    0  0.00000000000E+00  0.00000000000E+00  0.24506744636E+04  0.24506744636E+04  0.50400001928E-02 0. -1.
       -1   -1    0    0    0  501  0.00000000000E+00  0.00000000000E+00 -0.12898932072E+04  0.12898932072E+04  0.50400001928E-02 0.  1.
    10030    2    1    2    0    0  0.00000000000E+00  0.00000000000E+00  0.11607812564E+04  0.37405676709E+04  0.35559012043E+04 0.  0.
        3    1    3    3  502    0 -0.20844586299E+03  0.17101540248E+04  0.11822000654E+03  0.17268620230E+04  0.10100000352E+00 0.  1.
       -3    1    3    3    0  502  0.20844586299E+03 -0.17101540248E+04  0.10425612499E+04  0.20137056479E+04  0.10100000352E+00 0. -1.
</event>
<event>
 5   0  0.3490375E-07  0.3710523E+04  0.7818609E-02  0.8065634E-01
       -3   -1    0    0    0  501  0.00000000000E+00  0.00000000000E+00  0.11601278107E+04  0.11601278151E+04  0.10100000352E+00 0.  1.
        3   -1    0    0  501    0  0.00000000000E+00  0.00000000000E+00 -0.29669096735E+04  0.29669096752E+04  0.10100000352E+00 0. -1.
    10030    2    1    2    0    0  0.00000000000E+00  0.00000000000E+00 -0.18067818629E+04  0.41270374903E+04  0.37105225705E+04 0.  0.
        3    1    3    3  502    0  0.43557535934E+03  0.90804343499E+03  0.82962733405E+03  0.13048181088E+04  0.10100000352E+00 0.  1.
       -3    1    3    3    0  502 -0.43557535934E+03 -0.90804343499E+03 -0.26364091969E+04  0.28222193815E+04  0.10100000352E+00 0. -1.
</event>
<event>
 5   0  0.1092116E-06  0.3688247E+04  0.7818609E-02  0.8070571E-01
        2   -1    0    0  501    0  0.00000000000E+00  0.00000000000E+00  0.24358754610E+04  0.24358754610E+04  0.25500000920E-02 0. -1.
       -2   -1    0    0    0  501  0.00000000000E+00  0.00000000000E+00 -0.13961271592E+04  0.13961271592E+04  0.25500000920E-02 0.  1.
    10030    2    1    2    0    0  0.00000000000E+00  0.00000000000E+00  0.10397483018E+04  0.38320026202E+04  0.36882472192E+04 0.  0.
        1    1    3    3  502    0 -0.61456352130E+03 -0.10963931463E+04 -0.88217682304E+03  0.15355787834E+04  0.50400001928E-02 0.  1.
       -1    1    3    3    0  502  0.61456352130E+03  0.10963931463E+04  0.19219251248E+04  0.22964238368E+04  0.50400001928E-02 0. -1.
</event>
<event>
 5   0  0.3704306E-07  0.3608577E+04  0.7818609E-02  0.8088530E-01
       -1   -1    0    0    0  501  0.00000000000E+00  0.00000000000E+00  0.14800323807E+04  0.14800323807E+04  0.50400001928E-02 0. -1.
        1   -1    0    0  501    0  0.00000000000E+00  0.00000000000E+00 -0.21995855352E+04  0.21995855352E+04  0.50400001928E-02 0.  1.
    10030    2    1    2    0    0  0.00000000000E+00  0.00000000000E+00 -0.71955315449E+03  0.36796179159E+04  0.36085774572E+04 0.  0.
        3    1    3    3  502    0  0.12417111495E+03  0.16434351291E+04 -0.11085072980E+04  0.19862240381E+04  0.10100000352E+00 0.  1.
       -3    1    3    3    0  502 -0.12417111495E+03 -0.16434351291E+04  0.38895414355E+03  0.16933938778E+04  0.10100000352E+00 0. -1.
</event>
<event>
 5   0  0.1051123E-06  0.2528090E+04  0.7818609E-02  0.8393046E-01
       -2   -1    0    0    0  501  0.00000000000E+00  0.00000000000E+00  0.76593764743E+03  0.76593764744E+03  0.25500000920E-02 0. -1.
        2   -1    0    0  501    0  0.00000000000E+00  0.00000000000E+00 -0.20860838941E+04  0.20860838941E+04  0.25500000920E-02 0.  1.
    10030    2    1    2    0    0  0.00000000000E+00  0.00000000000E+00 -0.13201462467E+04  0.28520215415E+04  0.25280903387E+04 0.  0.
        2    1    3    3  502    0 -0.98019345666E+03 -0.71504187212E+03 -0.26002938902E+03  0.12408381742E+04  0.25500000920E-02 0. -1.
       -2    1    3    3    0  502  0.98019345666E+03  0.71504187212E+03 -0.10601168577E+04  0.16111833674E+04  0.25500000920E-02 0.  1.
</event>
<event>
 5   0  0.3764495E-07  0.3472624E+04  0.7818609E-02  0.8120309E-01
       -1   -1    0    0    0  501  0.00000000000E+00  0.00000000000E+00  0.16282324213E+04  0.16282324213E+04  0.50400001928E-02 0.  1.
        1   -1    0    0  501    0  0.00000000000E+00  0.00000000000E+00 -0.18515656945E+04  0.18515656945E+04  0.50400001928E-02 0. -1.
    10030    2    1    2    0    0  0.00000000000E+00  0.00000000000E+00 -0.22333327323E+03  0.34797981158E+04  0.34726239612E+04 0.  0.
        4    1    3    3  502    0 -0.20207251979E+03  0.27194831909E+03  0.15947867442E+04  0.16303789632E+04  0.12699999809E+01 0.  1.
       -4    1    3    3    0  502  0.20207251979E+03 -0.27194831909E+03 -0.18181200174E+04  0.18494191526E+04  0.12699999809E+01 0. -1.
</event>
<event>
 5   0  0.3675819E-07  0.3630045E+04  0.7818609E-02  0.8083644E-01
        1   -1    0    0  501    0  0.00000000000E+00  0.00000000000E+00  0.26147049696E+04  0.26147049696E+04  0.50400001928E-02 0.  1.
       -1   -1    0    0    0  501  0.00000000000E+00  0.00000000000E+00 -0.12599152123E+04  0.12599152123E+04  0.50400001928E-02 0. -1.
    10030    2    1    2    0    0  0.00000000000E+00  0.00000000000E+00  0.13547897573E+04  0.38746201820E+04  0.36300449402E+04 0.  0.
        5    1    3    3  502    0  0.83426533480E+03  0.96931171305E+03 -0.69729190646E+03  0.14566406347E+04  0.46999998093E+01 0. -1.
       -5    1    3    3    0  502 -0.83426533480E+03 -0.96931171305E+03  0.20520816638E+04  0.24179795472E+04  0.46999998093E+01 0.  1.
</event>
<event>
 5   0  0.1128530E-06  0.3713414E+04  0.7818609E-02  0.8064996E-01
       -2   -1    0    0    0  501  0.00000000000E+00  0.00000000000E+00  0.21678515362E+04  0.21678515362E+04  0.25500000920E-02 0.  1.
        2   -1    0    0  501    0  0.00000000000E+00  0.00000000000E+00 -0.15902197707E+04  0.15902197707E+04  0.25500000920E-02 0. -1.
    10030    2    1    2    0    0  0.00000000000E+00  0.00000000000E+00  0.57763176546E+03  0.37580713069E+04  0.37134137248E+04 0.  0.
        5    1    3    3  502    0  0.77512425958E+03 -0.87349273750E+03  0.17496189498E+04  0.21035673841E+04  0.46999998093E+01 0.  1.
       -5    1    3    3    0  502 -0.77512425958E+03  0.87349273750E+03 -0.11719871843E+04  0.16545039228E+04  0.46999998093E+01 0. -1.
</event>
<event>
 5   0  0.3490375E-07  0.2506035E+04  0.7818609E-02  0.8400839E-01
        3   -1    0    0  501    0  0.00000000000E+00  0.00000000000E+00  0.21248905018E+04  0.21248905042E+04  0.10100000352E+00 0.  1.
       -3   -1    0    0    0  501  0.00000000000E+00  0.00000000000E+00 -0.73888643022E+03  0.73888643712E+03  0.10100000352E+00 0. -1.
    10030    2    1    2    0    0  0.00000000000E+00  0.00000000000E+00  0.13860040716E+04  0.28637769413E+04  0.25060349325E+04 0.  0.
        1    1    3    3  502    0 -0.58951979682E+03 -0.86060921014E+03  0.14862654920E+04  0.18158102644E+04  0.50400001928E-02 0.  1.
       -1    1    3    3    0  502  0.58951979682E+03  0.86060921014E+03 -0.10026142049E+03  0.10479666769E+04  0.50400001928E-02 0. -1.
</event>
<event>
 5   0  0.3848431E-07  0.3683890E+04  0.7818609E-02  0.8071541E-01
       -1   -1    0    0    0  501  0.00000000000E+00  0.00000000000E+00  0.14525963630E+04  0.14525963630E+04  0.50400001928E-02 0.  1.
        1   -1    0    0  501    0  0.00000000000E+00  0.00000000000E+00 -0.23356536759E+04  0.23356536759E+04  0.50400001928E-02 0. -1.
    10030    2    1    2    0    0  0.00000000000E+00  0.00000000000E+00 -0.88305731295E+03  0.37882500389E+04  0.36838903539E+04 0.  0.
        2    1    3    3  502    0  0.93565076178E+03 -0.90103356163E+03  0.90139857860E+03  0.15810829278E+04  0.25500000920E-02 0.  1.
       -2    1    3    3    0  502 -0.93565076178E+03  0.90103356163E+03 -0.17844558916E+04  0.22071671111E+04  0.25500000920E-02 0. -1.
</event>
<event>
 5   0  0.1092116E-06  0.3476145E+04  0.7818609E-02  0.8119467E-01
        2   -1    0    0  501    0  0.00000000000E+00  0.00000000000E+00  0.18993388923E+04  0.18993388923E+04  0.25500000920E-02 0.  1.
       -2   -1    0    0    0  501  0.00000000000E+00  0.00000000000E+00 -0.15904990352E+04  0.15904990352E+04  0.25500000920E-02 0. -1.
    10030    2    1    2    0    0  0.00000000000E+00  0.00000000000E+00  0.30883985713E+03  0.34898379274E+04  0.34761453799E+04 0.  0.
        1    1    3    3  502    0  0.88017460482E+03 -0.47703398085E+02  0.16582903049E+04  0.18780068382E+04  0.50400001928E-02 0.  1.
       -1    1    3    3    0  502 -0.88017460482E+03  0.47703398085E+02 -0.13494504478E+04  0.16118310892E+04  0.50400001928E-02 0. -1.
</event>
<event>
 5   0  0.3682276E-07  0.2649394E+04  0.7818609E-02  0.8351614E-01
       -1   -1    0    0    0  501  0.00000000000E+00  0.00000000000E+00  0.92269288813E+03  0.92269288815E+03  0.50400001928E-02 0. -1.
        1   -1    0    0  501    0  0.00000000000E+00  0.00000000000E+00 -0.19018479390E+04  0.19018479390E+04  0.50400001928E-02 0.  1.
    10030    2    1    2    0    0  0.00000000000E+00  0.00000000000E+00 -0.97915505085E+03  0.28245408271E+04  0.26493935666E+04 0.  0.
        1    1    3    3  502    0 -0.48817287285E+03 -0.51125536823E+03 -0.16839648179E+04  0.18263165973E+04  0.50400001928E-02 0.  1.
       -1    1    3    3    0  502  0.48817287285E+03  0.51125536823E+03  0.70480976708E+03  0.99822422988E+03  0.50400001928E-02 0. -1.
</event>
<event>
 5   0  0.1092116E-06  0.3705767E+04  0.7818609E-02  0.8066685E-01
        2   -1    0    0  501    0  0.00000000000E+00  0.00000000000E+00  0.29823576979E+04  0.29823576979E+04  0.25500000920E-02 0. -1.
       -2   -1    0    0    0  501  0.00000000000E+00  0.00000000000E+00 -0.11511619493E+04  0.11511619493E+04  0.25500000920E-02 0.  1.
    10030    2    1    2    0    0  0.00000000000E+00  0.00000000000E+00  0.18311957486E+04  0.41335196472E+04  0.37057666959E+04 0.  0.
        1    1    3    3  502    0  0.45196398223E+03  0.28145248327E+03 -0.10639947249E+04  0.11897780113E+04  0.50400001928E-02 0.  1.
       -1    1    3    3    0  502 -0.45196398223E+03 -0.28145248327E+03  0.28951904735E+04  0.29437416360E+04  0.50400001928E-02 0. -1.
</event>
<event>
 5   0  0.1092116E-06  0.3431498E+04  0.7818609E-02  0.8130219E-01
        2   -1    0    0  501    0  0.00000000000E+00  0.00000000000E+00  0.31415968579E+04  0.31415968579E+04  0.25500000920E-02 0. -1.
       -2   -1    0    0    0  501  0.00000000000E+00  0.00000000000E+00 -0.93703778051E+03  0.93703778051E+03  0.25500000920E-02 0.  1.
    10030    2    1    2    0    0  0.00000000000E+00  0.00000000000E+00  0.22045590774E+04  0.40786346384E+04  0.34314981842E+04 0.  0.
        1    1    3    3  502    0 -0.76268432540E+03  0.53859895322E+03 -0.60863323480E+03  0.11145450315E+04  0.50400001928E-02 0.  1.
       -1    1    3    3    0  502  0.76268432540E+03 -0.53859895322E+03  0.28131923122E+04  0.29640896070E+04  0.50400001928E-02 0. -1.
</event>
<event>
 5   0  0.3764495E-07  0.3742739E+04  0.7818609E-02  0.8058556E-01
        1   -1    0    0  501    0  0.00000000000E+00  0.00000000000E+00  0.17727589195E+04  0.17727589195E+04  0.50400001928E-02 0. -1.
       -1   -1    0    0    0  501  0.00000000000E+00  0.00000000000E+00 -0.19754651616E+04  0.19754651616E+04  0.50400001928E-02 0.  1.
    10030    2    1    2    0    0  0.00000000000E+00  0.00000000000E+00 -0.20270624210E+03  0.37482240811E+04  0.37427388289E+04 0.  0.
        4    1    3    3  502    0 -0.15953349302E+04  0.13577202599E+03  0.86882581460E+03  0.18216441726E+04  0.12699999809E+01 0. -1.
       -4    1    3    3    0  502  0.15953349302E+04 -0.13577202599E+03 -0.10715320567E+04  0.19265799085E+04  0.12699999809E+01 0.  1.
</event>
<event>
 5   0  0.3675819E-07  0.3606976E+04  0.7818609E-02  0.8088896E-01
       -1   -1    0    0    0  501  0.00000000000E+00  0.00000000000E+00  0.15846023630E+04  0.15846023630E+04  0.50400001928E-02 0. -1.
        1   -1    0    0  501    0  0.00000000000E+00  0.00000000000E+00 -0.20526085997E+04  0.20526085997E+04  0.50400001928E-02 0.  1.
    10030    2    1    2    0    0  0.00000000000E+00  0.00000000000E+00 -0.46800623675E+03  0.36372109627E+04  0.36069757068E+04 0.  0.
        5    1    3    3  502    0 -0.15053839284E+04 -0.72430339295E+02  0.76481453691E+03  0.16900858830E+04  0.46999998093E+01 0. -1.
       -5    1    3    3    0  502  0.15053839284E+04  0.72430339295E+02 -0.12328207737E+04  0.19471250797E+04  0.46999998093E+01 0.  1.
</event>
<event>
 5   0  0.1066907E-06  0.3499818E+04  0.7818609E-02  0.8113833E-01
        2   -1    0    0  501    0  0.00000000000E+00  0.00000000000E+00  0.29839432712E+04  0.29839432712E+04  0.25500000920E-02 0. -1.
       -2   -1    0    0    0  501  0.00000000000E+00  0.00000000000E+00 -0.10262195474E+04  0.10262195474E+04  0.25500000920E-02 0.  1.
    10030    2    1    2    0    0  0.00000000000E+00  0.00000000000E+00  0.19577237237E+04  0.40101628186E+04  0.34998176600E+04 0.  0.
        4    1    3    3  502    0 -0.16171989359E+04  0.63369734469E+03  0.12226675263E+04  0.21241050388E+04  0.12699999809E+01 0. -1.
       -4    1    3    3    0  502  0.16171989359E+04 -0.63369734469E+03  0.73505619739E+03  0.18860577799E+04  0.12699999809E+01 0.  1.
</event>
<event>
 5   0  0.3764495E-07  0.3696423E+04  0.7818609E-02  0.8068755E-01
        1   -1    0    0  501    0  0.00000000000E+00  0.00000000000E+00  0.21836867117E+04  0.21836867117E+04  0.50400001928E-02 0. -1.
       -1   -1    0    0    0  501  0.00000000000E+00  0.00000000000E+00 -0.15642750475E+04  0.15642750475E+04  0.50400001928E-02 0.  1.
    10030    2    1    2    0    0  0.00000000000E+00  0.00000000000E+00  0.61941166412E+03  0.37479617592E+04  0.36964234794E+04 0.  0.
        4    1    3    3  502    0  0.62233944585E+03 -0.14386747130E+04 -0.68312674332E+03  0.17098991421E+04  0.12699999809E+01 0.  1.
       -4    1    3    3    0  502 -0.62233944585E+03  0.14386747130E+04  0.13025384074E+04  0.20380626171E+04  0.12699999809E+01 0. -1.
</event>
<event>
 5   0  0.3682276E-07  0.3471289E+04  0.7818609E-02  0.8120628E-01
        1   -1    0    0  501    0  0.00000000000E+00  0.00000000000E+00  0.15006695349E+04  0.15006695350E+04  0.50400001928E-02 0.  1.
       -1   -1    0    0    0  501  0.00000000000E+00  0.00000000000E+00 -0.20074118738E+04  0.20074118738E+04  0.50400001928E-02 0. -1.
    10030    2    1    2    0    0  0.00000000000E+00  0.00000000000E+00 -0.50674233884E+03  0.35080814087E+04  0.34712890073E+04 0.  0.
        1    1    3    3  502    0  0.12996632512E+04  0.11109210545E+04  0.48444011216E+02  0.17104435033E+04  0.50400001928E-02 0. -1.
       -1    1    3    3    0  502 -0.12996632512E+04 -0.11109210545E+04 -0.55518635006E+03  0.17976379054E+04  0.50400001928E-02 0.  1.
</event>
<event>
 5   0  0.3490375E-07  0.2354933E+04  0.7818609E-02  0.8456571E-01
        3   -1    0    0  501    0  0.00000000000E+00  0.00000000000E+00  0.10508144953E+04  0.10508145002E+04  0.10100000352E+00 0. -1.
       -3   -1    0    0    0  501  0.00000000000E+00  0.00000000000E+00 -0.13193832921E+04  0.13193832960E+04  0.10100000352E+00 0.  1.
    10030    2    1    2    0    0  0.00000000000E+00  0.00000000000E+00 -0.26856879680E+03  0.23701977962E+04  0.23549327792E+04 0.  0.
        1    1    3    3  502    0 -0.14722213063E+03  0.49396112644E+03 -0.11998040071E+04  0.13058336822E+04  0.50400001928E-02 0.  1.
       -1    1    3    3    0  502  0.14722213063E+03 -0.49396112644E+03  0.93123521030E+03  0.10643641140E+04  0.50400001928E-02 0. -1.
</event>
<event>
 5   0  0.1066907E-06  0.3770298E+04  0.7818609E-02  0.8052559E-01
       -2   -1    0    0    0  501  0.00000000000E+00  0.00000000000E+00  0.14520268823E+04  0.14520268823E+04  0.25500000920E-02 0.  1.
        2   -1    0    0  501    0  0.00000000000E+00  0.00000000000E+00 -0.24474663300E+04  0.24474663300E+04  0.25500000920E-02 0. -1.
    10030    2    1    2    0    0  0.00000000000E+00  0.00000000000E+00 -0.99543944775E+03  0.38994932123E+04  0.37702980809E+04 0.  0.
        4    1    3    3  502    0  0.74591159733E+03 -0.85544125108E+03  0.10590563750E+04  0.15523420575E+04  0.12699999809E+01 0.  1.
       -4    1    3    3    0  502 -0.74591159733E+03  0.85544125108E+03 -0.20544958227E+04  0.23471511548E+04  0.12699999809E+01 0. -1.
</event>
<event>
 5   0  0.1051123E-06  0.2845310E+04  0.7818609E-02  0.8289338E-01
        2   -1    0    0  501    0  0.00000000000E+00  0.00000000000E+00  0.18455405078E+04  0.18455405078E+04  0.25500000920E-02 0.  1.
       -2   -1    0    0    0  501  0.00000000000E+00  0.00000000000E+00 -0.10966694253E+04  0.10966694253E+04  0.25500000920E-02 0. -1.
    10030    2    1    2    0    0  0.00000000000E+00  0.00000000000E+00  0.74887108244E+03  0.29422099331E+04  0.28453104211E+04 0.  0.
        2    1    3    3  502    0  0.95797325486E+03 -0.61816728731E+03  0.12543583288E+04  0.16950688391E+04  0.25500000920E-02 0.  1.
       -2    1    3    3    0  502 -0.95797325486E+03  0.61816728731E+03 -0.50548724638E+03  0.12471410940E+04  0.25500000920E-02 0. -1.
</event>
<event>
 5   0  0.3675819E-07  0.3688921E+04  0.7818609E-02  0.8070421E-01
        1   -1    0    0  501    0  0.00000000000E+00  0.00000000000E+00  0.22582883272E+04  0.22582883272E+04  0.50400001928E-02 0.  1.
       -1   -1    0    0    0  501  0.00000000000E+00  0.00000000000E+00 -0.15064663103E+04  0.15064663104E+04  0.50400001928E-02 0. -1.
    10030    2    1    2    0    0  0.00000000000E+00  0.00000000000E+00  0.75182201687E+03  0.37647546376E+04  0.36889214055E+04 0.  0.
        5    1    3    3  502    0  0.56385808435E+03 -0.12438277914E+04  0.16411423009E+04  0.21350441812E+04  0.46999998093E+01 0.  1.
       -5    1    3    3    0  502 -0.56385808435E+03  0.12438277914E+04 -0.88932028403E+03  0.16297104564E+04  0.46999998093E+01 0. -1.
</event>
<event>
 5   0  0.3682276E-07  0.2703981E+04  0.7818609E-02  0.8333714E-01
       -1   -1    0    0    0  501  0.00000000000E+00  0.00000000000E+00  0.15823785757E+04  0.15823785757E+04  0.50400001928E-02 0.  1.
        1   -1    0    0  501    0  0.00000000000E+00  0.00000000000E+00 -0.11551463934E+04  0.11551463934E+04  0.50400001928E-02 0. -1.
    10030    2    1    2    0    0  0.00000000000E+00  0.00000000000E+00  0.42723218228E+03  0.27375249691E+04  0.27039814383E+04 0.  0.
        1    1    3    3  502    0 -0.31299433520E+03  0.55313989203E+03  0.14217128214E+04  0.15573042543E+04  0.50400001928E-02 0.  1.
       -1    1    3    3    0  502  0.31299433520E+03 -0.55313989203E+03 -0.99448063908E+03  0.11802207148E+04  0.50400001928E-02 0. -1.
</event>
<event>
 5   0  0.1128166E-06  0.3704497E+04  0.7818609E-02  0.8066966E-01
       -2   -1    0    0    0  501  0.00000000000E+00  0.00000000000E+00  0.18753130992E+04  0.18753130992E+04  0.25500000920E-02 0. -1.
        2   -1    0    0  501    0  0.00000000000E+00  0.00000000000E+00 -0.18294671585E+04  0.18294671585E+04  0.25500000920E-02 0.  1.
    10030    2    1    2    0    0  0.00000000000E+00  0.00000000000E+00  0.45845940724E+02  0.37047802577E+04  0.37044965795E+04 0.  0.
        3    1    3    3  502    0  0.25805083897E+03 -0.17625961323E+04 -0.48454899178E+03  0.18461102613E+04  0.10100000352E+00 0.  1.
       -3    1    3    3    0  502 -0.25805083897E+03  0.17625961323E+04  0.53039493250E+03  0.18586699965E+04  0.10100000352E+00 0. -1.
</event>
<event>
 5   0  0.1066907E-06  0.3195718E+04  0.7818609E-02  0.8189949E-01
        2   -1    0    0  501    0  0.00000000000E+00  0.00000000000E+00  0.29921551320E+04  0.29921551320E+04  0.25500000920E-02 0. -1.
       -2   -1    0    0    0  501  0.00000000000E+00  0.00000000000E+00 -0.85328257422E+03  0.85328257422E+03  0.25500000920E-02 0.  1.
    10030    2    1    2    0    0  0.00000000000E+00  0.00000000000E+00  0.21388725578E+04  0.38454377062E+04  0.31957182814E+04 0.  0.
        4    1    3    3  502    0  0.53562038167E+03  0.12642348063E+04  0.20528966661E+04  0.24697297773E+04  0.12699999809E+01 0. -1.
       -4    1    3    3    0  502 -0.53562038167E+03 -0.12642348063E+04  0.85975891697E+02  0.13757079289E+04  0.12699999809E+01 0.  1.
</event>
<event>
 5   0  0.1066907E-06  0.3781622E+04  0.7818609E-02  0.8050110E-01
       -2   -1    0    0    0  501  0.00000000000E+00  0.00000000000E+00  0.16791307850E+04  0.16791307850E+04  0.25500000920E-02 0. -1.
        2   -1    0    0  501    0  0.00000000000E+00  0.00000000000E+00 -0.21291770040E+04  0.21291770040E+04  0.25500000920E-02 0.  1.
    10030    2    1    2    0    0  0.00000000000E+00  0.00000000000E+00 -0.45004621898E+03  0.38083077889E+04  0.37816222202E+04 0.  0.
        4    1    3    3  502    0  0.15711222398E+04 -0.83375056743E+03  0.42106470675E+03  0.18278025608E+04  0.12699999809E+01 0. -1.
       -4    1    3    3    0  502 -0.15711222398E+04  0.83375056743E+03 -0.87111092573E+03  0.19805052282E+04  0.12699999809E+01 0.  1.
</event>
<event>
 5   0  0.3704306E-07  0.3673098E+04  0.7818609E-02  0.8073950E-01
       -1   -1    0    0    0  501  0.00000000000E+00  0.00000000000E+00  0.18147311581E+04  0.18147311581E+04  0.50400001928E-02 0. -1.
        1   -1    0    0  501    0  0.00000000000E+00  0.00000000000E+00 -0.18586288658E+04  0.18586288658E+04  0.50400001928E-02 0.  1.
    10030    2    1    2    0    0  0.00000000000E+00  0.00000000000E+00 -0.43897707671E+02  0.36733600239E+04  0.36730977195E+04 0.  0.
        3    1    3    3  502    0  0.11767772319E+04 -0.72719545631E+02  0.13862777343E+04  0.18198512996E+04  0.10100000352E+00 0. -1.
       -3    1    3    3    0  502 -0.11767772319E+04  0.72719545631E+02 -0.14301754420E+04  0.18535087243E+04  0.10100000352E+00 0.  1.
</event>
<event>
 5   0  0.3675819E-07  0.3719763E+04  0.7818609E-02  0.8063596E-01
        1   -1    0    0  501    0  0.00000000000E+00  0.00000000000E+00  0.16527092974E+04  0.16527092974E+04  0.50400001928E-02 0.  1.
       -1   -1    0    0    0  501  0.00000000000E+00  0.00000000000E+00 -0.20930233752E+04  0.20930233752E+04  0.50400001928E-02 0. -1.
    10030    2    1    2    0    0  0.00000000000E+00  0.00000000000E+00 -0.44031407781E+03  0.37457326726E+04  0.37197629988E+04 0.  0.
        5    1    3    3  502    0  0.17307707687E+04  0.37654901965E+03 -0.79137434839E+03  0.19400134194E+04  0.46999998093E+01 0.  1.
       -5    1    3    3    0  502 -0.17307707687E+04 -0.37654901965E+03  0.35106027058E+03  0.18057192533E+04  0.46999998093E+01 0. -1.
</event>
<event>
 5   0  0.3704306E-07  0.3687000E+04  0.7818609E-02  0.8070849E-01
        1   -1    0    0  501    0  0.00000000000E+00  0.00000000000E+00  0.17002833098E+04  0.17002833098E+04  0.50400001928E-02 0.  1.
       -1   -1    0    0    0  501  0.00000000000E+00  0.00000000000E+00 -0.19987799139E+04  0.19987799139E+04  0.50400001928E-02 0. -1.
    10030    2    1    2    0    0  0.00000000000E+00  0.00000000000E+00 -0.29849660414E+03  0.36990632237E+04  0.36869999336E+04 0.  0.
        3    1    3    3  502    0 -0.69822091561E+03  0.84762194747E+03 -0.16348079011E+04  0.19694091237E+04  0.10100000352E+00 0. -1.
       -3    1    3    3    0  502  0.69822091561E+03 -0.84762194747E+03  0.13363112970E+04  0.17296541000E+04  0.10100000352E+00 0.  1.
</event>
<event>
 5   0  0.3848431E-07  0.3682217E+04  0.7818609E-02  0.8071914E-01
       -1   -1    0    0    0  501  0.00000000000E+00  0.00000000000E+00  0.16918532783E+04  0.16918532783E+04  0.50400001928E-02 0. -1.
        1   -1    0    0  501    0  0.00000000000E+00  0.00000000000E+00 -0.20035305685E+04  0.20035305685E+04  0.50400001928E-02 0.  1.
    10030    2    1    2    0    0  0.00000000000E+00  0.00000000000E+00 -0.31167729026E+03  0.36953838468E+04  0.36822165936E+04 0.  0.
        2    1    3    3  502    0  0.14597536268E+04  0.25958472708E+03 -0.12512613417E+04  0.19400824279E+04  0.25500000920E-02 0.  1.
       -2    1    3    3    0  502 -0.14597536268E+04 -0.25958472708E+03  0.93958405149E+03  0.17553014190E+04  0.25500000920E-02 0. -1.
</event>
<event>
 5   0  0.1128166E-06  0.3558623E+04  0.7818609E-02  0.8100036E-01
        2   -1    0    0  501    0  0.00000000000E+00  0.00000000000E+00  0.18420920835E+04  0.18420920835E+04  0.25500000920E-02 0. -1.
       -2   -1    0    0    0  501  0.00000000000E+00  0.00000000000E+00 -0.17186708391E+04  0.17186708391E+04  0.25500000920E-02 0.  1.
    10030    2    1    2    0    0  0.00000000000E+00  0.00000000000E+00  0.12342124443E+03  0.35607629226E+04  0.35586232994E+04 0.  0.
        3    1    3    3  502    0  0.15432534201E+04  0.59914350942E+03  0.71428820810E+03  0.18030007537E+04  0.10100000352E+00 0. -1.
       -3    1    3    3    0  502 -0.15432534201E+04 -0.59914350942E+03 -0.59086696367E+03  0.17577621689E+04  0.10100000352E+00 0.  1.
</event>
<event>
 5   0  0.1128166E-06  0.3679680E+04  0.7818609E-02  0.8072480E-01
       -2   -1    0    0    0  501  0.00000000000E+00  0.00000000000E+00  0.18578515508E+04  0.18578515508E+04  0.25500000920E-02 0. -1.
        2   -1    0    0  501    0  0.00000000000E+00  0.00000000000E+00 -0.18220029184E+04  0.18220029184E+04  0.25500000920E-02 0.  1.
    10030    2    1    2    0    0  0.00000000000E+00  0.00000000000E+00  0.35848632409E+02  0.36798544691E+04  0.36796798488E+04 0.  0.
        3    1    3    3  502    0 -0.22686049224E+02  0.15276610498E+04 -0.10071843252E+04  0.18299407682E+04  0.10100000352E+00 0.  1.
       -3    1    3    3    0  502  0.22686049224E+02 -0.15276610498E+04  0.10430329576E+04  0.18499137009E+04  0.10100000352E+00 0. -1.
</event>
<event>
 5   0  0.3675819E-07  0.3719039E+04  0.7818609E-02  0.8063756E-01
        1   -1    0    0  501    0  0.00000000000E+00  0.00000000000E+00  0.14537288649E+04  0.14537288649E+04  0.50400001928E-02 0.  1.
       -1   -1    0    0    0  501  0.00000000000E+00  0.00000000000E+00 -0.23785817125E+04  0.23785817125E+04  0.50400001928E-02 0. -1.
    10030    2    1    2    0    0  0.00000000000E+00  0.00000000000E+00 -0.92485284764E+03  0.38323105774E+04  0.37190390657E+04 0.  0.
        5    1    3    3  502    0  0.76126222413E+03 -0.55305565074E+03 -0.21151461642E+04  0.23150067198E+04  0.46999998093E+01 0. -1.
       -5    1    3    3    0  502 -0.76126222413E+03  0.55305565074E+03  0.11902933166E+04  0.15173038576E+04  0.46999998093E+01 0.  1.
</event>
<event>
 5   0  0.1051123E-06  0.3656044E+04  0.7818609E-02  0.8077773E-01
        2   -1    0    0  501    0  0.00000000000E+00  0.00000000000E+00  0.17450557087E+04  0.17450557087E+04  0.25500000920E-02 0.  1.
       -2   -1    0    0    0  501  0.00000000000E+00  0.00000000000E+00 -0.19149326318E+04  0.19149326318E+04  0.25500000920E-02 0. -1.
    10030    2    1    2    0    0  0.00000000000E+00  0.00000000000E+00 -0.16987692313E+03  0.36599883405E+04  0.36560438295E+04 0.  0.
        2    1    3    3  502    0 -0.11481832253E+04 -0.11453987365E+04  0.75941752262E+03  0.17908037185E+04  0.25500000920E-02 0.  1.
       -2    1    3    3    0  502  0.11481832253E+04  0.11453987365E+04 -0.92929444575E+03  0.18691846220E+04  0.25500000920E-02 0. -1.
</event>
<event>
 5   0  0.1092116E-06  0.3588497E+04  0.7818609E-02  0.8093132E-01
        2   -1    0    0  501    0  0.00000000000E+00  0.00000000000E+00  0.20088158519E+04  0.20088158519E+04  0.25500000920E-02 0. -1.
       -2   -1    0    0    0  501  0.00000000000E+00  0.00000000000E+00 -0.16025996968E+04  0.16025996968E+04  0.25500000920E-02 0.  1.
    10030    2    1    2    0    0  0.00000000000E+00  0.00000000000E+00  0.40621615508E+03  0.36114155487E+04  0.35884969974E+04 0.  0.
        1    1    3    3  502    0 -0.10584781919E+04  0.71907049038E+03  0.14688725739E+04  0.19480824139E+04  0.50400001928E-02 0. -1.
       -1    1    3    3    0  502  0.10584781919E+04 -0.71907049038E+03 -0.10626564188E+04  0.16633331348E+04  0.50400001928E-02 0.  1.
</event>
<event>
 5   0  0.1066907E-06  0.3629360E+04  0.7818609E-02  0.8083799E-01
        2   -1    0    0  501    0  0.00000000000E+00  0.00000000000E+00  0.28765440458E+04  0.28765440458E+04  0.25500000920E-02 0.  1.
       -2   -1    0    0    0  501  0.00000000000E+00  0.00000000000E+00 -0.11447988042E+04  0.11447988042E+04  0.25500000920E-02 0. -1.
    10030    2    1    2    0    0  0.00000000000E+00  0.00000000000E+00  0.17317452416E+04  0.40213428500E+04  0.36293603756E+04 0.  0.
        4    1    3    3  502    0 -0.10948828018E+04  0.52514691858E+03  0.23600406663E+04  0.26541177810E+04  0.12699999809E+01 0.  1.
       -4    1    3    3    0  502  0.10948828018E+04 -0.52514691858E+03 -0.62829542471E+03  0.13672250691E+04  0.12699999809E+01 0. -1.
</event>
<event>
 5   0  0.3675819E-07  0.3728044E+04  0.7818609E-02  0.8061775E-01
       -1   -1    0    0    0  501  0.00000000000E+00  0.00000000000E+00  0.12012182401E+04  0.12012182401E+04  0.50400001928E-02 0.  1.
        1   -1    0    0  501    0  0.00000000000E+00  0.00000000000E+00 -0.28925454304E+04  0.28925454304E+04  0.50400001928E-02 0. -1.
    10030    2    1    2    0    0  0.00000000000E+00  0.00000000000E+00 -0.16913271903E+04  0.40937636704E+04  0.37280441688E+04 0.  0.
        5    1    3    3  502    0 -0.32543316885E+03  0.11328917635E+03 -0.28572594295E+04  0.28779671162E+04  0.46999998093E+01 0. -1.
       -5    1    3    3    0  502  0.32543316885E+03 -0.11328917635E+03  0.11659322392E+04  0.12157965542E+04  0.46999998093E+01 0.  1.
</event>
<event>
 5   0  0.1092116E-06  0.3597794E+04  0.7818609E-02  0.8090997E-01
        2   -1    0    0  501    0  0.00000000000E+00  0.00000000000E+00  0.23680167470E+04  0.23680167470E+04  0.25500000920E-02 0. -1.
       -2   -1    0    0    0  501  0.00000000000E+00  0.00000000000E+00 -0.13665573611E+04  0.13665573611E+04  0.25500000920E-02 0.  1.
    10030    2    1    2    0    0  0.00000000000E+00  0.00000000000E+00  0.10014593859E+04  0.37345741081E+04  0.35977941669E+04 0.  0.
        1    1    3    3  502    0  0.85243191559E+03  0.13371126118E+04  0.13824464177E+04  0.21037272649E+04  0.50400001928E-02 0. -1.
       -1    1    3    3    0  502 -0.85243191559E+03 -0.13371126118E+04 -0.38098703177E+03  0.16308468432E+04  0.50400001928E-02 0.  1.
</event>
<event>
 5   0  0.1128166E-06  0.3696750E+04  0.7818609E-02  0.8068682E-01
       -2   -1    0    0    0  501  0.00000000000E+00  0.00000000000E+00  0.11964395250E+04  0.11964395250E+04  0.25500000920E-02 0.  1.
        2   -1    0    0  501    0  0.00000000000E+00  0.00000000000E+00 -0.28555474386E+04  0.28555474386E+04  0.25500000920E-02 0. -1.
    10030    2    1    2    0    0  0.00000000000E+00  0.00000000000E+00 -0.16591079136E+04  0.40519869636E+04  0.36967498272E+04 0.  0.
        3    1    3    3  502    0 -0.12347186077E+04 -0.10414208788E+04 -0.18144558579E+04  0.24292668765E+04  0.10100000352E+00 0. -1.
       -3    1    3    3    0  502  0.12347186077E+04  0.10414208788E+04  0.15534794433E+03  0.16227200871E+04  0.10100000352E+00 0.  1.
</event>
<event>
 5   0  0.3764495E-07  0.2681913E+04  0.7818609E-02  0.8340898E-01
        1   -1    0    0  501    0  0.00000000000E+00  0.00000000000E+00  0.13573251481E+04  0.13573251481E+04  0.50400001928E-02 0.  1.
       -1   -1    0    0    0  501  0.00000000000E+00  0.00000000000E+00 -0.13247848346E+04  0.13247848346E+04  0.50400001928E-02 0. -1.
    10030    2    1    2    0    0  0.00000000000E+00  0.00000000000E+00  0.32540313519E+02  0.26821099827E+04  0.26819125801E+04 0.  0.
        4    1    3    3  502    0 -0.63784232948E+03 -0.12233251493E+03 -0.11569973738E+04  0.13268204918E+04  0.12699999809E+01 0. -1.
       -4    1    3    3    0  502  0.63784232948E+03  0.12233251493E+03  0.11895376874E+04  0.13552894909E+04  0.12699999809E+01 0.  1.
</event>
<event>
 5   0  0.1128530E-06  0.3620872E+04  0.7818609E-02  0.8085727E-01
       -2   -1    0    0    0  501  0.00000000000E+00  0.00000000000E+00  0.14631969735E+04  0.14631969735E+04  0.25500000920E-02 0.  1.
        2   -1    0    0  501    0  0.00000000000E+00  0.00000000000E+00 -0.22400804635E+04  0.22400804635E+04  0.25500000920E-02 0. -1.
    10030    2    1    2    0    0  0.00000000000E+00  0.00000000000E+00 -0.77688349006E+03  0.37032774370E+04  0.36208722455E+04 0.  0.
        5    1    3    3  502    0 -0.90668192593E+03 -0.68242030788E+03  0.10542956358E+04  0.15489773946E+04  0.46999998093E+01 0.  1.
       -5    1    3    3    0  502  0.90668192593E+03  0.68242030788E+03 -0.18311791259E+04  0.21543000423E+04  0.46999998093E+01 0. -1.
</event>
<event>
 5   0  0.1051123E-06  0.3388175E+04  0.7818609E-02  0.8140815E-01
        2   -1    0    0  501    0  0.00000000000E+00  0.00000000000E+00  0.27649784542E+04  0.27649784542E+04  0.25500000920E-02 0.  1.
       -2   -1    0    0    0  501  0.00000000000E+00  0.00000000000E+00 -0.10379583057E+04  0.10379583057E+04  0.25500000920E-02 0. -1.
    10030    2    1    2    0    0  0.00000000000E+00  0.00000000000E+00  0.17270201485E+04  0.38029367599E+04  0.33881749374E+04 0.  0.
        2    1    3    3  502    0 -0.64953259098E+03 -0.37000387542E+03 -0.84283205431E+03  0.11265706042E+04  0.25500000920E-02 0. -1.
       -2    1    3    3    0  502  0.64953259098E+03  0.37000387542E+03  0.25698522029E+04  0.26763661556E+04  0.25500000920E-02 0.  1.
</event>
<event>
 5   0  0.1051123E-06  0.3671955E+04  0.7818609E-02  0.8074206E-01
       -2   -1    0    0    0  501  0.00000000000E+00  0.00000000000E+00  0.15167504440E+04  0.15167504440E+04  0.25500000920E-02 0.  1.
        2   -1    0    0  501    0  0.00000000000E+00  0.00000000000E+00 -0.22223910297E+04  0.22223910297E+04  0.25500000920E-02 0. -1.
    10030    2    1    2    0    0  0.00000000000E+00  0.00000000000E+00 -0.70564058571E+03  0.37391414736E+04  0.36719545645E+04 0.  0.
        2    1    3    3  502    0  0.48135056952E+03  0.96777036546E+03 -0.18640691352E+04  0.21547694986E+04  0.25500000920E-02 0. -1.
       -2    1    3    3    0  502 -0.48135056952E+03 -0.96777036546E+03  0.11584285495E+04  0.15843719751E+04  0.25500000920E-02 0.  1.
</event>
<event>
 5   0  0.3704306E-07  0.3707014E+04  0.7818609E-02  0.8066409E-01
       -1   -1    0    0    0  501  0.00000000000E+00  0.00000000000E+00  0.18208557735E+04  0.18208557736E+04  0.50400001928E-02 0.  1.
        1   -1    0    0  501    0  0.00000000000E+00  0.00000000000E+00 -0.18867435514E+04  0.18867435514E+04  0.50400001928E-02 0. -1.
    10030    2    1    2    0    0  0.00000000000E+00  0.00000000000E+00 -0.65887777881E+02  0.37075993250E+04  0.37070138326E+04 0.  0.
        3    1    3    3  502    0 -0.25164933418E+03 -0.83203132900E+03 -0.16702376796E+04  0.18828960238E+04  0.10100000352E+00 0. -1.
       -3    1    3    3    0  502  0.25164933418E+03  0.83203132900E+03  0.16043499018E+04  0.18247033012E+04  0.10100000352E+00 0.  1.
</event>
<event>
 5   0  0.3848431E-07  0.2869922E+04  0.7818609E-02  0.8281883E-01
        1   -1    0    0  501    0  0.00000000000E+00  0.00000000000E+00  0.24899183413E+04  0.24899183413E+04  0.50400001928E-02 0. -1.
       -1   -1    0    0    0  501  0.00000000000E+00  0.00000000000E+00 -0.82697995669E+03  0.82697995670E+03  0.50400001928E-02 0.  1.
    10030    2    1    2    0    0  0.00000000000E+00  0.00000000000E+00  0.16629383846E+04  0.33168982980E+04  0.28699216450E+04 0.  0.
        2    1    3    3  502    0  0.11740699773E+03 -0.68324884271E+03  0.22835283020E+04  0.23864439843E+04  0.25500000920E-02 0. -1.
       -2    1    3    3    0  502 -0.11740699773E+03  0.68324884271E+03 -0.62058991743E+03  0.93045431366E+03  0.25500000920E-02 0.  1.
</event>
<event>
 5   0  0.1092116E-06  0.3752112E+04  0.7818609E-02  0.8056510E-01
        2   -1    0    0  501    0  0.00000000000E+00  0.00000000000E+00  0.19767984191E+04  0.19767984191E+04  0.25500000920E-02 0.  1.
       -2   -1    0    0    0  501  0.00000000000E+00  0.00000000000E+00 -0.17804477906E+04  0.17804477906E+04  0.25500000920E-02 0. -1.
    10030    2    1    2    0    0  0.00000000000E+00  0.00000000000E+00  0.19635062851E+03  0.37572462096E+04  0.37521121399E+04 0.  0.
        1    1    3    3  502    0  0.84105925637E+02  0.18257745764E+04  0.52190886534E+03  0.19007670753E+04  0.50400001928E-02 0. -1.
       -1    1    3    3    0  502 -0.84105925637E+02 -0.18257745764E+04 -0.32555823683E+03  0.18564791344E+04  0.50400001928E-02 0.  1.
</event>
<event>
 5   0  0.3848431E-07  0.3670034E+04  0.7818609E-02  0.8074635E-01
        1   -1    0    0  501    0  0.00000000000E+00  0.00000000000E+00  0.15245673501E+04  0.15245673501E+04  0.50400001928E-02 0.  1.
       -1   -1    0    0    0  501  0.00000000000E+00  0.00000000000E+00 -0.22086839600E+04  0.22086839600E+04  0.50400001928E-02 0. -1.
    10030    2    1    2    0    0  0.00000000000E+00  0.00000000000E+00 -0.68411660989E+03  0.37332513101E+04  0.36700340336E+04 0.  0.
        2    1    3    3  502    0 -0.62741926446E+03  0.16725082749E+04  0.85114040430E+02  0.17883465164E+04  0.25500000920E-02 0. -1.
       -2    1    3    3    0  502  0.62741926446E+03 -0.16725082749E+04 -0.76923065032E+03  0.19449047936E+04  0.25500000920E-02 0.  1.
</event>
<event>
 5   0  0.3675819E-07  0.3724541E+04  0.7818609E-02  0.8062545E-01
       -1   -1    0    0    0  501  0.00000000000E+00  0.00000000000E+00  0.21634913131E+04  0.21634913132E+04  0.50400001928E-02 0. -1.
        1   -1    0    0  501    0  0.00000000000E+00  0.00000000000E+00 -0.16029880588E+04  0.16029880588E+04  0.50400001928E-02 0.  1.
    10030    2    1    2    0    0  0.00000000000E+00  0.00000000000E+00  0.56050325433E+03  0.37664793720E+04  0.37245406376E+04 0.  0.
        5    1    3    3  502    0  0.12462425994E+03  0.10473307605E+04 -0.12718253421E+04  0.16522695661E+04  0.46999998093E+01 0.  1.
       -5    1    3    3    0  502 -0.12462425994E+03 -0.10473307605E+04  0.18323285965E+04  0.21142098059E+04  0.46999998093E+01 0. -1.
</event>
<event>
 5   0  0.1128530E-06  0.3698257E+04  0.7818609E-02  0.8068348E-01
       -2   -1    0    0    0  501  0.00000000000E+00  0.00000000000E+00  0.20444977954E+04  0.20444977954E+04  0.25500000920E-02 0.  1.
        2   -1    0    0  501    0  0.00000000000E+00  0.00000000000E+00 -0.16724287172E+04  0.16724287172E+04  0.25500000920E-02 0. -1.
    10030    2    1    2    0    0  0.00000000000E+00  0.00000000000E+00  0.37206907822E+03  0.37169265127E+04  0.36982573331E+04 0.  0.
        5    1    3    3  502    0 -0.10459326189E+04  0.15107283976E+04 -0.22326745553E+02  0.18376060263E+04  0.46999998093E+01 0. -1.
       -5    1    3    3    0  502  0.10459326189E+04 -0.15107283976E+04  0.39439582377E+03  0.18793204863E+04  0.46999998093E+01 0.  1.
</event>
<event>
 5   0  0.3848431E-07  0.3003589E+04  0.7818609E-02  0.8242707E-01
       -1   -1    0    0    0  501  0.00000000000E+00  0.00000000000E+00  0.12561145636E+04  0.12561145636E+04  0.50400001928E-02 0.  1.
        1   -1    0    0  501    0  0.00000000000E+00  0.00000000000E+00 -0.17955258130E+04  0.17955258130E+04  0.50400001928E-02 0. -1.
    10030    2    1    2    0    0  0.00000000000E+00  0.00000000000E+00 -0.53941124939E+03  0.30516403767E+04  0.30035886024E+04 0.  0.
        2    1    3    3  502    0  0.62361161072E+03  0.41471786509E+02  0.11177084550E+04  0.12805793769E+04  0.25500000920E-02 0.  1.
       -2    1    3    3    0  502 -0.62361161072E+03 -0.41471786509E+02 -0.16571197044E+04  0.17710609998E+04  0.25500000920E-02 0. -1.
</event>
<event>
 5   0  0.3704306E-07  0.3659474E+04  0.7818609E-02  0.8077003E-01
        1   -1    0    0  501    0  0.00000000000E+00  0.00000000000E+00  0.16914208864E+04  0.16914208864E+04  0.50400001928E-02 0.  1.
       -1   -1    0    0    0  501  0.00000000000E+00  0.00000000000E+00 -0.19793639202E+04  0.19793639203E+04  0.50400001928E-02 0. -1.
    10030    2    1    2    0    0  0.00000000000E+00  0.00000000000E+00 -0.28794303389E+03  0.36707848066E+04  0.36594739930E+04 0.  0.
        3    1    3    3  502    0 -0.59159329213E+03  0.10170936897E+04  0.12616000981E+04  0.17251368104E+04  0.10100000352E+00 0.  1.
       -3    1    3    3    0  502  0.59159329213E+03 -0.10170936897E+04 -0.15495431320E+04  0.19456479962E+04  0.10100000352E+00 0. -1.
</event>
<event>
 5   0  0.3675819E-07  0.3729848E+04  0.7818609E-02  0.8061379E-01
        1   -1    0    0  501    0  0.00000000000E+00  0.00000000000E+00  0.19484489593E+04  0.19484489593E+04  0.50400001928E-02 0.  1.
       -1   -1    0    0    0  501  0.00000000000E+00  0.00000000000E+00 -0.17849798397E+04  0.17849798397E+04  0.50400001928E-02 0. -1.
    10030    2    1    2    0    0  0.00000000000E+00  0.00000000000E+00  0.16346911959E+03  0.37334287990E+04  0.37298483139E+04 0.  0.
        5    1    3    3  502    0  0.12955564062E+04 -0.13070179535E+04  0.38394770862E+03  0.18799468783E+04  0.46999998093E+01 0.  1.
       -5    1    3    3    0  502 -0.12955564062E+04  0.13070179535E+04 -0.22047858903E+03  0.18534819207E+04  0.46999998093E+01 0. -1.
</event>
<event>
 5   0  0.1051123E-06  0.3425743E+04  0.7818609E-02  0.8131617E-01
       -2   -1    0    0    0  501  0.00000000000E+00  0.00000000000E+00  0.26571603788E+04  0.26571603788E+04  0.25500000920E-02 0.  1.
        2   -1    0    0  501    0  0.00000000000E+00  0.00000000000E+00 -0.11041596694E+04  0.11041596694E+04  0.25500000920E-02 0. -1.
    10030    2    1    2    0    0  0.00000000000E+00  0.00000000000E+00  0.15530007094E+04  0.37613200482E+04  0.34257433210E+04 0.  0.
        2    1    3    3  502    0 -0.34636686368E+03 -0.13545693096E+04 -0.30992347825E+03  0.14320895856E+04  0.25500000920E-02 0. -1.
       -2    1    3    3    0  502  0.34636686368E+03  0.13545693096E+04  0.18629241877E+04  0.23292304626E+04  0.25500000920E-02 0.  1.
</event>
<event>
 5   0  0.1092116E-06  0.3670354E+04  0.7818609E-02  0.8074564E-01
        2   -1    0    0  501    0  0.00000000000E+00  0.00000000000E+00  0.23579946642E+04  0.23579946642E+04  0.25500000920E-02 0.  1.
       -2   -1    0    0    0  501  0.00000000000E+00  0.00000000000E+00 -0.14282790201E+04  0.14282790201E+04  0.25500000920E-02 0. -1.
    10030    2    1    2    0    0  0.00000000000E+00  0.00000000000E+00  0.92971564410E+03  0.37862736842E+04  0.36703538294E+04 0.  0.
        1    1    3    3  502    0 -0.90636922661E+03  0.44582428838E+03  0.20454398162E+04  0.22812471398E+04  0.50400001928E-02 0.  1.
       -1    1    3    3    0  502  0.90636922661E+03 -0.44582428838E+03 -0.11157241721E+04  0.15050265444E+04  0.50400001928E-02 0. -1.
</event>
<event>
 5   0  0.3704306E-07  0.2439540E+04  0.7818609E-02  0.8424847E-01
        1   -1    0    0  501    0  0.00000000000E+00  0.00000000000E+00  0.16029544931E+04  0.16029544931E+04  0.50400001928E-02 0. -1.
       -1   -1    0    0    0  501  0.00000000000E+00  0.00000000000E+00 -0.92818539923E+03  0.92818539925E+03  0.50400001928E-02 0.  1.
    10030    2    1    2    0    0  0.00000000000E+00  0.00000000000E+00  0.67476909384E+03  0.25311398923E+04  0.24395400846E+04 0.  0.
        3    1    3    3  502    0 -0.19578715141E+03 -0.69569120374E+03 -0.68211924797E+03  0.99378344636E+03  0.10100000352E+00 0.  1.
       -3    1    3    3    0  502  0.19578715141E+03  0.69569120374E+03  0.13568883418E+04  0.15373564460E+04  0.10100000352E+00 0. -1.
</event>
<event>
 5   0  0.1092116E-06  0.3676811E+04  0.7818609E-02  0.8073120E-01
       -2   -1    0    0    0  501  0.00000000000E+00  0.00000000000E+00  0.17768313425E+04  0.17768313425E+04  0.25500000920E-02 0.  1.
        2   -1    0    0  501    0  0.00000000000E+00  0.00000000000E+00 -0.19021138245E+04  0.19021138245E+04  0.25500000920E-02 0. -1.
    10030    2    1    2    0    0  0.00000000000E+00  0.00000000000E+00 -0.12528248203E+03  0.36789451670E+04  0.36768113687E+04 0.  0.
        1    1    3    3  502    0  0.15800834736E+04 -0.33868288982E+03 -0.93971459098E+03  0.18693403638E+04  0.50400001928E-02 0. -1.
       -1    1    3    3    0  502 -0.15800834736E+04  0.33868288982E+03  0.81443210895E+03  0.18096048031E+04  0.50400001928E-02 0.  1.
</event>
<event>
 5   0  0.1092116E-06  0.3694191E+04  0.7818609E-02  0.8069250E-01
        2   -1    0    0  501    0  0.00000000000E+00  0.00000000000E+00  0.19759978922E+04  0.19759978922E+04  0.25500000920E-02 0. -1.
       -2   -1    0    0    0  501  0.00000000000E+00  0.00000000000E+00 -0.17266016583E+04  0.17266016583E+04  0.25500000920E-02 0.  1.
    10030    2    1    2    0    0  0.00000000000E+00  0.00000000000E+00  0.24939623395E+03  0.37025995505E+04  0.36941907029E+04 0.  0.
        1    1    3    3  502    0 -0.87328515942E+03 -0.90040325375E+03 -0.12342673253E+04  0.17597638533E+04  0.50400001928E-02 0.  1.
       -1    1    3    3    0  502  0.87328515942E+03  0.90040325375E+03  0.14836635593E+04  0.19428356972E+04  0.50400001928E-02 0. -1.
</event>
<event>
 5   0  0.1128530E-06  0.3658549E+04  0.7818609E-02  0.8077210E-01
       -2   -1    0    0    0  501  0.00000000000E+00  0.00000000000E+00  0.18557297359E+04  0.18557297359E+04  0.25500000920E-02 0.  1.
        2   -1    0    0  501    0  0.00000000000E+00  0.00000000000E+00 -0.18031967334E+04  0.18031967334E+04  0.25500000920E-02 0. -1.
    10030    2    1    2    0    0  0.00000000000E+00  0.00000000000E+00  0.52533002523E+02  0.36589264693E+04  0.36585493288E+04 0.  0.
        5    1    3    3  502    0 -0.11668198661E+04  0.10464867233E+04 -0.91702776237E+03  0.18159198961E+04  0.46999998093E+01 0. -1.
       -5    1    3    3    0  502  0.11668198661E+04 -0.10464867233E+04  0.96956076489E+03  0.18430065732E+04  0.46999998093E+01 0.  1.
</event>
<event>
 5   0  0.1092116E-06  0.2442410E+04  0.7818609E-02  0.8423794E-01
       -2   -1    0    0    0  501  0.00000000000E+00  0.00000000000E+00  0.17102275061E+04  0.17102275061E+04  0.25500000920E-02 0. -1.
        2   -1    0    0  501    0  0.00000000000E+00  0.00000000000E+00 -0.87201347917E+03  0.87201347917E+03  0.25500000920E-02 0.  1.
    10030    2    1    2    0    0  0.00000000000E+00  0.00000000000E+00  0.83821402690E+03  0.25822409853E+04  0.24424098245E+04 0.  0.
        1    1    3    3  502    0 -0.45965865610E+02 -0.11390149600E+04 -0.44004659857E+02  0.11407911071E+04  0.50400001928E-02 0.  1.
       -1    1    3    3    0  502  0.45965865610E+02  0.11390149600E+04  0.88221868676E+03  0.14414498781E+04  0.50400001928E-02 0. -1.
</event>
<event>
 5   0  0.3682276E-07  0.3056114E+04  0.7818609E-02  0.8227886E-01
        1   -1    0    0  501    0  0.00000000000E+00  0.00000000000E+00  0.16859309344E+04  0.16859309344E+04  0.50400001928E-02 0. -1.
       -1   -1    0    0    0  501  0.00000000000E+00  0.00000000000E+00 -0.13849663157E+04  0.13849663157E+04  0.50400001928E-02 0.  1.
    10030    2    1    2    0    0  0.00000000000E+00  0.00000000000E+00  0.30096461873E+03  0.30708972501E+04  0.30561135808E+04 0.  0.
        1    1    3    3  502    0  0.67308852349E+03  0.50654700604E+03 -0.11305650069E+04  0.14098990264E+04  0.50400001928E-02 0.  1.
       -1    1    3    3    0  502 -0.67308852349E+03 -0.50654700604E+03  0.14315296257E+04  0.16609982236E+04  0.50400001928E-02 0. -1.
</event>
<event>
 5   0  0.3704306E-07  0.2982384E+04  0.7818609E-02  0.8248779E-01
       -1   -1    0    0    0  501  0.00000000000E+00  0.00000000000E+00  0.97036611154E+03  0.97036611155E+03  0.50400001928E-02 0. -1.
        1   -1    0    0  501    0  0.00000000000E+00  0.00000000000E+00 -0.22915621729E+04  0.22915621729E+04  0.50400001928E-02 0.  1.
    10030    2    1    2    0    0  0.00000000000E+00  0.00000000000E+00 -0.13211960613E+04  0.32619282844E+04  0.29823844655E+04 0.  0.
        3    1    3    3  502    0 -0.12657355848E+04  0.78064605824E+03 -0.78120358666E+03  0.16798136483E+04  0.10100000352E+00 0.  1.
       -3    1    3    3    0  502  0.12657355848E+04 -0.78064605824E+03 -0.53999247469E+03  0.15821146361E+04  0.10100000352E+00 0. -1.
</event>
<event>
 5   0  0.3704306E-07  0.3743887E+04  0.7818609E-02  0.8058305E-01
       -1   -1    0    0    0  501  0.00000000000E+00  0.00000000000E+00  0.16570915994E+04  0.16570915994E+04  0.50400001928E-02 0. -1.
        1   -1    0    0  501    0  0.00000000000E+00  0.00000000000E+00 -0.21146526862E+04  0.21146526862E+04  0.50400001928E-02 0.  1.
    10030    2    1    2    0    0  0.00000000000E+00  0.00000000000E+00 -0.45756108675E+03  0.37717442856E+04  0.37438873925E+04 0.  0.
        3    1    3    3  502    0 -0.13484718698E+04 -0.24664997678E+03 -0.15130048352E+04  0.20416650646E+04  0.10100000352E+00 0.  1.
       -3    1    3    3    0  502  0.13484718698E+04  0.24664997678E+03  0.10554437484E+04  0.17300792210E+04  0.10100000352E+00 0. -1.
</event>
<event>
 5   0  0.1128530E-06  0.3672071E+04  0.7818609E-02  0.8074180E-01
        2   -1    0    0  501    0  0.00000000000E+00  0.00000000000E+00  0.21379091041E+04  0.21379091041E+04  0.25500000920E-02 0.  1.
       -2   -1    0    0    0  501  0.00000000000E+00  0.00000000000E+00 -0.15767862606E+04  0.15767862606E+04  0.25500000920E-02 0. -1.
    10030    2    1    2    0    0  0.00000000000E+00  0.00000000000E+00  0.56112284345E+03  0.37146953647E+04  0.36720706430E+04 0.  0.
        5    1    3    3  502    0  0.61436849019E+03 -0.83353164778E+03 -0.12532108346E+04  0.16256639061E+04  0.46999998093E+01 0. -1.
       -5    1    3    3    0  502 -0.61436849019E+03  0.83353164778E+03  0.18143336781E+04  0.20890314586E+04  0.46999998093E+01 0.  1.
</event>
<event>
 5   0  0.1092116E-06  0.3621727E+04  0.7818609E-02  0.8085533E-01
        2   -1    0    0  501    0  0.00000000000E+00  0.00000000000E+00  0.20570761113E+04  0.20570761113E+04  0.25500000920E-02 0. -1.
       -2   -1    0    0    0  501  0.00000000000E+00  0.00000000000E+00 -0.15941202890E+04  0.15941202890E+04  0.25500000920E-02 0.  1.
    10030    2    1    2    0    0  0.00000000000E+00  0.00000000000E+00  0.46295582225E+03  0.36511964003E+04  0.36217270826E+04 0.  0.
        1    1    3    3  502    0  0.89118769963E+03 -0.17458948760E+03  0.18109197019E+04  0.20258645493E+04  0.50400001928E-02 0. -1.
       -1    1    3    3    0  502 -0.89118769963E+03  0.17458948760E+03 -0.13479638797E+04  0.16253318511E+04  0.50400001928E-02 0.  1.
</event>
<event>
 5   0  0.3675819E-07  0.3742183E+04  0.7818609E-02  0.8058677E-01
       -1   -1    0    0    0  501  0.00000000000E+00  0.00000000000E+00  0.17655145881E+04  0.17655145881E+04  0.50400001928E-02 0. -1.
        1   -1    0    0  501    0  0.00000000000E+00  0.00000000000E+00 -0.19829816268E+04  0.19829816268E+04  0.50400001928E-02 0.  1.
    10030    2    1    2    0    0  0.00000000000E+00  0.00000000000E+00 -0.21746703862E+03  0.37484962149E+04  0.37421827802E+04 0.  0.
        5    1    3    3  502    0 -0.13245885208E+04 -0.62069946984E+03 -0.12773887346E+04  0.19420470258E+04  0.46999998093E+01 0.  1.
       -5    1    3    3    0  502  0.13245885208E+04  0.62069946984E+03  0.10599216960E+04  0.18064491891E+04  0.46999998093E+01 0. -1.
</event>
<event>
 5   0  0.3675819E-07  0.3699393E+04  0.7818609E-02  0.8068096E-01
       -1   -1    0    0    0  501  0.00000000000E+00  0.00000000000E+00  0.17043132300E+04  0.17043132300E+04  0.50400001928E-02 0. -1.
        1   -1    0    0  501    0  0.00000000000E+00  0.00000000000E+00 -0.20074809678E+04  0.20074809678E+04  0.50400001928E-02 0.  1.
    10030    2    1    2    0    0  0.00000000000E+00  0.00000000000E+00 -0.30316773785E+03  0.37117941978E+04  0.36993925839E+04 0.  0.
        5    1    3    3  502    0  0.55317390836E+03 -0.14661924825E+04  0.83437638315E+03  0.17753669501E+04  0.46999998093E+01 0. -1.
       -5    1    3    3    0  502 -0.55317390836E+03  0.14661924825E+04 -0.11375441210E+04  0.19364272478E+04  0.46999998093E+01 0.  1.
</event>
<event>
 5   0  0.1092116E-06  0.3899880E+04  0.7818609E-02  0.8025054E-01
        2   -1    0    0  501    0  0.00000000000E+00  0.00000000000E+00  0.11798116793E+04  0.11798116793E+04  0.25500000920E-02 0.  1.
       -2   -1    0    0    0  501  0.00000000000E+00  0.00000000000E+00 -0.32227743358E+04  0.32227743358E+04  0.25500000920E-02 0. -1.
    10030    2    1    2    0    0  0.00000000000E+00  0.00000000000E+00 -0.20429626565E+04  0.44025860151E+04  0.38998804090E+04 0.  0.
        1    1    3    3  502    0 -0.67036429695E+03 -0.18196026959E+04 -0.12526296324E+04  0.23085543653E+04  0.50400001928E-02 0. -1.
       -1    1    3    3    0  502  0.67036429695E+03  0.18196026959E+04 -0.79033302412E+03  0.20940316498E+04  0.50400001928E-02 0.  1.
</event>
<event>
 5   0  0.3704306E-07  0.2582666E+04  0.7818609E-02  0.8374113E-01
        1   -1    0    0  501    0  0.00000000000E+00  0.00000000000E+00  0.17986039950E+04  0.17986039950E+04  0.50400001928E-02 0.  1.
       -1   -1    0    0    0  501  0.00000000000E+00  0.00000000000E+00 -0.92713049276E+03  0.92713049277E+03  0.50400001928E-02 0. -1.
    10030    2    1    2    0    0  0.00000000000E+00  0.00000000000E+00  0.87147350224E+03  0.27257344878E+04  0.25826657609E+04 0.  0.
        3    1    3    3  502    0  0.83327849681E+03 -0.51647491170E+03  0.13227974884E+04  0.16464788469E+04  0.10100000352E+00 0.  1.
       -3    1    3    3    0  502 -0.83327849681E+03  0.51647491170E+03 -0.45132398619E+03  0.10792556409E+04  0.10100000352E+00 0. -1.
</event>
<event>
 5   0  0.3848431E-07  0.3531982E+04  0.7818609E-02  0.8106252E-01
        1   -1    0    0  501    0  0.00000000000E+00  0.00000000000E+00  0.19379696231E+04  0.19379696231E+04  0.50400001928E-02 0.  1.
       -1   -1    0    0    0  501  0.00000000000E+00  0.00000000000E+00 -0.16092742563E+04  0.16092742563E+04  0.50400001928E-02 0. -1.
    10030    2    1    2    0    0  0.00000000000E+00  0.00000000000E+00  0.32869536684E+03  0.35472438794E+04  0.35319822332E+04 0.  0.
        2    1    3    3  502    0  0.16254873552E+04 -0.65655829380E+03  0.37845113130E+03  0.17934612329E+04  0.25500000920E-02 0.  1.
       -2    1    3    3    0  502 -0.16254873552E+04  0.65655829380E+03 -0.49755764462E+02  0.17537826465E+04  0.25500000920E-02 0. -1.
</event>
<event>
 5   0  0.3764495E-07  0.3723910E+04  0.7818609E-02  0.8062684E-01
       -1   -1    0    0    0  501  0.00000000000E+00  0.00000000000E+00  0.19407984864E+04  0.19407984864E+04  0.50400001928E-02 0. -1.
        1   -1    0    0  501    0  0.00000000000E+00  0.00000000000E+00 -0.17863148131E+04  0.17863148131E+04  0.50400001928E-02 0.  1.
    10030    2    1    2    0    0  0.00000000000E+00  0.00000000000E+00  0.15448367336E+03  0.37271132995E+04  0.37239103564E+04 0.  0.
        4    1    3    3  502    0  0.34301587563E+03  0.18267814890E+04 -0.32784390268E+02  0.18589962154E+04  0.12699999809E+01 0. -1.
       -4    1    3    3    0  502 -0.34301587563E+03 -0.18267814890E+04  0.18726806363E+03  0.18681170842E+04  0.12699999809E+01 0.  1.
</event>
<event>
 5   0  0.3764495E-07  0.3309936E+04  0.7818609E-02  0.8160372E-01
       -1   -1    0    0    0  501  0.00000000000E+00  0.00000000000E+00  0.11063342106E+04  0.11063342106E+04  0.50400001928E-02 0. -1.
        1   -1    0    0  501    0  0.00000000000E+00  0.00000000000E+00 -0.24756711314E+04  0.24756711314E+04  0.50400001928E-02 0.  1.
    10030    2    1    2    0    0  0.00000000000E+00  0.00000000000E+00 -0.13693369208E+04  0.35820053420E+04  0.33099363540E+04 0.  0.
        4    1    3    3  502    0  0.62051670693E+03 -0.70448538984E+03 -0.21596277934E+04  0.23548533855E+04  0.12699999809E+01 0.  1.
       -4    1    3    3    0  502 -0.62051670693E+03  0.70448538984E+03  0.79029087266E+03  0.12271519565E+04  0.12699999809E+01 0. -1.
</event>
<event>
 5   0  0.3682276E-07  0.2955621E+04  0.7818609E-02  0.8256518E-01
       -1   -1    0    0    0  501  0.00000000000E+00  0.00000000000E+00  0.18526699355E+04  0.18526699355E+04  0.50400001928E-02 0.  1.
        1   -1    0    0  501    0  0.00000000000E+00  0.00000000000E+00 -0.11787980420E+04  0.11787980420E+04  0.50400001928E-02 0. -1.
    10030    2    1    2    0    0  0.00000000000E+00  0.00000000000E+00  0.67387189346E+03  0.30314679775E+04  0.29556208773E+04 0.  0.
        1    1    3    3  502    0  0.35829313756E+02 -0.44009534891E+03  0.17834306619E+04  0.18372785803E+04  0.50400001928E-02 0.  1.
       -1    1    3    3    0  502 -0.35829313756E+02  0.44009534891E+03 -0.11095587684E+04  0.11941893972E+04  0.50400001928E-02 0. -1.
</event>
<event>
 5   0  0.3675819E-07  0.3762201E+04  0.7818609E-02  0.8054315E-01
        1   -1    0    0  501    0  0.00000000000E+00  0.00000000000E+00  0.18036006095E+04  0.18036006095E+04  0.50400001928E-02 0. -1.
       -1   -1    0    0    0  501  0.00000000000E+00  0.00000000000E+00 -0.19619302535E+04  0.19619302535E+04  0.50400001928E-02 0.  1.
    10030    2    1    2    0    0  0.00000000000E+00  0.00000000000E+00 -0.15832964399E+03  0.37655308631E+04  0.37622007395E+04 0.  0.
        5    1    3    3  502    0  0.10893264013E+04  0.11600986057E+04 -0.10830759448E+04  0.19249769806E+04  0.46999998093E+01 0.  1.
       -5    1    3    3    0  502 -0.10893264013E+04 -0.11600986057E+04  0.92474630076E+03  0.18405538825E+04  0.46999998093E+01 0. -1.
</event>
<event>
 5   0  0.3764495E-07  0.3619154E+04  0.7818609E-02  0.8086118E-01
       -1   -1    0    0    0  501  0.00000000000E+00  0.00000000000E+00  0.15221129920E+04  0.15221129920E+04  0.50400001928E-02 0.  1.
        1   -1    0    0  501    0  0.00000000000E+00  0.00000000000E+00 -0.21513312430E+04  0.21513312431E+04  0.50400001928E-02 0. -1.
    10030    2    1    2    0    0  0.00000000000E+00  0.00000000000E+00 -0.62921825102E+03  0.36734442351E+04  0.36191541748E+04 0.  0.
        4    1    3    3  502    0 -0.35721110221E+03 -0.35511441949E+03 -0.20787439836E+04  0.21388978902E+04  0.12699999809E+01 0. -1.
       -4    1    3    3    0  502  0.35721110221E+03  0.35511441949E+03  0.14495257325E+04  0.15345463449E+04  0.12699999809E+01 0.  1.
</event>
<event>
 5   0  0.1128166E-06  0.3710131E+04  0.7818609E-02  0.8065720E-01
       -2   -1    0    0    0  501  0.00000000000E+00  0.00000000000E+00  0.22063718116E+04  0.22063718116E+04  0.25500000920E-02 0. -1.
        2   -1    0    0  501    0  0.00000000000E+00  0.00000000000E+00 -0.15596950891E+04  0.15596950891E+04  0.25500000920E-02 0.  1.
    10030    2    1    2    0    0  0.00000000000E+00  0.00000000000E+00  0.64667672245E+03  0.37660669007E+04  0.37101306065E+04 0.  0.
        3    1    3    3  502    0 -0.10874316436E+04  0.68896620200E+03 -0.10324959971E+04  0.16502211977E+04  0.10100000352E+00 0.  1.
       -3    1    3    3    0  502  0.10874316436E+04 -0.68896620200E+03  0.16791727195E+04  0.21158457031E+04  0.10100000352E+00 0. -1.
</event>
<event>
 5   0  0.3764495E-07  0.3644346E+04  0.7818609E-02  0.8080409E-01
        1   -1    0    0  501    0  0.00000000000E+00  0.00000000000E+00  0.28909223548E+04  0.28909223548E+04  0.50400001928E-02 0. -1.
       -1   -1    0    0    0  501  0.00000000000E+00  0.00000000000E+00 -0.11485311922E+04  0.11485311922E+04  0.50400001928E-02 0.  1.
    10030    2    1    2    0    0  0.00000000000E+00  0.00000000000E+00  0.17423911626E+04  0.40394535470E+04  0.36443460311E+04 0.  0.
        4    1    3    3  502    0  0.16924989345E+04  0.43308992343E+03  0.29717558337E+03  0.17721271019E+04  0.12699999809E+01 0.  1.
       -4    1    3    3    0  502 -0.16924989345E+04 -0.43308992343E+03  0.14452155792E+04  0.22673264450E+04  0.12699999809E+01 0. -1.
</event>
<event>
 5   0  0.3704306E-07  0.3588083E+04  0.7818609E-02  0.8093227E-01
       -1   -1    0    0    0  501  0.00000000000E+00  0.00000000000E+00  0.14941365186E+04  0.14941365186E+04  0.50400001928E-02 0.  1.
        1   -1    0    0  501    0  0.00000000000E+00  0.00000000000E+00 -0.21541436215E+04  0.21541436215E+04  0.50400001928E-02 0. -1.
    10030    2    1    2    0    0  0.00000000000E+00  0.00000000000E+00 -0.66000710289E+03  0.36482801402E+04  0.35880828593E+04 0.  0.
        3    1    3    3  502    0 -0.26738984932E+03 -0.15484532888E+04  0.55018696290E+03  0.16649055900E+04  0.10100000352E+00 0.  1.
       -3    1    3    3    0  502  0.26738984932E+03  0.15484532888E+04 -0.12101940658E+04  0.19833745502E+04  0.10100000352E+00 0. -1.
</event>
<event>
 5   0  0.3848431E-07  0.2715964E+04  0.7818609E-02  0.8329844E-01
       -1   -1    0    0    0  501  0.00000000000E+00  0.00000000000E+00  0.14550476706E+04  0.14550476706E+04  0.50400001928E-02 0.  1.
        1   -1    0    0  501    0  0.00000000000E+00  0.00000000000E+00 -0.12673918960E+04  0.12673918960E+04  0.50400001928E-02 0. -1.
    10030    2    1    2    0    0  0.00000000000E+00  0.00000000000E+00  0.18765577461E+03  0.27224395666E+04  0.27159643783E+04 0.  0.
        2    1    3    3  502    0  0.34703602446E+03 -0.95815313777E+03  0.99353349416E+03  0.14232358349E+04  0.25500000920E-02 0.  1.
       -2    1    3    3    0  502 -0.34703602446E+03  0.95815313777E+03 -0.80587771955E+03  0.12992037317E+04  0.25500000920E-02 0. -1.
</event>
<event>
 5   0  0.1092116E-06  0.2407334E+04  0.7818609E-02  0.8436763E-01
        2   -1    0    0  501    0  0.00000000000E+00  0.00000000000E+00  0.19063541794E+04  0.19063541794E+04  0.25500000920E-02 0.  1.
       -2   -1    0    0    0  501  0.00000000000E+00  0.00000000000E+00 -0.75999187799E+03  0.75999187800E+03  0.25500000920E-02 0. -1.
    10030    2    1    2    0    0  0.00000000000E+00  0.00000000000E+00  0.11463623014E+04  0.26663460574E+04  0.24073335398E+04 0.  0.
        1    1    3    3  502    0 -0.10408106919E+04  0.50330549869E+03  0.94420066111E+03  0.14926882494E+04  0.50400001928E-02 0.  1.
       -1    1    3    3    0  502  0.10408106919E+04 -0.50330549869E+03  0.20216164028E+03  0.11736578080E+04  0.50400001928E-02 0. -1.
</event>
<event>
 5   0  0.3704306E-07  0.3829782E+04  0.7818609E-02  0.8039794E-01
        1   -1    0    0  501    0  0.00000000000E+00  0.00000000000E+00  0.22403788561E+04  0.22403788561E+04  0.50400001928E-02 0. -1.
       -1   -1    0    0    0  501  0.00000000000E+00  0.00000000000E+00 -0.16366908888E+04  0.16366908888E+04  0.50400001928E-02 0.  1.
    10030    2    1    2    0    0  0.00000000000E+00  0.00000000000E+00  0.60368796730E+03  0.38770697449E+04  0.38297820624E+04 0.  0.
        3    1    3    3  502    0  0.91292293920E+03  0.49726401652E+03  0.19298382452E+04  0.21920254236E+04  0.10100000352E+00 0. -1.
       -3    1    3    3    0  502 -0.91292293920E+03 -0.49726401652E+03 -0.13261502779E+04  0.16850443213E+04  0.10100000352E+00 0.  1.
</event>
<event>
 5   0  0.1051123E-06  0.2417208E+04  0.7818609E-02  0.8433089E-01
        2   -1    0    0  501    0  0.00000000000E+00  0.00000000000E+00  0.10040211977E+04  0.10040211977E+04  0.25500000920E-02 0.  1.
       -2   -1    0    0    0  501  0.00000000000E+00  0.00000000000E+00 -0.14548727941E+04  0.14548727941E+04  0.25500000920E-02 0. -1.
    10030    2    1    2    0    0  0.00000000000E+00  0.00000000000E+00 -0.45085159644E+03  0.24588939918E+04  0.24172075834E+04 0.  0.
        2    1    3    3  502    0 -0.10707252145E+04 -0.24923581508E+03 -0.73623321505E+03  0.13231063160E+04  0.25500000920E-02 0. -1.
       -2    1    3    3    0  502  0.10707252145E+04  0.24923581508E+03  0.28538161862E+03  0.11357876759E+04  0.25500000920E-02 0.  1.
</event>
<event>
 5   0  0.3682276E-07  0.2325729E+04  0.7818609E-02  0.8467845E-01
       -1   -1    0    0    0  501  0.00000000000E+00  0.00000000000E+00  0.11394696331E+04  0.11394696331E+04  0.50400001928E-02 0.  1.
        1   -1    0    0  501    0  0.00000000000E+00  0.00000000000E+00 -0.11867395992E+04  0.11867395992E+04  0.50400001928E-02 0. -1.
    10030    2    1    2    0    0  0.00000000000E+00  0.00000000000E+00 -0.47269966064E+02  0.23262092323E+04  0.23257289057E+04 0.  0.
        1    1    3    3  502    0  0.58443911084E+03 -0.85921636998E+03  0.49842289866E+03  0.11524960870E+04  0.50400001928E-02 0.  1.
       -1    1    3    3    0  502 -0.58443911084E+03  0.85921636998E+03 -0.54569286472E+03  0.11737131453E+04  0.50400001928E-02 0. -1.
</event>
<event>
 5   0  0.3704306E-07  0.3617889E+04  0.7818609E-02  0.8086406E-01
        1   -1    0    0  501    0  0.00000000000E+00  0.00000000000E+00  0.10026966420E+04  0.10026966420E+04  0.50400001928E-02 0. -1.
       -1   -1    0    0    0  501  0.00000000000E+00  0.00000000000E+00 -0.32634794559E+04  0.32634794559E+04  0.50400001928E-02 0.  1.
    10030    2    1    2    0    0  0.00000000000E+00  0.00000000000E+00 -0.22607828139E+04  0.42661760980E+04  0.36178888273E+04 0.  0.
        3    1    3    3  502    0  0.30095179882E+03 -0.13676957405E+04  0.21982742825E+03  0.14175640135E+04  0.10100000352E+00 0. -1.
       -3    1    3    3    0  502 -0.30095179882E+03  0.13676957405E+04 -0.24806102422E+04  0.28486120845E+04  0.10100000352E+00 0.  1.
</event>
<event>
 5   0  0.1128166E-06  0.2590761E+04  0.7818609E-02  0.8371346E-01
       -2   -1    0    0    0  501  0.00000000000E+00  0.00000000000E+00  0.10564038082E+04  0.10564038082E+04  0.25500000920E-02 0. -1.
        2   -1    0    0  501    0  0.00000000000E+00  0.00000000000E+00 -0.15884180418E+04  0.15884180418E+04  0.25500000920E-02 0.  1.
    10030    2    1    2    0    0  0.00000000000E+00  0.00000000000E+00 -0.53201423357E+03  0.26448218500E+04  0.25907611765E+04 0.  0.
        3    1    3    3  502    0 -0.59677751511E+02  0.10097105169E+04  0.56015988383E+03  0.11562248344E+04  0.10100000352E+00 0. -1.
       -3    1    3    3    0  502  0.59677751511E+02 -0.10097105169E+04 -0.10921741174E+04  0.14885970156E+04  0.10100000352E+00 0.  1.
</event>
<event>
 5   0  0.1066907E-06  0.3769368E+04  0.7818609E-02  0.8052760E-01
       -2   -1    0    0    0  501  0.00000000000E+00  0.00000000000E+00  0.18005778738E+04  0.18005778738E+04  0.25500000920E-02 0. -1.
        2   -1    0    0  501    0  0.00000000000E+00  0.00000000000E+00 -0.19727191697E+04  0.19727191697E+04  0.25500000920E-02 0.  1.
    10030    2    1    2    0    0  0.00000000000E+00  0.00000000000E+00 -0.17214129592E+03  0.37732970435E+04  0.37693683758E+04 0.  0.
        4    1    3    3  502    0 -0.11656675494E+04 -0.11866641929E+04  0.80090032294E+03  0.18461840869E+04  0.12699999809E+01 0. -1.
       -4    1    3    3    0  502  0.11656675494E+04  0.11866641929E+04 -0.97304161886E+03  0.19271129566E+04  0.12699999809E+01 0.  1.
</event>
<event>
 5   0  0.3682276E-07  0.3737775E+04  0.7818609E-02  0.8059642E-01
       -1   -1    0    0    0  501  0.00000000000E+00  0.00000000000E+00  0.26320208513E+04  0.26320208513E+04  0.50400001928E-02 0. -1.
        1   -1    0    0  501    0  0.00000000000E+00  0.00000000000E+00 -0.13270185161E+04  0.13270185162E+04  0.50400001928E-02 0.  1.
    10030    2    1    2    0    0  0.00000000000E+00  0.00000000000E+00  0.13050023351E+04  0.39590393674E+04  0.37377749555E+04 0.  0.
        1    1    3    3  502    0  0.10316355015E+04  0.93592675513E+03 -0.66725540165E+03  0.15444935966E+04  0.50400001928E-02 0.  1.
       -1    1    3    3    0  502 -0.10316355015E+04 -0.93592675513E+03  0.19722577368E+04  0.24145457708E+04  0.50400001928E-02 0. -1.
</event>
<event>
 5   0  0.3675819E-07  0.3659943E+04  0.7818609E-02  0.8076897E-01
       -1   -1    0    0    0  501  0.00000000000E+00  0.00000000000E+00  0.20684762748E+04  0.20684762748E+04  0.50400001928E-02 0.  1.
        1   -1    0    0  501    0  0.00000000000E+00  0.00000000000E+00 -0.16189674603E+04  0.16189674603E+04  0.50400001928E-02 0. -1.
    10030    2    1    2    0    0  0.00000000000E+00  0.00000000000E+00  0.44950881447E+03  0.36874437351E+04  0.36599430494E+04 0.  0.
        5    1    3    3  502    0  0.49168479091E+03  0.17118906268E+04  0.64797052692E+03  0.18953129940E+04  0.46999998093E+01 0. -1.
       -5    1    3    3    0  502 -0.49168479091E+03 -0.17118906268E+04 -0.19846171245E+03  0.17921307410E+04  0.46999998093E+01 0.  1.
</event>
<event>
 5   0  0.1128166E-06  0.3849402E+04  0.7818609E-02  0.8035636E-01
        2   -1    0    0  501    0  0.00000000000E+00  0.00000000000E+00  0.21218961870E+04  0.21218961870E+04  0.25500000920E-02 0. -1.
       -2   -1    0    0    0  501  0.00000000000E+00  0.00000000000E+00 -0.17458314406E+04  0.17458314406E+04  0.25500000920E-02 0.  1.
    10030    2    1    2    0    0  0.00000000000E+00  0.00000000000E+00  0.37606474631E+03  0.38677276276E+04  0.38494015519E+04 0.  0.
        3    1    3    3  502    0  0.69361038627E+03 -0.12860329698E+04  0.14467922656E+04  0.20562548571E+04  0.10100000352E+00 0. -1.
       -3    1    3    3    0  502 -0.69361038627E+03  0.12860329698E+04 -0.10707275193E+04  0.18114727705E+04  0.10100000352E+00 0.  1.
</event>
<event>
 5   0  0.3764495E-07  0.3652507E+04  0.7818609E-02  0.8078569E-01
       -1   -1    0    0    0  501  0.00000000000E+00  0.00000000000E+00  0.28277131709E+04  0.28277131709E+04  0.50400001928E-02 0. -1.
        1   -1    0    0  501    0  0.00000000000E+00  0.00000000000E+00 -0.11794693483E+04  0.11794693484E+04  0.50400001928E-02 0.  1.
    10030    2    1    2    0    0  0.00000000000E+00  0.00000000000E+00  0.16482438225E+04  0.40071825192E+04  0.36525065426E+04 0.  0.
        4    1    3    3  502    0  0.13431904431E+04 -0.12218885012E+04  0.61017993989E+03  0.19155921403E+04  0.12699999809E+01 0. -1.
       -4    1    3    3    0  502 -0.13431904431E+04  0.12218885012E+04  0.10380638826E+04  0.20915903789E+04  0.12699999809E+01 0.  1.
</event>
<event>
 5   0  0.1128166E-06  0.2441941E+04  0.7818609E-02  0.8423966E-01
        2   -1    0    0  501    0  0.00000000000E+00  0.00000000000E+00  0.16133262247E+04  0.16133262247E+04  0.25500000920E-02 0. -1.
       -2   -1    0    0    0  501  0.00000000000E+00  0.00000000000E+00 -0.92403450094E+03  0.92403450094E+03  0.25500000920E-02 0.  1.
    10030    2    1    2    0    0  0.00000000000E+00  0.00000000000E+00  0.68929172381E+03  0.25373607257E+04  0.24419411073E+04 0.  0.
        3    1    3    3  502    0  0.24468754613E+02 -0.14011582561E+03  0.16046882099E+04  0.16109796478E+04  0.10100000352E+00 0. -1.
       -3    1    3    3    0  502 -0.24468754613E+02  0.14011582561E+03 -0.91539648607E+03  0.92638107788E+03  0.10100000352E+00 0.  1.
</event>
<event>
 5   0  0.3848431E-07  0.3619572E+04  0.7818609E-02  0.8086023E-01
        1   -1    0    0  501    0  0.00000000000E+00  0.00000000000E+00  0.13876270540E+04  0.13876270540E+04  0.50400001928E-02 0. -1.
       -1   -1    0    0    0  501  0.00000000000E+00  0.00000000000E+00 -0.23603786391E+04  0.23603786391E+04  0.50400001928E-02 0.  1.
    10030    2    1    2    0    0  0.00000000000E+00  0.00000000000E+00 -0.97275158508E+03  0.37480056931E+04  0.36195719400E+04 0.  0.
        2    1    3    3  502    0  0.12105885916E+04 -0.10437205659E+04  0.39253403157E+03  0.16458919538E+04  0.25500000920E-02 0. -1.
       -2    1    3    3    0  502 -0.12105885916E+04  0.10437205659E+04 -0.13652856167E+04  0.21021137393E+04  0.25500000920E-02 0.  1.
</event>
<event>
 5   0  0.1128530E-06  0.3666481E+04  0.7818609E-02  0.8075431E-01
        2   -1    0    0  501    0  0.00000000000E+00  0.00000000000E+00  0.27942552101E+04  0.27942552101E+04  0.25500000920E-02 0. -1.
       -2   -1    0    0    0  501  0.00000000000E+00  0.00000000000E+00 -0.12027432534E+04  0.12027432534E+04  0.25500000920E-02 0.  1.
    10030    2    1    2    0    0  0.00000000000E+00  0.00000000000E+00  0.15915119566E+04  0.39969984635E+04  0.36664814753E+04 0.  0.
        5    1    3    3  502    0 -0.62697075693E+03 -0.12658625751E+04  0.20695242867E+04  0.25056841885E+04  0.46999998093E+01 0. -1.
       -5    1    3    3    0  502  0.62697075693E+03  0.12658625751E+04 -0.47801233004E+03  0.14913142750E+04  0.46999998093E+01 0.  1.
</event>
<event>
 5   0  0.3682276E-07  0.3693791E+04  0.7818609E-02  0.8069339E-01
       -1   -1    0    0    0  501  0.00000000000E+00  0.00000000000E+00  0.19809733836E+04  0.19809733836E+04  0.50400001928E-02 0.  1.
        1   -1    0    0  501    0  0.00000000000E+00  0.00000000000E+00 -0.17218921121E+04  0.17218921121E+04  0.50400001928E-02 0. -1.
    10030    2    1    2    0    0  0.00000000000E+00  0.00000000000E+00  0.25908127155E+03  0.37028654957E+04  0.36937907052E+04 0.  0.
        1    1    3    3  502    0  0.65266123325E+03  0.46890526694E+03  0.17965100816E+04  0.19680668962E+04  0.50400001928E-02 0.  1.
       -1    1    3    3    0  502 -0.65266123325E+03 -0.46890526694E+03 -0.15374288100E+04  0.17347985995E+04  0.50400001928E-02 0. -1.
</event>
<event>
 5   0  0.3682276E-07  0.3590027E+04  0.7818609E-02  0.8092780E-01
       -1   -1    0    0    0  501  0.00000000000E+00  0.00000000000E+00  0.12250437720E+04  0.12250437720E+04  0.50400001928E-02 0.  1.
        1   -1    0    0  501    0  0.00000000000E+00  0.00000000000E+00 -0.26301702823E+04  0.26301702823E+04  0.50400001928E-02 0. -1.
    10030    2    1    2    0    0  0.00000000000E+00  0.00000000000E+00 -0.14051265103E+04  0.38552140543E+04  0.35900271440E+04 0.  0.
        1    1    3    3  502    0  0.46769233384E+03 -0.63162893256E+03  0.10304550426E+04  0.12959663663E+04  0.50400001928E-02 0.  1.
       -1    1    3    3    0  502 -0.46769233384E+03  0.63162893256E+03 -0.24355815530E+04  0.25592476880E+04  0.50400001928E-02 0. -1.
</event>
<event>
 5   0  0.1128166E-06  0.3273556E+04  0.7818609E-02  0.8169657E-01
        2   -1    0    0  501    0  0.00000000000E+00  0.00000000000E+00  0.14189365200E+04  0.14189365200E+04  0.25500000920E-02 0. -1.
       -2   -1    0    0    0  501  0.00000000000E+00  0.00000000000E+00 -0.18880635818E+04  0.18880635818E+04  0.25500000920E-02 0.  1.
    10030    2    1    2    0    0  0.00000000000E+00  0.00000000000E+00 -0.46912706173E+03  0.33070001018E+04  0.32735560898E+04 0.  0.
        3    1    3    3  502    0 -0.87062032186E+03  0.33026324239E+01 -0.16347437850E+04  0.18521279397E+04  0.10100000352E+00 0.  1.
       -3    1    3    3    0  502  0.87062032186E+03 -0.33026324239E+01  0.11656167233E+04  0.14548721621E+04  0.10100000352E+00 0. -1.
</event>
<event>
 5   0  0.3764495E-07  0.3713620E+04  0.7818609E-02  0.8064950E-01
        1   -1    0    0  501    0  0.00000000000E+00  0.00000000000E+00  0.22644956849E+04  0.22644956849E+04  0.50400001928E-02 0.  1.
       -1   -1    0    0    0  501  0.00000000000E+00  0.00000000000E+00 -0.15225218832E+04  0.15225218832E+04  0.50400001928E-02 0. -1.
    10030    2    1    2    0    0  0.00000000000E+00  0.00000000000E+00  0.74197380175E+03  0.37870175681E+04  0.37136204623E+04 0.  0.
        4    1    3    3  502    0  0.39455560611E+03 -0.17416028963E+04  0.88985340544E+03  0.19951680307E+04  0.12699999809E+01 0.  1.
       -4    1    3    3    0  502 -0.39455560611E+03  0.17416028963E+04 -0.14787960369E+03  0.17918495374E+04  0.12699999809E+01 0. -1.
</event>
<event>
 5   0  0.3682276E-07  0.3602513E+04  0.7818609E-02  0.8089916E-01
        1   -1    0    0  501    0  0.00000000000E+00  0.00000000000E+00  0.14367144813E+04  0.14367144813E+04  0.50400001928E-02 0.  1.
       -1   -1    0    0    0  501  0.00000000000E+00  0.00000000000E+00 -0.22582950109E+04  0.22582950109E+04  0.50400001928E-02 0. -1.
    10030    2    1    2    0    0  0.00000000000E+00  0.00000000000E+00 -0.82158052961E+03  0.36950094921E+04  0.36025130923E+04 0.  0.
        1    1    3    3  502    0 -0.89141581362E+03  0.93041942235E+03  0.88018554712E+03  0.15604579622E+04  0.50400001928E-02 0.  1.
       -1    1    3    3    0  502  0.89141581362E+03 -0.93041942235E+03 -0.17017660767E+04  0.21345515300E+04  0.50400001928E-02 0. -1.
</event>
<event>
 5   0  0.1128530E-06  0.3723232E+04  0.7818609E-02  0.8062833E-01
        2   -1    0    0  501    0  0.00000000000E+00  0.00000000000E+00  0.31332015170E+04  0.31332015170E+04  0.25500000920E-02 0. -1.
       -2   -1    0    0    0  501  0.00000000000E+00  0.00000000000E+00 -0.11060937340E+04  0.11060937340E+04  0.25500000920E-02 0.  1.
    10030    2    1    2    0    0  0.00000000000E+00  0.00000000000E+00  0.20271077830E+04  0.42392952510E+04  0.37232322331E+04 0.  0.
        5    1    3    3  502    0  0.61226017800E+03  0.14443204172E+04 -0.12770698084E+03  0.15739298447E+04  0.46999998093E+01 0.  1.
       -5    1    3    3    0  502 -0.61226017800E+03 -0.14443204172E+04  0.21548147638E+04  0.26653654063E+04  0.46999998093E+01 0. -1.
</event>
<event>
 5   0  0.3675819E-07  0.3728281E+04  0.7818609E-02  0.8061723E-01
       -1   -1    0    0    0  501  0.00000000000E+00  0.00000000000E+00  0.16021995338E+04  0.16021995338E+04  0.50400001928E-02 0.  1.
        1   -1    0    0  501    0  0.00000000000E+00  0.00000000000E+00 -0.21689056674E+04  0.21689056675E+04  0.50400001928E-02 0. -1.
    10030    2    1    2    0    0  0.00000000000E+00  0.00000000000E+00 -0.56670613368E+03  0.37711052012E+04  0.37282809171E+04 0.  0.
        5    1    3    3  502    0 -0.51550597155E+02 -0.32486195943E+03  0.15726085442E+04  0.16066463456E+04  0.46999998093E+01 0.  1.
       -5    1    3    3    0  502  0.51550597155E+02  0.32486195943E+03 -0.21393146778E+04  0.21644588556E+04  0.46999998093E+01 0. -1.
</event>
<event>
 5   0  0.1128166E-06  0.2530550E+04  0.7818609E-02  0.8392182E-01
        2   -1    0    0  501    0  0.00000000000E+00  0.00000000000E+00  0.13148447319E+04  0.13148447319E+04  0.25500000920E-02 0. -1.
       -2   -1    0    0    0  501  0.00000000000E+00  0.00000000000E+00 -0.12175738051E+04  0.12175738051E+04  0.25500000920E-02 0.  1.
    10030    2    1    2    0    0  0.00000000000E+00  0.00000000000E+00  0.97270926819E+02  0.25324185371E+04  0.25305497454E+04 0.  0.
        3    1    3    3  502    0  0.12126341196E+04  0.20899481404E+03  0.34340375128E+03  0.12775314035E+04  0.10100000352E+00 0. -1.
       -3    1    3    3    0  502 -0.12126341196E+04 -0.20899481404E+03 -0.24613282446E+03  0.12548871335E+04  0.10100000352E+00 0.  1.
</event>
<event>
 5   0  0.3848431E-07  0.3416528E+04  0.7818609E-02  0.8133862E-01
        1   -1    0    0  501    0  0.00000000000E+00  0.00000000000E+00  0.12104172388E+04  0.12104172388E+04  0.50400001928E-02 0. -1.
       -1   -1    0    0    0  501  0.00000000000E+00  0.00000000000E+00 -0.24108753727E+04  0.24108753727E+04  0.50400001928E-02 0.  1.
    10030    2    1    2    0    0  0.00000000000E+00  0.00000000000E+00 -0.12004581339E+04  0.36212926115E+04  0.34165275423E+04 0.  0.
        2    1    3    3  502    0 -0.10704501799E+04  0.10165988789E+04  0.31083818643E+03  0.15086276036E+04  0.25500000920E-02 0. -1.
       -2    1    3    3    0  502  0.10704501799E+04 -0.10165988789E+04 -0.15112963203E+04  0.21126650080E+04  0.25500000920E-02 0.  1.
</event>
<event>
 5   0  0.3764495E-07  0.2393171E+04  0.7818609E-02  0.8442065E-01
        1   -1    0    0  501    0  0.00000000000E+00  0.00000000000E+00  0.19640182039E+04  0.19640182039E+04  0.50400001928E-02 0. -1.
       -1   -1    0    0    0  501  0.00000000000E+00  0.00000000000E+00 -0.72902404576E+03  0.72902404577E+03  0.50400001928E-02 0.  1.
    10030    2    1    2    0    0  0.00000000000E+00  0.00000000000E+00  0.12349941581E+04  0.26930422496E+04  0.23931706976E+04 0.  0.
        4    1    3    3  502    0 -0.28666972310E+03 -0.10133105154E+04 -0.21886156150E+02  0.10533082870E+04  0.12699999809E+01 0. -1.
       -4    1    3    3    0  502  0.28666972310E+03  0.10133105154E+04  0.12568803143E+04  0.16397339626E+04  0.12699999809E+01 0.  1.
</event>
<event>
 5   0  0.3682276E-07  0.3671529E+04  0.7818609E-02  0.8074301E-01
        1   -1    0    0  501    0  0.00000000000E+00  0.00000000000E+00  0.20715461907E+04  0.20715461907E+04  0.50400001928E-02 0. -1.
       -1   -1    0    0    0  501  0.00000000000E+00  0.00000000000E+00 -0.16268190010E+04  0.16268190010E+04  0.50400001928E-02 0.  1.
    10030    2    1    2    0    0  0.00000000000E+00  0.00000000000E+00  0.44472718969E+03  0.36983651917E+04  0.36715286759E+04 0.  0.
        1    1    3    3  502    0 -0.35605221536E+03  0.17475863593E+04 -0.21578638196E+03  0.17964952062E+04  0.50400001928E-02 0.  1.
       -1    1    3    3    0  502  0.35605221536E+03 -0.17475863593E+04  0.66051357164E+03  0.19018699855E+04  0.50400001928E-02 0. -1.
</event>
<event>
 5   0  0.3764495E-07  0.2341598E+04  0.7818609E-02  0.8461698E-01
        1   -1    0    0  501    0  0.00000000000E+00  0.00000000000E+00  0.29725112834E+04  0.29725112834E+04  0.50400001928E-02 0. -1.
       -1   -1    0    0    0  501  0.00000000000E+00  0.00000000000E+00 -0.46114893224E+03  0.46114893227E+03  0.50400001928E-02 0.  1.
    10030    2    1    2    0    0  0.00000000000E+00  0.00000000000E+00  0.25113623511E+04  0.34336602156E+04  0.23415980906E+04 0.  0.
        4    1    3    3  502    0 -0.43631643605E+03 -0.18107385678E+03 -0.31519494289E+03  0.56789896892E+03  0.12699999809E+01 0.  1.
       -4    1    3    3    0  502  0.43631643605E+03  0.18107385678E+03  0.28265572940E+04  0.28657612467E+04  0.12699999809E+01 0. -1.
</event>
<event>
 5   0  0.1051123E-06  0.3658226E+04  0.7818609E-02  0.8077283E-01
       -2   -1    0    0    0  501  0.00000000000E+00  0.00000000000E+00  0.21758922970E+04  0.21758922970E+04  0.25500000920E-02 0.  1.
        2   -1    0    0  501    0  0.00000000000E+00  0.00000000000E+00 -0.15376013655E+04  0.15376013655E+04  0.25500000920E-02 0. -1.
    10030    2    1    2    0    0  0.00000000000E+00  0.00000000000E+00  0.63829093151E+03  0.37134936625E+04  0.36582263282E+04 0.  0.
        2    1    3    3  502    0  0.93846003384E+03  0.15383658830E+04  0.75399583982E+00  0.18020203644E+04  0.25500000920E-02 0. -1.
       -2    1    3    3    0  502 -0.93846003384E+03 -0.15383658830E+04  0.63753693567E+03  0.19114732981E+04  0.25500000920E-02 0.  1.
</event>
<event>
 5   0  0.1092116E-06  0.3722574E+04  0.7818609E-02  0.8062977E-01
       -2   -1    0    0    0  501  0.00000000000E+00  0.00000000000E+00  0.27940614853E+04  0.27940614853E+04  0.25500000920E-02 0. -1.
        2   -1    0    0  501    0  0.00000000000E+00  0.00000000000E+00 -0.12399118714E+04  0.12399118714E+04  0.25500000920E-02 0.  1.
    10030    2    1    2    0    0  0.00000000000E+00  0.00000000000E+00  0.15541496139E+04  0.40339733568E+04  0.37225743808E+04 0.  0.
        1    1    3    3  502    0 -0.59555366445E+03  0.10643024860E+04 -0.74658933764E+03  0.14299718836E+04  0.50400001928E-02 0.  1.
       -1    1    3    3    0  502  0.59555366445E+03 -0.10643024860E+04  0.23007389515E+04  0.26040014731E+04  0.50400001928E-02 0. -1.
</event>
<event>
 5   0  0.1128166E-06  0.2854372E+04  0.7818609E-02  0.8286584E-01
        2   -1    0    0  501    0  0.00000000000E+00  0.00000000000E+00  0.16844283698E+04  0.16844283698E+04  0.25500000920E-02 0. -1.
       -2   -1    0    0    0  501  0.00000000000E+00  0.00000000000E+00 -0.12092287249E+04  0.12092287249E+04  0.25500000920E-02 0.  1.
    10030    2    1    2    0    0  0.00000000000E+00  0.00000000000E+00  0.47519964489E+03  0.28936570946E+04  0.28543715033E+04 0.  0.
        3    1    3    3  502    0  0.12186964578E+03 -0.59121604574E+03 -0.10734397654E+04  0.12315281416E+04  0.10100000352E+00 0.  1.
       -3    1    3    3    0  502 -0.12186964578E+03  0.59121604574E+03  0.15486394103E+04  0.16621289531E+04  0.10100000352E+00 0. -1.
</event>
<event>
 5   0  0.1092116E-06  0.3828343E+04  0.7818609E-02  0.8040100E-01
        2   -1    0    0  501    0  0.00000000000E+00  0.00000000000E+00  0.31528969326E+04  0.31528969326E+04  0.25500000920E-02 0.  1.
       -2   -1    0    0    0  501  0.00000000000E+00  0.00000000000E+00 -0.11621223797E+04  0.11621223797E+04  0.25500000920E-02 0. -1.
    10030    2    1    2    0    0  0.00000000000E+00  0.00000000000E+00  0.19907745529E+04  0.43150193124E+04  0.38283427675E+04 0.  0.
        1    1    3    3  502    0  0.12063371037E+03 -0.44085975056E+03  0.30904879496E+04  0.31241039641E+04  0.50400001928E-02 0.  1.
       -1    1    3    3    0  502 -0.12063371037E+03  0.44085975056E+03 -0.10997133967E+04  0.11909153482E+04  0.50400001928E-02 0. -1.
</event>
<event>
 5   0  0.1066907E-06  0.2846553E+04  0.7818609E-02  0.8288960E-01
        2   -1    0    0  501    0  0.00000000000E+00  0.00000000000E+00  0.16238189515E+04  0.16238189515E+04  0.25500000920E-02 0.  1.
       -2   -1    0    0    0  501  0.00000000000E+00  0.00000000000E+00 -0.12475008177E+04  0.12475008177E+04  0.25500000920E-02 0. -1.
    10030    2    1    2    0    0  0.00000000000E+00  0.00000000000E+00  0.37631813378E+03  0.28713197691E+04  0.28465526306E+04 0.  0.
        4    1    3    3  502    0 -0.65639131914E+03 -0.35174122496E+03 -0.10353007214E+04  0.12753119814E+04  0.12699999809E+01 0. -1.
       -4    1    3    3    0  502  0.65639131914E+03  0.35174122496E+03  0.14116188552E+04  0.15960077877E+04  0.12699999809E+01 0.  1.
</event>
<event>
 5   0  0.3704306E-07  0.2462513E+04  0.7818609E-02  0.8416463E-01
        1   -1    0    0  501    0  0.00000000000E+00  0.00000000000E+00  0.21744716424E+04  0.21744716424E+04  0.50400001928E-02 0. -1.
       -1   -1    0    0    0  501  0.00000000000E+00  0.00000000000E+00 -0.69717760775E+03  0.69717760776E+03  0.50400001928E-02 0.  1.
    10030    2    1    2    0    0  0.00000000000E+00  0.00000000000E+00  0.14772940347E+04  0.28716492502E+04  0.24625132997E+04 0.  0.
        3    1    3    3  502    0  0.92965938432E+03  0.40029601242E+03 -0.78894680076E+02  0.10152476787E+04  0.10100000352E+00 0.  1.
       -3    1    3    3    0  502 -0.92965938432E+03 -0.40029601242E+03  0.15561887148E+04  0.18564015715E+04  0.10100000352E+00 0. -1.
</event>
<event>
 5   0  0.3682276E-07  0.3570797E+04  0.7818609E-02  0.8097214E-01
       -1   -1    0    0    0  501  0.00000000000E+00  0.00000000000E+00  0.13923194203E+04  0.13923194203E+04  0.50400001928E-02 0. -1.
        1   -1    0    0  501    0  0.00000000000E+00  0.00000000000E+00 -0.22894520747E+04  0.22894520747E+04  0.50400001928E-02 0.  1.
    10030    2    1    2    0    0  0.00000000000E+00  0.00000000000E+00 -0.89713265440E+03  0.36817714951E+04  0.35707974379E+04 0.  0.
        1    1    3    3  502    0 -0.13376895289E+04 -0.78836753400E+03  0.46013593148E+03  0.16194634049E+04  0.50400001928E-02 0. -1.
       -1    1    3    3    0  502  0.13376895289E+04  0.78836753400E+03 -0.13572685859E+04  0.20623080901E+04  0.50400001928E-02 0.  1.
</event>
<event>
 5   0  0.3682276E-07  0.2540734E+04  0.7818609E-02  0.8388616E-01
       -1   -1    0    0    0  501  0.00000000000E+00  0.00000000000E+00  0.65455302602E+03  0.65455302604E+03  0.50400001928E-02 0. -1.
        1   -1    0    0  501    0  0.00000000000E+00  0.00000000000E+00 -0.24655481384E+04  0.24655481384E+04  0.50400001928E-02 0.  1.
    10030    2    1    2    0    0  0.00000000000E+00  0.00000000000E+00 -0.18109951124E+04  0.31201011644E+04  0.25407337482E+04 0.  0.
        1    1    3    3  502    0  0.70933568449E+03 -0.10512389248E+04 -0.81383337551E+03  0.15068460948E+04  0.50400001928E-02 0.  1.
       -1    1    3    3    0  502 -0.70933568449E+03  0.10512389248E+04 -0.99716173686E+03  0.16132550696E+04  0.50400001928E-02 0. -1.
</event>
<event>
 5   0  0.3764495E-07  0.3901669E+04  0.7818609E-02  0.8024682E-01
       -1   -1    0    0    0  501  0.00000000000E+00  0.00000000000E+00  0.20747739876E+04  0.20747739877E+04  0.50400001928E-02 0. -1.
        1   -1    0    0  501    0  0.00000000000E+00  0.00000000000E+00 -0.18342989946E+04  0.18342989947E+04  0.50400001928E-02 0.  1.
    10030    2    1    2    0    0  0.00000000000E+00  0.00000000000E+00  0.24047499300E+03  0.39090729823E+04  0.39016693041E+04 0.  0.
        4    1    3    3  502    0 -0.17218360329E+04  0.19109637394E+02  0.10388577691E+04  0.20110473838E+04  0.12699999809E+01 0. -1.
       -4    1    3    3    0  502  0.17218360329E+04 -0.19109637394E+02 -0.79838277609E+03  0.18980255985E+04  0.12699999809E+01 0.  1.
</event>
<event>
 5   0  0.3704306E-07  0.3690119E+04  0.7818609E-02  0.8070155E-01
       -1   -1    0    0    0  501  0.00000000000E+00  0.00000000000E+00  0.15437339686E+04  0.15437339686E+04  0.50400001928E-02 0. -1.
        1   -1    0    0  501    0  0.00000000000E+00  0.00000000000E+00 -0.22052011385E+04  0.22052011385E+04  0.50400001928E-02 0.  1.
    10030    2    1    2    0    0  0.00000000000E+00  0.00000000000E+00 -0.66146716986E+03  0.37489351071E+04  0.36901186458E+04 0.  0.
        3    1    3    3  502    0 -0.62854274858E+03 -0.62681379271E+03  0.13125401015E+04  0.15845261266E+04  0.10100000352E+00 0. -1.
       -3    1    3    3    0  502  0.62854274858E+03  0.62681379271E+03 -0.19740072713E+04  0.21644089805E+04  0.10100000352E+00 0.  1.
</event>
<event>
 5   0  0.1066907E-06  0.3720766E+04  0.7818609E-02  0.8063375E-01
        2   -1    0    0  501    0  0.00000000000E+00  0.00000000000E+00  0.20534927627E+04  0.20534927627E+04  0.25500000920E-02 0. -1.
       -2   -1    0    0    0  501  0.00000000000E+00  0.00000000000E+00 -0.16854335305E+04  0.16854335305E+04  0.25500000920E-02 0.  1.
    10030    2    1    2    0    0  0.00000000000E+00  0.00000000000E+00  0.36805923215E+03  0.37389262932E+04  0.37207663495E+04 0.  0.
        4    1    3    3  502    0 -0.79911859635E+03 -0.16540233545E+04 -0.11175400206E+03  0.18403462604E+04  0.12699999809E+01 0. -1.
       -4    1    3    3    0  502  0.79911859635E+03  0.16540233545E+04  0.47981323421E+03  0.18985800328E+04  0.12699999809E+01 0.  1.
</event>
<event>
 5   0  0.3848431E-07  0.3618684E+04  0.7818609E-02  0.8086225E-01
       -1   -1    0    0    0  501  0.00000000000E+00  0.00000000000E+00  0.12403055822E+04  0.12403055823E+04  0.50400001928E-02 0. -1.
        1   -1    0    0  501    0  0.00000000000E+00  0.00000000000E+00 -0.26394445651E+04  0.26394445651E+04  0.50400001928E-02 0.  1.
    10030    2    1    2    0    0  0.00000000000E+00  0.00000000000E+00 -0.13991389828E+04  0.38797501473E+04  0.36186836436E+04 0.  0.
        2    1    3    3  502    0 -0.16398307720E+04  0.61794459873E+03 -0.11824122055E+04  0.21140007360E+04  0.25500000920E-02 0.  1.
       -2    1    3    3    0  502  0.16398307720E+04 -0.61794459873E+03 -0.21672677729E+03  0.17657494114E+04  0.25500000920E-02 0. -1.
</event>
<event>
 5   0  0.3704306E-07  0.3432068E+04  0.7818609E-02  0.8130080E-01
       -1   -1    0    0    0  501  0.00000000000E+00  0.00000000000E+00  0.22139253039E+04  0.22139253039E+04  0.50400001928E-02 0.  1.
        1   -1    0    0  501    0  0.00000000000E+00  0.00000000000E+00 -0.13301136384E+04  0.13301136384E+04  0.50400001928E-02 0. -1.
    10030    2    1    2    0    0  0.00000000000E+00  0.00000000000E+00  0.88381166549E+03  0.35440389423E+04  0.34320677389E+04 0.  0.
        3    1    3    3  502    0 -0.70108336926E+03  0.14998341862E+04  0.90802108323E+03  0.18882591916E+04  0.10100000352E+00 0.  1.
       -3    1    3    3    0  502  0.70108336926E+03 -0.14998341862E+04 -0.24209417731E+02  0.16557797507E+04  0.10100000352E+00 0. -1.
</event>
<event>
 5   0  0.1128530E-06  0.3685015E+04  0.7818609E-02  0.8071291E-01
       -2   -1    0    0    0  501  0.00000000000E+00  0.00000000000E+00  0.27419376953E+04  0.27419376953E+04  0.25500000920E-02 0.  1.
        2   -1    0    0  501    0  0.00000000000E+00  0.00000000000E+00 -0.12381148692E+04  0.12381148692E+04  0.25500000920E-02 0. -1.
    10030    2    1    2    0    0  0.00000000000E+00  0.00000000000E+00  0.15038228262E+04  0.39800525645E+04  0.36850149693E+04 0.  0.
        5    1    3    3  502    0 -0.71537846865E+03 -0.12005486252E+04  0.20487659811E+04  0.24800297357E+04  0.46999998093E+01 0.  1.
       -5    1    3    3    0  502  0.71537846865E+03  0.12005486252E+04 -0.54494315492E+03  0.15000228288E+04  0.46999998093E+01 0. -1.
</event>
<event>
 5   0  0.3848431E-07  0.3554893E+04  0.7818609E-02  0.8100903E-01
       -1   -1    0    0    0  501  0.00000000000E+00  0.00000000000E+00  0.25346878205E+04  0.25346878205E+04  0.50400001928E-02 0.  1.
        1   -1    0    0  501    0  0.00000000000E+00  0.00000000000E+00 -0.12464320814E+04  0.12464320814E+04  0.50400001928E-02 0. -1.
    10030    2    1    2    0    0  0.00000000000E+00  0.00000000000E+00  0.12882557391E+04  0.37811199018E+04  0.35548930874E+04 0.  0.
        2    1    3    3  502    0  0.13771739439E+03  0.48499141125E+03  0.24570408146E+04  0.25082329067E+04  0.25500000920E-02 0.  1.
       -2    1    3    3    0  502 -0.13771739439E+03 -0.48499141125E+03 -0.11687850755E+04  0.12728869952E+04  0.25500000920E-02 0. -1.
</event>
<event>
 5   0  0.3675819E-07  0.3598755E+04  0.7818609E-02  0.8090777E-01
       -1   -1    0    0    0  501  0.00000000000E+00  0.00000000000E+00  0.17959269622E+04  0.17959269622E+04  0.50400001928E-02 0.  1.
        1   -1    0    0  501    0  0.00000000000E+00  0.00000000000E+00 -0.18028346846E+04  0.18028346847E+04  0.50400001928E-02 0. -1.
    10030    2    1    2    0    0  0.00000000000E+00  0.00000000000E+00 -0.69077224657E+01  0.35987616468E+04  0.35987550172E+04 0.  0.
        5    1    3    3  502    0 -0.87472498407E+02 -0.16764894233E+04 -0.65111939963E+03  0.18006239993E+04  0.46999998093E+01 0. -1.
       -5    1    3    3    0  502  0.87472498407E+02  0.16764894233E+04  0.64421167716E+03  0.17981376475E+04  0.46999998093E+01 0.  1.
</event>
<event>
 5   0  0.3675819E-07  0.3709991E+04  0.7818609E-02  0.8065751E-01
       -1   -1    0    0    0  501  0.00000000000E+00  0.00000000000E+00  0.28772672508E+04  0.28772672508E+04  0.50400001928E-02 0.  1.
        1   -1    0    0  501    0  0.00000000000E+00  0.00000000000E+00 -0.11959290981E+04  0.11959290981E+04  0.50400001928E-02 0. -1.
    10030    2    1    2    0    0  0.00000000000E+00  0.00000000000E+00  0.16813381527E+04  0.40731963489E+04  0.37099906352E+04 0.  0.
        5    1    3    3  502    0 -0.15886163866E+04 -0.64655128055E+03  0.64915610050E+02  0.17163818656E+04  0.46999998093E+01 0. -1.
       -5    1    3    3    0  502  0.15886163866E+04  0.64655128055E+03  0.16164225426E+04  0.23568144833E+04  0.46999998093E+01 0.  1.
</event>
<event>
 5   0  0.1051123E-06  0.3652113E+04  0.7818609E-02  0.8078658E-01
        2   -1    0    0  501    0  0.00000000000E+00  0.00000000000E+00  0.22874473482E+04  0.22874473482E+04  0.25500000920E-02 0. -1.
       -2   -1    0    0    0  501  0.00000000000E+00  0.00000000000E+00 -0.14577309489E+04  0.14577309489E+04  0.25500000920E-02 0.  1.
    10030    2    1    2    0    0  0.00000000000E+00  0.00000000000E+00  0.82971639933E+03  0.37451782971E+04  0.36521132476E+04 0.  0.
        2    1    3    3  502    0 -0.58282244326E+03  0.79995010074E+03 -0.11588083400E+04  0.15239550298E+04  0.25500000920E-02 0.  1.
       -2    1    3    3    0  502  0.58282244326E+03 -0.79995010074E+03  0.19885247393E+04  0.22212232672E+04  0.25500000920E-02 0. -1.
</event>
<event>
 5   0  0.1051123E-06  0.3651671E+04  0.7818609E-02  0.8078757E-01
        2   -1    0    0  501    0  0.00000000000E+00  0.00000000000E+00  0.22612237023E+04  0.22612237023E+04  0.25500000920E-02 0. -1.
       -2   -1    0    0    0  501  0.00000000000E+00  0.00000000000E+00 -0.14742790562E+04  0.14742790562E+04  0.25500000920E-02 0.  1.
    10030    2    1    2    0    0  0.00000000000E+00  0.00000000000E+00  0.78694464612E+03  0.37355027586E+04  0.36516707112E+04 0.  0.
        2    1    3    3  502    0  0.17962765702E+04  0.32223927243E+03  0.33536078839E+03  0.18555092357E+04  0.25500000920E-02 0.  1.
       -2    1    3    3    0  502 -0.17962765702E+04 -0.32223927243E+03  0.45158385773E+03  0.18799935229E+04  0.25500000920E-02 0. -1.
</event>
<event>
 5   0  0.1128166E-06  0.3836950E+04  0.7818609E-02  0.8038272E-01
        2   -1    0    0  501    0  0.00000000000E+00  0.00000000000E+00  0.17666461368E+04  0.17666461368E+04  0.25500000920E-02 0.  1.
       -2   -1    0    0    0  501  0.00000000000E+00  0.00000000000E+00 -0.20833520825E+04  0.20833520825E+04  0.25500000920E-02 0. -1.
    10030    2    1    2    0    0  0.00000000000E+00  0.00000000000E+00 -0.31670594570E+03  0.38499982193E+04  0.38369497824E+04 0.  0.
        3    1    3    3  502    0 -0.20284296845E+03 -0.18721288732E+04 -0.52638924129E+03  0.19552742599E+04  0.10100000352E+00 0.  1.
       -3    1    3    3    0  502  0.20284296845E+03  0.18721288732E+04  0.20968329558E+03  0.18947239594E+04  0.10100000352E+00 0. -1.
</event>
<event>
 5   0  0.1066907E-06  0.2397697E+04  0.7818609E-02  0.8440366E-01
        2   -1    0    0  501    0  0.00000000000E+00  0.00000000000E+00  0.10336360552E+04  0.10336360552E+04  0.25500000920E-02 0.  1.
       -2   -1    0    0    0  501  0.00000000000E+00  0.00000000000E+00 -0.13904678467E+04  0.13904678467E+04  0.25500000920E-02 0. -1.
    10030    2    1    2    0    0  0.00000000000E+00  0.00000000000E+00 -0.35683179148E+03  0.24241039018E+04  0.23976969782E+04 0.  0.
        4    1    3    3  502    0 -0.94398337624E+03  0.30430115256E+03  0.50244914652E+03  0.11118275783E+04  0.12699999809E+01 0.  1.
       -4    1    3    3    0  502  0.94398337624E+03 -0.30430115256E+03 -0.85928093800E+03  0.13122763236E+04  0.12699999809E+01 0. -1.
</event>
<event>
 5   0  0.3704306E-07  0.3092522E+04  0.7818609E-02  0.8217793E-01
       -1   -1    0    0    0  501  0.00000000000E+00  0.00000000000E+00  0.16007879638E+04  0.16007879638E+04  0.50400001928E-02 0. -1.
        1   -1    0    0  501    0  0.00000000000E+00  0.00000000000E+00 -0.14935917695E+04  0.14935917696E+04  0.50400001928E-02 0.  1.
    10030    2    1    2    0    0  0.00000000000E+00  0.00000000000E+00  0.10719619423E+03  0.30943797333E+04  0.30925224187E+04 0.  0.
        3    1    3    3  502    0  0.35997965329E+03 -0.14399831797E+04 -0.38000591500E+03  0.15321688596E+04  0.10100000352E+00 0.  1.
       -3    1    3    3    0  502 -0.35997965329E+03  0.14399831797E+04  0.48720210922E+03  0.15622108738E+04  0.10100000352E+00 0. -1.
</event>
<event>
 5   0  0.1066907E-06  0.3720170E+04  0.7818609E-02  0.8063507E-01
        2   -1    0    0  501    0  0.00000000000E+00  0.00000000000E+00  0.27426235027E+04  0.27426235027E+04  0.25500000920E-02 0. -1.
       -2   -1    0    0    0  501  0.00000000000E+00  0.00000000000E+00 -0.12615353259E+04  0.12615353259E+04  0.25500000920E-02 0.  1.
    10030    2    1    2    0    0  0.00000000000E+00  0.00000000000E+00  0.14810881769E+04  0.40041588286E+04  0.37201701220E+04 0.  0.
        4    1    3    3  502    0  0.13097208249E+04 -0.13039192547E+04  0.96719113180E+03  0.20859133156E+04  0.12699999809E+01 0. -1.
       -4    1    3    3    0  502 -0.13097208249E+04  0.13039192547E+04  0.51389704507E+03  0.19182455129E+04  0.12699999809E+01 0.  1.
</event>
<event>
 5   0  0.3764495E-07  0.3812169E+04  0.7818609E-02  0.8043549E-01
        1   -1    0    0  501    0  0.00000000000E+00  0.00000000000E+00  0.25078846146E+04  0.25078846146E+04  0.50400001928E-02 0.  1.
       -1   -1    0    0    0  501  0.00000000000E+00  0.00000000000E+00 -0.14486941196E+04  0.14486941196E+04  0.50400001928E-02 0. -1.
    10030    2    1    2    0    0  0.00000000000E+00  0.00000000000E+00  0.10591904950E+04  0.39565787343E+04  0.38121687759E+04 0.  0.
        4    1    3    3  502    0  0.39008675924E+03  0.63446757811E+03 -0.12914175146E+04  0.14907976379E+04  0.12699999809E+01 0. -1.
       -4    1    3    3    0  502 -0.39008675924E+03 -0.63446757811E+03  0.23506080096E+04  0.24657810963E+04  0.12699999809E+01 0.  1.
</event>
<event>
 5   0  0.1092116E-06  0.3631170E+04  0.7818609E-02  0.8083389E-01
        2   -1    0    0  501    0  0.00000000000E+00  0.00000000000E+00  0.19976888080E+04  0.19976888080E+04  0.25500000920E-02 0.  1.
       -2   -1    0    0    0  501  0.00000000000E+00  0.00000000000E+00 -0.16500815990E+04  0.16500815990E+04  0.25500000920E-02 0. -1.
    10030    2    1    2    0    0  0.00000000000E+00  0.00000000000E+00  0.34760720907E+03  0.36477704070E+04  0.36311703582E+04 0.  0.
        1    1    3    3  502    0 -0.16429546643E+04 -0.50841927729E+03  0.75832212802E+03  0.18795857630E+04  0.50400001928E-02 0. -1.
       -1    1    3    3    0  502  0.16429546643E+04  0.50841927729E+03 -0.41071491895E+03  0.17681846440E+04  0.50400001928E-02 0.  1.
</event>
<event>
 5   0  0.3675819E-07  0.3679837E+04  0.7818609E-02  0.8072445E-01
       -1   -1    0    0    0  501  0.00000000000E+00  0.00000000000E+00  0.16812149288E+04  0.16812149288E+04  0.50400001928E-02 0.  1.
        1   -1    0    0  501    0  0.00000000000E+00  0.00000000000E+00 -0.20136033684E+04  0.20136033684E+04  0.50400001928E-02 0. -1.
    10030    2    1    2    0    0  0.00000000000E+00  0.00000000000E+00 -0.33238843957E+03  0.36948182973E+04  0.36798369767E+04 0.  0.
        5    1    3    3  502    0  0.62286311614E+03 -0.12877611307E+04 -0.13280528734E+04  0.19519307661E+04  0.46999998093E+01 0. -1.
       -5    1    3    3    0  502 -0.62286311614E+03  0.12877611307E+04  0.99566443382E+03  0.17428875311E+04  0.46999998093E+01 0.  1.
</event>
<event>
 5   0  0.1128166E-06  0.3733571E+04  0.7818609E-02  0.8060563E-01
        2   -1    0    0  501    0  0.00000000000E+00  0.00000000000E+00  0.16056534694E+04  0.16056534694E+04  0.25500000920E-02 0. -1.
       -2   -1    0    0    0  501  0.00000000000E+00  0.00000000000E+00 -0.21703858136E+04  0.21703858136E+04  0.25500000920E-02 0.  1.
    10030    2    1    2    0    0  0.00000000000E+00  0.00000000000E+00 -0.56473234424E+03  0.37760392830E+04  0.37335706832E+04 0.  0.
        3    1    3    3  502    0 -0.91838294858E+03  0.13712151770E+04  0.60004265806E+03  0.17560494024E+04  0.10100000352E+00 0. -1.
       -3    1    3    3    0  502  0.91838294858E+03 -0.13712151770E+04 -0.11647750023E+04  0.20199898807E+04  0.10100000352E+00 0.  1.
</event>
<event>
 5   0  0.3675819E-07  0.2491415E+04  0.7818609E-02  0.8406050E-01
        1   -1    0    0  501    0  0.00000000000E+00  0.00000000000E+00  0.17515405634E+04  0.17515405634E+04  0.50400001928E-02 0. -1.
       -1   -1    0    0    0  501  0.00000000000E+00  0.00000000000E+00 -0.88595569290E+03  0.88595569291E+03  0.50400001928E-02 0.  1.
    10030    2    1    2    0    0  0.00000000000E+00  0.00000000000E+00  0.86558487050E+03  0.26374962563E+04  0.24914151268E+04 0.  0.
        5    1    3    3  502    0  0.95063697463E+03  0.59191190619E+02  0.12827052832E+04  0.15976761838E+04  0.46999998093E+01 0. -1.
       -5    1    3    3    0  502 -0.95063697463E+03 -0.59191190619E+02 -0.41712041272E+03  0.10398200726E+04  0.46999998093E+01 0.  1.
</event>
<event>
 5   0  0.1092116E-06  0.3744501E+04  0.7818609E-02  0.8058171E-01
        2   -1    0    0  501    0  0.00000000000E+00  0.00000000000E+00  0.23505828800E+04  0.23505828800E+04  0.25500000920E-02 0.  1.
       -2   -1    0    0    0  501  0.00000000000E+00  0.00000000000E+00 -0.14912562782E+04  0.14912562782E+04  0.25500000920E-02 0. -1.
    10030    2    1    2    0    0  0.00000000000E+00  0.00000000000E+00  0.85932660182E+03  0.38418391582E+04  0.37445007556E+04 0.  0.
        1    1    3    3  502    0  0.49707662256E+03 -0.16844729783E+04 -0.23588022281E+03  0.17720535722E+04  0.50400001928E-02 0. -1.
       -1    1    3    3    0  502 -0.49707662256E+03  0.16844729783E+04  0.10952068246E+04  0.20697855860E+04  0.50400001928E-02 0.  1.
</event>
<event>
 5   0  0.1128166E-06  0.3540337E+04  0.7818609E-02  0.8104297E-01
       -2   -1    0    0    0  501  0.00000000000E+00  0.00000000000E+00  0.18906496711E+04  0.18906496711E+04  0.25500000920E-02 0.  1.
        2   -1    0    0  501    0  0.00000000000E+00  0.00000000000E+00 -0.16573649478E+04  0.16573649478E+04  0.25500000920E-02 0. -1.
    10030    2    1    2    0    0  0.00000000000E+00  0.00000000000E+00  0.23328472329E+03  0.35480146189E+04  0.35403369859E+04 0.  0.
        3    1    3    3  502    0 -0.79701621182E+03 -0.28588836593E+03 -0.14412478461E+04  0.16715748155E+04  0.10100000352E+00 0. -1.
       -3    1    3    3    0  502  0.79701621182E+03  0.28588836593E+03  0.16745325694E+04  0.18764398034E+04  0.10100000352E+00 0.  1.
</event>
<event>
 5   0  0.3764495E-07  0.3736824E+04  0.7818609E-02  0.8059850E-01
        1   -1    0    0  501    0  0.00000000000E+00  0.00000000000E+00  0.24569308414E+04  0.24569308414E+04  0.50400001928E-02 0. -1.
       -1   -1    0    0    0  501  0.00000000000E+00  0.00000000000E+00 -0.14208633277E+04  0.14208633277E+04  0.50400001928E-02 0.  1.
    10030    2    1    2    0    0  0.00000000000E+00  0.00000000000E+00  0.10360675137E+04  0.38777941691E+04  0.37368237482E+04 0.  0.
        4    1    3    3  502    0 -0.11080812140E+04 -0.78720484789E+03  0.18483570593E+04  0.22943323388E+04  0.12699999809E+01 0. -1.
       -4    1    3    3    0  502  0.11080812140E+04  0.78720484789E+03 -0.81228954555E+03  0.15834618303E+04  0.12699999809E+01 0.  1.
</event>
<event>
 5   0  0.3764495E-07  0.3708330E+04  0.7818609E-02  0.8066118E-01
        1   -1    0    0  501    0  0.00000000000E+00  0.00000000000E+00  0.24312558786E+04  0.24312558786E+04  0.50400001928E-02 0. -1.
       -1   -1    0    0    0  501  0.00000000000E+00  0.00000000000E+00 -0.14140543905E+04  0.14140543905E+04  0.50400001928E-02 0.  1.
    10030    2    1    2    0    0  0.00000000000E+00  0.00000000000E+00  0.10172014881E+04  0.38453102692E+04  0.37083301092E+04 0.  0.
        4    1    3    3  502    0  0.33014353776E+03 -0.14168434912E+03  0.23948193068E+04  0.24216172975E+04  0.12699999809E+01 0. -1.
       -4    1    3    3    0  502 -0.33014353776E+03  0.14168434912E+03 -0.13776178187E+04  0.14236929717E+04  0.12699999809E+01 0.  1.
</event>
<event>
 5   0  0.1066907E-06  0.3692119E+04  0.7818609E-02  0.8069711E-01
        2   -1    0    0  501    0  0.00000000000E+00  0.00000000000E+00  0.24394834764E+04  0.24394834764E+04  0.25500000920E-02 0.  1.
       -2   -1    0    0    0  501  0.00000000000E+00  0.00000000000E+00 -0.13969904848E+04  0.13969904848E+04  0.25500000920E-02 0. -1.
    10030    2    1    2    0    0  0.00000000000E+00  0.00000000000E+00  0.10424929916E+04  0.38364739612E+04  0.36921187437E+04 0.  0.
        4    1    3    3  502    0 -0.11105638599E+04  0.12096275446E+04  0.13976583578E+04  0.21563861856E+04  0.12699999809E+01 0.  1.
       -4    1    3    3    0  502  0.11105638599E+04 -0.12096275446E+04 -0.35516536616E+03  0.16800877756E+04  0.12699999809E+01 0. -1.
</event>
<event>
 5   0  0.1092116E-06  0.3710593E+04  0.7818609E-02  0.8065618E-01
        2   -1    0    0  501    0  0.00000000000E+00  0.00000000000E+00  0.13740961219E+04  0.13740961219E+04  0.25500000920E-02 0.  1.
       -2   -1    0    0    0  501  0.00000000000E+00  0.00000000000E+00 -0.25050103454E+04  0.25050103454E+04  0.25500000920E-02 0. -1.
    10030    2    1    2    0    0  0.00000000000E+00  0.00000000000E+00 -0.11309142235E+04  0.38791064672E+04  0.37105929450E+04 0.  0.
        1    1    3    3  502    0 -0.14090839648E+04 -0.81069849280E+03 -0.15001388486E+04  0.22120502325E+04  0.50400001928E-02 0. -1.
       -1    1    3    3    0  502  0.14090839648E+04  0.81069849280E+03  0.36922462509E+03  0.16670562347E+04  0.50400001928E-02 0.  1.
</event>
<event>
 5   0  0.3682276E-07  0.3653492E+04  0.7818609E-02  0.8078347E-01
       -1   -1    0    0    0  501  0.00000000000E+00  0.00000000000E+00  0.21492827380E+04  0.21492827380E+04  0.50400001928E-02 0. -1.
        1   -1    0    0  501    0  0.00000000000E+00  0.00000000000E+00 -0.15526113835E+04  0.15526113835E+04  0.50400001928E-02 0.  1.
    10030    2    1    2    0    0  0.00000000000E+00  0.00000000000E+00  0.59667135452E+03  0.37018941215E+04  0.36534919435E+04 0.  0.
        1    1    3    3  502    0 -0.87121696761E+03  0.35890339573E+03 -0.12873800075E+04  0.15953613810E+04  0.50400001928E-02 0.  1.
       -1    1    3    3    0  502  0.87121696761E+03 -0.35890339573E+03  0.18840513620E+04  0.21065327405E+04  0.50400001928E-02 0. -1.
</event>
<event>
 5   0  0.1128530E-06  0.3622497E+04  0.7818609E-02  0.8085358E-01
       -2   -1    0    0    0  501  0.00000000000E+00  0.00000000000E+00  0.12655916710E+04  0.12655916710E+04  0.25500000920E-02 0.  1.
        2   -1    0    0  501    0  0.00000000000E+00  0.00000000000E+00 -0.25921645597E+04  0.25921645597E+04  0.25500000920E-02 0. -1.
    10030    2    1    2    0    0  0.00000000000E+00  0.00000000000E+00 -0.13265728886E+04  0.38577562307E+04  0.36224974129E+04 0.  0.
        5    1    3    3  502    0 -0.67147623483E+03  0.51894172475E+03  0.10407630818E+04  0.13429038425E+04  0.46999998093E+01 0.  1.
       -5    1    3    3    0  502  0.67147623483E+03 -0.51894172475E+03 -0.23673359704E+04  0.25148523882E+04  0.46999998093E+01 0. -1.
</event>
<event>
 5   0  0.3764495E-07  0.3050565E+04  0.7818609E-02  0.8229437E-01
        1   -1    0    0  501    0  0.00000000000E+00  0.00000000000E+00  0.90385579666E+03  0.90385579667E+03  0.50400001928E-02 0.  1.
       -1   -1    0    0    0  501  0.00000000000E+00  0.00000000000E+00 -0.25739584210E+04  0.25739584210E+04  0.50400001928E-02 0. -1.
    10030    2    1    2    0    0  0.00000000000E+00  0.00000000000E+00 -0.16701026243E+04  0.34778142176E+04  0.30505653503E+04 0.  0.
        4    1    3    3  502    0  0.32344859019E+03  0.12091386668E+04 -0.18288308973E+04  0.22161361353E+04  0.12699999809E+01 0.  1.
       -4    1    3    3    0  502 -0.32344859019E+03 -0.12091386668E+04  0.15872827302E+03  0.12616780824E+04  0.12699999809E+01 0. -1.
</event>
<event>
 5   0  0.3675819E-07  0.3684599E+04  0.7818609E-02  0.8071384E-01
        1   -1    0    0  501    0  0.00000000000E+00  0.00000000000E+00  0.12915236978E+04  0.12915236978E+04  0.50400001928E-02 0.  1.
       -1   -1    0    0    0  501  0.00000000000E+00  0.00000000000E+00 -0.26279554148E+04  0.26279554148E+04  0.50400001928E-02 0. -1.
    10030    2    1    2    0    0  0.00000000000E+00  0.00000000000E+00 -0.13364317171E+04  0.39194791126E+04  0.36845985914E+04 0.  0.
        5    1    3    3  502    0 -0.54632654566E+03 -0.14180277906E+04  0.43970011670E+03  0.15819714890E+04  0.46999998093E+01 0.  1.
       -5    1    3    3    0  502  0.54632654566E+03  0.14180277906E+04 -0.17761318338E+04  0.23375076236E+04  0.46999998093E+01 0. -1.
</event>
<event>
 5   0  0.3848431E-07  0.3684276E+04  0.7818609E-02  0.8071455E-01
        1   -1    0    0  501    0  0.00000000000E+00  0.00000000000E+00  0.23856448135E+04  0.23856448135E+04  0.50400001928E-02 0.  1.
       -1   -1    0    0    0  501  0.00000000000E+00  0.00000000000E+00 -0.14224549026E+04  0.14224549026E+04  0.50400001928E-02 0. -1.
    10030    2    1    2    0    0  0.00000000000E+00  0.00000000000E+00  0.96318991083E+03  0.38080997161E+04  0.36842758642E+04 0.  0.
        2    1    3    3  502    0 -0.71363025744E+03 -0.39333853956E+03 -0.12260470531E+04  0.14721327139E+04  0.25500000920E-02 0. -1.
       -2    1    3    3    0  502  0.71363025744E+03  0.39333853956E+03  0.21892369639E+04  0.23359670022E+04  0.25500000920E-02 0.  1.
</event>
<event>
 5   0  0.1066907E-06  0.3688592E+04  0.7818609E-02  0.8070495E-01
       -2   -1    0    0    0  501  0.00000000000E+00  0.00000000000E+00  0.24584284387E+04  0.24584284387E+04  0.25500000920E-02 0. -1.
        2   -1    0    0  501    0  0.00000000000E+00  0.00000000000E+00 -0.13835778598E+04  0.13835778598E+04  0.25500000920E-02 0.  1.
    10030    2    1    2    0    0  0.00000000000E+00  0.00000000000E+00  0.10748505789E+04  0.38420062984E+04  0.36885916866E+04 0.  0.
        4    1    3    3  502    0  0.20982726868E+02  0.84794927687E+03  0.22432100420E+04  0.23982183296E+04  0.12699999809E+01 0. -1.
       -4    1    3    3    0  502 -0.20982726868E+02 -0.84794927687E+03 -0.11683594631E+04  0.14437879688E+04  0.12699999809E+01 0.  1.
</event>
<event>
 5   0  0.3682276E-07  0.3709590E+04  0.7818609E-02  0.8065840E-01
        1   -1    0    0  501    0  0.00000000000E+00  0.00000000000E+00  0.13185275484E+04  0.13185275484E+04  0.50400001928E-02 0.  1.
       -1   -1    0    0    0  501  0.00000000000E+00  0.00000000000E+00 -0.26091717476E+04  0.26091717476E+04  0.50400001928E-02 0. -1.
    10030    2    1    2    0    0  0.00000000000E+00  0.00000000000E+00 -0.12906441993E+04  0.39276992960E+04  0.37095901810E+04 0.  0.
        1    1    3    3  502    0  0.60126118333E+03 -0.11078121560E+04  0.79538068462E+03  0.14904339023E+04  0.50400001928E-02 0.  1.
       -1    1    3    3    0  502 -0.60126118333E+03  0.11078121560E+04 -0.20860248839E+04  0.24372653938E+04  0.50400001928E-02 0. -1.
</event>
<event>
 5   0  0.3675819E-07  0.3684913E+04  0.7818609E-02  0.8071313E-01
       -1   -1    0    0    0  501  0.00000000000E+00  0.00000000000E+00  0.13094937594E+04  0.13094937595E+04  0.50400001928E-02 0. -1.
        1   -1    0    0  501    0  0.00000000000E+00  0.00000000000E+00 -0.25923349335E+04  0.25923349335E+04  0.50400001928E-02 0.  1.
    10030    2    1    2    0    0  0.00000000000E+00  0.00000000000E+00 -0.12828411740E+04  0.39018286929E+04  0.36849132515E+04 0.  0.
        5    1    3    3  502    0 -0.47710530193E+03 -0.82588376555E+03 -0.23105743165E+04  0.24996978269E+04  0.46999998093E+01 0.  1.
       -5    1    3    3    0  502  0.47710530193E+03  0.82588376555E+03  0.10277331425E+04  0.14021308661E+04  0.46999998093E+01 0. -1.
</event>
<event>
 5   0  0.1051123E-06  0.3696065E+04  0.7818609E-02  0.8068834E-01
       -2   -1    0    0    0  501  0.00000000000E+00  0.00000000000E+00  0.14181656631E+04  0.14181656631E+04  0.25500000920E-02 0. -1.
        2   -1    0    0  501    0  0.00000000000E+00  0.00000000000E+00 -0.24081982417E+04  0.24081982417E+04  0.25500000920E-02 0.  1.
    10030    2    1    2    0    0  0.00000000000E+00  0.00000000000E+00 -0.99003257861E+03  0.38263639049E+04  0.36960649650E+04 0.  0.
        2    1    3    3  502    0 -0.13605874283E+04  0.19267213714E+03  0.78422494412E+03  0.15821913492E+04  0.25500000920E-02 0.  1.
       -2    1    3    3    0  502  0.13605874283E+04 -0.19267213714E+03 -0.17742575227E+04  0.22441725556E+04  0.25500000920E-02 0. -1.
</event>
<event>
 5   0  0.1066907E-06  0.3749969E+04  0.7818609E-02  0.8056978E-01
       -2   -1    0    0    0  501  0.00000000000E+00  0.00000000000E+00  0.18207122185E+04  0.18207122185E+04  0.25500000920E-02 0. -1.
        2   -1    0    0  501    0  0.00000000000E+00  0.00000000000E+00 -0.19308742143E+04  0.19308742143E+04  0.25500000920E-02 0.  1.
    10030    2    1    2    0    0  0.00000000000E+00  0.00000000000E+00 -0.11016199585E+03  0.37515864328E+04  0.37499686796E+04 0.  0.
        4    1    3    3  502    0  0.40815244860E+03  0.17902217059E+04 -0.43482673709E+03  0.18869441120E+04  0.12699999809E+01 0.  1.
       -4    1    3    3    0  502 -0.40815244860E+03 -0.17902217059E+04  0.32466474124E+03  0.18646423208E+04  0.12699999809E+01 0. -1.
</event>
<event>
 5   0  0.3675819E-07  0.2547627E+04  0.7818609E-02  0.8386212E-01
       -1   -1    0    0    0  501  0.00000000000E+00  0.00000000000E+00  0.78820276972E+03  0.78820276973E+03  0.50400001928E-02 0.  1.
        1   -1    0    0  501    0  0.00000000000E+00  0.00000000000E+00 -0.20586086158E+04  0.20586086158E+04  0.50400001928E-02 0. -1.
    10030    2    1    2    0    0  0.00000000000E+00  0.00000000000E+00 -0.12704058461E+04  0.28468113856E+04  0.25476271413E+04 0.  0.
        5    1    3    3  502    0 -0.44228317663E+03  0.65327795605E+02  0.69764010143E+03  0.82861687789E+03  0.46999998093E+01 0.  1.
       -5    1    3    3    0  502  0.44228317663E+03 -0.65327795605E+02 -0.19680459475E+04  0.20181945077E+04  0.46999998093E+01 0. -1.
</event>
<event>
 5   0  0.1066907E-06  0.3233445E+04  0.7818609E-02  0.8180040E-01
        2   -1    0    0  501    0  0.00000000000E+00  0.00000000000E+00  0.25796576010E+04  0.25796576010E+04  0.25500000920E-02 0. -1.
       -2   -1    0    0    0  501  0.00000000000E+00  0.00000000000E+00 -0.10132322390E+04  0.10132322390E+04  0.25500000920E-02 0.  1.
    10030    2    1    2    0    0  0.00000000000E+00  0.00000000000E+00  0.15664253621E+04  0.35928898400E+04  0.32334453741E+04 0.  0.
        4    1    3    3  502    0 -0.78695941142E+02 -0.60660211418E+03 -0.87968930814E+03  0.10714541837E+04  0.12699999809E+01 0.  1.
       -4    1    3    3    0  502  0.78695941142E+02  0.60660211418E+03  0.24461146702E+04  0.25214356563E+04  0.12699999809E+01 0. -1.
</event>
<event>
 5   0  0.3848431E-07  0.2657017E+04  0.7818609E-02  0.8349088E-01
       -1   -1    0    0    0  501  0.00000000000E+00  0.00000000000E+00  0.16752714917E+04  0.16752714917E+04  0.50400001928E-02 0.  1.
        1   -1    0    0  501    0  0.00000000000E+00  0.00000000000E+00 -0.10535216322E+04  0.10535216322E+04  0.50400001928E-02 0. -1.
    10030    2    1    2    0    0  0.00000000000E+00  0.00000000000E+00  0.62174985955E+03  0.27287931239E+04  0.26570169411E+04 0.  0.
        2    1    3    3  502    0 -0.10277667770E+02 -0.81445084789E+03  0.13887497602E+04  0.16099881088E+04  0.25500000920E-02 0.  1.
       -2    1    3    3    0  502  0.10277667770E+02  0.81445084789E+03 -0.76699990068E+03  0.11188050151E+04  0.25500000920E-02 0. -1.
</event>
<event>
 5   0  0.1128530E-06  0.2984813E+04  0.7818609E-02  0.8248081E-01
        2   -1    0    0  501    0  0.00000000000E+00  0.00000000000E+00  0.13947338012E+04  0.13947338012E+04  0.25500000920E-02 0.  1.
       -2   -1    0    0    0  501  0.00000000000E+00  0.00000000000E+00 -0.15969188352E+04  0.15969188352E+04  0.25500000920E-02 0. -1.
    10030    2    1    2    0    0  0.00000000000E+00  0.00000000000E+00 -0.20218503401E+03  0.29916526363E+04  0.29848126756E+04 0.  0.
        5    1    3    3  502    0  0.12760694530E+04 -0.63695289138E+03  0.33945123961E+03  0.14660530239E+04  0.46999998093E+01 0.  1.
       -5    1    3    3    0  502 -0.12760694530E+04  0.63695289138E+03 -0.54163627362E+03  0.15255996125E+04  0.46999998093E+01 0. -1.
</event>
<event>
 5   0  0.3764495E-07  0.3673216E+04  0.7818609E-02  0.8073923E-01
        1   -1    0    0  501    0  0.00000000000E+00  0.00000000000E+00  0.23815410488E+04  0.23815410488E+04  0.50400001928E-02 0. -1.
       -1   -1    0    0    0  501  0.00000000000E+00  0.00000000000E+00 -0.14163640852E+04  0.14163640852E+04  0.50400001928E-02 0.  1.
    10030    2    1    2    0    0  0.00000000000E+00  0.00000000000E+00  0.96517696360E+03  0.37979051341E+04  0.36732161434E+04 0.  0.
        4    1    3    3  502    0 -0.12415985286E+03 -0.57219727090E+03 -0.13172792853E+04  0.14415449054E+04  0.12699999809E+01 0.  1.
       -4    1    3    3    0  502  0.12415985286E+03  0.57219727090E+03  0.22824562489E+04  0.23563602286E+04  0.12699999809E+01 0. -1.
</event>
<event>
 5   0  0.1128166E-06  0.3784552E+04  0.7818609E-02  0.8049478E-01
        2   -1    0    0  501    0  0.00000000000E+00  0.00000000000E+00  0.19743660115E+04  0.19743660115E+04  0.25500000920E-02 0.  1.
       -2   -1    0    0    0  501  0.00000000000E+00  0.00000000000E+00 -0.18135988596E+04  0.18135988597E+04  0.25500000920E-02 0. -1.
    10030    2    1    2    0    0  0.00000000000E+00  0.00000000000E+00  0.16076715183E+03  0.37879648711E+04  0.37845517288E+04 0.  0.
        3    1    3    3  502    0  0.77970039478E+03  0.12774999062E+04  0.12393437513E+04  0.19431705175E+04  0.10100000352E+00 0.  1.
       -3    1    3    3    0  502 -0.77970039478E+03 -0.12774999062E+04 -0.10785765995E+04  0.18447943536E+04  0.10100000352E+00 0. -1.
</event>
<event>
 5   0  0.3848431E-07  0.3769580E+04  0.7818609E-02  0.8052715E-01
       -1   -1    0    0    0  501  0.00000000000E+00  0.00000000000E+00  0.14059854656E+04  0.14059854656E+04  0.50400001928E-02 0. -1.
        1   -1    0    0  501    0  0.00000000000E+00  0.00000000000E+00 -0.25266499936E+04  0.25266499936E+04  0.50400001928E-02 0.  1.
    10030    2    1    2    0    0  0.00000000000E+00  0.00000000000E+00 -0.11206645280E+04  0.39326354592E+04  0.37695799064E+04 0.  0.
        2    1    3    3  502    0 -0.10148818388E+04  0.15125898297E+04 -0.55112064689E+02  0.18223475188E+04  0.25500000920E-02 0. -1.
       -2    1    3    3    0  502  0.10148818388E+04 -0.15125898297E+04 -0.10655524634E+04  0.21102879405E+04  0.25500000920E-02 0.  1.
</event>
<event>
 5   0  0.1051123E-06  0.3294576E+04  0.7818609E-02  0.8164277E-01
        2   -1    0    0  501    0  0.00000000000E+00  0.00000000000E+00  0.27504450708E+04  0.27504450708E+04  0.25500000920E-02 0.  1.
       -2   -1    0    0    0  501  0.00000000000E+00  0.00000000000E+00 -0.98658854032E+03  0.98658854032E+03  0.25500000920E-02 0. -1.
    10030    2    1    2    0    0  0.00000000000E+00  0.00000000000E+00  0.17638565305E+04  0.37370336111E+04  0.32945758984E+04 0.  0.
        2    1    3    3  502    0  0.14396950839E+04  0.68689111485E+03  0.13482565060E+04  0.20886208235E+04  0.25500000920E-02 0. -1.
       -2    1    3    3    0  502 -0.14396950839E+04 -0.68689111485E+03  0.41560002449E+03  0.16484127877E+04  0.25500000920E-02 0.  1.
</event>
<event>
 5   0  0.1066907E-06  0.3625911E+04  0.7818609E-02  0.8084582E-01
       -2   -1    0    0    0  501  0.00000000000E+00  0.00000000000E+00  0.24906191430E+04  0.24906191430E+04  0.25500000920E-02 0. -1.
        2   -1    0    0  501    0  0.00000000000E+00  0.00000000000E+00 -0.13196747541E+04  0.13196747542E+04  0.25500000920E-02 0.  1.
    10030    2    1    2    0    0  0.00000000000E+00  0.00000000000E+00  0.11709443889E+04  0.38102938972E+04  0.36259107575E+04 0.  0.
        4    1    3    3  502    0 -0.84204152685E+03  0.10784912745E+03 -0.10979054545E+04  0.13878268506E+04  0.12699999809E+01 0.  1.
       -4    1    3    3    0  502  0.84204152685E+03 -0.10784912745E+03  0.22688498434E+04  0.24224670466E+04  0.12699999809E+01 0. -1.
</event>
<event>
 5   0  0.1128530E-06  0.3467981E+04  0.7818609E-02  0.8121420E-01
        2   -1    0    0  501    0  0.00000000000E+00  0.00000000000E+00  0.27527121557E+04  0.27527121557E+04  0.25500000920E-02 0. -1.
       -2   -1    0    0    0  501  0.00000000000E+00  0.00000000000E+00 -0.10922765990E+04  0.10922765990E+04  0.25500000920E-02 0.  1.
    10030    2    1    2    0    0  0.00000000000E+00  0.00000000000E+00  0.16604355567E+04  0.38449887548E+04  0.34679810101E+04 0.  0.
        5    1    3    3  502    0  0.43211128712E+03  0.14781747367E+04 -0.53265791040E+02  0.15409672453E+04  0.46999998093E+01 0.  1.
       -5    1    3    3    0  502 -0.43211128712E+03 -0.14781747367E+04  0.17137013477E+04  0.23040215094E+04  0.46999998093E+01 0. -1.
</event>
<event>
 5   0  0.3682276E-07  0.3708072E+04  0.7818609E-02  0.8066175E-01
       -1   -1    0    0    0  501  0.00000000000E+00  0.00000000000E+00  0.13258878261E+04  0.13258878261E+04  0.50400001928E-02 0. -1.
        1   -1    0    0  501    0  0.00000000000E+00  0.00000000000E+00 -0.25925649899E+04  0.25925649899E+04  0.50400001928E-02 0.  1.
    10030    2    1    2    0    0  0.00000000000E+00  0.00000000000E+00 -0.12666771638E+04  0.39184528160E+04  0.37080724688E+04 0.  0.
        1    1    3    3  502    0 -0.16959771589E+04  0.61460627467E+03 -0.10858522381E+04  0.21055057538E+04  0.50400001928E-02 0.  1.
       -1    1    3    3    0  502  0.16959771589E+04 -0.61460627467E+03 -0.18082492572E+03  0.18129470622E+04  0.50400001928E-02 0. -1.
</event>
<event>
 5   0  0.3848431E-07  0.3747287E+04  0.7818609E-02  0.8057562E-01
       -1   -1    0    0    0  501  0.00000000000E+00  0.00000000000E+00  0.20362779344E+04  0.20362779344E+04  0.50400001928E-02 0. -1.
        1   -1    0    0  501    0  0.00000000000E+00  0.00000000000E+00 -0.17239987616E+04  0.17239987616E+04  0.50400001928E-02 0.  1.
    10030    2    1    2    0    0  0.00000000000E+00  0.00000000000E+00  0.31227917273E+03  0.37602766960E+04  0.37472873587E+04 0.  0.
        2    1    3    3  502    0 -0.12570685881E+04 -0.11184661112E+04  0.98322522013E+03  0.19488252129E+04  0.25500000920E-02 0. -1.
       -2    1    3    3    0  502  0.12570685881E+04  0.11184661112E+04 -0.67094604740E+03  0.18114514831E+04  0.25500000920E-02 0.  1.
</event>
<event>
 5   0  0.1128530E-06  0.3679732E+04  0.7818609E-02  0.8072468E-01
       -2   -1    0    0    0  501  0.00000000000E+00  0.00000000000E+00  0.27661834298E+04  0.27661834298E+04  0.25500000920E-02 0.  1.
        2   -1    0    0  501    0  0.00000000000E+00  0.00000000000E+00 -0.12237466009E+04  0.12237466009E+04  0.25500000920E-02 0. -1.
    10030    2    1    2    0    0  0.00000000000E+00  0.00000000000E+00  0.15424368289E+04  0.39899300308E+04  0.36797323652E+04 0.  0.
        5    1    3    3  502    0 -0.56784929952E+03 -0.12080559244E+04  0.21441454004E+04  0.25257144597E+04  0.46999998093E+01 0.  1.
       -5    1    3    3    0  502  0.56784929952E+03  0.12080559244E+04 -0.60170857157E+03  0.14642155711E+04  0.46999998093E+01 0. -1.
</event>
<event>
 5   0  0.3704306E-07  0.3683613E+04  0.7818609E-02  0.8071603E-01
       -1   -1    0    0    0  501  0.00000000000E+00  0.00000000000E+00  0.22411863793E+04  0.22411863793E+04  0.50400001928E-02 0. -1.
        1   -1    0    0  501    0  0.00000000000E+00  0.00000000000E+00 -0.15135959414E+04  0.15135959415E+04  0.50400001928E-02 0.  1.
    10030    2    1    2    0    0  0.00000000000E+00  0.00000000000E+00  0.72759043783E+03  0.37547823207E+04  0.36836126874E+04 0.  0.
        3    1    3    3  502    0  0.11886006803E+04 -0.39529545283E+03 -0.10125595909E+04  0.16106852602E+04  0.10100000352E+00 0.  1.
       -3    1    3    3    0  502 -0.11886006803E+04  0.39529545283E+03  0.17401500287E+04  0.21440970605E+04  0.10100000352E+00 0. -1.
</event>
<event>
 5   0  0.1092116E-06  0.3705302E+04  0.7818609E-02  0.8066788E-01
       -2   -1    0    0    0  501  0.00000000000E+00  0.00000000000E+00  0.17635846001E+04  0.17635846001E+04  0.25500000920E-02 0.  1.
        2   -1    0    0  501    0  0.00000000000E+00  0.00000000000E+00 -0.19462158144E+04  0.19462158144E+04  0.25500000920E-02 0. -1.
    10030    2    1    2    0    0  0.00000000000E+00  0.00000000000E+00 -0.18263121432E+03  0.37098004145E+04  0.37053022758E+04 0.  0.
        1    1    3    3  502    0 -0.26524018757E+03  0.18330888716E+04 -0.49442948689E+02  0.18528388418E+04  0.50400001928E-02 0.  1.
       -1    1    3    3    0  502  0.26524018757E+03 -0.18330888716E+04 -0.13318826563E+03  0.18569615727E+04  0.50400001928E-02 0. -1.
</event>
<event>
 5   0  0.3682276E-07  0.2691475E+04  0.7818609E-02  0.8337776E-01
        1   -1    0    0  501    0  0.00000000000E+00  0.00000000000E+00  0.18464600288E+04  0.18464600288E+04  0.50400001928E-02 0.  1.
       -1   -1    0    0    0  501  0.00000000000E+00  0.00000000000E+00 -0.98080087314E+03  0.98080087316E+03  0.50400001928E-02 0. -1.
    10030    2    1    2    0    0  0.00000000000E+00  0.00000000000E+00  0.86565915563E+03  0.28272609019E+04  0.26914751409E+04 0.  0.
        1    1    3    3  502    0  0.13144244431E+04  0.19753567148E+03  0.21179114252E+03  0.13459522451E+04  0.50400001928E-02 0.  1.
       -1    1    3    3    0  502 -0.13144244431E+04 -0.19753567148E+03  0.65386801311E+03  0.14813086568E+04  0.50400001928E-02 0. -1.
</event>
<event>
 5   0  0.1092116E-06  0.3583514E+04  0.7818609E-02  0.8094278E-01
        2   -1    0    0  501    0  0.00000000000E+00  0.00000000000E+00  0.23584502826E+04  0.23584502826E+04  0.25500000920E-02 0. -1.
       -2   -1    0    0    0  501  0.00000000000E+00  0.00000000000E+00 -0.13612302694E+04  0.13612302694E+04  0.25500000920E-02 0.  1.
    10030    2    1    2    0    0  0.00000000000E+00  0.00000000000E+00  0.99722001323E+03  0.37196805520E+04  0.35835144278E+04 0.  0.
        1    1    3    3  502    0  0.12195455779E+04  0.25513420289E+02 -0.86368133265E+03  0.14946196157E+04  0.50400001928E-02 0.  1.
       -1    1    3    3    0  502 -0.12195455779E+04 -0.25513420289E+02  0.18609013459E+04  0.22250609363E+04  0.50400001928E-02 0. -1.
</event>
<event>
 5   0  0.1092116E-06  0.3659546E+04  0.7818609E-02  0.8076987E-01
       -2   -1    0    0    0  501  0.00000000000E+00  0.00000000000E+00  0.15437466938E+04  0.15437466938E+04  0.25500000920E-02 0.  1.
        2   -1    0    0  501    0  0.00000000000E+00  0.00000000000E+00 -0.21687945028E+04  0.21687945028E+04  0.25500000920E-02 0. -1.
    10030    2    1    2    0    0  0.00000000000E+00  0.00000000000E+00 -0.62504780902E+03  0.37125411965E+04  0.36595460610E+04 0.  0.
        1    1    3    3  502    0 -0.13305077722E+04 -0.74482037305E+03 -0.13386360622E+04  0.20290280498E+04  0.50400001928E-02 0. -1.
       -1    1    3    3    0  502  0.13305077722E+04  0.74482037305E+03  0.71358825316E+03  0.16835131467E+04  0.50400001928E-02 0.  1.
</event>
<event>
 5   0  0.1128530E-06  0.3713821E+04  0.7818609E-02  0.8064906E-01
        2   -1    0    0  501    0  0.00000000000E+00  0.00000000000E+00  0.12492441086E+04  0.12492441086E+04  0.25500000920E-02 0.  1.
       -2   -1    0    0    0  501  0.00000000000E+00  0.00000000000E+00 -0.27601616662E+04  0.27601616662E+04  0.25500000920E-02 0. -1.
    10030    2    1    2    0    0  0.00000000000E+00  0.00000000000E+00 -0.15109175577E+04  0.40094057748E+04  0.37138205128E+04 0.  0.
        5    1    3    3  502    0  0.29099543644E+03  0.60923526734E+03  0.11120294308E+04  0.13009525356E+04  0.46999998093E+01 0.  1.
       -5    1    3    3    0  502 -0.29099543644E+03 -0.60923526734E+03 -0.26229469884E+04  0.27084532392E+04  0.46999998093E+01 0. -1.
</event>
<event>
 5   0  0.1128166E-06  0.3435107E+04  0.7818609E-02  0.8129343E-01
       -2   -1    0    0    0  501  0.00000000000E+00  0.00000000000E+00  0.18499662100E+04  0.18499662100E+04  0.25500000920E-02 0. -1.
        2   -1    0    0  501    0  0.00000000000E+00  0.00000000000E+00 -0.15946181725E+04  0.15946181725E+04  0.25500000920E-02 0.  1.
    10030    2    1    2    0    0  0.00000000000E+00  0.00000000000E+00  0.25534803757E+03  0.34445843825E+04  0.34351068321E+04 0.  0.
        3    1    3    3  502    0 -0.12312191597E+04  0.72152534871E+03 -0.83072982091E+03  0.16512454371E+04  0.10100000352E+00 0.  1.
       -3    1    3    3    0  502  0.12312191597E+04 -0.72152534871E+03  0.10860778585E+04  0.17933389454E+04  0.10100000352E+00 0. -1.
</event>
<event>
 5   0  0.3764495E-07  0.3684760E+04  0.7818609E-02  0.8071348E-01
       -1   -1    0    0    0  501  0.00000000000E+00  0.00000000000E+00  0.13025706242E+04  0.13025706242E+04  0.50400001928E-02 0.  1.
        1   -1    0    0  501    0  0.00000000000E+00  0.00000000000E+00 -0.26058961552E+04  0.26058961552E+04  0.50400001928E-02 0. -1.
    10030    2    1    2    0    0  0.00000000000E+00  0.00000000000E+00 -0.13033255310E+04  0.39084667794E+04  0.36847598465E+04 0.  0.
        4    1    3    3  502    0  0.15425670646E+04  0.81085779413E+02  0.41342782043E+03  0.15990660487E+04  0.12699999809E+01 0.  1.
       -4    1    3    3    0  502 -0.15425670646E+04 -0.81085779413E+02 -0.17167533515E+04  0.23094007307E+04  0.12699999809E+01 0. -1.
</event>
<event>
 5   0  0.3704306E-07  0.3630851E+04  0.7818609E-02  0.8083461E-01
       -1   -1    0    0    0  501  0.00000000000E+00  0.00000000000E+00  0.12512576932E+04  0.12512576932E+04  0.50400001928E-02 0.  1.
        1   -1    0    0  501    0  0.00000000000E+00  0.00000000000E+00 -0.26339661301E+04  0.26339661301E+04  0.50400001928E-02 0. -1.
    10030    2    1    2    0    0  0.00000000000E+00  0.00000000000E+00 -0.13827084368E+04  0.38852238233E+04  0.36308513514E+04 0.  0.
        3    1    3    3  502    0  0.33014489337E+03  0.13698382018E+04  0.53353251669E+03  0.15066881915E+04  0.10100000352E+00 0.  1.
       -3    1    3    3    0  502 -0.33014489337E+03 -0.13698382018E+04 -0.19162409535E+04  0.23785356318E+04  0.10100000352E+00 0. -1.
</event>
<event>
 5   0  0.3848431E-07  0.3651925E+04  0.7818609E-02  0.8078700E-01
       -1   -1    0    0    0  501  0.00000000000E+00  0.00000000000E+00  0.19030548693E+04  0.19030548693E+04  0.50400001928E-02 0. -1.
        1   -1    0    0  501    0  0.00000000000E+00  0.00000000000E+00 -0.17519935615E+04  0.17519935615E+04  0.50400001928E-02 0.  1.
    10030    2    1    2    0    0  0.00000000000E+00  0.00000000000E+00  0.15106130786E+03  0.36550484308E+04  0.36519254528E+04 0.  0.
        2    1    3    3  502    0 -0.39931011446E+03  0.84090903441E+02 -0.17057722363E+04  0.17539038655E+04  0.25500000920E-02 0.  1.
       -2    1    3    3    0  502  0.39931011446E+03 -0.84090903441E+02  0.18568335441E+04  0.19011445653E+04  0.25500000920E-02 0. -1.
</event>
<event>
 5   0  0.3704306E-07  0.3761296E+04  0.7818609E-02  0.8054512E-01
        1   -1    0    0  501    0  0.00000000000E+00  0.00000000000E+00  0.22059236893E+04  0.22059236893E+04  0.50400001928E-02 0.  1.
       -1   -1    0    0    0  501  0.00000000000E+00  0.00000000000E+00 -0.16033363798E+04  0.16033363798E+04  0.50400001928E-02 0. -1.
    10030    2    1    2    0    0  0.00000000000E+00  0.00000000000E+00  0.60258730947E+03  0.38092600691E+04  0.37612964266E+04 0.  0.
        3    1    3    3  502    0  0.13396919200E+04 -0.86600884520E+03 -0.70744583241E+03  0.17450574135E+04  0.10100000352E+00 0. -1.
       -3    1    3    3    0  502 -0.13396919200E+04  0.86600884520E+03  0.13100331419E+04  0.20642026556E+04  0.10100000352E+00 0.  1.
</event>
<event>
 5   0  0.1066907E-06  0.3802322E+04  0.7818609E-02  0.8045657E-01
       -2   -1    0    0    0  501  0.00000000000E+00  0.00000000000E+00  0.16218668518E+04  0.16218668518E+04  0.25500000920E-02 0.  1.
        2   -1    0    0  501    0  0.00000000000E+00  0.00000000000E+00 -0.22285507410E+04  0.22285507410E+04  0.25500000920E-02 0. -1.
    10030    2    1    2    0    0  0.00000000000E+00  0.00000000000E+00 -0.60668388920E+03  0.38504175928E+04  0.38023216983E+04 0.  0.
        4    1    3    3  502    0  0.17806851449E+03 -0.91667271160E+03  0.13736287003E+04  0.16609800346E+04  0.12699999809E+01 0.  1.
       -4    1    3    3    0  502 -0.17806851449E+03  0.91667271160E+03 -0.19803125895E+04  0.21894375582E+04  0.12699999809E+01 0. -1.
</event>
<event>
 5   0  0.3704306E-07  0.3482580E+04  0.7818609E-02  0.8117931E-01
        1   -1    0    0  501    0  0.00000000000E+00  0.00000000000E+00  0.13291947399E+04  0.13291947399E+04  0.50400001928E-02 0.  1.
       -1   -1    0    0    0  501  0.00000000000E+00  0.00000000000E+00 -0.22811481744E+04  0.22811481744E+04  0.50400001928E-02 0. -1.
    10030    2    1    2    0    0  0.00000000000E+00  0.00000000000E+00 -0.95195343455E+03  0.36103429143E+04  0.34825795924E+04 0.  0.
        3    1    3    3  502    0  0.11755953326E+04  0.94818324105E+03 -0.13743803635E+04  0.20420571095E+04  0.10100000352E+00 0. -1.
       -3    1    3    3    0  502 -0.11755953326E+04 -0.94818324105E+03  0.42242692900E+03  0.15682858047E+04  0.10100000352E+00 0.  1.
</event>
<event>
 5   0  0.1051123E-06  0.3627528E+04  0.7818609E-02  0.8084215E-01
       -2   -1    0    0    0  501  0.00000000000E+00  0.00000000000E+00  0.15097278976E+04  0.15097278976E+04  0.25500000920E-02 0. -1.
        2   -1    0    0  501    0  0.00000000000E+00  0.00000000000E+00 -0.21790282674E+04  0.21790282674E+04  0.25500000920E-02 0.  1.
    10030    2    1    2    0    0  0.00000000000E+00  0.00000000000E+00 -0.66930036979E+03  0.36887561650E+04  0.36275279544E+04 0.  0.
        2    1    3    3  502    0  0.13162767089E+03  0.99573111986E+03  0.12011173701E+04  0.15657232334E+04  0.25500000920E-02 0. -1.
       -2    1    3    3    0  502 -0.13162767089E+03 -0.99573111986E+03 -0.18704177399E+04  0.21230329316E+04  0.25500000920E-02 0.  1.
</event>
<event>
 5   0  0.3675819E-07  0.3726928E+04  0.7818609E-02  0.8062020E-01
       -1   -1    0    0    0  501  0.00000000000E+00  0.00000000000E+00  0.19521816586E+04  0.19521816586E+04  0.50400001928E-02 0.  1.
        1   -1    0    0  501    0  0.00000000000E+00  0.00000000000E+00 -0.17787777802E+04  0.17787777802E+04  0.50400001928E-02 0. -1.
    10030    2    1    2    0    0  0.00000000000E+00  0.00000000000E+00  0.17340387839E+03  0.37309594388E+04  0.37269276125E+04 0.  0.
        5    1    3    3  502    0  0.52611418725E+03 -0.13712980668E+04 -0.10613694512E+04  0.18121207818E+04  0.46999998093E+01 0. -1.
       -5    1    3    3    0  502 -0.52611418725E+03  0.13712980668E+04  0.12347733296E+04  0.19188386570E+04  0.46999998093E+01 0.  1.
</event>
<event>
 5   0  0.1066907E-06  0.3644349E+04  0.7818609E-02  0.8080408E-01
       -2   -1    0    0    0  501  0.00000000000E+00  0.00000000000E+00  0.18054606385E+04  0.18054606385E+04  0.25500000920E-02 0.  1.
        2   -1    0    0  501    0  0.00000000000E+00  0.00000000000E+00 -0.18390435622E+04  0.18390435622E+04  0.25500000920E-02 0. -1.
    10030    2    1    2    0    0  0.00000000000E+00  0.00000000000E+00 -0.33582923643E+02  0.36445042007E+04  0.36443494695E+04 0.  0.
        4    1    3    3  502    0  0.10585129555E+04 -0.14047290316E+04 -0.49284299764E+03  0.18266387608E+04  0.12699999809E+01 0. -1.
       -4    1    3    3    0  502 -0.10585129555E+04  0.14047290316E+04  0.45926007400E+03  0.18178654399E+04  0.12699999809E+01 0.  1.
</event>
<event>
 5   0  0.1092116E-06  0.3203864E+04  0.7818609E-02  0.8187798E-01
        2   -1    0    0  501    0  0.00000000000E+00  0.00000000000E+00  0.10536426963E+04  0.10536426963E+04  0.25500000920E-02 0. -1.
       -2   -1    0    0    0  501  0.00000000000E+00  0.00000000000E+00 -0.24355366854E+04  0.24355366855E+04  0.25500000920E-02 0.  1.
    10030    2    1    2    0    0  0.00000000000E+00  0.00000000000E+00 -0.13818939892E+04  0.34891793817E+04  0.32038635677E+04 0.  0.
        1    1    3    3  502    0  0.99824199804E+03  0.33446565724E+03 -0.20058777567E+04  0.22653697132E+04  0.50400001928E-02 0. -1.
       -1    1    3    3    0  502 -0.99824199804E+03 -0.33446565724E+03  0.62398376757E+03  0.12238096685E+04  0.50400001928E-02 0.  1.
</event>
<event>
 5   0  0.1092116E-06  0.3675917E+04  0.7818609E-02  0.8073320E-01
       -2   -1    0    0    0  501  0.00000000000E+00  0.00000000000E+00  0.12806569483E+04  0.12806569483E+04  0.25500000920E-02 0. -1.
        2   -1    0    0  501    0  0.00000000000E+00  0.00000000000E+00 -0.26377804354E+04  0.26377804354E+04  0.25500000920E-02 0.  1.
    10030    2    1    2    0    0  0.00000000000E+00  0.00000000000E+00 -0.13571234871E+04  0.39184373838E+04  0.36759172150E+04 0.  0.
        1    1    3    3  502    0  0.17693721492E+04  0.14269144580E+03 -0.11865000827E+04  0.21351395967E+04  0.50400001928E-02 0.  1.
       -1    1    3    3    0  502 -0.17693721492E+04 -0.14269144580E+03 -0.17062340441E+03  0.17832977871E+04  0.50400001928E-02 0. -1.
</event>
<event>
 5   0  0.3764495E-07  0.3752752E+04  0.7818609E-02  0.8056371E-01
        1   -1    0    0  501    0  0.00000000000E+00  0.00000000000E+00  0.24708764319E+04  0.24708764319E+04  0.50400001928E-02 0.  1.
       -1   -1    0    0    0  501  0.00000000000E+00  0.00000000000E+00 -0.14249141490E+04  0.14249141490E+04  0.50400001928E-02 0. -1.
    10030    2    1    2    0    0  0.00000000000E+00  0.00000000000E+00  0.10459622829E+04  0.38957905809E+04  0.37527519439E+04 0.  0.
        4    1    3    3  502    0 -0.62929404501E+03 -0.38472443563E+03  0.23140725443E+04  0.24287769019E+04  0.12699999809E+01 0.  1.
       -4    1    3    3    0  502  0.62929404501E+03  0.38472443563E+03 -0.12681102613E+04  0.14670136789E+04  0.12699999809E+01 0. -1.
</event>
<event>
 5   0  0.1066907E-06  0.3662137E+04  0.7818609E-02  0.8076405E-01
        2   -1    0    0  501    0  0.00000000000E+00  0.00000000000E+00  0.12505511732E+04  0.12505511732E+04  0.25500000920E-02 0. -1.
       -2   -1    0    0    0  501  0.00000000000E+00  0.00000000000E+00 -0.26810678799E+04  0.26810678799E+04  0.25500000920E-02 0.  1.
    10030    2    1    2    0    0  0.00000000000E+00  0.00000000000E+00 -0.14305167067E+04  0.39316190531E+04  0.36621373992E+04 0.  0.
        4    1    3    3  502    0 -0.18185837058E+04 -0.21302501202E+03 -0.70067105052E+03  0.19605019471E+04  0.12699999809E+01 0. -1.
       -4    1    3    3    0  502  0.18185837058E+04  0.21302501202E+03 -0.72984565615E+03  0.19711171060E+04  0.12699999809E+01 0.  1.
</event>
<event>
 5   0  0.1066907E-06  0.3642977E+04  0.7818609E-02  0.8080718E-01
       -2   -1    0    0    0  501  0.00000000000E+00  0.00000000000E+00  0.17393535991E+04  0.17393535991E+04  0.25500000920E-02 0.  1.
        2   -1    0    0  501    0  0.00000000000E+00  0.00000000000E+00 -0.19075016211E+04  0.19075016211E+04  0.25500000920E-02 0. -1.
    10030    2    1    2    0    0  0.00000000000E+00  0.00000000000E+00 -0.16814802200E+03  0.36468552202E+04  0.36429767004E+04 0.  0.
        4    1    3    3  502    0 -0.15362789513E+03  0.42593254311E+03  0.16821167452E+04  0.17419926575E+04  0.12699999809E+01 0.  1.
       -4    1    3    3    0  502  0.15362789513E+03 -0.42593254311E+03 -0.18502647672E+04  0.19048625627E+04  0.12699999809E+01 0. -1.
</event>
<event>
 5   0  0.3848431E-07  0.3652276E+04  0.7818609E-02  0.8078621E-01
        1   -1    0    0  501    0  0.00000000000E+00  0.00000000000E+00  0.23071357735E+04  0.23071357735E+04  0.50400001928E-02 0.  1.
       -1   -1    0    0    0  501  0.00000000000E+00  0.00000000000E+00 -0.14454196607E+04  0.14454196607E+04  0.50400001928E-02 0. -1.
    10030    2    1    2    0    0  0.00000000000E+00  0.00000000000E+00  0.86171611277E+03  0.37525554342E+04  0.36522756780E+04 0.  0.
        2    1    3    3  502    0  0.17335233629E+04  0.49548269670E+03  0.13276620188E+03  0.18078255494E+04  0.25500000920E-02 0. -1.
       -2    1    3    3    0  502 -0.17335233629E+04 -0.49548269670E+03  0.72894991089E+03  0.19447298849E+04  0.25500000920E-02 0.  1.
</event>
<event>
 5   0  0.1066907E-06  0.3741677E+04  0.7818609E-02  0.8058788E-01
       -2   -1    0    0    0  501  0.00000000000E+00  0.00000000000E+00  0.13821267108E+04  0.13821267108E+04  0.25500000920E-02 0.  1.
        2   -1    0    0  501    0  0.00000000000E+00  0.00000000000E+00 -0.25323560123E+04  0.25323560123E+04  0.25500000920E-02 0. -1.
    10030    2    1    2    0    0  0.00000000000E+00  0.00000000000E+00 -0.11502293015E+04  0.39144827231E+04  0.37416771031E+04 0.  0.
        4    1    3    3  502    0 -0.15792569540E+04  0.40360611059E+03  0.38548786100E+03  0.16749784844E+04  0.12699999809E+01 0.  1.
       -4    1    3    3    0  502  0.15792569540E+04 -0.40360611059E+03 -0.15357171625E+04  0.22395042387E+04  0.12699999809E+01 0. -1.
</event>
<event>
 5   0  0.3675819E-07  0.3748344E+04  0.7818609E-02  0.8057332E-01
        1   -1    0    0  501    0  0.00000000000E+00  0.00000000000E+00  0.14000905870E+04  0.14000905870E+04  0.50400001928E-02 0. -1.
       -1   -1    0    0    0  501  0.00000000000E+00  0.00000000000E+00 -0.25087813052E+04  0.25087813052E+04  0.50400001928E-02 0.  1.
    10030    2    1    2    0    0  0.00000000000E+00  0.00000000000E+00 -0.11086907181E+04  0.39088718922E+04  0.37483442159E+04 0.  0.
        5    1    3    3  502    0 -0.38543958562E+03  0.11981141492E+04 -0.20025070095E+04  0.23651844752E+04  0.46999998093E+01 0.  1.
       -5    1    3    3    0  502  0.38543958562E+03 -0.11981141492E+04  0.89381629135E+03  0.15436874170E+04  0.46999998093E+01 0. -1.
</event>
<event>
 5   0  0.3675819E-07  0.3684535E+04  0.7818609E-02  0.8071398E-01
       -1   -1    0    0    0  501  0.00000000000E+00  0.00000000000E+00  0.21217210363E+04  0.21217210364E+04  0.50400001928E-02 0.  1.
        1   -1    0    0  501    0  0.00000000000E+00  0.00000000000E+00 -0.15996213082E+04  0.15996213082E+04  0.50400001928E-02 0. -1.
    10030    2    1    2    0    0  0.00000000000E+00  0.00000000000E+00  0.52209972811E+03  0.37213423446E+04  0.36845353465E+04 0.  0.
        5    1    3    3  502    0  0.17925256754E+04 -0.16805623858E+03 -0.13341138569E+03  0.18053287469E+04  0.46999998093E+01 0. -1.
       -5    1    3    3    0  502 -0.17925256754E+04  0.16805623858E+03  0.65551111380E+03  0.19160135977E+04  0.46999998093E+01 0.  1.
</event>
<event>
 5   0  0.3675819E-07  0.3746893E+04  0.7818609E-02  0.8057649E-01
        1   -1    0    0  501    0  0.00000000000E+00  0.00000000000E+00  0.21049284483E+04  0.21049284483E+04  0.50400001928E-02 0.  1.
       -1   -1    0    0    0  501  0.00000000000E+00  0.00000000000E+00 -0.16674206662E+04  0.16674206662E+04  0.50400001928E-02 0. -1.
    10030    2    1    2    0    0  0.00000000000E+00  0.00000000000E+00  0.43750778203E+03  0.37723491145E+04  0.37468926836E+04 0.  0.
        5    1    3    3  502    0  0.14867483903E+04 -0.81965786931E+03 -0.57878922300E+03  0.17936774664E+04  0.46999998093E+01 0. -1.
       -5    1    3    3    0  502 -0.14867483903E+04  0.81965786931E+03  0.10162970050E+04  0.19786716481E+04  0.46999998093E+01 0.  1.
</event>
<event>
 5   0  0.3848431E-07  0.3316442E+04  0.7818609E-02  0.8158724E-01
        1   -1    0    0  501    0  0.00000000000E+00  0.00000000000E+00  0.17089030356E+04  0.17089030356E+04  0.50400001928E-02 0.  1.
       -1   -1    0    0    0  501  0.00000000000E+00  0.00000000000E+00 -0.16090416357E+04  0.16090416357E+04  0.50400001928E-02 0. -1.
    10030    2    1    2    0    0  0.00000000000E+00  0.00000000000E+00  0.99861399919E+02  0.33179446713E+04  0.33164415482E+04 0.  0.
        2    1    3    3  502    0  0.15221065619E+04 -0.91835305269E+02  0.70172734563E+03  0.16785896988E+04  0.25500000920E-02 0. -1.
       -2    1    3    3    0  502 -0.15221065619E+04  0.91835305269E+02 -0.60186594571E+03  0.16393549725E+04  0.25500000920E-02 0.  1.
</event>
<event>
 5   0  0.1128166E-06  0.3846154E+04  0.7818609E-02  0.8036322E-01
        2   -1    0    0  501    0  0.00000000000E+00  0.00000000000E+00  0.25280392633E+04  0.25280392633E+04  0.25500000920E-02 0.  1.
       -2   -1    0    0    0  501  0.00000000000E+00  0.00000000000E+00 -0.14628827871E+04  0.14628827871E+04  0.25500000920E-02 0. -1.
    10030    2    1    2    0    0  0.00000000000E+00  0.00000000000E+00  0.10651564762E+04  0.39909220503E+04  0.38461539872E+04 0.  0.
        3    1    3    3  502    0 -0.90468591367E+03 -0.26445161628E+02 -0.12280701216E+04  0.15255530744E+04  0.10100000352E+00 0. -1.
       -3    1    3    3    0  502  0.90468591367E+03  0.26445161628E+02  0.22932265978E+04  0.24653689760E+04  0.10100000352E+00 0.  1.
</event>
<event>
 5   0  0.1128530E-06  0.3655352E+04  0.7818609E-02  0.8077929E-01
        2   -1    0    0  501    0  0.00000000000E+00  0.00000000000E+00  0.12244910056E+04  0.12244910056E+04  0.25500000920E-02 0.  1.
       -2   -1    0    0    0  501  0.00000000000E+00  0.00000000000E+00 -0.27279909984E+04  0.27279909984E+04  0.25500000920E-02 0. -1.
    10030    2    1    2    0    0  0.00000000000E+00  0.00000000000E+00 -0.15034999928E+04  0.39524820040E+04  0.36553524815E+04 0.  0.
        5    1    3    3  502    0 -0.53851160457E+03 -0.96678039632E+03  0.82103609534E+03  0.13779627872E+04  0.46999998093E+01 0.  1.
       -5    1    3    3    0  502  0.53851160457E+03  0.96678039632E+03 -0.23245360881E+04  0.25745192169E+04  0.46999998093E+01 0. -1.
</event>
<event>
 5   0  0.1051123E-06  0.2505476E+04  0.7818609E-02  0.8401037E-01
        2   -1    0    0  501    0  0.00000000000E+00  0.00000000000E+00  0.13229571949E+04  0.13229571949E+04  0.25500000920E-02 0.  1.
       -2   -1    0    0    0  501  0.00000000000E+00  0.00000000000E+00 -0.11862462911E+04  0.11862462911E+04  0.25500000920E-02 0. -1.
    10030    2    1    2    0    0  0.00000000000E+00  0.00000000000E+00  0.13671090381E+03  0.25092034860E+04  0.25054764542E+04 0.  0.
        2    1    3    3  502    0  0.19099456392E+03  0.81297478251E+03  0.10035250669E+04  0.13055533234E+04  0.25500000920E-02 0. -1.
       -2    1    3    3    0  502 -0.19099456392E+03 -0.81297478251E+03 -0.86681416308E+03  0.12036501625E+04  0.25500000920E-02 0.  1.
</event>
<event>
 5   0  0.3764495E-07  0.3756843E+04  0.7818609E-02  0.8055480E-01
       -1   -1    0    0    0  501  0.00000000000E+00  0.00000000000E+00  0.17478825318E+04  0.17478825318E+04  0.50400001928E-02 0. -1.
        1   -1    0    0  501    0  0.00000000000E+00  0.00000000000E+00 -0.20187091890E+04  0.20187091890E+04  0.50400001928E-02 0.  1.
    10030    2    1    2    0    0  0.00000000000E+00  0.00000000000E+00 -0.27082665726E+03  0.37665917208E+04  0.37568425723E+04 0.  0.
        4    1    3    3  502    0 -0.49935284422E+03 -0.47463920385E+03  0.16166424492E+04  0.17573189973E+04  0.12699999809E+01 0. -1.
       -4    1    3    3    0  502  0.49935284422E+03  0.47463920385E+03 -0.18874691064E+04  0.20092727235E+04  0.12699999809E+01 0.  1.
</event>
<event>
 5   0  0.1092116E-06  0.2742830E+04  0.7818609E-02  0.8321240E-01
        2   -1    0    0  501    0  0.00000000000E+00  0.00000000000E+00  0.12648659910E+04  0.12648659910E+04  0.25500000920E-02 0. -1.
       -2   -1    0    0    0  501  0.00000000000E+00  0.00000000000E+00 -0.14869398584E+04  0.14869398584E+04  0.25500000920E-02 0.  1.
    10030    2    1    2    0    0  0.00000000000E+00  0.00000000000E+00 -0.22207386738E+03  0.27518058494E+04  0.27428304049E+04 0.  0.
        1    1    3    3  502    0  0.20742279121E+03 -0.11471154901E+04  0.61374070126E+03  0.13174125438E+04  0.50400001928E-02 0. -1.
       -1    1    3    3    0  502 -0.20742279121E+03  0.11471154901E+04 -0.83581456864E+03  0.14343933056E+04  0.50400001928E-02 0.  1.
</event>
<event>
 5   0  0.3848431E-07  0.3740785E+04  0.7818609E-02  0.8058983E-01
        1   -1    0    0  501    0  0.00000000000E+00  0.00000000000E+00  0.16880594368E+04  0.16880594368E+04  0.50400001928E-02 0. -1.
       -1   -1    0    0    0  501  0.00000000000E+00  0.00000000000E+00 -0.20724200118E+04  0.20724200118E+04  0.50400001928E-02 0.  1.
    10030    2    1    2    0    0  0.00000000000E+00  0.00000000000E+00 -0.38436057500E+03  0.37604794486E+04  0.37407850288E+04 0.  0.
        2    1    3    3  502    0 -0.43378286349E+03 -0.15791809408E+04 -0.11004792374E+04  0.19730774359E+04  0.25500000920E-02 0.  1.
       -2    1    3    3    0  502  0.43378286349E+03  0.15791809408E+04  0.71611866239E+03  0.17874020127E+04  0.25500000920E-02 0. -1.
</event>
<event>
 5   0  0.3704306E-07  0.3175631E+04  0.7818609E-02  0.8195283E-01
       -1   -1    0    0    0  501  0.00000000000E+00  0.00000000000E+00  0.17148970552E+04  0.17148970552E+04  0.50400001928E-02 0. -1.
        1   -1    0    0  501    0  0.00000000000E+00  0.00000000000E+00 -0.14701515971E+04  0.14701515971E+04  0.50400001928E-02 0.  1.
    10030    2    1    2    0    0  0.00000000000E+00  0.00000000000E+00  0.24474545807E+03  0.31850486523E+04  0.31756313669E+04 0.  0.
        3    1    3    3  502    0  0.15632633785E+04  0.27782474069E+03  0.13581610343E+03  0.15935573417E+04  0.10100000352E+00 0. -1.
       -3    1    3    3    0  502 -0.15632633785E+04 -0.27782474069E+03  0.10892935464E+03  0.15914913106E+04  0.10100000352E+00 0.  1.
</event>
<event>
 5   0  0.3704306E-07  0.2476370E+04  0.7818609E-02  0.8411452E-01
        1   -1    0    0  501    0  0.00000000000E+00  0.00000000000E+00  0.22613535243E+04  0.22613535243E+04  0.50400001928E-02 0.  1.
       -1   -1    0    0    0  501  0.00000000000E+00  0.00000000000E+00 -0.67795785939E+03  0.67795785941E+03  0.50400001928E-02 0. -1.
    10030    2    1    2    0    0  0.00000000000E+00  0.00000000000E+00  0.15833956649E+04  0.29393113837E+04  0.24763702427E+04 0.  0.
        3    1    3    3  502    0 -0.39410378284E+03 -0.83575699369E+03  0.17699688290E+04  0.19966464910E+04  0.10100000352E+00 0.  1.
       -3    1    3    3    0  502  0.39410378284E+03  0.83575699369E+03 -0.18657316411E+03  0.94266489270E+03  0.10100000352E+00 0. -1.
</event>
<event>
 5   0  0.3848431E-07  0.3580445E+04  0.7818609E-02  0.8094986E-01
       -1   -1    0    0    0  501  0.00000000000E+00  0.00000000000E+00  0.16751045841E+04  0.16751045841E+04  0.50400001928E-02 0.  1.
        1   -1    0    0  501    0  0.00000000000E+00  0.00000000000E+00 -0.19132513141E+04  0.19132513141E+04  0.50400001928E-02 0. -1.
    10030    2    1    2    0    0  0.00000000000E+00  0.00000000000E+00 -0.23814673001E+03  0.35883558982E+04  0.35804446913E+04 0.  0.
        2    1    3    3  502    0 -0.91496987098E+03 -0.13263286501E+04  0.66276475524E+03  0.17422900659E+04  0.25500000920E-02 0.  1.
       -2    1    3    3    0  502  0.91496987098E+03  0.13263286501E+04 -0.90091148524E+03  0.18460658323E+04  0.25500000920E-02 0. -1.
</event>
<event>
 5   0  0.3704306E-07  0.2454344E+04  0.7818609E-02  0.8419434E-01
        1   -1    0    0  501    0  0.00000000000E+00  0.00000000000E+00  0.17797150712E+04  0.17797150712E+04  0.50400001928E-02 0. -1.
       -1   -1    0    0    0  501  0.00000000000E+00  0.00000000000E+00 -0.84617548616E+03  0.84617548618E+03  0.50400001928E-02 0.  1.
    10030    2    1    2    0    0  0.00000000000E+00  0.00000000000E+00  0.93353958505E+03  0.26258905574E+04  0.24543441206E+04 0.  0.
        3    1    3    3  502    0  0.10415114999E+04 -0.47966903522E+03  0.93450198956E+03  0.14792303967E+04  0.10100000352E+00 0. -1.
       -3    1    3    3    0  502 -0.10415114999E+04  0.47966903522E+03 -0.96240451204E+00  0.11466601607E+04  0.10100000352E+00 0.  1.
</event>
<event>
 5   0  0.3682276E-07  0.3681881E+04  0.7818609E-02  0.8071989E-01
        1   -1    0    0  501    0  0.00000000000E+00  0.00000000000E+00  0.16861821795E+04  0.16861821795E+04  0.50400001928E-02 0.  1.
       -1   -1    0    0    0  501  0.00000000000E+00  0.00000000000E+00 -0.20099023908E+04  0.20099023908E+04  0.50400001928E-02 0. -1.
    10030    2    1    2    0    0  0.00000000000E+00  0.00000000000E+00 -0.32372021123E+03  0.36960845703E+04  0.36818808204E+04 0.  0.
        1    1    3    3  502    0 -0.10532086978E+04  0.13006522360E+04 -0.93170629362E+03  0.19154689811E+04  0.50400001928E-02 0. -1.
       -1    1    3    3    0  502  0.10532086978E+04 -0.13006522360E+04  0.60798608240E+03  0.17806155892E+04  0.50400001928E-02 0.  1.
</event>
<event>
 5   0  0.3848431E-07  0.3175220E+04  0.7818609E-02  0.8195392E-01
        1   -1    0    0  501    0  0.00000000000E+00  0.00000000000E+00  0.14465475684E+04  0.14465475684E+04  0.50400001928E-02 0. -1.
       -1   -1    0    0    0  501  0.00000000000E+00  0.00000000000E+00 -0.17424282065E+04  0.17424282065E+04  0.50400001928E-02 0.  1.
    10030    2    1    2    0    0  0.00000000000E+00  0.00000000000E+00 -0.29588063812E+03  0.31889757749E+04  0.31752198571E+04 0.  0.
        2    1    3    3  502    0  0.88089437012E+03  0.25694295170E+03  0.11532459661E+04  0.14737607777E+04  0.25500000920E-02 0. -1.
       -2    1    3    3    0  502 -0.88089437012E+03 -0.25694295170E+03 -0.14491266042E+04  0.17152149972E+04  0.25500000920E-02 0.  1.
</event>
<event>
 5   0  0.1051123E-06  0.3663453E+04  0.7818609E-02  0.8076110E-01
        2   -1    0    0  501    0  0.00000000000E+00  0.00000000000E+00  0.96374398479E+03  0.96374398479E+03  0.25500000920E-02 0. -1.
       -2   -1    0    0    0  501  0.00000000000E+00  0.00000000000E+00 -0.34814445712E+04  0.34814445712E+04  0.25500000920E-02 0.  1.
    10030    2    1    2    0    0  0.00000000000E+00  0.00000000000E+00 -0.25177005864E+04  0.44451885560E+04  0.36634526140E+04 0.  0.
        2    1    3    3  502    0 -0.21836613475E+03  0.51747397138E+02  0.94700044988E+03  0.97322731877E+03  0.25500000920E-02 0. -1.
       -2    1    3    3    0  502  0.21836613475E+03 -0.51747397138E+02 -0.34647010363E+04  0.34719612372E+04  0.25500000920E-02 0.  1.
</event>
<event>
 5   0  0.3848431E-07  0.3700630E+04  0.7818609E-02  0.8067822E-01
       -1   -1    0    0    0  501  0.00000000000E+00  0.00000000000E+00  0.27542918343E+04  0.27542918343E+04  0.50400001928E-02 0.  1.
        1   -1    0    0  501    0  0.00000000000E+00  0.00000000000E+00 -0.12430291617E+04  0.12430291617E+04  0.50400001928E-02 0. -1.
    10030    2    1    2    0    0  0.00000000000E+00  0.00000000000E+00  0.15112626726E+04  0.39973209961E+04  0.37006297140E+04 0.  0.
        2    1    3    3  502    0  0.12010940972E+04 -0.12685904691E+03 -0.75851751965E+03  0.14262079356E+04  0.25500000920E-02 0. -1.
       -2    1    3    3    0  502 -0.12010940972E+04  0.12685904691E+03  0.22697801923E+04  0.25711130604E+04  0.25500000920E-02 0.  1.
</event>
<event>
 5   0  0.3675819E-07  0.3312313E+04  0.7818609E-02  0.8159769E-01
       -1   -1    0    0    0  501  0.00000000000E+00  0.00000000000E+00  0.11977119578E+04  0.11977119578E+04  0.50400001928E-02 0.  1.
        1   -1    0    0  501    0  0.00000000000E+00  0.00000000000E+00 -0.22900786314E+04  0.22900786314E+04  0.50400001928E-02 0. -1.
    10030    2    1    2    0    0  0.00000000000E+00  0.00000000000E+00 -0.10923666736E+04  0.34877905893E+04  0.33123131261E+04 0.  0.
        5    1    3    3  502    0 -0.13327883002E+03  0.95487982281E+03  0.87173331555E+03  0.12998075958E+04  0.46999998093E+01 0.  1.
       -5    1    3    3    0  502  0.13327883002E+03 -0.95487982281E+03 -0.19640999892E+04  0.21879829935E+04  0.46999998093E+01 0. -1.
</event>
<event>
 5   0  0.1128166E-06  0.2313213E+04  0.7818609E-02  0.8472730E-01
        2   -1    0    0  501    0  0.00000000000E+00  0.00000000000E+00  0.25306236157E+04  0.25306236157E+04  0.25500000920E-02 0.  1.
       -2   -1    0    0    0  501  0.00000000000E+00  0.00000000000E+00 -0.52862007842E+03  0.52862007843E+03  0.25500000920E-02 0. -1.
    10030    2    1    2    0    0  0.00000000000E+00  0.00000000000E+00  0.20020035373E+04  0.30592436941E+04  0.23132128775E+04 0.  0.
        3    1    3    3  502    0 -0.30273115615E+03 -0.85399294339E+03  0.50276959554E+02  0.90745682163E+03  0.10100000352E+00 0. -1.
       -3    1    3    3    0  502  0.30273115615E+03  0.85399294339E+03  0.19517265777E+04  0.21517868725E+04  0.10100000352E+00 0.  1.
</event>
<event>
 5   0  0.1128166E-06  0.3720550E+04  0.7818609E-02  0.8063423E-01
       -2   -1    0    0    0  501  0.00000000000E+00  0.00000000000E+00  0.22224791031E+04  0.22224791031E+04  0.25500000920E-02 0.  1.
        2   -1    0    0  501    0  0.00000000000E+00  0.00000000000E+00 -0.15571000553E+04  0.15571000553E+04  0.25500000920E-02 0. -1.
    10030    2    1    2    0    0  0.00000000000E+00  0.00000000000E+00  0.66537904779E+03  0.37795791585E+04  0.37205496016E+04 0.  0.
        3    1    3    3  502    0  0.43321317175E+02 -0.71052718784E+03  0.20786483538E+04  0.21971583034E+04  0.10100000352E+00 0.  1.
       -3    1    3    3    0  502 -0.43321317175E+02  0.71052718784E+03 -0.14132693060E+04  0.15824208551E+04  0.10100000352E+00 0. -1.
</event>
<event>
 5   0  0.1066907E-06  0.3623755E+04  0.7818609E-02  0.8085072E-01
       -2   -1    0    0    0  501  0.00000000000E+00  0.00000000000E+00  0.15348965709E+04  0.15348965709E+04  0.25500000920E-02 0.  1.
        2   -1    0    0  501    0  0.00000000000E+00  0.00000000000E+00 -0.21388416824E+04  0.21388416824E+04  0.25500000920E-02 0. -1.
    10030    2    1    2    0    0  0.00000000000E+00  0.00000000000E+00 -0.60394511147E+03  0.36737382533E+04  0.36237553802E+04 0.  0.
        4    1    3    3  502    0 -0.11787004931E+04 -0.11092206760E+03 -0.16924815953E+04  0.20654622051E+04  0.12699999809E+01 0. -1.
       -4    1    3    3    0  502  0.11787004931E+04  0.11092206760E+03  0.10885364838E+04  0.16082760481E+04  0.12699999809E+01 0.  1.
</event>
<event>
 5   0  0.1128166E-06  0.2937568E+04  0.7818609E-02  0.8261787E-01
        2   -1    0    0  501    0  0.00000000000E+00  0.00000000000E+00  0.13501138400E+04  0.13501138400E+04  0.25500000920E-02 0.  1.
       -2   -1    0    0    0  501  0.00000000000E+00  0.00000000000E+00 -0.15978851595E+04  0.15978851595E+04  0.25500000920E-02 0. -1.
    10030    2    1    2    0    0  0.00000000000E+00  0.00000000000E+00 -0.24777131948E+03  0.29479989995E+04  0.29375682927E+04 0.  0.
        3    1    3    3  502    0  0.37475721192E+03  0.15982394606E+03 -0.15400448990E+04  0.15930238425E+04  0.10100000352E+00 0. -1.
       -3    1    3    3    0  502 -0.37475721192E+03 -0.15982394606E+03  0.12922735795E+04  0.13549751570E+04  0.10100000352E+00 0.  1.
</event>
<event>
 5   0  0.1092116E-06  0.3706623E+04  0.7818609E-02  0.8066496E-01
       -2   -1    0    0    0  501  0.00000000000E+00  0.00000000000E+00  0.17704294106E+04  0.17704294106E+04  0.25500000920E-02 0.  1.
        2   -1    0    0  501    0  0.00000000000E+00  0.00000000000E+00 -0.19400741171E+04  0.19400741171E+04  0.25500000920E-02 0. -1.
    10030    2    1    2    0    0  0.00000000000E+00  0.00000000000E+00 -0.16964470650E+03  0.37105035278E+04  0.37066234100E+04 0.  0.
        1    1    3    3  502    0 -0.13214886846E+04  0.10859346350E+04  0.62949163954E+03  0.18225932347E+04  0.50400001928E-02 0.  1.
       -1    1    3    3    0  502  0.13214886846E+04 -0.10859346350E+04 -0.79913634604E+03  0.18879102930E+04  0.50400001928E-02 0. -1.
</event>
<event>
 5   0  0.1128166E-06  0.3306478E+04  0.7818609E-02  0.8161249E-01
       -2   -1    0    0    0  501  0.00000000000E+00  0.00000000000E+00  0.12802972394E+04  0.12802972394E+04  0.25500000920E-02 0. -1.
        2   -1    0    0  501    0  0.00000000000E+00  0.00000000000E+00 -0.21348161748E+04  0.21348161748E+04  0.25500000920E-02 0.  1.
    10030    2    1    2    0    0  0.00000000000E+00  0.00000000000E+00 -0.85451893536E+03  0.34151134142E+04  0.33064780388E+04 0.  0.
        3    1    3    3  502    0  0.90787497606E+03 -0.92859824008E+03  0.62942147485E+03  0.14431573257E+04  0.10100000352E+00 0. -1.
       -3    1    3    3    0  502 -0.90787497606E+03  0.92859824008E+03 -0.14839404102E+04  0.19719560885E+04  0.10100000352E+00 0.  1.
</event>
<event>
 5   0  0.1128530E-06  0.3709225E+04  0.7818609E-02  0.8065921E-01
        2   -1    0    0  501    0  0.00000000000E+00  0.00000000000E+00  0.10388360555E+04  0.10388360555E+04  0.25500000920E-02 0. -1.
       -2   -1    0    0    0  501  0.00000000000E+00  0.00000000000E+00 -0.33110007210E+04  0.33110007210E+04  0.25500000920E-02 0.  1.
    10030    2    1    2    0    0  0.00000000000E+00  0.00000000000E+00 -0.22721646655E+04  0.43498367764E+04  0.37092246783E+04 0.  0.
        5    1    3    3  502    0  0.24932753900E+03  0.71576855722E+03  0.84890569968E+03  0.11380473743E+04  0.46999998093E+01 0. -1.
       -5    1    3    3    0  502 -0.24932753900E+03 -0.71576855722E+03 -0.31210703652E+04  0.32117894021E+04  0.46999998093E+01 0.  1.
</event>
<event>
 5   0  0.3675819E-07  0.3153416E+04  0.7818609E-02  0.8201229E-01
        1   -1    0    0  501    0  0.00000000000E+00  0.00000000000E+00  0.11209962511E+04  0.11209962511E+04  0.50400001928E-02 0. -1.
       -1   -1    0    0    0  501  0.00000000000E+00  0.00000000000E+00 -0.22176775733E+04  0.22176775733E+04  0.50400001928E-02 0.  1.
    10030    2    1    2    0    0  0.00000000000E+00  0.00000000000E+00 -0.10966813221E+04  0.33386738244E+04  0.31534160816E+04 0.  0.
        5    1    3    3  502    0  0.84776436029E+03 -0.25336797974E+03 -0.19300320665E+04  0.21231923162E+04  0.46999998093E+01 0.  1.
       -5    1    3    3    0  502 -0.84776436029E+03  0.25336797974E+03  0.83335074436E+03  0.12154815082E+04  0.46999998093E+01 0. -1.
</event>
<event>
 5   0  0.3682276E-07  0.3364854E+04  0.7818609E-02  0.8146587E-01
       -1   -1    0    0    0  501  0.00000000000E+00  0.00000000000E+00  0.18793659061E+04  0.18793659061E+04  0.50400001928E-02 0. -1.
        1   -1    0    0  501    0  0.00000000000E+00  0.00000000000E+00 -0.15061249074E+04  0.15061249074E+04  0.50400001928E-02 0.  1.
    10030    2    1    2    0    0  0.00000000000E+00  0.00000000000E+00  0.37324099864E+03  0.33854908135E+04  0.33648535191E+04 0.  0.
        1    1    3    3  502    0  0.42512508102E+03  0.91679707476E+03  0.15399768316E+04  0.18419491993E+04  0.50400001928E-02 0. -1.
       -1    1    3    3    0  502 -0.42512508102E+03 -0.91679707476E+03 -0.11667358330E+04  0.15435416142E+04  0.50400001928E-02 0.  1.
</event>
<event>
 5   0  0.3704306E-07  0.3822168E+04  0.7818609E-02  0.8041414E-01
       -1   -1    0    0    0  501  0.00000000000E+00  0.00000000000E+00  0.14227027507E+04  0.14227027507E+04  0.50400001928E-02 0. -1.
        1   -1    0    0  501    0  0.00000000000E+00  0.00000000000E+00 -0.25671159678E+04  0.25671159678E+04  0.50400001928E-02 0.  1.
    10030    2    1    2    0    0  0.00000000000E+00  0.00000000000E+00 -0.11444132171E+04  0.39898187185E+04  0.38221684676E+04 0.  0.
        3    1    3    3  502    0 -0.13184547969E+04  0.44243697617E+03  0.79607764630E+03  0.16024397519E+04  0.10100000352E+00 0. -1.
       -3    1    3    3    0  502  0.13184547969E+04 -0.44243697617E+03 -0.19404908634E+04  0.23873789666E+04  0.10100000352E+00 0.  1.
</event>
<event>
 5   0  0.3682276E-07  0.3476138E+04  0.7818609E-02  0.8119468E-01
       -1   -1    0    0    0  501  0.00000000000E+00  0.00000000000E+00  0.92761198954E+03  0.92761198956E+03  0.50400001928E-02 0.  1.
        1   -1    0    0  501    0  0.00000000000E+00  0.00000000000E+00 -0.32566252539E+04  0.32566252539E+04  0.50400001928E-02 0. -1.
    10030    2    1    2    0    0  0.00000000000E+00  0.00000000000E+00 -0.23290132644E+04  0.41842372435E+04  0.34761384501E+04 0.  0.
        1    1    3    3  502    0 -0.35618554909E+03 -0.73810731326E+03 -0.30094393506E+04  0.31190376330E+04  0.50400001928E-02 0. -1.
       -1    1    3    3    0  502  0.35618554909E+03  0.73810731326E+03  0.68042608623E+03  0.10651996105E+04  0.50400001928E-02 0.  1.
</event>
<event>
 5   0  0.3764495E-07  0.2322397E+04  0.7818609E-02  0.8469142E-01
       -1   -1    0    0    0  501  0.00000000000E+00  0.00000000000E+00  0.15421776513E+04  0.15421776513E+04  0.50400001928E-02 0.  1.
        1   -1    0    0  501    0  0.00000000000E+00  0.00000000000E+00 -0.87433658324E+03  0.87433658325E+03  0.50400001928E-02 0. -1.
    10030    2    1    2    0    0  0.00000000000E+00  0.00000000000E+00  0.66784106805E+03  0.24165142345E+04  0.23223973290E+04 0.  0.
        4    1    3    3  502    0  0.22999997522E+03 -0.82857314020E+03  0.11458955843E+04  0.14326589756E+04  0.12699999809E+01 0.  1.
       -4    1    3    3    0  502 -0.22999997522E+03  0.82857314020E+03 -0.47805451624E+03  0.98385525899E+03  0.12699999809E+01 0. -1.
</event>
<event>
 5   0  0.1066907E-06  0.3490707E+04  0.7818609E-02  0.8115996E-01
       -2   -1    0    0    0  501  0.00000000000E+00  0.00000000000E+00  0.13083007019E+04  0.13083007019E+04  0.25500000920E-02 0. -1.
        2   -1    0    0  501    0  0.00000000000E+00  0.00000000000E+00 -0.23284093041E+04  0.23284093041E+04  0.25500000920E-02 0.  1.
    10030    2    1    2    0    0  0.00000000000E+00  0.00000000000E+00 -0.10201086022E+04  0.36367100060E+04  0.34907073936E+04 0.  0.
        4    1    3    3  502    0 -0.63885264158E+03  0.82870088074E+03  0.94529136782E+03  0.14101259626E+04  0.12699999809E+01 0. -1.
       -4    1    3    3    0  502  0.63885264158E+03 -0.82870088074E+03 -0.19653999700E+04  0.22265840434E+04  0.12699999809E+01 0.  1.
</event>
<event>
 5   0  0.1128530E-06  0.3469173E+04  0.7818609E-02  0.8121135E-01
        2   -1    0    0  501    0  0.00000000000E+00  0.00000000000E+00  0.21346105479E+04  0.21346105479E+04  0.25500000920E-02 0. -1.
       -2   -1    0    0    0  501  0.00000000000E+00  0.00000000000E+00 -0.14095262725E+04  0.14095262725E+04  0.25500000920E-02 0.  1.
    10030    2    1    2    0    0  0.00000000000E+00  0.00000000000E+00  0.72508427538E+03  0.35441368204E+04  0.34691726096E+04 0.  0.
        5    1    3    3  502    0 -0.10770288691E+04  0.75913559052E+02 -0.10243696182E+04  0.14883243121E+04  0.46999998093E+01 0.  1.
       -5    1    3    3    0  502  0.10770288691E+04 -0.75913559052E+02  0.17494538936E+04  0.20558125083E+04  0.46999998093E+01 0. -1.
</event>
<event>
 5   0  0.3682276E-07  0.3702713E+04  0.7818609E-02  0.8067361E-01
        1   -1    0    0  501    0  0.00000000000E+00  0.00000000000E+00  0.13065256131E+04  0.13065256132E+04  0.50400001928E-02 0. -1.
       -1   -1    0    0    0  501  0.00000000000E+00  0.00000000000E+00 -0.26233859665E+04  0.26233859665E+04  0.50400001928E-02 0.  1.
    10030    2    1    2    0    0  0.00000000000E+00  0.00000000000E+00 -0.13168603533E+04  0.39299115796E+04  0.37027130369E+04 0.  0.
        1    1    3    3  502    0  0.89424215754E+03 -0.11688496061E+04 -0.18505801204E+04  0.23644291531E+04  0.50400001928E-02 0.  1.
       -1    1    3    3    0  502 -0.89424215754E+03  0.11688496061E+04  0.53371976712E+03  0.15654824265E+04  0.50400001928E-02 0. -1.
</event>
<event>
 5   0  0.1128166E-06  0.3780926E+04  0.7818609E-02  0.8050261E-01
       -2   -1    0    0    0  501  0.00000000000E+00  0.00000000000E+00  0.21929211799E+04  0.21929211799E+04  0.25500000920E-02 0.  1.
        2   -1    0    0  501    0  0.00000000000E+00  0.00000000000E+00 -0.16297212929E+04  0.16297212929E+04  0.25500000920E-02 0. -1.
    10030    2    1    2    0    0  0.00000000000E+00  0.00000000000E+00  0.56319988706E+03  0.38226424728E+04  0.37809259927E+04 0.  0.
        3    1    3    3  502    0 -0.93697858498E+03 -0.16171420037E+04  0.56894197150E+03  0.19536560869E+04  0.10100000352E+00 0.  1.
       -3    1    3    3    0  502  0.93697858498E+03  0.16171420037E+04 -0.57420844408E+01  0.18689863859E+04  0.10100000352E+00 0. -1.
</event>
<event>
 5   0  0.1092116E-06  0.2617303E+04  0.7818609E-02  0.8362347E-01
       -2   -1    0    0    0  501  0.00000000000E+00  0.00000000000E+00  0.15016281921E+04  0.15016281921E+04  0.25500000920E-02 0. -1.
        2   -1    0    0  501    0  0.00000000000E+00  0.00000000000E+00 -0.11404746060E+04  0.11404746060E+04  0.25500000920E-02 0.  1.
    10030    2    1    2    0    0  0.00000000000E+00  0.00000000000E+00  0.36115358605E+03  0.26421027981E+04  0.26173030552E+04 0.  0.
        1    1    3    3  502    0  0.56660528352E+03 -0.53661552868E+01 -0.10102183831E+04  0.11582795537E+04  0.50400001928E-02 0.  1.
       -1    1    3    3    0  502 -0.56660528352E+03  0.53661552868E+01  0.13713719691E+04  0.14838232444E+04  0.50400001928E-02 0. -1.
</event>
<event>
 5   0  0.1051123E-06  0.3813511E+04  0.7818609E-02  0.8043262E-01
       -2   -1    0    0    0  501  0.00000000000E+00  0.00000000000E+00  0.15058070109E+04  0.15058070109E+04  0.25500000920E-02 0.  1.
        2   -1    0    0  501    0  0.00000000000E+00  0.00000000000E+00 -0.24144641549E+04  0.24144641549E+04  0.25500000920E-02 0. -1.
    10030    2    1    2    0    0  0.00000000000E+00  0.00000000000E+00 -0.90865714402E+03  0.39202711658E+04  0.38135112702E+04 0.  0.
        2    1    3    3  502    0  0.16876968572E+04 -0.66473317990E+03  0.14994214257E+03  0.18200751436E+04  0.25500000920E-02 0.  1.
       -2    1    3    3    0  502 -0.16876968572E+04  0.66473317990E+03 -0.10585992866E+04  0.21001960222E+04  0.25500000920E-02 0. -1.
</event>
<event>
 5   0  0.3848431E-07  0.3701500E+04  0.7818609E-02  0.8067629E-01
       -1   -1    0    0    0  501  0.00000000000E+00  0.00000000000E+00  0.19519227695E+04  0.19519227695E+04  0.50400001928E-02 0. -1.
        1   -1    0    0  501    0  0.00000000000E+00  0.00000000000E+00 -0.17548215777E+04  0.17548215777E+04  0.50400001928E-02 0.  1.
    10030    2    1    2    0    0  0.00000000000E+00  0.00000000000E+00  0.19710119183E+03  0.37067443472E+04  0.37015003411E+04 0.  0.
        2    1    3    3  502    0 -0.95881562663E+03  0.21251258387E+03 -0.14723614460E+04  0.17698410188E+04  0.25500000920E-02 0.  1.
       -2    1    3    3    0  502  0.95881562663E+03 -0.21251258387E+03  0.16694626379E+04  0.19369033283E+04  0.25500000920E-02 0. -1.
</event>
<event>
 5   0  0.3764495E-07  0.3670958E+04  0.7818609E-02  0.8074429E-01
       -1   -1    0    0    0  501  0.00000000000E+00  0.00000000000E+00  0.13487590869E+04  0.13487590869E+04  0.50400001928E-02 0. -1.
        1   -1    0    0  501    0  0.00000000000E+00  0.00000000000E+00 -0.24978391461E+04  0.24978391461E+04  0.50400001928E-02 0.  1.
    10030    2    1    2    0    0  0.00000000000E+00  0.00000000000E+00 -0.11490800592E+04  0.38465982330E+04  0.36709580471E+04 0.  0.
        4    1    3    3  502    0 -0.78011072829E+02 -0.16291378615E+04 -0.14567277686E+04  0.21868317960E+04  0.12699999809E+01 0.  1.
       -4    1    3    3    0  502  0.78011072829E+02  0.16291378615E+04  0.30764770937E+03  0.16597664370E+04  0.12699999809E+01 0. -1.
</event>
<event>
 5   0  0.1128530E-06  0.3749542E+04  0.7818609E-02  0.8057071E-01
       -2   -1    0    0    0  501  0.00000000000E+00  0.00000000000E+00  0.12221876258E+04  0.12221876258E+04  0.25500000920E-02 0.  1.
        2   -1    0    0  501    0  0.00000000000E+00  0.00000000000E+00 -0.28757993304E+04  0.28757993304E+04  0.25500000920E-02 0. -1.
    10030    2    1    2    0    0  0.00000000000E+00  0.00000000000E+00 -0.16536117046E+04  0.40979869562E+04  0.37495420285E+04 0.  0.
        5    1    3    3  502    0 -0.65252123973E+03  0.22597078867E+03  0.10781236329E+04  0.12803200473E+04  0.46999998093E+01 0.  1.
       -5    1    3    3    0  502  0.65252123973E+03 -0.22597078867E+03 -0.27317353375E+04  0.28176669089E+04  0.46999998093E+01 0. -1.
</event>
<event>
 5   0  0.3848431E-07  0.3854471E+04  0.7818609E-02  0.8034566E-01
        1   -1    0    0  501    0  0.00000000000E+00  0.00000000000E+00  0.10474691812E+04  0.10474691812E+04  0.50400001928E-02 0. -1.
       -1   -1    0    0    0  501  0.00000000000E+00  0.00000000000E+00 -0.35459147056E+04  0.35459147056E+04  0.50400001928E-02 0.  1.
    10030    2    1    2    0    0  0.00000000000E+00  0.00000000000E+00 -0.24984455244E+04  0.45933838868E+04  0.38544708448E+04 0.  0.
        2    1    3    3  502    0 -0.95258597925E+03  0.11035085974E+04 -0.27514704889E+04  0.31137985040E+04  0.25500000920E-02 0.  1.
       -2    1    3    3    0  502  0.95258597925E+03 -0.11035085974E+04  0.25302496452E+03  0.14795853828E+04  0.25500000920E-02 0. -1.
</event>
<event>
 5   0  0.3675819E-07  0.3621896E+04  0.7818609E-02  0.8085494E-01
       -1   -1    0    0    0  501  0.00000000000E+00  0.00000000000E+00  0.11187829226E+04  0.11187829226E+04  0.50400001928E-02 0.  1.
        1   -1    0    0  501    0  0.00000000000E+00  0.00000000000E+00 -0.29313400001E+04  0.29313400001E+04  0.50400001928E-02 0. -1.
    10030    2    1    2    0    0  0.00000000000E+00  0.00000000000E+00 -0.18125570775E+04  0.40501229227E+04  0.36218962616E+04 0.  0.
        5    1    3    3  502    0 -0.13932147295E+00  0.82406798578E+03 -0.27095212887E+04  0.28320691674E+04  0.46999998093E+01 0. -1.
       -5    1    3    3    0  502  0.13932147295E+00 -0.82406798578E+03  0.89696421123E+03  0.12180537553E+04  0.46999998093E+01 0.  1.
</event>
<event>
 5   0  0.3764495E-07  0.3665516E+04  0.7818609E-02  0.8075647E-01
       -1   -1    0    0    0  501  0.00000000000E+00  0.00000000000E+00  0.18136366047E+04  0.18136366047E+04  0.50400001928E-02 0.  1.
        1   -1    0    0  501    0  0.00000000000E+00  0.00000000000E+00 -0.18520806850E+04  0.18520806850E+04  0.50400001928E-02 0. -1.
    10030    2    1    2    0    0  0.00000000000E+00  0.00000000000E+00 -0.38444080323E+02  0.36657172898E+04  0.36655156938E+04 0.  0.
        4    1    3    3  502    0 -0.16872494854E+04  0.27836288319E+03  0.64013431916E+03  0.18259436684E+04  0.12699999809E+01 0.  1.
       -4    1    3    3    0  502  0.16872494854E+04 -0.27836288319E+03 -0.67857839948E+03  0.18397736214E+04  0.12699999809E+01 0. -1.
</event>
<event>
 5   0  0.3704306E-07  0.3708931E+04  0.7818609E-02  0.8065985E-01
       -1   -1    0    0    0  501  0.00000000000E+00  0.00000000000E+00  0.32450594798E+04  0.32450594798E+04  0.50400001928E-02 0.  1.
        1   -1    0    0  501    0  0.00000000000E+00  0.00000000000E+00 -0.10597781443E+04  0.10597781444E+04  0.50400001928E-02 0. -1.
    10030    2    1    2    0    0  0.00000000000E+00  0.00000000000E+00  0.21852813354E+04  0.43048376241E+04  0.37089314439E+04 0.  0.
        3    1    3    3  502    0  0.13002023177E+03 -0.18212674215E+04  0.71632138284E+03  0.19613864013E+04  0.10100000352E+00 0. -1.
       -3    1    3    3    0  502 -0.13002023177E+03  0.18212674215E+04  0.14689599526E+04  0.23434512229E+04  0.10100000352E+00 0.  1.
</event>
<event>
 5   0  0.3675819E-07  0.2347677E+04  0.7818609E-02  0.8459357E-01
       -1   -1    0    0    0  501  0.00000000000E+00  0.00000000000E+00  0.61726443899E+03  0.61726443901E+03  0.50400001928E-02 0. -1.
        1   -1    0    0  501    0  0.00000000000E+00  0.00000000000E+00 -0.22322626149E+04  0.22322626149E+04  0.50400001928E-02 0.  1.
    10030    2    1    2    0    0  0.00000000000E+00  0.00000000000E+00 -0.16149981759E+04  0.28495270539E+04  0.23476765797E+04 0.  0.
        5    1    3    3  502    0 -0.83185731115E+03  0.81714935272E+03 -0.97104049859E+03  0.15174522696E+04  0.46999998093E+01 0. -1.
       -5    1    3    3    0  502  0.83185731115E+03 -0.81714935272E+03 -0.64395767734E+03  0.13320747843E+04  0.46999998093E+01 0.  1.
</event>
<event>
 5   0  0.3682276E-07  0.2303757E+04  0.7818609E-02  0.8476441E-01
       -1   -1    0    0    0  501  0.00000000000E+00  0.00000000000E+00  0.12578700742E+04  0.12578700742E+04  0.50400001928E-02 0.  1.
        1   -1    0    0  501    0  0.00000000000E+00  0.00000000000E+00 -0.10548181155E+04  0.10548181155E+04  0.50400001928E-02 0. -1.
    10030    2    1    2    0    0  0.00000000000E+00  0.00000000000E+00  0.20305195867E+03  0.23126881897E+04  0.23037570542E+04 0.  0.
        1    1    3    3  502    0  0.34068648887E+03 -0.94167069577E+03  0.67295425718E+03  0.12065149876E+04  0.50400001928E-02 0.  1.
       -1    1    3    3    0  502 -0.34068648887E+03  0.94167069577E+03 -0.46990229850E+03  0.11061732021E+04  0.50400001928E-02 0. -1.
</event>
<event>
 5   0  0.1092116E-06  0.2508410E+04  0.7818609E-02  0.8399996E-01
       -2   -1    0    0    0  501  0.00000000000E+00  0.00000000000E+00  0.15758613708E+04  0.15758613708E+04  0.25500000920E-02 0.  1.
        2   -1    0    0  501    0  0.00000000000E+00  0.00000000000E+00 -0.99820341203E+03  0.99820341204E+03  0.25500000920E-02 0. -1.
    10030    2    1    2    0    0  0.00000000000E+00  0.00000000000E+00  0.57765795879E+03  0.25740647829E+04  0.25084100121E+04 0.  0.
        1    1    3    3  502    0  0.77200464064E+03 -0.98197630899E+03  0.40475284149E+03  0.13130474094E+04  0.50400001928E-02 0. -1.
       -1    1    3    3    0  502 -0.77200464064E+03  0.98197630899E+03  0.17290511729E+03  0.12610173735E+04  0.50400001928E-02 0.  1.
</event>
<event>
 5   0  0.3682276E-07  0.3726463E+04  0.7818609E-02  0.8062122E-01
       -1   -1    0    0    0  501  0.00000000000E+00  0.00000000000E+00  0.17037583885E+04  0.17037583885E+04  0.50400001928E-02 0.  1.
        1   -1    0    0  501    0  0.00000000000E+00  0.00000000000E+00 -0.20376316026E+04  0.20376316026E+04  0.50400001928E-02 0. -1.
    10030    2    1    2    0    0  0.00000000000E+00  0.00000000000E+00 -0.33387321415E+03  0.37413899911E+04  0.37264631680E+04 0.  0.
        1    1    3    3  502    0  0.40183050842E+03 -0.18184596419E+04 -0.22520967493E+03  0.18758951528E+04  0.50400001928E-02 0.  1.
       -1    1    3    3    0  502 -0.40183050842E+03  0.18184596419E+04 -0.10866353922E+03  0.18654948382E+04  0.50400001928E-02 0. -1.
</event>
<event>
 5   0  0.1066907E-06  0.3723617E+04  0.7818609E-02  0.8062748E-01
        2   -1    0    0  501    0  0.00000000000E+00  0.00000000000E+00  0.19458797411E+04  0.19458797411E+04  0.25500000920E-02 0.  1.
       -2   -1    0    0    0  501  0.00000000000E+00  0.00000000000E+00 -0.17813696699E+04  0.17813696699E+04  0.25500000920E-02 0. -1.
    10030    2    1    2    0    0  0.00000000000E+00  0.00000000000E+00  0.16451007119E+03  0.37272494109E+04  0.37236171403E+04 0.  0.
        4    1    3    3  502    0 -0.17393682847E+04 -0.33580282135E+03 -0.49115974786E+03  0.18383158258E+04  0.12699999809E+01 0.  1.
       -4    1    3    3    0  502  0.17393682847E+04  0.33580282135E+03  0.65566981905E+03  0.18889335851E+04  0.12699999809E+01 0. -1.
</event>
<event>
 5   0  0.1128530E-06  0.3650808E+04  0.7818609E-02  0.8078952E-01
       -2   -1    0    0    0  501  0.00000000000E+00  0.00000000000E+00  0.10749012778E+04  0.10749012778E+04  0.25500000920E-02 0.  1.
        2   -1    0    0  501    0  0.00000000000E+00  0.00000000000E+00 -0.30999125573E+04  0.30999125573E+04  0.25500000920E-02 0. -1.
    10030    2    1    2    0    0  0.00000000000E+00  0.00000000000E+00 -0.20250112796E+04  0.41748138351E+04  0.36508081127E+04 0.  0.
        5    1    3    3  502    0  0.14565154168E+04  0.29084162865E+03  0.20095949994E+03  0.14988104694E+04  0.46999998093E+01 0.  1.
       -5    1    3    3    0  502 -0.14565154168E+04 -0.29084162865E+03 -0.22259707795E+04  0.26760033658E+04  0.46999998093E+01 0. -1.
</event>
<event>
 5   0  0.3848431E-07  0.3651291E+04  0.7818609E-02  0.8078843E-01
        1   -1    0    0  501    0  0.00000000000E+00  0.00000000000E+00  0.10615684906E+04  0.10615684906E+04  0.50400001928E-02 0.  1.
       -1   -1    0    0    0  501  0.00000000000E+00  0.00000000000E+00 -0.31396769698E+04  0.31396769698E+04  0.50400001928E-02 0. -1.
    10030    2    1    2    0    0  0.00000000000E+00  0.00000000000E+00 -0.20781084792E+04  0.42012454604E+04  0.36512913561E+04 0.  0.
        2    1    3    3  502    0 -0.83978604358E+03  0.16159095237E+04 -0.11872026621E+04  0.21739030219E+04  0.25500000920E-02 0.  1.
       -2    1    3    3    0  502  0.83978604358E+03 -0.16159095237E+04 -0.89090581713E+03  0.20273424385E+04  0.25500000920E-02 0. -1.
</event>
<event>
 5   0  0.3682276E-07  0.2395801E+04  0.7818609E-02  0.8441077E-01
        1   -1    0    0  501    0  0.00000000000E+00  0.00000000000E+00  0.30348381790E+04  0.30348381790E+04  0.50400001928E-02 0. -1.
       -1   -1    0    0    0  501  0.00000000000E+00  0.00000000000E+00 -0.47283086359E+03  0.47283086362E+03  0.50400001928E-02 0.  1.
    10030    2    1    2    0    0  0.00000000000E+00  0.00000000000E+00  0.25620073154E+04  0.35076690426E+04  0.23958006237E+04 0.  0.
        1    1    3    3  502    0 -0.43661266820E+03  0.79456186559E+03  0.24273089320E+04  0.25910978044E+04  0.50400001928E-02 0. -1.
       -1    1    3    3    0  502  0.43661266820E+03 -0.79456186559E+03  0.13469838338E+03  0.91657123826E+03  0.50400001928E-02 0.  1.
</event>
<event>
 5   0  0.1051123E-06  0.2545968E+04  0.7818609E-02  0.8386790E-01
       -2   -1    0    0    0  501  0.00000000000E+00  0.00000000000E+00  0.87611025331E+03  0.87611025331E+03  0.25500000920E-02 0. -1.
        2   -1    0    0  501    0  0.00000000000E+00  0.00000000000E+00 -0.18496396051E+04  0.18496396051E+04  0.25500000920E-02 0.  1.
    10030    2    1    2    0    0  0.00000000000E+00  0.00000000000E+00 -0.97352935182E+03  0.27257498584E+04  0.25459679676E+04 0.  0.
        2    1    3    3  502    0  0.99906223169E+03 -0.32405855853E+03  0.28329581340E+03  0.10878399745E+04  0.25500000920E-02 0. -1.
       -2    1    3    3    0  502 -0.99906223169E+03  0.32405855853E+03 -0.12568251652E+04  0.16379098840E+04  0.25500000920E-02 0.  1.
</event>
<event>
 5   0  0.3704306E-07  0.3821279E+04  0.7818609E-02  0.8041604E-01
       -1   -1    0    0    0  501  0.00000000000E+00  0.00000000000E+00  0.23127882881E+04  0.23127882881E+04  0.50400001928E-02 0. -1.
        1   -1    0    0  501    0  0.00000000000E+00  0.00000000000E+00 -0.15784167538E+04  0.15784167538E+04  0.50400001928E-02 0.  1.
    10030    2    1    2    0    0  0.00000000000E+00  0.00000000000E+00  0.73437153430E+03  0.38912050419E+04  0.38212792527E+04 0.  0.
        3    1    3    3  502    0  0.78904937458E+03 -0.41170132530E+03  0.20888180679E+04  0.22705192859E+04  0.10100000352E+00 0. -1.
       -3    1    3    3    0  502 -0.78904937458E+03  0.41170132530E+03 -0.13544465336E+04  0.16206857559E+04  0.10100000352E+00 0.  1.
</event>
<event>
 5   0  0.3704306E-07  0.3766468E+04  0.7818609E-02  0.8053389E-01
        1   -1    0    0  501    0  0.00000000000E+00  0.00000000000E+00  0.31868637036E+04  0.31868637036E+04  0.50400001928E-02 0. -1.
       -1   -1    0    0    0  501  0.00000000000E+00  0.00000000000E+00 -0.11128714602E+04  0.11128714603E+04  0.50400001928E-02 0.  1.
    10030    2    1    2    0    0  0.00000000000E+00  0.00000000000E+00  0.20739922434E+04  0.42997351639E+04  0.37664676627E+04 0.  0.
        3    1    3    3  502    0  0.26216547062E+03 -0.14521328248E+04  0.23727696993E+04  0.27941826230E+04  0.10100000352E+00 0. -1.
       -3    1    3    3    0  502 -0.26216547062E+03  0.14521328248E+04 -0.29877745590E+03  0.15055525408E+04  0.10100000352E+00 0.  1.
</event>
<event>
 5   0  0.1051123E-06  0.3576813E+04  0.7818609E-02  0.8095824E-01
        2   -1    0    0  501    0  0.00000000000E+00  0.00000000000E+00  0.23660891859E+04  0.23660891859E+04  0.25500000920E-02 0. -1.
       -2   -1    0    0    0  501  0.00000000000E+00  0.00000000000E+00 -0.13517655187E+04  0.13517655187E+04  0.25500000920E-02 0.  1.
    10030    2    1    2    0    0  0.00000000000E+00  0.00000000000E+00  0.10143236672E+04  0.37178547046E+04  0.35768129812E+04 0.  0.
        2    1    3    3  502    0 -0.30078171938E+03 -0.78030188224E+03 -0.11360148753E+04  0.14106276855E+04  0.25500000920E-02 0.  1.
       -2    1    3    3    0  502  0.30078171938E+03  0.78030188224E+03  0.21503385426E+04  0.23072270191E+04  0.25500000920E-02 0. -1.
</event>
<event>
 5   0  0.3675819E-07  0.3392553E+04  0.7818609E-02  0.8139736E-01
        1   -1    0    0  501    0  0.00000000000E+00  0.00000000000E+00  0.15108436523E+04  0.15108436523E+04  0.50400001928E-02 0.  1.
       -1   -1    0    0    0  501  0.00000000000E+00  0.00000000000E+00 -0.19044687326E+04  0.19044687326E+04  0.50400001928E-02 0. -1.
    10030    2    1    2    0    0  0.00000000000E+00  0.00000000000E+00 -0.39362508025E+03  0.34153123849E+04  0.33925533131E+04 0.  0.
        5    1    3    3  502    0 -0.95715837447E+03 -0.40482353129E+03 -0.15464397226E+04  0.18632048065E+04  0.46999998093E+01 0. -1.
       -5    1    3    3    0  502  0.95715837447E+03  0.40482353129E+03  0.11528146423E+04  0.15521075784E+04  0.46999998093E+01 0.  1.
</event>
<event>
 5   0  0.1128166E-06  0.3570253E+04  0.7818609E-02  0.8097340E-01
       -2   -1    0    0    0  501  0.00000000000E+00  0.00000000000E+00  0.19411226270E+04  0.19411226270E+04  0.25500000920E-02 0.  1.
        2   -1    0    0  501    0  0.00000000000E+00  0.00000000000E+00 -0.16416666495E+04  0.16416666495E+04  0.25500000920E-02 0. -1.
    10030    2    1    2    0    0  0.00000000000E+00  0.00000000000E+00  0.29945597742E+03  0.35827892765E+04  0.35702528086E+04 0.  0.
        3    1    3    3  502    0 -0.36632767237E+02 -0.15237858397E+04  0.10821898784E+04  0.18693314816E+04  0.10100000352E+00 0. -1.
       -3    1    3    3    0  502  0.36632767237E+02  0.15237858397E+04 -0.78273390095E+03  0.17134577949E+04  0.10100000352E+00 0.  1.
</event>
<event>
 5   0  0.1128166E-06  0.2511430E+04  0.7818609E-02  0.8398925E-01
        2   -1    0    0  501    0  0.00000000000E+00  0.00000000000E+00  0.19433747409E+04  0.19433747409E+04  0.25500000920E-02 0. -1.
       -2   -1    0    0    0  501  0.00000000000E+00  0.00000000000E+00 -0.81138236122E+03  0.81138236122E+03  0.25500000920E-02 0.  1.
    10030    2    1    2    0    0  0.00000000000E+00  0.00000000000E+00  0.11319923796E+04  0.27547571021E+04  0.25114298604E+04 0.  0.
        3    1    3    3  502    0  0.44357783835E+03  0.40148508978E+03 -0.64499411623E+03  0.87975507737E+03  0.10100000352E+00 0.  1.
       -3    1    3    3    0  502 -0.44357783835E+03 -0.40148508978E+03  0.17769864959E+04  0.18750020247E+04  0.10100000352E+00 0. -1.
</event>
<event>
 5   0  0.1051123E-06  0.3646846E+04  0.7818609E-02  0.8079844E-01
       -2   -1    0    0    0  501  0.00000000000E+00  0.00000000000E+00  0.20566986339E+04  0.20566986339E+04  0.25500000920E-02 0.  1.
        2   -1    0    0  501    0  0.00000000000E+00  0.00000000000E+00 -0.16166062590E+04  0.16166062590E+04  0.25500000920E-02 0. -1.
    10030    2    1    2    0    0  0.00000000000E+00  0.00000000000E+00  0.44009237490E+03  0.36733048929E+04  0.36468462454E+04 0.  0.
        2    1    3    3  502    0  0.15409433661E+04  0.10501589729E+02  0.12019289557E+04  0.19542901411E+04  0.25500000920E-02 0.  1.
       -2    1    3    3    0  502 -0.15409433661E+04 -0.10501589729E+02 -0.76183658077E+03  0.17190147518E+04  0.25500000920E-02 0. -1.
</event>
<event>
 5   0  0.3764495E-07  0.3685852E+04  0.7818609E-02  0.8071104E-01
       -1   -1    0    0    0  501  0.00000000000E+00  0.00000000000E+00  0.16093181546E+04  0.16093181546E+04  0.50400001928E-02 0.  1.
        1   -1    0    0  501    0  0.00000000000E+00  0.00000000000E+00 -0.21104446436E+04  0.21104446436E+04  0.50400001928E-02 0. -1.
    10030    2    1    2    0    0  0.00000000000E+00  0.00000000000E+00 -0.50112648904E+03  0.37197627982E+04  0.36858523461E+04 0.  0.
        4    1    3    3  502    0  0.17056459734E+04 -0.68188001665E+03 -0.10024077933E+03  0.18396299548E+04  0.12699999809E+01 0. -1.
       -4    1    3    3    0  502 -0.17056459734E+04  0.68188001665E+03 -0.40088570971E+03  0.18801328434E+04  0.12699999809E+01 0.  1.
</event>
<event>
 5   0  0.1092116E-06  0.3769455E+04  0.7818609E-02  0.8052742E-01
       -2   -1    0    0    0  501  0.00000000000E+00  0.00000000000E+00  0.15778346387E+04  0.15778346387E+04  0.25500000920E-02 0. -1.
        2   -1    0    0  501    0  0.00000000000E+00  0.00000000000E+00 -0.22513116823E+04  0.22513116823E+04  0.25500000920E-02 0.  1.
    10030    2    1    2    0    0  0.00000000000E+00  0.00000000000E+00 -0.67347704354E+03  0.38291463210E+04  0.37694548969E+04 0.  0.
        1    1    3    3  502    0  0.58538640502E+03  0.11916124938E+04 -0.16956744061E+04  0.21535852131E+04  0.50400001928E-02 0.  1.
       -1    1    3    3    0  502 -0.58538640502E+03 -0.11916124938E+04  0.10221973625E+04  0.16755611080E+04  0.50400001928E-02 0. -1.
</event>
<event>
 5   0  0.1051123E-06  0.3628117E+04  0.7818609E-02  0.8084081E-01
       -2   -1    0    0    0  501  0.00000000000E+00  0.00000000000E+00  0.12474385398E+04  0.12474385398E+04  0.25500000920E-02 0. -1.
        2   -1    0    0  501    0  0.00000000000E+00  0.00000000000E+00 -0.26380528899E+04  0.26380528899E+04  0.25500000920E-02 0.  1.
    10030    2    1    2    0    0  0.00000000000E+00  0.00000000000E+00 -0.13906143501E+04  0.38854914297E+04  0.36281173326E+04 0.  0.
        2    1    3    3  502    0 -0.16476072647E+04  0.18416386670E+03  0.93330559255E+02  0.16604928852E+04  0.25500000920E-02 0. -1.
       -2    1    3    3    0  502  0.16476072647E+04 -0.18416386670E+03 -0.14839449094E+04  0.22249985444E+04  0.25500000920E-02 0.  1.
</event>
<event>
 5   0  0.1066907E-06  0.2746346E+04  0.7818609E-02  0.8320122E-01
       -2   -1    0    0    0  501  0.00000000000E+00  0.00000000000E+00  0.12817584395E+04  0.12817584395E+04  0.25500000920E-02 0.  1.
        2   -1    0    0  501    0  0.00000000000E+00  0.00000000000E+00 -0.14711073947E+04  0.14711073947E+04  0.25500000920E-02 0. -1.
    10030    2    1    2    0    0  0.00000000000E+00  0.00000000000E+00 -0.18934895518E+03  0.27528658342E+04  0.27463461680E+04 0.  0.
        4    1    3    3  502    0  0.50298445244E+03  0.11814738228E+04  0.39302855497E+03  0.13428874902E+04  0.12699999809E+01 0.  1.
       -4    1    3    3    0  502 -0.50298445244E+03 -0.11814738228E+04 -0.58237751015E+03  0.14099783440E+04  0.12699999809E+01 0. -1.
</event>
<event>
 5   0  0.1128166E-06  0.3735826E+04  0.7818609E-02  0.8060068E-01
       -2   -1    0    0    0  501  0.00000000000E+00  0.00000000000E+00  0.16820977576E+04  0.16820977576E+04  0.25500000920E-02 0.  1.
        2   -1    0    0  501    0  0.00000000000E+00  0.00000000000E+00 -0.20742543013E+04  0.20742543013E+04  0.25500000920E-02 0. -1.
    10030    2    1    2    0    0  0.00000000000E+00  0.00000000000E+00 -0.39215654374E+03  0.37563520589E+04  0.37358257502E+04 0.  0.
        3    1    3    3  502    0 -0.32196367097E+03 -0.66854407088E+03 -0.19196983480E+04  0.20581189318E+04  0.10100000352E+00 0. -1.
       -3    1    3    3    0  502  0.32196367097E+03  0.66854407088E+03  0.15275418042E+04  0.16982331271E+04  0.10100000352E+00 0.  1.
</event>
<event>
 5   0  0.3848431E-07  0.3738747E+04  0.7818609E-02  0.8059429E-01
       -1   -1    0    0    0  501  0.00000000000E+00  0.00000000000E+00  0.26458948268E+04  0.26458948268E+04  0.50400001928E-02 0. -1.
        1   -1    0    0  501    0  0.00000000000E+00  0.00000000000E+00 -0.13207466584E+04  0.13207466584E+04  0.50400001928E-02 0.  1.
    10030    2    1    2    0    0  0.00000000000E+00  0.00000000000E+00  0.13251481684E+04  0.39666414852E+04  0.37387467157E+04 0.  0.
        2    1    3    3  502    0 -0.80264428125E+03 -0.70315096641E+03  0.22910266489E+04  0.25273429189E+04  0.25500000920E-02 0. -1.
       -2    1    3    3    0  502  0.80264428125E+03  0.70315096641E+03 -0.96587848055E+03  0.14392985663E+04  0.25500000920E-02 0.  1.
</event>
<event>
 5   0  0.1092116E-06  0.3637627E+04  0.7818609E-02  0.8081927E-01
       -2   -1    0    0    0  501  0.00000000000E+00  0.00000000000E+00  0.90779577158E+03  0.90779577159E+03  0.25500000920E-02 0. -1.
        2   -1    0    0  501    0  0.00000000000E+00  0.00000000000E+00 -0.36440820067E+04  0.36440820067E+04  0.25500000920E-02 0.  1.
    10030    2    1    2    0    0  0.00000000000E+00  0.00000000000E+00 -0.27362862351E+04  0.45518777783E+04  0.36376268291E+04 0.  0.
        1    1    3    3  502    0  0.18318450709E+03 -0.34963182187E+02 -0.36320865375E+04  0.36368711283E+04  0.50400001928E-02 0.  1.
       -1    1    3    3    0  502 -0.18318450709E+03  0.34963182187E+02  0.89580030240E+03  0.91500665000E+03  0.50400001928E-02 0. -1.
</event>
<event>
 5   0  0.1066907E-06  0.3622831E+04  0.7818609E-02  0.8085282E-01
       -2   -1    0    0    0  501  0.00000000000E+00  0.00000000000E+00  0.17002434121E+04  0.17002434121E+04  0.25500000920E-02 0. -1.
        2   -1    0    0  501    0  0.00000000000E+00  0.00000000000E+00 -0.19298570257E+04  0.19298570257E+04  0.25500000920E-02 0.  1.
    10030    2    1    2    0    0  0.00000000000E+00  0.00000000000E+00 -0.22961361359E+03  0.36301004378E+04  0.36228313205E+04 0.  0.
        4    1    3    3  502    0  0.88137084765E+03 -0.40113096232E+03 -0.16487293140E+04  0.19120749420E+04  0.12699999809E+01 0.  1.
       -4    1    3    3    0  502 -0.88137084765E+03  0.40113096232E+03  0.14191157004E+04  0.17180254958E+04  0.12699999809E+01 0. -1.
</event>
<event>
 5   0  0.3682276E-07  0.3701713E+04  0.7818609E-02  0.8067582E-01
        1   -1    0    0  501    0  0.00000000000E+00  0.00000000000E+00  0.15712005339E+04  0.15712005339E+04  0.50400001928E-02 0.  1.
       -1   -1    0    0    0  501  0.00000000000E+00  0.00000000000E+00 -0.21802880085E+04  0.21802880085E+04  0.50400001928E-02 0. -1.
    10030    2    1    2    0    0  0.00000000000E+00  0.00000000000E+00 -0.60908747453E+03  0.37514885424E+04  0.37017129457E+04 0.  0.
        1    1    3    3  502    0 -0.95428384421E+03  0.41524066296E+03 -0.18556757870E+04  0.21275843321E+04  0.50400001928E-02 0. -1.
       -1    1    3    3    0  502  0.95428384421E+03 -0.41524066296E+03  0.12465883125E+04  0.16239042103E+04  0.50400001928E-02 0.  1.
</event>
<event>
 5   0  0.3848431E-07  0.3695320E+04  0.7818609E-02  0.8069000E-01
       -1   -1    0    0    0  501  0.00000000000E+00  0.00000000000E+00  0.12022580196E+04  0.12022580197E+04  0.50400001928E-02 0.  1.
        1   -1    0    0  501    0  0.00000000000E+00  0.00000000000E+00 -0.28395292703E+04  0.28395292703E+04  0.50400001928E-02 0. -1.
    10030    2    1    2    0    0  0.00000000000E+00  0.00000000000E+00 -0.16372712507E+04  0.40417872900E+04  0.36953196545E+04 0.  0.
        2    1    3    3  502    0 -0.25994084005E+03 -0.12978004289E+04 -0.22286899987E+04  0.25920868627E+04  0.25500000920E-02 0. -1.
       -2    1    3    3    0  502  0.25994084005E+03  0.12978004289E+04  0.59141874799E+03  0.14497004273E+04  0.25500000920E-02 0.  1.
</event>
<event>
 5   0  0.3675819E-07  0.3698952E+04  0.7818609E-02  0.8068194E-01
        1   -1    0    0  501    0  0.00000000000E+00  0.00000000000E+00  0.14196586338E+04  0.14196586338E+04  0.50400001928E-02 0.  1.
       -1   -1    0    0    0  501  0.00000000000E+00  0.00000000000E+00 -0.24094251518E+04  0.24094251518E+04  0.50400001928E-02 0. -1.
    10030    2    1    2    0    0  0.00000000000E+00  0.00000000000E+00 -0.98976651798E+03  0.38290837856E+04  0.36989518620E+04 0.  0.
        5    1    3    3  502    0  0.10947387013E+03 -0.11385089036E+04  0.10096415139E+04  0.15256425297E+04  0.46999998093E+01 0.  1.
       -5    1    3    3    0  502 -0.10947387013E+03  0.11385089036E+04 -0.19994080318E+04  0.23034412560E+04  0.46999998093E+01 0. -1.
</event>
<event>
 5   0  0.3704306E-07  0.3715675E+04  0.7818609E-02  0.8064497E-01
        1   -1    0    0  501    0  0.00000000000E+00  0.00000000000E+00  0.17249376142E+04  0.17249376142E+04  0.50400001928E-02 0.  1.
       -1   -1    0    0    0  501  0.00000000000E+00  0.00000000000E+00 -0.20009770635E+04  0.20009770635E+04  0.50400001928E-02 0. -1.
    10030    2    1    2    0    0  0.00000000000E+00  0.00000000000E+00 -0.27603944924E+03  0.37259146777E+04  0.37156752291E+04 0.  0.
        3    1    3    3  502    0  0.37430600922E+03  0.48395939231E+03 -0.18970599295E+04  0.19932782215E+04  0.10100000352E+00 0. -1.
       -3    1    3    3    0  502 -0.37430600922E+03 -0.48395939231E+03  0.16210204802E+04  0.17326364562E+04  0.10100000352E+00 0.  1.
</event>
<event>
 5   0  0.1066907E-06  0.3684631E+04  0.7818609E-02  0.8071376E-01
        2   -1    0    0  501    0  0.00000000000E+00  0.00000000000E+00  0.18202036260E+04  0.18202036260E+04  0.25500000920E-02 0.  1.
       -2   -1    0    0    0  501  0.00000000000E+00  0.00000000000E+00 -0.18646956607E+04  0.18646956607E+04  0.25500000920E-02 0. -1.
    10030    2    1    2    0    0  0.00000000000E+00  0.00000000000E+00 -0.44492034630E+02  0.36848992867E+04  0.36846306751E+04 0.  0.
        4    1    3    3  502    0  0.43161460951E+03  0.17633803845E+04  0.29134125056E+03  0.18386633430E+04  0.12699999809E+01 0.  1.
       -4    1    3    3    0  502 -0.43161460951E+03 -0.17633803845E+04 -0.33583328519E+03  0.18462359437E+04  0.12699999809E+01 0. -1.
</event>
<event>
 5   0  0.3682276E-07  0.3014327E+04  0.7818609E-02  0.8239652E-01
        1   -1    0    0  501    0  0.00000000000E+00  0.00000000000E+00  0.16532284719E+04  0.16532284720E+04  0.50400001928E-02 0. -1.
       -1   -1    0    0    0  501  0.00000000000E+00  0.00000000000E+00 -0.13740035783E+04  0.13740035783E+04  0.50400001928E-02 0.  1.
    10030    2    1    2    0    0  0.00000000000E+00  0.00000000000E+00  0.27922489363E+03  0.30272320503E+04  0.30143270136E+04 0.  0.
        1    1    3    3  502    0 -0.11080923318E+04 -0.51780905710E+03  0.10240341850E+04  0.15951930439E+04  0.50400001928E-02 0. -1.
       -1    1    3    3    0  502  0.11080923318E+04  0.51780905710E+03 -0.74480929133E+03  0.14320390064E+04  0.50400001928E-02 0.  1.
</event>
<event>
 5   0  0.1128530E-06  0.3834097E+04  0.7818609E-02  0.8038877E-01
       -2   -1    0    0    0  501  0.00000000000E+00  0.00000000000E+00  0.19653114517E+04  0.19653114517E+04  0.25500000920E-02 0.  1.
        2   -1    0    0  501    0  0.00000000000E+00  0.00000000000E+00 -0.18699705611E+04  0.18699705611E+04  0.25500000920E-02 0. -1.
    10030    2    1    2    0    0  0.00000000000E+00  0.00000000000E+00  0.95340890645E+02  0.38352820128E+04  0.38340967948E+04 0.  0.
        5    1    3    3  502    0 -0.47009755898E+03 -0.17739637822E+04  0.60201975306E+03  0.19314215202E+04  0.46999998093E+01 0.  1.
       -5    1    3    3    0  502  0.47009755898E+03  0.17739637822E+04 -0.50667886241E+03  0.19038604926E+04  0.46999998093E+01 0. -1.
</event>
<event>
 5   0  0.1128530E-06  0.2442838E+04  0.7818609E-02  0.8423637E-01
       -2   -1    0    0    0  501  0.00000000000E+00  0.00000000000E+00  0.63330140100E+03  0.63330140100E+03  0.25500000920E-02 0.  1.
        2   -1    0    0  501    0  0.00000000000E+00  0.00000000000E+00 -0.23556948758E+04  0.23556948758E+04  0.25500000920E-02 0. -1.
    10030    2    1    2    0    0  0.00000000000E+00  0.00000000000E+00 -0.17223934748E+04  0.29889962768E+04  0.24428384025E+04 0.  0.
        5    1    3    3  502    0  0.41668164811E+03 -0.29510732433E+03  0.49643737541E+03  0.71216858007E+03  0.46999998093E+01 0.  1.
       -5    1    3    3    0  502 -0.41668164811E+03  0.29510732433E+03 -0.22188308502E+04  0.22768276967E+04  0.46999998093E+01 0. -1.
</event>
<event>
 5   0  0.1128530E-06  0.3333288E+04  0.7818609E-02  0.8154477E-01
       -2   -1    0    0    0  501  0.00000000000E+00  0.00000000000E+00  0.12373931588E+04  0.12373931588E+04  0.25500000920E-02 0.  1.
        2   -1    0    0  501    0  0.00000000000E+00  0.00000000000E+00 -0.22448016438E+04  0.22448016438E+04  0.25500000920E-02 0. -1.
    10030    2    1    2    0    0  0.00000000000E+00  0.00000000000E+00 -0.10074084850E+04  0.34821948026E+04  0.33332879845E+04 0.  0.
        5    1    3    3  502    0 -0.71078293041E+03 -0.37971223709E+03  0.10203318633E+04  0.13001895856E+04  0.46999998093E+01 0.  1.
       -5    1    3    3    0  502  0.71078293041E+03  0.37971223709E+03 -0.20277403483E+04  0.21820052171E+04  0.46999998093E+01 0. -1.
</event>
<event>
 5   0  0.1051123E-06  0.2749354E+04  0.7818609E-02  0.8319167E-01
        2   -1    0    0  501    0  0.00000000000E+00  0.00000000000E+00  0.15522218004E+04  0.15522218004E+04  0.25500000920E-02 0.  1.
       -2   -1    0    0    0  501  0.00000000000E+00  0.00000000000E+00 -0.12174402786E+04  0.12174402786E+04  0.25500000920E-02 0. -1.
    10030    2    1    2    0    0  0.00000000000E+00  0.00000000000E+00  0.33478152185E+03  0.27696620790E+04  0.27493543541E+04 0.  0.
        2    1    3    3  502    0  0.62140717541E+03  0.10510510068E+04  0.80362702511E+03  0.14617357805E+04  0.25500000920E-02 0.  1.
       -2    1    3    3    0  502 -0.62140717541E+03 -0.10510510068E+04 -0.46884550326E+03  0.13079262985E+04  0.25500000920E-02 0. -1.
</event>
<event>
 5   0  0.3764495E-07  0.3669587E+04  0.7818609E-02  0.8074735E-01
        1   -1    0    0  501    0  0.00000000000E+00  0.00000000000E+00  0.22341395710E+04  0.22341395710E+04  0.50400001928E-02 0.  1.
       -1   -1    0    0    0  501  0.00000000000E+00  0.00000000000E+00 -0.15068293929E+04  0.15068293929E+04  0.50400001928E-02 0. -1.
    10030    2    1    2    0    0  0.00000000000E+00  0.00000000000E+00  0.72731017809E+03  0.37409689639E+04  0.36695869922E+04 0.  0.
        4    1    3    3  502    0  0.27551114011E+03  0.65612833070E+03  0.20877219084E+04  0.22056734016E+04  0.12699999809E+01 0.  1.
       -4    1    3    3    0  502 -0.27551114011E+03 -0.65612833070E+03 -0.13604117303E+04  0.15352955623E+04  0.12699999809E+01 0. -1.
</event>
<event>
 5   0  0.1092116E-06  0.3764495E+04  0.7818609E-02  0.8053817E-01
       -2   -1    0    0    0  501  0.00000000000E+00  0.00000000000E+00  0.24119166344E+04  0.24119166344E+04  0.25500000920E-02 0.  1.
        2   -1    0    0  501    0  0.00000000000E+00  0.00000000000E+00 -0.14688964438E+04  0.14688964438E+04  0.25500000920E-02 0. -1.
    10030    2    1    2    0    0  0.00000000000E+00  0.00000000000E+00  0.94302019059E+03  0.38808130781E+04  0.37644950614E+04 0.  0.
        1    1    3    3  502    0 -0.18351381254E+04  0.27337722147E+03  0.79814188960E+03  0.20197766017E+04  0.50400001928E-02 0. -1.
       -1    1    3    3    0  502  0.18351381254E+04 -0.27337722147E+03  0.14487830100E+03  0.18610364765E+04  0.50400001928E-02 0.  1.
</event>
<event>
 5   0  0.1128530E-06  0.3729079E+04  0.7818609E-02  0.8061548E-01
        2   -1    0    0  501    0  0.00000000000E+00  0.00000000000E+00  0.25773617760E+04  0.25773617760E+04  0.25500000920E-02 0.  1.
       -2   -1    0    0    0  501  0.00000000000E+00  0.00000000000E+00 -0.13488627765E+04  0.13488627765E+04  0.25500000920E-02 0. -1.
    10030    2    1    2    0    0  0.00000000000E+00  0.00000000000E+00  0.12284989995E+04  0.39262245526E+04  0.37290789004E+04 0.  0.
        5    1    3    3  502    0  0.62822588136E+03  0.51453192982E+03 -0.11528976772E+04  0.14101794244E+04  0.46999998093E+01 0. -1.
       -5    1    3    3    0  502 -0.62822588136E+03 -0.51453192982E+03  0.23813966768E+04  0.25160451282E+04  0.46999998093E+01 0.  1.
</event>
<event>
 5   0  0.1066907E-06  0.3683028E+04  0.7818609E-02  0.8071734E-01
        2   -1    0    0  501    0  0.00000000000E+00  0.00000000000E+00  0.20034412489E+04  0.20034412489E+04  0.25500000920E-02 0. -1.
       -2   -1    0    0    0  501  0.00000000000E+00  0.00000000000E+00 -0.16926741798E+04  0.16926741798E+04  0.25500000920E-02 0.  1.
    10030    2    1    2    0    0  0.00000000000E+00  0.00000000000E+00  0.31076706918E+03  0.36961154287E+04  0.36830277071E+04 0.  0.
        4    1    3    3  502    0 -0.78720532751E+03 -0.15282267366E+02  0.18260050499E+04  0.19885225245E+04  0.12699999809E+01 0. -1.
       -4    1    3    3    0  502  0.78720532751E+03  0.15282267366E+02 -0.15152379807E+04  0.17075929042E+04  0.12699999809E+01 0.  1.
</event>
<event>
 5   0  0.1128166E-06  0.3759235E+04  0.7818609E-02  0.8054960E-01
        2   -1    0    0  501    0  0.00000000000E+00  0.00000000000E+00  0.13730025453E+04  0.13730025453E+04  0.25500000920E-02 0. -1.
       -2   -1    0    0    0  501  0.00000000000E+00  0.00000000000E+00 -0.25731655016E+04  0.25731655016E+04  0.25500000920E-02 0.  1.
    10030    2    1    2    0    0  0.00000000000E+00  0.00000000000E+00 -0.12001629563E+04  0.39461680470E+04  0.37592354453E+04 0.  0.
        3    1    3    3  502    0 -0.99726706963E+03  0.15249930460E+04 -0.11582037241E+03  0.18258038688E+04  0.10100000352E+00 0. -1.
       -3    1    3    3    0  502  0.99726706963E+03 -0.15249930460E+04 -0.10843425839E+04  0.21203641781E+04  0.10100000352E+00 0.  1.
</event>
<event>
 5   0  0.1128530E-06  0.3687387E+04  0.7818609E-02  0.8070763E-01
        2   -1    0    0  501    0  0.00000000000E+00  0.00000000000E+00  0.28195524107E+04  0.28195524107E+04  0.25500000920E-02 0.  1.
       -2   -1    0    0    0  501  0.00000000000E+00  0.00000000000E+00 -0.12055832936E+04  0.12055832936E+04  0.25500000920E-02 0. -1.
    10030    2    1    2    0    0  0.00000000000E+00  0.00000000000E+00  0.16139691171E+04  0.40251357043E+04  0.36873867612E+04 0.  0.
        5    1    3    3  502    0  0.39377268807E+03 -0.10715525166E+04 -0.77334355249E+03  0.13788995851E+04  0.46999998093E+01 0. -1.
       -5    1    3    3    0  502 -0.39377268807E+03  0.10715525166E+04  0.23873126696E+04  0.26462361191E+04  0.46999998093E+01 0.  1.
</event>
<event>
 5   0  0.3764495E-07  0.2569160E+04  0.7818609E-02  0.8378753E-01
        1   -1    0    0  501    0  0.00000000000E+00  0.00000000000E+00  0.10704335582E+04  0.10704335582E+04  0.50400001928E-02 0. -1.
       -1   -1    0    0    0  501  0.00000000000E+00  0.00000000000E+00 -0.15415670842E+04  0.15415670842E+04  0.50400001928E-02 0.  1.
    10030    2    1    2    0    0  0.00000000000E+00  0.00000000000E+00 -0.47113352604E+03  0.26120006424E+04  0.25691595039E+04 0.  0.
        4    1    3    3  502    0  0.11162720077E+04 -0.58256313076E+03 -0.49417129414E+03  0.13526455106E+04  0.12699999809E+01 0.  1.
       -4    1    3    3    0  502 -0.11162720077E+04  0.58256313076E+03  0.23037768100E+02  0.12593551318E+04  0.12699999809E+01 0. -1.
</event>
<event>
 5   0  0.3675819E-07  0.3310708E+04  0.7818609E-02  0.8160176E-01
        1   -1    0    0  501    0  0.00000000000E+00  0.00000000000E+00  0.15322484988E+04  0.15322484988E+04  0.50400001928E-02 0.  1.
       -1   -1    0    0    0  501  0.00000000000E+00  0.00000000000E+00 -0.17883506128E+04  0.17883506128E+04  0.50400001928E-02 0. -1.
    10030    2    1    2    0    0  0.00000000000E+00  0.00000000000E+00 -0.25610211394E+03  0.33205991116E+04  0.33107084087E+04 0.  0.
        5    1    3    3  502    0  0.11734849543E+04 -0.29800227317E+03  0.10041717409E+04  0.15729765631E+04  0.46999998093E+01 0.  1.
       -5    1    3    3    0  502 -0.11734849543E+04  0.29800227317E+03 -0.12602738549E+04  0.17476225485E+04  0.46999998093E+01 0. -1.
</event>
<event>
 5   0  0.3490375E-07  0.3726761E+04  0.7818609E-02  0.8062057E-01
       -3   -1    0    0    0  501  0.00000000000E+00  0.00000000000E+00  0.14327125805E+04  0.14327125840E+04  0.10100000352E+00 0.  1.
        3   -1    0    0  501    0  0.00000000000E+00  0.00000000000E+00 -0.24235059437E+04  0.24235059458E+04  0.10100000352E+00 0. -1.
    10030    2    1    2    0    0  0.00000000000E+00  0.00000000000E+00 -0.99079336323E+03  0.38562185298E+04  0.37267613099E+04 0.  0.
        1    1    3    3  502    0  0.97112651506E+03  0.14567277584E+04 -0.11555598163E+04  0.20977275704E+04  0.50400001928E-02 0. -1.
       -1    1    3    3    0  502 -0.97112651506E+03 -0.14567277584E+04  0.16476645312E+03  0.17584909595E+04  0.50400001928E-02 0.  1.
</event>
<event>
 5   0  0.1092116E-06  0.3559265E+04  0.7818609E-02  0.8099887E-01
       -2   -1    0    0    0  501  0.00000000000E+00  0.00000000000E+00  0.20310302022E+04  0.20310302022E+04  0.25500000920E-02 0. -1.
        2   -1    0    0  501    0  0.00000000000E+00  0.00000000000E+00 -0.15593523299E+04  0.15593523299E+04  0.25500000920E-02 0.  1.
    10030    2    1    2    0    0  0.00000000000E+00  0.00000000000E+00  0.47167787228E+03  0.35903825321E+04  0.35592649117E+04 0.  0.
        1    1    3    3  502    0 -0.49140819485E+03  0.94982008551E+03  0.16707560173E+04  0.19837000474E+04  0.50400001928E-02 0. -1.
       -1    1    3    3    0  502  0.49140819485E+03 -0.94982008551E+03 -0.11990781450E+04  0.16066824847E+04  0.50400001928E-02 0.  1.
</event>
<event>
 5   0  0.1128530E-06  0.3051457E+04  0.7818609E-02  0.8229188E-01
        2   -1    0    0  501    0  0.00000000000E+00  0.00000000000E+00  0.21817320955E+04  0.21817320955E+04  0.25500000920E-02 0. -1.
       -2   -1    0    0    0  501  0.00000000000E+00  0.00000000000E+00 -0.10669718710E+04  0.10669718710E+04  0.25500000920E-02 0.  1.
    10030    2    1    2    0    0  0.00000000000E+00  0.00000000000E+00  0.11147602245E+04  0.32487039665E+04  0.30514565544E+04 0.  0.
        5    1    3    3  502    0  0.13682207870E+04  0.58935806152E+03  0.20676953595E+03  0.15040434760E+04  0.46999998093E+01 0. -1.
       -5    1    3    3    0  502 -0.13682207870E+04 -0.58935806152E+03  0.90799068856E+03  0.17446604905E+04  0.46999998093E+01 0.  1.
</event>
<event>
 5   0  0.3490375E-07  0.3726953E+04  0.7818609E-02  0.8062015E-01
        3   -1    0    0  501    0  0.00000000000E+00  0.00000000000E+00  0.26821416887E+04  0.26821416906E+04  0.10100000352E+00 0.  1.
       -3   -1    0    0    0  501  0.00000000000E+00  0.00000000000E+00 -0.12946912961E+04  0.12946913000E+04  0.10100000352E+00 0. -1.
    10030    2    1    2    0    0  0.00000000000E+00  0.00000000000E+00  0.13874503926E+04  0.39768329906E+04  0.37269534533E+04 0.  0.
        1    1    3    3  502    0  0.14258395649E+04  0.55912721367E+03 -0.43900585720E+03  0.15932256114E+04  0.50400001928E-02 0. -1.
       -1    1    3    3    0  502 -0.14258395649E+04 -0.55912721367E+03  0.18264562498E+04  0.23836073792E+04  0.50400001928E-02 0.  1.
</event>
<event>
 5   0  0.3682276E-07  0.3752611E+04  0.7818609E-02  0.8056402E-01
        1   -1    0    0  501    0  0.00000000000E+00  0.00000000000E+00  0.22235704142E+04  0.22235704142E+04  0.50400001928E-02 0. -1.
       -1   -1    0    0    0  501  0.00000000000E+00  0.00000000000E+00 -0.15832744201E+04  0.15832744201E+04  0.50400001928E-02 0.  1.
    10030    2    1    2    0    0  0.00000000000E+00  0.00000000000E+00  0.64029599416E+03  0.38068448343E+04  0.37526109088E+04 0.  0.
        1    1    3    3  502    0  0.12036583525E+04  0.25822484909E+03 -0.11163138542E+04  0.16618153097E+04  0.50400001928E-02 0.  1.
       -1    1    3    3    0  502 -0.12036583525E+04 -0.25822484909E+03  0.17566098484E+04  0.21450295247E+04  0.50400001928E-02 0. -1.
</event>
<event>
 5   0  0.1051123E-06  0.2561836E+04  0.7818609E-02  0.8381281E-01
       -2   -1    0    0    0  501  0.00000000000E+00  0.00000000000E+00  0.87970577059E+03  0.87970577059E+03  0.25500000920E-02 0. -1.
        2   -1    0    0  501    0  0.00000000000E+00  0.00000000000E+00 -0.18651131757E+04  0.18651131757E+04  0.25500000920E-02 0.  1.
    10030    2    1    2    0    0  0.00000000000E+00  0.00000000000E+00 -0.98540740508E+03  0.27448189463E+04  0.25618359225E+04 0.  0.
        2    1    3    3  502    0  0.97049220452E+02  0.70981638258E+03  0.64497417726E+03  0.96397590090E+03  0.25500000920E-02 0. -1.
       -2    1    3    3    0  502 -0.97049220452E+02 -0.70981638258E+03 -0.16303815823E+04  0.17808430454E+04  0.25500000920E-02 0.  1.
</event>
<event>
 5   0  0.3682276E-07  0.3476281E+04  0.7818609E-02  0.8119434E-01
        1   -1    0    0  501    0  0.00000000000E+00  0.00000000000E+00  0.21298187099E+04  0.21298187099E+04  0.50400001928E-02 0.  1.
       -1   -1    0    0    0  501  0.00000000000E+00  0.00000000000E+00 -0.14184928745E+04  0.14184928745E+04  0.50400001928E-02 0. -1.
    10030    2    1    2    0    0  0.00000000000E+00  0.00000000000E+00  0.71132583538E+03  0.35483115844E+04  0.34762811532E+04 0.  0.
        1    1    3    3  502    0 -0.20889041751E+03 -0.98904097171E+03 -0.10875996239E+04  0.14848266539E+04  0.50400001928E-02 0. -1.
       -1    1    3    3    0  502  0.20889041751E+03  0.98904097171E+03  0.17989254593E+04  0.20634849305E+04  0.50400001928E-02 0.  1.
</event>
<event>
 5   0  0.1066907E-06  0.3641160E+04  0.7818609E-02  0.8081128E-01
        2   -1    0    0  501    0  0.00000000000E+00  0.00000000000E+00  0.18112367387E+04  0.18112367387E+04  0.25500000920E-02 0. -1.
       -2   -1    0    0    0  501  0.00000000000E+00  0.00000000000E+00 -0.18299711601E+04  0.18299711601E+04  0.25500000920E-02 0.  1.
    10030    2    1    2    0    0  0.00000000000E+00  0.00000000000E+00 -0.18734421362E+02  0.36412078988E+04  0.36411597031E+04 0.  0.
        4    1    3    3  502    0 -0.16733376566E+04 -0.56915351483E+02  0.70563254172E+03  0.18169251958E+04  0.12699999809E+01 0. -1.
       -4    1    3    3    0  502  0.16733376566E+04  0.56915351483E+02 -0.72436696308E+03  0.18242827030E+04  0.12699999809E+01 0.  1.
</event>
<event>
 5   0  0.1092116E-06  0.2720914E+04  0.7818609E-02  0.8328251E-01
       -2   -1    0    0    0  501  0.00000000000E+00  0.00000000000E+00  0.78213974979E+03  0.78213974979E+03  0.25500000920E-02 0.  1.
        2   -1    0    0  501    0  0.00000000000E+00  0.00000000000E+00 -0.23663848380E+04  0.23663848380E+04  0.25500000920E-02 0. -1.
    10030    2    1    2    0    0  0.00000000000E+00  0.00000000000E+00 -0.15842450882E+04  0.31485245878E+04  0.27209142913E+04 0.  0.
        1    1    3    3  502    0 -0.66110786630E+02 -0.48654098429E+03 -0.22602763761E+04  0.23129941768E+04  0.50400001928E-02 0. -1.
       -1    1    3    3    0  502  0.66110786630E+02  0.48654098429E+03  0.67603128788E+03  0.83553041101E+03  0.50400001928E-02 0.  1.
</event>
<event>
 5   0  0.3848431E-07  0.3848285E+04  0.7818609E-02  0.8035872E-01
        1   -1    0    0  501    0  0.00000000000E+00  0.00000000000E+00  0.25004616087E+04  0.25004616087E+04  0.50400001928E-02 0. -1.
       -1   -1    0    0    0  501  0.00000000000E+00  0.00000000000E+00 -0.14806566341E+04  0.14806566342E+04  0.50400001928E-02 0.  1.
    10030    2    1    2    0    0  0.00000000000E+00  0.00000000000E+00  0.10198049745E+04  0.39811182428E+04  0.38482853685E+04 0.  0.
        2    1    3    3  502    0 -0.14174177574E+04 -0.10120603621E+04 -0.33624536208E+03  0.17738095216E+04  0.25500000920E-02 0. -1.
       -2    1    3    3    0  502  0.14174177574E+04  0.10120603621E+04  0.13560503366E+04  0.22073087212E+04  0.25500000920E-02 0.  1.
</event>
<event>
 5   0  0.3704306E-07  0.2351528E+04  0.7818609E-02  0.8457877E-01
       -1   -1    0    0    0  501  0.00000000000E+00  0.00000000000E+00  0.11384014002E+04  0.11384014002E+04  0.50400001928E-02 0. -1.
        1   -1    0    0  501    0  0.00000000000E+00  0.00000000000E+00 -0.12143530272E+04  0.12143530272E+04  0.50400001928E-02 0.  1.
    10030    2    1    2    0    0  0.00000000000E+00  0.00000000000E+00 -0.75951627054E+02  0.23527544274E+04  0.23515281725E+04 0.  0.
        3    1    3    3  502    0 -0.10166854595E+04 -0.45364371748E+03 -0.41629894048E+03  0.11885902423E+04  0.10100000352E+00 0.  1.
       -3    1    3    3    0  502  0.10166854595E+04  0.45364371748E+03  0.34034731343E+03  0.11641641851E+04  0.10100000352E+00 0. -1.
</event>
<event>
 5   0  0.1066907E-06  0.3668397E+04  0.7818609E-02  0.8075002E-01
        2   -1    0    0  501    0  0.00000000000E+00  0.00000000000E+00  0.16427515159E+04  0.16427515159E+04  0.25500000920E-02 0. -1.
       -2   -1    0    0    0  501  0.00000000000E+00  0.00000000000E+00 -0.20479569718E+04  0.20479569718E+04  0.25500000920E-02 0.  1.
    10030    2    1    2    0    0  0.00000000000E+00  0.00000000000E+00 -0.40520545591E+03  0.36907084877E+04  0.36683971540E+04 0.  0.
        4    1    3    3  502    0 -0.14553696160E+03  0.16489045127E+04 -0.99748121335E+03  0.19326245065E+04  0.12699999809E+01 0.  1.
       -4    1    3    3    0  502  0.14553696160E+03 -0.16489045127E+04  0.59227575744E+03  0.17580839812E+04  0.12699999809E+01 0. -1.
</event>
<event>
 5   0  0.3764495E-07  0.3636052E+04  0.7818609E-02  0.8082283E-01
        1   -1    0    0  501    0  0.00000000000E+00  0.00000000000E+00  0.19202350884E+04  0.19202350884E+04  0.50400001928E-02 0.  1.
       -1   -1    0    0    0  501  0.00000000000E+00  0.00000000000E+00 -0.17212575011E+04  0.17212575011E+04  0.50400001928E-02 0. -1.
    10030    2    1    2    0    0  0.00000000000E+00  0.00000000000E+00  0.19897758731E+03  0.36414925894E+04  0.36360522822E+04 0.  0.
        4    1    3    3  502    0 -0.84946204739E+03 -0.76297507978E+02  0.17074471366E+04  0.19086079788E+04  0.12699999809E+01 0.  1.
       -4    1    3    3    0  502  0.84946204739E+03  0.76297507978E+02 -0.15084695493E+04  0.17328846106E+04  0.12699999809E+01 0. -1.
</event>
<event>
 5   0  0.1066907E-06  0.3691108E+04  0.7818609E-02  0.8069935E-01
       -2   -1    0    0    0  501  0.00000000000E+00  0.00000000000E+00  0.12843664894E+04  0.12843664894E+04  0.25500000920E-02 0.  1.
        2   -1    0    0  501    0  0.00000000000E+00  0.00000000000E+00 -0.26519455597E+04  0.26519455597E+04  0.25500000920E-02 0. -1.
    10030    2    1    2    0    0  0.00000000000E+00  0.00000000000E+00 -0.13675790703E+04  0.39363120492E+04  0.36911082394E+04 0.  0.
        4    1    3    3  502    0 -0.46744488389E+03 -0.17783648804E+04 -0.51523261395E+03  0.19095948855E+04  0.12699999809E+01 0.  1.
       -4    1    3    3    0  502  0.46744488389E+03  0.17783648804E+04 -0.85234645631E+03  0.20267171637E+04  0.12699999809E+01 0. -1.
</event>
<event>
 5   0  0.3848431E-07  0.3641432E+04  0.7818609E-02  0.8081067E-01
       -1   -1    0    0    0  501  0.00000000000E+00  0.00000000000E+00  0.13368529018E+04  0.13368529018E+04  0.50400001928E-02 0.  1.
        1   -1    0    0  501    0  0.00000000000E+00  0.00000000000E+00 -0.24797097023E+04  0.24797097023E+04  0.50400001928E-02 0. -1.
    10030    2    1    2    0    0  0.00000000000E+00  0.00000000000E+00 -0.11428568005E+04  0.38165626042E+04  0.36414321970E+04 0.  0.
        2    1    3    3  502    0  0.11474885561E+04 -0.10876329500E+04  0.37495545823E+03  0.16248898473E+04  0.25500000920E-02 0.  1.
       -2    1    3    3    0  502 -0.11474885561E+04  0.10876329500E+04 -0.15178122587E+04  0.21916727568E+04  0.25500000920E-02 0. -1.
</event>
<event>
 5   0  0.1092116E-06  0.3730059E+04  0.7818609E-02  0.8061333E-01
       -2   -1    0    0    0  501  0.00000000000E+00  0.00000000000E+00  0.12675224165E+04  0.12675224165E+04  0.25500000920E-02 0. -1.
        2   -1    0    0  501    0  0.00000000000E+00  0.00000000000E+00 -0.27441999748E+04  0.27441999748E+04  0.25500000920E-02 0.  1.
    10030    2    1    2    0    0  0.00000000000E+00  0.00000000000E+00 -0.14766775583E+04  0.40117223913E+04  0.37300589719E+04 0.  0.
        1    1    3    3  502    0  0.99370826766E+03  0.14820346487E+04 -0.15472901637E+03  0.17910398906E+04  0.50400001928E-02 0. -1.
       -1    1    3    3    0  502 -0.99370826766E+03 -0.14820346487E+04 -0.13219485420E+04  0.22206825007E+04  0.50400001928E-02 0.  1.
</event>
<event>
 5   0  0.3704306E-07  0.2703589E+04  0.7818609E-02  0.8333841E-01
        1   -1    0    0  501    0  0.00000000000E+00  0.00000000000E+00  0.14897523281E+04  0.14897523281E+04  0.50400001928E-02 0.  1.
       -1   -1    0    0    0  501  0.00000000000E+00  0.00000000000E+00 -0.12266119644E+04  0.12266119644E+04  0.50400001928E-02 0. -1.
    10030    2    1    2    0    0  0.00000000000E+00  0.00000000000E+00  0.26314036363E+03  0.27163642925E+04  0.27035887481E+04 0.  0.
        3    1    3    3  502    0  0.99401372193E+03  0.88591217994E+03 -0.10286554101E+03  0.13354718266E+04  0.10100000352E+00 0. -1.
       -3    1    3    3    0  502 -0.99401372193E+03 -0.88591217994E+03  0.36600590464E+03  0.13808924659E+04  0.10100000352E+00 0.  1.
</event>
<event>
 5   0  0.3682276E-07  0.3739029E+04  0.7818609E-02  0.8059367E-01
       -1   -1    0    0    0  501  0.00000000000E+00  0.00000000000E+00  0.22337693158E+04  0.22337693158E+04  0.50400001928E-02 0.  1.
        1   -1    0    0  501    0  0.00000000000E+00  0.00000000000E+00 -0.15646575184E+04  0.15646575185E+04  0.50400001928E-02 0. -1.
    10030    2    1    2    0    0  0.00000000000E+00  0.00000000000E+00  0.66911179739E+03  0.37984268343E+04  0.37390287266E+04 0.  0.
        1    1    3    3  502    0  0.16407824856E+04 -0.79535964430E+03  0.75381023746E+03  0.19730671562E+04  0.50400001928E-02 0.  1.
       -1    1    3    3    0  502 -0.16407824856E+04  0.79535964430E+03 -0.84698440075E+02  0.18253596781E+04  0.50400001928E-02 0. -1.
</event>
<event>
 5   0  0.3704306E-07  0.3670201E+04  0.7818609E-02  0.8074598E-01
       -1   -1    0    0    0  501  0.00000000000E+00  0.00000000000E+00  0.13336258707E+04  0.13336258707E+04  0.50400001928E-02 0. -1.
        1   -1    0    0  501    0  0.00000000000E+00  0.00000000000E+00 -0.25251419662E+04  0.25251419662E+04  0.50400001928E-02 0.  1.
    10030    2    1    2    0    0  0.00000000000E+00  0.00000000000E+00 -0.11915160955E+04  0.38587678370E+04  0.36702014405E+04 0.  0.
        3    1    3    3  502    0  0.31598848726E+02  0.97964547748E+03  0.10353658499E+04  0.14257230454E+04  0.10100000352E+00 0. -1.
       -3    1    3    3    0  502 -0.31598848726E+02 -0.97964547748E+03 -0.22268819454E+04  0.24330447916E+04  0.10100000352E+00 0.  1.
</event>
<event>
 5   0  0.1128166E-06  0.3693238E+04  0.7818609E-02  0.8069462E-01
        2   -1    0    0  501    0  0.00000000000E+00  0.00000000000E+00  0.10461229136E+04  0.10461229136E+04  0.25500000920E-02 0. -1.
       -2   -1    0    0    0  501  0.00000000000E+00  0.00000000000E+00 -0.32596561720E+04  0.32596561720E+04  0.25500000920E-02 0.  1.
    10030    2    1    2    0    0  0.00000000000E+00  0.00000000000E+00 -0.22135332584E+04  0.43057790856E+04  0.36932376105E+04 0.  0.
        3    1    3    3  502    0 -0.27556808822E+03  0.13967921884E+04  0.26430786029E+03  0.14480417273E+04  0.10100000352E+00 0. -1.
       -3    1    3    3    0  502  0.27556808822E+03 -0.13967921884E+04 -0.24778411187E+04  0.28577373582E+04  0.10100000352E+00 0.  1.
</event>
<event>
 5   0  0.1051123E-06  0.3505426E+04  0.7818609E-02  0.8112505E-01
       -2   -1    0    0    0  501  0.00000000000E+00  0.00000000000E+00  0.25254276748E+04  0.25254276748E+04  0.25500000920E-02 0.  1.
        2   -1    0    0  501    0  0.00000000000E+00  0.00000000000E+00 -0.12164290929E+04  0.12164290929E+04  0.25500000920E-02 0. -1.
    10030    2    1    2    0    0  0.00000000000E+00  0.00000000000E+00  0.13089985818E+04  0.37418567677E+04  0.35054264766E+04 0.  0.
        2    1    3    3  502    0 -0.69868842455E+03 -0.12668355104E+03  0.23650108079E+04  0.24693096926E+04  0.25500000920E-02 0.  1.
       -2    1    3    3    0  502  0.69868842455E+03  0.12668355104E+03 -0.10560122261E+04  0.12725470751E+04  0.25500000920E-02 0. -1.
</event>
<event>
 5   0  0.3764495E-07  0.3720984E+04  0.7818609E-02  0.8063327E-01
        1   -1    0    0  501    0  0.00000000000E+00  0.00000000000E+00  0.24155750158E+04  0.24155750158E+04  0.50400001928E-02 0. -1.
       -1   -1    0    0    0  501  0.00000000000E+00  0.00000000000E+00 -0.14329634972E+04  0.14329634972E+04  0.50400001928E-02 0.  1.
    10030    2    1    2    0    0  0.00000000000E+00  0.00000000000E+00  0.98261151862E+03  0.38485385130E+04  0.37209841830E+04 0.  0.
        4    1    3    3  502    0 -0.14109583041E+04 -0.23692299204E+02 -0.76271930047E+03  0.16040907097E+04  0.12699999809E+01 0.  1.
       -4    1    3    3    0  502  0.14109583041E+04  0.23692299204E+02  0.17453308191E+04  0.22444478033E+04  0.12699999809E+01 0. -1.
</event>
<event>
 5   0  0.1066907E-06  0.3711480E+04  0.7818609E-02  0.8065422E-01
       -2   -1    0    0    0  501  0.00000000000E+00  0.00000000000E+00  0.16751218016E+04  0.16751218016E+04  0.25500000920E-02 0.  1.
        2   -1    0    0  501    0  0.00000000000E+00  0.00000000000E+00 -0.20558331155E+04  0.20558331155E+04  0.25500000920E-02 0. -1.
    10030    2    1    2    0    0  0.00000000000E+00  0.00000000000E+00 -0.38071131393E+03  0.37309549171E+04  0.37114799593E+04 0.  0.
        4    1    3    3  502    0 -0.15318700669E+04 -0.76060981969E+03 -0.91428446943E+03  0.19393480615E+04  0.12699999809E+01 0. -1.
       -4    1    3    3    0  502  0.15318700669E+04  0.76060981969E+03  0.53357315550E+03  0.17916068556E+04  0.12699999809E+01 0.  1.
</event>
<event>
 5   0  0.1128530E-06  0.3517361E+04  0.7818609E-02  0.8109688E-01
       -2   -1    0    0    0  501  0.00000000000E+00  0.00000000000E+00  0.29127852091E+04  0.29127852091E+04  0.25500000920E-02 0.  1.
        2   -1    0    0  501    0  0.00000000000E+00  0.00000000000E+00 -0.10618556157E+04  0.10618556157E+04  0.25500000920E-02 0. -1.
    10030    2    1    2    0    0  0.00000000000E+00  0.00000000000E+00  0.18509295934E+04  0.39746408248E+04  0.35173611310E+04 0.  0.
        5    1    3    3  502    0 -0.17524289106E+04 -0.14794220342E+03  0.91820639352E+03  0.19839402847E+04  0.46999998093E+01 0.  1.
       -5    1    3    3    0  502  0.17524289106E+04  0.14794220342E+03  0.93272319990E+03  0.19907005400E+04  0.46999998093E+01 0. -1.
</event>
<event>
 5   0  0.3764495E-07  0.3705241E+04  0.7818609E-02  0.8066801E-01
       -1   -1    0    0    0  501  0.00000000000E+00  0.00000000000E+00  0.15553864977E+04  0.15553864977E+04  0.50400001928E-02 0. -1.
        1   -1    0    0  501    0  0.00000000000E+00  0.00000000000E+00 -0.22066557785E+04  0.22066557785E+04  0.50400001928E-02 0.  1.
    10030    2    1    2    0    0  0.00000000000E+00  0.00000000000E+00 -0.65126928083E+03  0.37620422762E+04  0.37052409385E+04 0.  0.
        4    1    3    3  502    0  0.18568309802E+02 -0.12916364984E+04  0.10227034758E+04  0.16476023909E+04  0.12699999809E+01 0. -1.
       -4    1    3    3    0  502 -0.18568309802E+02  0.12916364984E+04 -0.16739727566E+04  0.21144398854E+04  0.12699999809E+01 0.  1.
</event>
<event>
 5   0  0.1092116E-06  0.3869452E+04  0.7818609E-02  0.8031413E-01
        2   -1    0    0  501    0  0.00000000000E+00  0.00000000000E+00  0.12722299409E+04  0.12722299409E+04  0.25500000920E-02 0.  1.
       -2   -1    0    0    0  501  0.00000000000E+00  0.00000000000E+00 -0.29422073547E+04  0.29422073547E+04  0.25500000920E-02 0. -1.
    10030    2    1    2    0    0  0.00000000000E+00  0.00000000000E+00 -0.16699774139E+04  0.42144372956E+04  0.38694517901E+04 0.  0.
        1    1    3    3  502    0  0.13810750796E+04  0.11922356715E+04 -0.13388168303E+03  0.18294038857E+04  0.50400001928E-02 0.  1.
       -1    1    3    3    0  502 -0.13810750796E+04 -0.11922356715E+04 -0.15360957309E+04  0.23850334099E+04  0.50400001928E-02 0. -1.
</event>
<event>
 5   0  0.3682276E-07  0.3715579E+04  0.7818609E-02  0.8064518E-01
        1   -1    0    0  501    0  0.00000000000E+00  0.00000000000E+00  0.29394811918E+04  0.29394811918E+04  0.50400001928E-02 0.  1.
       -1   -1    0    0    0  501  0.00000000000E+00  0.00000000000E+00 -0.11741465014E+04  0.11741465014E+04  0.50400001928E-02 0. -1.
    10030    2    1    2    0    0  0.00000000000E+00  0.00000000000E+00  0.17653346904E+04  0.41136276933E+04  0.37155788553E+04 0.  0.
        1    1    3    3  502    0  0.56260974408E+03  0.10655506093E+04  0.24481713385E+04  0.27286389882E+04  0.50400001928E-02 0.  1.
       -1    1    3    3    0  502 -0.56260974408E+03 -0.10655506093E+04 -0.68283664812E+03  0.13849887051E+04  0.50400001928E-02 0. -1.
</event>
<event>
 5   0  0.1092116E-06  0.3595637E+04  0.7818609E-02  0.8091492E-01
        2   -1    0    0  501    0  0.00000000000E+00  0.00000000000E+00  0.24305832113E+04  0.24305832113E+04  0.25500000920E-02 0.  1.
       -2   -1    0    0    0  501  0.00000000000E+00  0.00000000000E+00 -0.13297840863E+04  0.13297840863E+04  0.25500000920E-02 0. -1.
    10030    2    1    2    0    0  0.00000000000E+00  0.00000000000E+00  0.11007991250E+04  0.37603672976E+04  0.35956367307E+04 0.  0.
        1    1    3    3  502    0 -0.77246316260E+03 -0.11191578543E+04 -0.67946048580E+03  0.15201579497E+04  0.50400001928E-02 0. -1.
       -1    1    3    3    0  502  0.77246316260E+03  0.11191578543E+04  0.17802596108E+04  0.22402093479E+04  0.50400001928E-02 0.  1.
</event>
<event>
 5   0  0.3764495E-07  0.3836216E+04  0.7818609E-02  0.8038427E-01
        1   -1    0    0  501    0  0.00000000000E+00  0.00000000000E+00  0.21350085001E+04  0.21350085002E+04  0.50400001928E-02 0. -1.
       -1   -1    0    0    0  501  0.00000000000E+00  0.00000000000E+00 -0.17232433346E+04  0.17232433346E+04  0.50400001928E-02 0.  1.
    10030    2    1    2    0    0  0.00000000000E+00  0.00000000000E+00  0.41176516558E+03  0.38582518347E+04  0.38362164523E+04 0.  0.
        4    1    3    3  502    0 -0.42986584159E+02  0.12911289561E+04 -0.12201034843E+04  0.17769400534E+04  0.12699999809E+01 0.  1.
       -4    1    3    3    0  502  0.42986584159E+02 -0.12911289561E+04  0.16318686499E+04  0.20813117814E+04  0.12699999809E+01 0. -1.
</event>
<event>
 5   0  0.1051123E-06  0.3635106E+04  0.7818609E-02  0.8082497E-01
       -2   -1    0    0    0  501  0.00000000000E+00  0.00000000000E+00  0.12460590017E+04  0.12460590017E+04  0.25500000920E-02 0.  1.
        2   -1    0    0  501    0  0.00000000000E+00  0.00000000000E+00 -0.26511583623E+04  0.26511583623E+04  0.25500000920E-02 0. -1.
    10030    2    1    2    0    0  0.00000000000E+00  0.00000000000E+00 -0.14050993606E+04  0.38972173640E+04  0.36351064592E+04 0.  0.
        2    1    3    3  502    0 -0.65374989635E+03  0.11332129175E+04  0.65014800400E+03  0.14609082348E+04  0.25500000920E-02 0.  1.
       -2    1    3    3    0  502  0.65374989635E+03 -0.11332129175E+04 -0.20552473646E+04  0.24363091292E+04  0.25500000920E-02 0. -1.
</event>
<event>
 5   0  0.1051123E-06  0.3632162E+04  0.7818609E-02  0.8083164E-01
       -2   -1    0    0    0  501  0.00000000000E+00  0.00000000000E+00  0.17348929756E+04  0.17348929756E+04  0.25500000920E-02 0.  1.
        2   -1    0    0  501    0  0.00000000000E+00  0.00000000000E+00 -0.19010687936E+04  0.19010687936E+04  0.25500000920E-02 0. -1.
    10030    2    1    2    0    0  0.00000000000E+00  0.00000000000E+00 -0.16617581808E+03  0.36359617692E+04  0.36321623841E+04 0.  0.
        2    1    3    3  502    0  0.85251482157E+03 -0.13342131846E+04 -0.97353766343E+03  0.18586774666E+04  0.25500000920E-02 0. -1.
       -2    1    3    3    0  502 -0.85251482157E+03  0.13342131846E+04  0.80736184535E+03  0.17772843026E+04  0.25500000920E-02 0.  1.
</event>
<event>
 5   0  0.3682276E-07  0.3671207E+04  0.7818609E-02  0.8074373E-01
        1   -1    0    0  501    0  0.00000000000E+00  0.00000000000E+00  0.11615722986E+04  0.11615722986E+04  0.50400001928E-02 0.  1.
       -1   -1    0    0    0  501  0.00000000000E+00  0.00000000000E+00 -0.29007575029E+04  0.29007575029E+04  0.50400001928E-02 0. -1.
    10030    2    1    2    0    0  0.00000000000E+00  0.00000000000E+00 -0.17391852043E+04  0.40623298016E+04  0.36712066466E+04 0.  0.
        1    1    3    3  502    0  0.18128473306E+04 -0.27102005108E+03 -0.76133128111E+03  0.19848155158E+04  0.50400001928E-02 0.  1.
       -1    1    3    3    0  502 -0.18128473306E+04  0.27102005108E+03 -0.97785392318E+03  0.20775142857E+04  0.50400001928E-02 0. -1.
</event>
<event>
 5   0  0.3675819E-07  0.3719158E+04  0.7818609E-02  0.8063729E-01
        1   -1    0    0  501    0  0.00000000000E+00  0.00000000000E+00  0.16232680854E+04  0.16232680854E+04  0.50400001928E-02 0. -1.
       -1   -1    0    0    0  501  0.00000000000E+00  0.00000000000E+00 -0.21302915055E+04  0.21302915055E+04  0.50400001928E-02 0.  1.
    10030    2    1    2    0    0  0.00000000000E+00  0.00000000000E+00 -0.50702342006E+03  0.37535595909E+04  0.37191580840E+04 0.  0.
        5    1    3    3  502    0 -0.99408883568E+03  0.15694753406E+04 -0.33517159329E+03  0.18878102513E+04  0.46999998093E+01 0.  1.
       -5    1    3    3    0  502  0.99408883568E+03 -0.15694753406E+04 -0.17185182677E+03  0.18657493396E+04  0.46999998093E+01 0. -1.
</event>
<event>
 5   0  0.3848431E-07  0.3692924E+04  0.7818609E-02  0.8069532E-01
       -1   -1    0    0    0  501  0.00000000000E+00  0.00000000000E+00  0.24576900867E+04  0.24576900867E+04  0.50400001928E-02 0. -1.
        1   -1    0    0  501    0  0.00000000000E+00  0.00000000000E+00 -0.13872466520E+04  0.13872466520E+04  0.50400001928E-02 0.  1.
    10030    2    1    2    0    0  0.00000000000E+00  0.00000000000E+00  0.10704434347E+04  0.38449367388E+04  0.36929242313E+04 0.  0.
        2    1    3    3  502    0  0.45404520426E+03  0.59150862694E+02  0.23976430745E+04  0.24409727948E+04  0.25500000920E-02 0. -1.
       -2    1    3    3    0  502 -0.45404520426E+03 -0.59150862694E+02 -0.13271996398E+04  0.14039639440E+04  0.25500000920E-02 0.  1.
</event>
<event>
 5   0  0.1128166E-06  0.2264937E+04  0.7818609E-02  0.8491876E-01
       -2   -1    0    0    0  501  0.00000000000E+00  0.00000000000E+00  0.66763713080E+03  0.66763713080E+03  0.25500000920E-02 0. -1.
        2   -1    0    0  501    0  0.00000000000E+00  0.00000000000E+00 -0.19209308089E+04  0.19209308089E+04  0.25500000920E-02 0.  1.
    10030    2    1    2    0    0  0.00000000000E+00  0.00000000000E+00 -0.12532936781E+04  0.25885679397E+04  0.22649368501E+04 0.  0.
        3    1    3    3  502    0 -0.73881075331E+03  0.22984869061E+03 -0.15717345986E+04  0.17518622687E+04  0.10100000352E+00 0.  1.
       -3    1    3    3    0  502  0.73881075331E+03 -0.22984869061E+03  0.31844092055E+03  0.83670567098E+03  0.10100000352E+00 0. -1.
</event>
<event>
 5   0  0.3848431E-07  0.3660583E+04  0.7818609E-02  0.8076754E-01
       -1   -1    0    0    0  501  0.00000000000E+00  0.00000000000E+00  0.16210116907E+04  0.16210116907E+04  0.50400001928E-02 0.  1.
        1   -1    0    0  501    0  0.00000000000E+00  0.00000000000E+00 -0.20665901444E+04  0.20665901444E+04  0.50400001928E-02 0. -1.
    10030    2    1    2    0    0  0.00000000000E+00  0.00000000000E+00 -0.44557845372E+03  0.36876018351E+04  0.36605828956E+04 0.  0.
        2    1    3    3  502    0 -0.49415727035E+03 -0.16568999498E+04 -0.82760216067E+03  0.19168813703E+04  0.25500000920E-02 0.  1.
       -2    1    3    3    0  502  0.49415727035E+03  0.16568999498E+04  0.38202370694E+03  0.17707204647E+04  0.25500000920E-02 0. -1.
</event>
<event>
 5   0  0.3682276E-07  0.3711824E+04  0.7818609E-02  0.8065346E-01
       -1   -1    0    0    0  501  0.00000000000E+00  0.00000000000E+00  0.30211055662E+04  0.30211055662E+04  0.50400001928E-02 0. -1.
        1   -1    0    0  501    0  0.00000000000E+00  0.00000000000E+00 -0.11401158127E+04  0.11401158127E+04  0.50400001928E-02 0.  1.
    10030    2    1    2    0    0  0.00000000000E+00  0.00000000000E+00  0.18809897535E+04  0.41612213789E+04  0.37118244721E+04 0.  0.
        1    1    3    3  502    0  0.78788209324E+02  0.10710003237E+03 -0.11347697090E+04  0.11425324028E+04  0.50400001928E-02 0.  1.
       -1    1    3    3    0  502 -0.78788209324E+02 -0.10710003237E+03  0.30157594625E+04  0.30186889761E+04  0.50400001928E-02 0. -1.
</event>
<event>
 5   0  0.1092116E-06  0.3691323E+04  0.7818609E-02  0.8069887E-01
       -2   -1    0    0    0  501  0.00000000000E+00  0.00000000000E+00  0.20230625851E+04  0.20230625851E+04  0.25500000920E-02 0.  1.
        2   -1    0    0  501    0  0.00000000000E+00  0.00000000000E+00 -0.16838166828E+04  0.16838166828E+04  0.25500000920E-02 0. -1.
    10030    2    1    2    0    0  0.00000000000E+00  0.00000000000E+00  0.33924590229E+03  0.37068792679E+04  0.36913230859E+04 0.  0.
        1    1    3    3  502    0  0.71664782154E+03 -0.74534735109E+03 -0.13656560354E+04  0.17129340854E+04  0.50400001928E-02 0. -1.
       -1    1    3    3    0  502 -0.71664782154E+03  0.74534735109E+03  0.17049019376E+04  0.19939451825E+04  0.50400001928E-02 0.  1.
</event>
<event>
 5   0  0.3675819E-07  0.3677500E+04  0.7818609E-02  0.8072966E-01
        1   -1    0    0  501    0  0.00000000000E+00  0.00000000000E+00  0.20171543217E+04  0.20171543217E+04  0.50400001928E-02 0. -1.
       -1   -1    0    0    0  501  0.00000000000E+00  0.00000000000E+00 -0.16761242583E+04  0.16761242583E+04  0.50400001928E-02 0.  1.
    10030    2    1    2    0    0  0.00000000000E+00  0.00000000000E+00  0.34103006338E+03  0.36932785800E+04  0.36774998526E+04 0.  0.
        5    1    3    3  502    0  0.12173982971E+04  0.70478625911E+03  0.13597396942E+04  0.19564499510E+04  0.46999998093E+01 0. -1.
       -5    1    3    3    0  502 -0.12173982971E+04 -0.70478625911E+03 -0.10187096308E+04  0.17368286290E+04  0.46999998093E+01 0.  1.
</event>
<event>
 5   0  0.1051123E-06  0.4244890E+04  0.7818609E-02  0.7956888E-01
       -2   -1    0    0    0  501  0.00000000000E+00  0.00000000000E+00  0.27077047821E+04  0.27077047821E+04  0.25500000920E-02 0.  1.
        2   -1    0    0  501    0  0.00000000000E+00  0.00000000000E+00 -0.16636871801E+04  0.16636871801E+04  0.25500000920E-02 0. -1.
    10030    2    1    2    0    0  0.00000000000E+00  0.00000000000E+00  0.10440176020E+04  0.43713919621E+04  0.42448904501E+04 0.  0.
        2    1    3    3  502    0  0.15081685705E+04 -0.81611778063E+03 -0.76592306195E+03  0.18780997859E+04  0.25500000920E-02 0.  1.
       -2    1    3    3    0  502 -0.15081685705E+04  0.81611778063E+03  0.18099406640E+04  0.24932921762E+04  0.25500000920E-02 0. -1.
</event>
<event>
 5   0  0.1051123E-06  0.3960242E+04  0.7818609E-02  0.8012615E-01
       -2   -1    0    0    0  501  0.00000000000E+00  0.00000000000E+00  0.26782433862E+04  0.26782433862E+04  0.25500000920E-02 0.  1.
        2   -1    0    0  501    0  0.00000000000E+00  0.00000000000E+00 -0.14639742027E+04  0.14639742028E+04  0.25500000920E-02 0. -1.
    10030    2    1    2    0    0  0.00000000000E+00  0.00000000000E+00  0.12142691835E+04  0.41422175890E+04  0.39602420260E+04 0.  0.
        2    1    3    3  502    0 -0.11539861800E+04 -0.15074955231E+04  0.11957105954E+04  0.22436467378E+04  0.25500000920E-02 0.  1.
       -2    1    3    3    0  502  0.11539861800E+04  0.15074955231E+04  0.18558588043E+02  0.18985708512E+04  0.25500000920E-02 0. -1.
</event>
<event>
 5   0  0.3704306E-07  0.3702936E+04  0.7818609E-02  0.8067311E-01
       -1   -1    0    0    0  501  0.00000000000E+00  0.00000000000E+00  0.12674648731E+04  0.12674648731E+04  0.50400001928E-02 0.  1.
        1   -1    0    0  501    0  0.00000000000E+00  0.00000000000E+00 -0.27045598195E+04  0.27045598195E+04  0.50400001928E-02 0. -1.
    10030    2    1    2    0    0  0.00000000000E+00  0.00000000000E+00 -0.14370949464E+04  0.39720246926E+04  0.37029364393E+04 0.  0.
        3    1    3    3  502    0 -0.16105178956E+04 -0.58813793252E+03 -0.14680816676E+04  0.22571969150E+04  0.10100000352E+00 0. -1.
       -3    1    3    3    0  502  0.16105178956E+04  0.58813793252E+03  0.30986721254E+02  0.17148277776E+04  0.10100000352E+00 0.  1.
</event>
<event>
 5   0  0.1128530E-06  0.3735302E+04  0.7818609E-02  0.8060183E-01
        2   -1    0    0  501    0  0.00000000000E+00  0.00000000000E+00  0.27632956571E+04  0.27632956571E+04  0.25500000920E-02 0. -1.
       -2   -1    0    0    0  501  0.00000000000E+00  0.00000000000E+00 -0.12623043330E+04  0.12623043330E+04  0.25500000920E-02 0.  1.
    10030    2    1    2    0    0  0.00000000000E+00  0.00000000000E+00  0.15009913241E+04  0.40255999901E+04  0.37353019055E+04 0.  0.
        5    1    3    3  502    0 -0.76531907965E+02 -0.15709833152E+04 -0.33487456868E+03  0.16081072030E+04  0.46999998093E+01 0.  1.
       -5    1    3    3    0  502  0.76531907965E+02  0.15709833152E+04  0.18358658928E+04  0.24174927871E+04  0.46999998093E+01 0. -1.
</event>
<event>
 5   0  0.3764495E-07  0.3741129E+04  0.7818609E-02  0.8058908E-01
        1   -1    0    0  501    0  0.00000000000E+00  0.00000000000E+00  0.17020839623E+04  0.17020839623E+04  0.50400001928E-02 0. -1.
       -1   -1    0    0    0  501  0.00000000000E+00  0.00000000000E+00 -0.20557220070E+04  0.20557220070E+04  0.50400001928E-02 0.  1.
    10030    2    1    2    0    0  0.00000000000E+00  0.00000000000E+00 -0.35363804467E+03  0.37578059693E+04  0.37411289521E+04 0.  0.
        4    1    3    3  502    0  0.82612422107E+03 -0.13740711688E+04 -0.11446791098E+04  0.19699859601E+04  0.12699999809E+01 0.  1.
       -4    1    3    3    0  502 -0.82612422107E+03  0.13740711688E+04  0.79104106516E+03  0.17878200092E+04  0.12699999809E+01 0. -1.
</event>
<event>
 5   0  0.1051123E-06  0.3591852E+04  0.7818609E-02  0.8092361E-01
        2   -1    0    0  501    0  0.00000000000E+00  0.00000000000E+00  0.24467984847E+04  0.24467984847E+04  0.25500000920E-02 0. -1.
       -2   -1    0    0    0  501  0.00000000000E+00  0.00000000000E+00 -0.13181922351E+04  0.13181922351E+04  0.25500000920E-02 0.  1.
    10030    2    1    2    0    0  0.00000000000E+00  0.00000000000E+00  0.11286062496E+04  0.37649907197E+04  0.35918523151E+04 0.  0.
        2    1    3    3  502    0  0.17327954043E+03  0.14238671191E+04  0.16971034381E+04  0.22220673823E+04  0.25500000920E-02 0. -1.
       -2    1    3    3    0  502 -0.17327954043E+03 -0.14238671191E+04 -0.56849718846E+03  0.15429233375E+04  0.25500000920E-02 0.  1.
</event>
<event>
 5   0  0.3675819E-07  0.2673312E+04  0.7818609E-02  0.8343717E-01
       -1   -1    0    0    0  501  0.00000000000E+00  0.00000000000E+00  0.99362555190E+03  0.99362555192E+03  0.50400001928E-02 0.  1.
        1   -1    0    0  501    0  0.00000000000E+00  0.00000000000E+00 -0.17981106553E+04  0.17981106553E+04  0.50400001928E-02 0. -1.
    10030    2    1    2    0    0  0.00000000000E+00  0.00000000000E+00 -0.80448510335E+03  0.27917362072E+04  0.26733115735E+04 0.  0.
        5    1    3    3  502    0  0.27725618787E+03  0.91284469892E+03 -0.13799149831E+04  0.16776006344E+04  0.46999998093E+01 0. -1.
       -5    1    3    3    0  502 -0.27725618787E+03 -0.91284469892E+03  0.57542987971E+03  0.11141355728E+04  0.46999998093E+01 0.  1.
</event>
<event>
 5   0  0.3848431E-07  0.2866789E+04  0.7818609E-02  0.8282828E-01
        1   -1    0    0  501    0  0.00000000000E+00  0.00000000000E+00  0.12314912831E+04  0.12314912832E+04  0.50400001928E-02 0. -1.
       -1   -1    0    0    0  501  0.00000000000E+00  0.00000000000E+00 -0.16683992085E+04  0.16683992085E+04  0.50400001928E-02 0.  1.
    10030    2    1    2    0    0  0.00000000000E+00  0.00000000000E+00 -0.43690792537E+03  0.28998904917E+04  0.28667885043E+04 0.  0.
        2    1    3    3  502    0 -0.57579543179E+03  0.21395917108E+03 -0.15285144254E+04  0.16473236643E+04  0.25500000920E-02 0.  1.
       -2    1    3    3    0  502  0.57579543179E+03 -0.21395917108E+03  0.10916065000E+04  0.12525668274E+04  0.25500000920E-02 0. -1.
</event>
<event>
 5   0  0.3675819E-07  0.4034299E+04  0.7818609E-02  0.7997663E-01
       -1   -1    0    0    0  501  0.00000000000E+00  0.00000000000E+00  0.17664768153E+04  0.17664768153E+04  0.50400001928E-02 0.  1.
        1   -1    0    0  501    0  0.00000000000E+00  0.00000000000E+00 -0.23033943917E+04  0.23033943917E+04  0.50400001928E-02 0. -1.
    10030    2    1    2    0    0  0.00000000000E+00  0.00000000000E+00 -0.53691757633E+03  0.40698712070E+04  0.40342993391E+04 0.  0.
        5    1    3    3  502    0 -0.16117371631E+04 -0.10665896392E+04  0.31418066953E+03  0.19580709192E+04  0.46999998093E+01 0. -1.
       -5    1    3    3    0  502  0.16117371631E+04  0.10665896392E+04 -0.85109824586E+03  0.21118002878E+04  0.46999998093E+01 0.  1.
</event>
<event>
 5   0  0.1051123E-06  0.2404524E+04  0.7818609E-02  0.8437812E-01
        2   -1    0    0  501    0  0.00000000000E+00  0.00000000000E+00  0.14544215384E+04  0.14544215384E+04  0.25500000920E-02 0.  1.
       -2   -1    0    0    0  501  0.00000000000E+00  0.00000000000E+00 -0.99382011448E+03  0.99382011448E+03  0.25500000920E-02 0. -1.
    10030    2    1    2    0    0  0.00000000000E+00  0.00000000000E+00  0.46060142389E+03  0.24482416529E+04  0.24045235534E+04 0.  0.
        2    1    3    3  502    0  0.89257554825E+02  0.11820563118E+04  0.43446921432E+03  0.12625321911E+04  0.25500000920E-02 0.  1.
       -2    1    3    3    0  502 -0.89257554825E+02 -0.11820563118E+04  0.26132209574E+02  0.11857094618E+04  0.25500000920E-02 0. -1.
</event>
<event>
 5   0  0.1051123E-06  0.3011787E+04  0.7818609E-02  0.8240373E-01
        2   -1    0    0  501    0  0.00000000000E+00  0.00000000000E+00  0.78071138905E+03  0.78071138905E+03  0.25500000920E-02 0.  1.
       -2   -1    0    0    0  501  0.00000000000E+00  0.00000000000E+00 -0.29046782542E+04  0.29046782542E+04  0.25500000920E-02 0. -1.
    10030    2    1    2    0    0  0.00000000000E+00  0.00000000000E+00 -0.21239668651E+04  0.36853896432E+04  0.30117871071E+04 0.  0.
        2    1    3    3  502    0 -0.55817337419E+03  0.55594143052E+03  0.50844233141E+03  0.93762572181E+03  0.25500000920E-02 0.  1.
       -2    1    3    3    0  502  0.55817337419E+03 -0.55594143052E+03 -0.26324091965E+04  0.27477639214E+04  0.25500000920E-02 0. -1.
</event>
<event>
 5   0  0.3764495E-07  0.3722328E+04  0.7818609E-02  0.8063032E-01
        1   -1    0    0  501    0  0.00000000000E+00  0.00000000000E+00  0.24806925410E+04  0.24806925410E+04  0.50400001928E-02 0. -1.
       -1   -1    0    0    0  501  0.00000000000E+00  0.00000000000E+00 -0.13963569121E+04  0.13963569121E+04  0.50400001928E-02 0.  1.
    10030    2    1    2    0    0  0.00000000000E+00  0.00000000000E+00  0.10843356289E+04  0.38770494531E+04  0.37223283985E+04 0.  0.
        4    1    3    3  502    0  0.58390142658E+03  0.17515948713E+04  0.29810985462E+03  0.18702664429E+04  0.12699999809E+01 0.  1.
       -4    1    3    3    0  502 -0.58390142658E+03 -0.17515948713E+04  0.78622577423E+03  0.20067830102E+04  0.12699999809E+01 0. -1.
</event>
<event>
 5   0  0.1066907E-06  0.3710365E+04  0.7818609E-02  0.8065669E-01
       -2   -1    0    0    0  501  0.00000000000E+00  0.00000000000E+00  0.14415100820E+04  0.14415100821E+04  0.25500000920E-02 0. -1.
        2   -1    0    0  501    0  0.00000000000E+00  0.00000000000E+00 -0.23875675953E+04  0.23875675953E+04  0.25500000920E-02 0.  1.
    10030    2    1    2    0    0  0.00000000000E+00  0.00000000000E+00 -0.94605751324E+03  0.38290776773E+04  0.37103653514E+04 0.  0.
        4    1    3    3  502    0  0.15356326549E+04  0.88024321460E+03 -0.10464180769E+04  0.20562072299E+04  0.12699999809E+01 0.  1.
       -4    1    3    3    0  502 -0.15356326549E+04 -0.88024321460E+03  0.10036056363E+03  0.17728704474E+04  0.12699999809E+01 0. -1.
</event>
<event>
 5   0  0.3675819E-07  0.3504423E+04  0.7818609E-02  0.8112742E-01
       -1   -1    0    0    0  501  0.00000000000E+00  0.00000000000E+00  0.14429258470E+04  0.14429258470E+04  0.50400001928E-02 0. -1.
        1   -1    0    0  501    0  0.00000000000E+00  0.00000000000E+00 -0.21277918066E+04  0.21277918066E+04  0.50400001928E-02 0.  1.
    10030    2    1    2    0    0  0.00000000000E+00  0.00000000000E+00 -0.68486595963E+03  0.35707176536E+04  0.35044233733E+04 0.  0.
        5    1    3    3  502    0 -0.10648379361E+04 -0.12447216591E+04  0.29143831194E+03  0.16637819023E+04  0.46999998093E+01 0. -1.
       -5    1    3    3    0  502  0.10648379361E+04  0.12447216591E+04 -0.97630427157E+03  0.19069357513E+04  0.46999998093E+01 0.  1.
</event>
<event>
 5   0  0.1051123E-06  0.3392506E+04  0.7818609E-02  0.8139748E-01
        2   -1    0    0  501    0  0.00000000000E+00  0.00000000000E+00  0.18786287072E+04  0.18786287072E+04  0.25500000920E-02 0. -1.
       -2   -1    0    0    0  501  0.00000000000E+00  0.00000000000E+00 -0.15315823785E+04  0.15315823785E+04  0.25500000920E-02 0.  1.
    10030    2    1    2    0    0  0.00000000000E+00  0.00000000000E+00  0.34704632864E+03  0.34102110857E+04  0.33925062262E+04 0.  0.
        2    1    3    3  502    0 -0.18509462193E+03 -0.16827002141E+04  0.28148288809E+03  0.17160922603E+04  0.25500000920E-02 0. -1.
       -2    1    3    3    0  502  0.18509462193E+03  0.16827002141E+04  0.65563440548E+02  0.16941188254E+04  0.25500000920E-02 0.  1.
</event>
<event>
 5   0  0.3682276E-07  0.3520787E+04  0.7818609E-02  0.8108881E-01
        1   -1    0    0  501    0  0.00000000000E+00  0.00000000000E+00  0.19557587935E+04  0.19557587936E+04  0.50400001928E-02 0. -1.
       -1   -1    0    0    0  501  0.00000000000E+00  0.00000000000E+00 -0.15845440621E+04  0.15845440621E+04  0.50400001928E-02 0.  1.
    10030    2    1    2    0    0  0.00000000000E+00  0.00000000000E+00  0.37121473144E+03  0.35403028557E+04  0.35207874024E+04 0.  0.
        1    1    3    3  502    0  0.91447519888E+03 -0.11808275699E+04 -0.75142017398E+03  0.16719003909E+04  0.50400001928E-02 0.  1.
       -1    1    3    3    0  502 -0.91447519888E+03  0.11808275699E+04  0.11226349054E+04  0.18684024647E+04  0.50400001928E-02 0. -1.
</event>
<event>
 5   0  0.1051123E-06  0.3816522E+04  0.7818609E-02  0.8042619E-01
       -2   -1    0    0    0  501  0.00000000000E+00  0.00000000000E+00  0.18544127637E+04  0.18544127637E+04  0.25500000920E-02 0.  1.
        2   -1    0    0  501    0  0.00000000000E+00  0.00000000000E+00 -0.19636726281E+04  0.19636726281E+04  0.25500000920E-02 0. -1.
    10030    2    1    2    0    0  0.00000000000E+00  0.00000000000E+00 -0.10925986437E+03  0.38180853918E+04  0.38165217596E+04 0.  0.
        2    1    3    3  502    0  0.12199729628E+04 -0.13470874280E+04 -0.63665950643E+03  0.19256982879E+04  0.25500000920E-02 0. -1.
       -2    1    3    3    0  502 -0.12199729628E+04  0.13470874280E+04  0.52739964206E+03  0.18923871039E+04  0.25500000920E-02 0.  1.
</event>
<event>
 5   0  0.1051123E-06  0.3705366E+04  0.7818609E-02  0.8066774E-01
        2   -1    0    0  501    0  0.00000000000E+00  0.00000000000E+00  0.12479228637E+04  0.12479228637E+04  0.25500000920E-02 0.  1.
       -2   -1    0    0    0  501  0.00000000000E+00  0.00000000000E+00 -0.27505177281E+04  0.27505177281E+04  0.25500000920E-02 0. -1.
    10030    2    1    2    0    0  0.00000000000E+00  0.00000000000E+00 -0.15025948644E+04  0.39984405918E+04  0.37053658173E+04 0.  0.
        2    1    3    3  502    0  0.69359125811E+03 -0.15559135075E+03 -0.25975134949E+04  0.26930194685E+04  0.25500000920E-02 0. -1.
       -2    1    3    3    0  502 -0.69359125811E+03  0.15559135075E+03  0.10949186305E+04  0.13054211233E+04  0.25500000920E-02 0.  1.
</event>
<event>
 5   0  0.3675819E-07  0.3255721E+04  0.7818609E-02  0.8174255E-01
       -1   -1    0    0    0  501  0.00000000000E+00  0.00000000000E+00  0.12448216261E+04  0.12448216261E+04  0.50400001928E-02 0. -1.
        1   -1    0    0  501    0  0.00000000000E+00  0.00000000000E+00 -0.21287623034E+04  0.21287623034E+04  0.50400001928E-02 0.  1.
    10030    2    1    2    0    0  0.00000000000E+00  0.00000000000E+00 -0.88394067730E+03  0.33735839294E+04  0.32557207202E+04 0.  0.
        5    1    3    3  502    0  0.33578302830E+03  0.27877439495E+03 -0.20670051007E+04  0.21125807870E+04  0.46999998093E+01 0.  1.
       -5    1    3    3    0  502 -0.33578302830E+03 -0.27877439495E+03  0.11830644234E+04  0.12610031424E+04  0.46999998093E+01 0. -1.
</event>
<event>
 5   0  0.3682276E-07  0.2945115E+04  0.7818609E-02  0.8259579E-01
       -1   -1    0    0    0  501  0.00000000000E+00  0.00000000000E+00  0.88498847009E+03  0.88498847011E+03  0.50400001928E-02 0.  1.
        1   -1    0    0  501    0  0.00000000000E+00  0.00000000000E+00 -0.24502310045E+04  0.24502310046E+04  0.50400001928E-02 0. -1.
    10030    2    1    2    0    0  0.00000000000E+00  0.00000000000E+00 -0.15652425345E+04  0.33352194747E+04  0.29451154056E+04 0.  0.
        1    1    3    3  502    0 -0.45196296520E+03  0.10035359527E+04 -0.18905051324E+04  0.21875476191E+04  0.50400001928E-02 0. -1.
       -1    1    3    3    0  502  0.45196296520E+03 -0.10035359527E+04  0.32526259797E+03  0.11476718555E+04  0.50400001928E-02 0.  1.
</event>
<event>
 5   0  0.3704306E-07  0.3719824E+04  0.7818609E-02  0.8063583E-01
       -1   -1    0    0    0  501  0.00000000000E+00  0.00000000000E+00  0.16479244833E+04  0.16479244833E+04  0.50400001928E-02 0.  1.
        1   -1    0    0  501    0  0.00000000000E+00  0.00000000000E+00 -0.20991689360E+04  0.20991689360E+04  0.50400001928E-02 0. -1.
    10030    2    1    2    0    0  0.00000000000E+00  0.00000000000E+00 -0.45124445271E+03  0.37470934194E+04  0.37198235896E+04 0.  0.
        3    1    3    3  502    0 -0.10874953833E+04  0.55089091030E+03  0.11893622096E+04  0.17031469342E+04  0.10100000352E+00 0.  1.
       -3    1    3    3    0  502  0.10874953833E+04 -0.55089091030E+03 -0.16406066623E+04  0.20439464852E+04  0.10100000352E+00 0. -1.
</event>
<event>
 5   0  0.3764495E-07  0.3667734E+04  0.7818609E-02  0.8075150E-01
        1   -1    0    0  501    0  0.00000000000E+00  0.00000000000E+00  0.13347197612E+04  0.13347197612E+04  0.50400001928E-02 0. -1.
       -1   -1    0    0    0  501  0.00000000000E+00  0.00000000000E+00 -0.25196812737E+04  0.25196812737E+04  0.50400001928E-02 0.  1.
    10030    2    1    2    0    0  0.00000000000E+00  0.00000000000E+00 -0.11849615125E+04  0.38544010348E+04  0.36677341168E+04 0.  0.
        4    1    3    3  502    0  0.72595495831E+03  0.10504925473E+04 -0.19757234368E+04  0.23524518922E+04  0.12699999809E+01 0.  1.
       -4    1    3    3    0  502 -0.72595495831E+03 -0.10504925473E+04  0.79076192430E+03  0.15019491427E+04  0.12699999809E+01 0. -1.
</event>
<event>
 5   0  0.3764495E-07  0.2785437E+04  0.7818609E-02  0.8307804E-01
        1   -1    0    0  501    0  0.00000000000E+00  0.00000000000E+00  0.20621732289E+04  0.20621732289E+04  0.50400001928E-02 0. -1.
       -1   -1    0    0    0  501  0.00000000000E+00  0.00000000000E+00 -0.94059234979E+03  0.94059234980E+03  0.50400001928E-02 0.  1.
    10030    2    1    2    0    0  0.00000000000E+00  0.00000000000E+00  0.11215808791E+04  0.30027655787E+04  0.27854366717E+04 0.  0.
        4    1    3    3  502    0  0.21591746695E+03 -0.50091353230E+03  0.19422292310E+04  0.20173722309E+04  0.12699999809E+01 0. -1.
       -4    1    3    3    0  502 -0.21591746695E+03  0.50091353230E+03 -0.82064835193E+03  0.98539334776E+03  0.12699999809E+01 0.  1.
</event>
<event>
 5   0  0.1092116E-06  0.3918421E+04  0.7818609E-02  0.8021209E-01
        2   -1    0    0  501    0  0.00000000000E+00  0.00000000000E+00  0.25256527319E+04  0.25256527319E+04  0.25500000920E-02 0. -1.
       -2   -1    0    0    0  501  0.00000000000E+00  0.00000000000E+00 -0.15198076774E+04  0.15198076774E+04  0.25500000920E-02 0.  1.
    10030    2    1    2    0    0  0.00000000000E+00  0.00000000000E+00  0.10058450545E+04  0.40454604093E+04  0.39184213211E+04 0.  0.
        1    1    3    3  502    0  0.85431783025E+03 -0.17614066377E+04  0.58351827246E+03  0.20427691677E+04  0.50400001928E-02 0.  1.
       -1    1    3    3    0  502 -0.85431783025E+03  0.17614066377E+04  0.42232678202E+03  0.20026912416E+04  0.50400001928E-02 0. -1.
</event>
<event>
 5   0  0.1128166E-06  0.3262991E+04  0.7818609E-02  0.8172377E-01
       -2   -1    0    0    0  501  0.00000000000E+00  0.00000000000E+00  0.85463811387E+03  0.85463811387E+03  0.25500000920E-02 0.  1.
        2   -1    0    0  501    0  0.00000000000E+00  0.00000000000E+00 -0.31145086001E+04  0.31145086001E+04  0.25500000920E-02 0. -1.
    10030    2    1    2    0    0  0.00000000000E+00  0.00000000000E+00 -0.22598704863E+04  0.39691467140E+04  0.32629911159E+04 0.  0.
        3    1    3    3  502    0  0.11452515600E+04 -0.20461739454E+02  0.28328289991E+03  0.11799445029E+04  0.10100000352E+00 0.  1.
       -3    1    3    3    0  502 -0.11452515600E+04  0.20461739454E+02 -0.25431533862E+04  0.27892022111E+04  0.10100000352E+00 0. -1.
</event>
<event>
 5   0  0.1051123E-06  0.3700662E+04  0.7818609E-02  0.8067815E-01
       -2   -1    0    0    0  501  0.00000000000E+00  0.00000000000E+00  0.14505309684E+04  0.14505309684E+04  0.25500000920E-02 0. -1.
        2   -1    0    0  501    0  0.00000000000E+00  0.00000000000E+00 -0.23603258191E+04  0.23603258191E+04  0.25500000920E-02 0.  1.
    10030    2    1    2    0    0  0.00000000000E+00  0.00000000000E+00 -0.90979485072E+03  0.38108567876E+04  0.37006624792E+04 0.  0.
        2    1    3    3  502    0  0.12537073011E+04  0.51882684810E+03  0.84064313376E+03  0.15961341339E+04  0.25500000920E-02 0. -1.
       -2    1    3    3    0  502 -0.12537073011E+04 -0.51882684810E+03 -0.17504379845E+04  0.22147226537E+04  0.25500000920E-02 0.  1.
</event>
<event>
 5   0  0.1066907E-06  0.3827872E+04  0.7818609E-02  0.8040200E-01
       -2   -1    0    0    0  501  0.00000000000E+00  0.00000000000E+00  0.16150855018E+04  0.16150855018E+04  0.25500000920E-02 0.  1.
        2   -1    0    0  501    0  0.00000000000E+00  0.00000000000E+00 -0.22680851251E+04  0.22680851251E+04  0.25500000920E-02 0. -1.
    10030    2    1    2    0    0  0.00000000000E+00  0.00000000000E+00 -0.65299962329E+03  0.38831706269E+04  0.38278722039E+04 0.  0.
        4    1    3    3  502    0 -0.14167024101E+04  0.12837186569E+04 -0.41819632932E+03  0.19570051333E+04  0.12699999809E+01 0.  1.
       -4    1    3    3    0  502  0.14167024101E+04 -0.12837186569E+04 -0.23480329398E+03  0.19261654936E+04  0.12699999809E+01 0. -1.
</event>
<event>
 5   0  0.3764495E-07  0.3694849E+04  0.7818609E-02  0.8069104E-01
        1   -1    0    0  501    0  0.00000000000E+00  0.00000000000E+00  0.11318145939E+04  0.11318145939E+04  0.50400001928E-02 0.  1.
       -1   -1    0    0    0  501  0.00000000000E+00  0.00000000000E+00 -0.30154922660E+04  0.30154922660E+04  0.50400001928E-02 0. -1.
    10030    2    1    2    0    0  0.00000000000E+00  0.00000000000E+00 -0.18836776721E+04  0.41473068599E+04  0.36948494716E+04 0.  0.
        4    1    3    3  502    0 -0.13270916956E+04  0.40469802998E+03  0.42738465362E+03  0.14517617295E+04  0.12699999809E+01 0.  1.
       -4    1    3    3    0  502  0.13270916956E+04 -0.40469802998E+03 -0.23110623257E+04  0.26955451305E+04  0.12699999809E+01 0. -1.
</event>
<event>
 5   0  0.1128530E-06  0.3705017E+04  0.7818609E-02  0.8066851E-01
       -2   -1    0    0    0  501  0.00000000000E+00  0.00000000000E+00  0.21297718053E+04  0.21297718053E+04  0.25500000920E-02 0. -1.
        2   -1    0    0  501    0  0.00000000000E+00  0.00000000000E+00 -0.16113409516E+04  0.16113409516E+04  0.25500000920E-02 0.  1.
    10030    2    1    2    0    0  0.00000000000E+00  0.00000000000E+00  0.51843085377E+03  0.37411127569E+04  0.37050174237E+04 0.  0.
        5    1    3    3  502    0  0.50909226382E+03 -0.81852735810E+03 -0.13381587198E+04  0.16491976287E+04  0.46999998093E+01 0.  1.
       -5    1    3    3    0  502 -0.50909226382E+03  0.81852735810E+03  0.18565895736E+04  0.20919151282E+04  0.46999998093E+01 0. -1.
</event>
<event>
 5   0  0.1092116E-06  0.2846329E+04  0.7818609E-02  0.8289028E-01
        2   -1    0    0  501    0  0.00000000000E+00  0.00000000000E+00  0.15743787877E+04  0.15743787877E+04  0.25500000920E-02 0. -1.
       -2   -1    0    0    0  501  0.00000000000E+00  0.00000000000E+00 -0.12864738497E+04  0.12864738497E+04  0.25500000920E-02 0.  1.
    10030    2    1    2    0    0  0.00000000000E+00  0.00000000000E+00  0.28790493794E+03  0.28608526374E+04  0.28463289619E+04 0.  0.
        1    1    3    3  502    0 -0.55890582003E+03 -0.75500272282E+03 -0.93061094714E+03  0.13222864902E+04  0.50400001928E-02 0.  1.
       -1    1    3    3    0  502  0.55890582003E+03  0.75500272282E+03  0.12185158851E+04  0.15385661472E+04  0.50400001928E-02 0. -1.
</event>
<event>
 5   0  0.3764495E-07  0.3709443E+04  0.7818609E-02  0.8065872E-01
        1   -1    0    0  501    0  0.00000000000E+00  0.00000000000E+00  0.28162462533E+04  0.28162462533E+04  0.50400001928E-02 0. -1.
       -1   -1    0    0    0  501  0.00000000000E+00  0.00000000000E+00 -0.12214809484E+04  0.12214809484E+04  0.50400001928E-02 0.  1.
    10030    2    1    2    0    0  0.00000000000E+00  0.00000000000E+00  0.15947653049E+04  0.40377272016E+04  0.37094426235E+04 0.  0.
        4    1    3    3  502    0 -0.51159773745E+03 -0.13686443290E+04 -0.44611570757E+03  0.15277239219E+04  0.12699999809E+01 0.  1.
       -4    1    3    3    0  502  0.51159773745E+03  0.13686443290E+04  0.20408810125E+04  0.25100032797E+04  0.12699999809E+01 0. -1.
</event>
<event>
 5   0  0.3704306E-07  0.2600122E+04  0.7818609E-02  0.8368160E-01
        1   -1    0    0  501    0  0.00000000000E+00  0.00000000000E+00  0.13997268343E+04  0.13997268343E+04  0.50400001928E-02 0.  1.
       -1   -1    0    0    0  501  0.00000000000E+00  0.00000000000E+00 -0.12074913575E+04  0.12074913576E+04  0.50400001928E-02 0. -1.
    10030    2    1    2    0    0  0.00000000000E+00  0.00000000000E+00  0.19223547673E+03  0.26072181918E+04  0.26001215782E+04 0.  0.
        3    1    3    3  502    0  0.26154899105E+03 -0.48522781898E+03  0.12767454737E+04  0.13906591695E+04  0.10100000352E+00 0.  1.
       -3    1    3    3    0  502 -0.26154899105E+03  0.48522781898E+03 -0.10845099970E+04  0.12165590223E+04  0.10100000352E+00 0. -1.
</event>
<event>
 5   0  0.1066907E-06  0.3703798E+04  0.7818609E-02  0.8067121E-01
       -2   -1    0    0    0  501  0.00000000000E+00  0.00000000000E+00  0.18975824145E+04  0.18975824145E+04  0.25500000920E-02 0.  1.
        2   -1    0    0  501    0  0.00000000000E+00  0.00000000000E+00 -0.18073155505E+04  0.18073155505E+04  0.25500000920E-02 0. -1.
    10030    2    1    2    0    0  0.00000000000E+00  0.00000000000E+00  0.90266863989E+02  0.37048979651E+04  0.37037981620E+04 0.  0.
        4    1    3    3  502    0 -0.65094250157E+03 -0.47757824768E+03 -0.16220112361E+04  0.18118303414E+04  0.12699999809E+01 0. -1.
       -4    1    3    3    0  502  0.65094250157E+03  0.47757824768E+03  0.17122781001E+04  0.18930676237E+04  0.12699999809E+01 0.  1.
</event>
<event>
 5   0  0.1128166E-06  0.3279312E+04  0.7818609E-02  0.8168179E-01
       -2   -1    0    0    0  501  0.00000000000E+00  0.00000000000E+00  0.26107366855E+04  0.26107366855E+04  0.25500000920E-02 0.  1.
        2   -1    0    0  501    0  0.00000000000E+00  0.00000000000E+00 -0.10297752465E+04  0.10297752465E+04  0.25500000920E-02 0. -1.
    10030    2    1    2    0    0  0.00000000000E+00  0.00000000000E+00  0.15809614390E+04  0.36405119320E+04  0.32793121314E+04 0.  0.
        3    1    3    3  502    0  0.10847101025E+04  0.88094493992E+03  0.17427573778E+04  0.22338001884E+04  0.10100000352E+00 0.  1.
       -3    1    3    3    0  502 -0.10847101025E+04 -0.88094493992E+03 -0.16179593880E+03  0.14067117436E+04  0.10100000352E+00 0. -1.
</event>
<event>
 5   0  0.1051123E-06  0.3724033E+04  0.7818609E-02  0.8062657E-01
       -2   -1    0    0    0  501  0.00000000000E+00  0.00000000000E+00  0.18916010712E+04  0.18916010712E+04  0.25500000920E-02 0.  1.
        2   -1    0    0  501    0  0.00000000000E+00  0.00000000000E+00 -0.18328950810E+04  0.18328950810E+04  0.25500000920E-02 0. -1.
    10030    2    1    2    0    0  0.00000000000E+00  0.00000000000E+00  0.58705990146E+02  0.37244961522E+04  0.37240334578E+04 0.  0.
        2    1    3    3  502    0  0.11502887877E+04 -0.11640718609E+04  0.91765178922E+03  0.18762495566E+04  0.25500000920E-02 0.  1.
       -2    1    3    3    0  502 -0.11502887877E+04  0.11640718609E+04 -0.85894579908E+03  0.18482465956E+04  0.25500000920E-02 0. -1.
</event>
<event>
 5   0  0.1051123E-06  0.3792747E+04  0.7818609E-02  0.8047713E-01
       -2   -1    0    0    0  501  0.00000000000E+00  0.00000000000E+00  0.13260200561E+04  0.13260200561E+04  0.25500000920E-02 0. -1.
        2   -1    0    0  501    0  0.00000000000E+00  0.00000000000E+00 -0.27120501606E+04  0.27120501606E+04  0.25500000920E-02 0.  1.
    10030    2    1    2    0    0  0.00000000000E+00  0.00000000000E+00 -0.13860301045E+04  0.40380702167E+04  0.37927472397E+04 0.  0.
        2    1    3    3  502    0 -0.13653431705E+04 -0.50041596394E+03 -0.19889806739E+04  0.24638632737E+04  0.25500000920E-02 0.  1.
       -2    1    3    3    0  502  0.13653431705E+04  0.50041596394E+03  0.60295056941E+03  0.15742069430E+04  0.25500000920E-02 0. -1.
</event>
<event>
 5   0  0.1066907E-06  0.3643840E+04  0.7818609E-02  0.8080523E-01
        2   -1    0    0  501    0  0.00000000000E+00  0.00000000000E+00  0.13263157655E+04  0.13263157655E+04  0.25500000920E-02 0.  1.
       -2   -1    0    0    0  501  0.00000000000E+00  0.00000000000E+00 -0.25027161872E+04  0.25027161872E+04  0.25500000920E-02 0. -1.
    10030    2    1    2    0    0  0.00000000000E+00  0.00000000000E+00 -0.11764004217E+04  0.38290319527E+04  0.36438396977E+04 0.  0.
        4    1    3    3  502    0 -0.18361531636E+03  0.12776946114E+03  0.13118298954E+04  0.13307662856E+04  0.12699999809E+01 0.  1.
       -4    1    3    3    0  502  0.18361531636E+03 -0.12776946114E+03 -0.24882303171E+04  0.24982656671E+04  0.12699999809E+01 0. -1.
</event>
<event>
 5   0  0.1128530E-06  0.3000704E+04  0.7818609E-02  0.8243530E-01
       -2   -1    0    0    0  501  0.00000000000E+00  0.00000000000E+00  0.10302545229E+04  0.10302545229E+04  0.25500000920E-02 0. -1.
        2   -1    0    0  501    0  0.00000000000E+00  0.00000000000E+00 -0.21849507505E+04  0.21849507505E+04  0.25500000920E-02 0.  1.
    10030    2    1    2    0    0  0.00000000000E+00  0.00000000000E+00 -0.11546962276E+04  0.32152052734E+04  0.30007035128E+04 0.  0.
        5    1    3    3  502    0  0.38958002608E+03  0.46953229394E+03 -0.20460238152E+04  0.21350570751E+04  0.46999998093E+01 0.  1.
       -5    1    3    3    0  502 -0.38958002608E+03 -0.46953229394E+03  0.89132758758E+03  0.10801481982E+04  0.46999998093E+01 0. -1.
</event>
<event>
 5   0  0.1128530E-06  0.3694246E+04  0.7818609E-02  0.8069238E-01
        2   -1    0    0  501    0  0.00000000000E+00  0.00000000000E+00  0.27708217605E+04  0.27708217605E+04  0.25500000920E-02 0.  1.
       -2   -1    0    0    0  501  0.00000000000E+00  0.00000000000E+00 -0.12313542535E+04  0.12313542535E+04  0.25500000920E-02 0. -1.
    10030    2    1    2    0    0  0.00000000000E+00  0.00000000000E+00  0.15394675070E+04  0.40021760139E+04  0.36942458826E+04 0.  0.
        5    1    3    3  502    0 -0.17510755255E+03  0.22735405992E+03 -0.12070499381E+04  0.12407030936E+04  0.46999998093E+01 0. -1.
       -5    1    3    3    0  502  0.17510755255E+03 -0.22735405992E+03  0.27465174451E+04  0.27614729203E+04  0.46999998093E+01 0.  1.
</event>
<event>
 5   0  0.1128166E-06  0.3730380E+04  0.7818609E-02  0.8061262E-01
        2   -1    0    0  501    0  0.00000000000E+00  0.00000000000E+00  0.25720333787E+04  0.25720333787E+04  0.25500000920E-02 0.  1.
       -2   -1    0    0    0  501  0.00000000000E+00  0.00000000000E+00 -0.13526006070E+04  0.13526006070E+04  0.25500000920E-02 0. -1.
    10030    2    1    2    0    0  0.00000000000E+00  0.00000000000E+00  0.12194327717E+04  0.39246339857E+04  0.37303800928E+04 0.  0.
        3    1    3    3  502    0  0.10309039282E+04 -0.44964237508E+03 -0.95571548051E+03  0.14759177702E+04  0.10100000352E+00 0. -1.
       -3    1    3    3    0  502 -0.10309039282E+04  0.44964237508E+03  0.21751482522E+04  0.24487162155E+04  0.10100000352E+00 0.  1.
</event>
<event>
 5   0  0.3682276E-07  0.3732476E+04  0.7818609E-02  0.8060803E-01
       -1   -1    0    0    0  501  0.00000000000E+00  0.00000000000E+00  0.10858611273E+04  0.10858611273E+04  0.50400001928E-02 0.  1.
        1   -1    0    0  501    0  0.00000000000E+00  0.00000000000E+00 -0.32074496493E+04  0.32074496493E+04  0.50400001928E-02 0. -1.
    10030    2    1    2    0    0  0.00000000000E+00  0.00000000000E+00 -0.21215885220E+04  0.42933107766E+04  0.37324763318E+04 0.  0.
        1    1    3    3  502    0  0.11820358755E+04 -0.26653891391E+03  0.57184010490E+03  0.13398704823E+04  0.50400001928E-02 0.  1.
       -1    1    3    3    0  502 -0.11820358755E+04  0.26653891391E+03 -0.26934286269E+04  0.29534402943E+04  0.50400001928E-02 0. -1.
</event>
<event>
 5   0  0.3682276E-07  0.3623981E+04  0.7818609E-02  0.8085020E-01
       -1   -1    0    0    0  501  0.00000000000E+00  0.00000000000E+00  0.24053982530E+04  0.24053982530E+04  0.50400001928E-02 0. -1.
        1   -1    0    0  501    0  0.00000000000E+00  0.00000000000E+00 -0.13649756112E+04  0.13649756112E+04  0.50400001928E-02 0.  1.
    10030    2    1    2    0    0  0.00000000000E+00  0.00000000000E+00  0.10404226418E+04  0.37703738642E+04  0.36239812088E+04 0.  0.
        1    1    3    3  502    0 -0.13556243879E+04 -0.93467476234E+03  0.13070527429E+04  0.21023133128E+04  0.50400001928E-02 0. -1.
       -1    1    3    3    0  502  0.13556243879E+04  0.93467476234E+03 -0.26663010113E+03  0.16680605514E+04  0.50400001928E-02 0.  1.
</event>
<event>
 5   0  0.1051123E-06  0.3690689E+04  0.7818609E-02  0.8070028E-01
       -2   -1    0    0    0  501  0.00000000000E+00  0.00000000000E+00  0.13603227383E+04  0.13603227383E+04  0.25500000920E-02 0. -1.
        2   -1    0    0  501    0  0.00000000000E+00  0.00000000000E+00 -0.25033009468E+04  0.25033009468E+04  0.25500000920E-02 0.  1.
    10030    2    1    2    0    0  0.00000000000E+00  0.00000000000E+00 -0.11429782085E+04  0.38636236851E+04  0.36906894742E+04 0.  0.
        2    1    3    3  502    0  0.16644138068E+04  0.22740830312E+03  0.22804460627E+03  0.16952852855E+04  0.25500000920E-02 0. -1.
       -2    1    3    3    0  502 -0.16644138068E+04 -0.22740830312E+03 -0.13710228148E+04  0.21683383996E+04  0.25500000920E-02 0.  1.
</event>
<event>
 5   0  0.1066907E-06  0.3679318E+04  0.7818609E-02  0.8072561E-01
        2   -1    0    0  501    0  0.00000000000E+00  0.00000000000E+00  0.15922865001E+04  0.15922865001E+04  0.25500000920E-02 0. -1.
       -2   -1    0    0    0  501  0.00000000000E+00  0.00000000000E+00 -0.21254624926E+04  0.21254624926E+04  0.25500000920E-02 0.  1.
    10030    2    1    2    0    0  0.00000000000E+00  0.00000000000E+00 -0.53317599250E+03  0.37177489928E+04  0.36793179985E+04 0.  0.
        4    1    3    3  502    0  0.35533518369E+03  0.10208046625E+04  0.12375974331E+04  0.16431537576E+04  0.12699999809E+01 0. -1.
       -4    1    3    3    0  502 -0.35533518369E+03 -0.10208046625E+04 -0.17707734256E+04  0.20745952351E+04  0.12699999809E+01 0.  1.
</event>
<event>
 5   0  0.3675819E-07  0.3472374E+04  0.7818609E-02  0.8120368E-01
       -1   -1    0    0    0  501  0.00000000000E+00  0.00000000000E+00  0.28465331397E+04  0.28465331397E+04  0.50400001928E-02 0.  1.
        1   -1    0    0  501    0  0.00000000000E+00  0.00000000000E+00 -0.10589531446E+04  0.10589531447E+04  0.50400001928E-02 0. -1.
    10030    2    1    2    0    0  0.00000000000E+00  0.00000000000E+00  0.17875799951E+04  0.39054862844E+04  0.34723739543E+04 0.  0.
        5    1    3    3  502    0  0.13061221700E+04 -0.77658065707E+03  0.18383567194E+04  0.23850807445E+04  0.46999998093E+01 0.  1.
       -5    1    3    3    0  502 -0.13061221700E+04  0.77658065707E+03 -0.50776724372E+02  0.15204055399E+04  0.46999998093E+01 0. -1.
</event>
<event>
 5   0  0.1066907E-06  0.3693748E+04  0.7818609E-02  0.8069349E-01
        2   -1    0    0  501    0  0.00000000000E+00  0.00000000000E+00  0.19720887271E+04  0.19720887271E+04  0.25500000920E-02 0. -1.
       -2   -1    0    0    0  501  0.00000000000E+00  0.00000000000E+00 -0.17296095006E+04  0.17296095006E+04  0.25500000920E-02 0.  1.
    10030    2    1    2    0    0  0.00000000000E+00  0.00000000000E+00  0.24247922653E+03  0.37016982277E+04  0.36937479061E+04 0.  0.
        4    1    3    3  502    0  0.14032485004E+04  0.56962502283E+03  0.11805686005E+04  0.19202403115E+04  0.12699999809E+01 0. -1.
       -4    1    3    3    0  502 -0.14032485004E+04 -0.56962502283E+03 -0.93808937401E+03  0.17814579162E+04  0.12699999809E+01 0.  1.
</event>
<event>
 5   0  0.3675819E-07  0.2848215E+04  0.7818609E-02  0.8288454E-01
        1   -1    0    0  501    0  0.00000000000E+00  0.00000000000E+00  0.17537523673E+04  0.17537523673E+04  0.50400001928E-02 0.  1.
       -1   -1    0    0    0  501  0.00000000000E+00  0.00000000000E+00 -0.11564246335E+04  0.11564246335E+04  0.50400001928E-02 0. -1.
    10030    2    1    2    0    0  0.00000000000E+00  0.00000000000E+00  0.59732773374E+03  0.29101770008E+04  0.28482151875E+04 0.  0.
        5    1    3    3  502    0 -0.16156559105E+02  0.73936542788E+03  0.15421598305E+04  0.17103219881E+04  0.46999998093E+01 0.  1.
       -5    1    3    3    0  502  0.16156559105E+02 -0.73936542788E+03 -0.94483209674E+03  0.11998550127E+04  0.46999998093E+01 0. -1.
</event>
<event>
 5   0  0.3764495E-07  0.3615415E+04  0.7818609E-02  0.8086970E-01
       -1   -1    0    0    0  501  0.00000000000E+00  0.00000000000E+00  0.11867784830E+04  0.11867784830E+04  0.50400001928E-02 0.  1.
        1   -1    0    0  501    0  0.00000000000E+00  0.00000000000E+00 -0.27535097539E+04  0.27535097539E+04  0.50400001928E-02 0. -1.
    10030    2    1    2    0    0  0.00000000000E+00  0.00000000000E+00 -0.15667312708E+04  0.39402882369E+04  0.36154148469E+04 0.  0.
        4    1    3    3  502    0 -0.16486396538E+04  0.65252567259E+03 -0.39958390659E+03  0.18175454253E+04  0.12699999809E+01 0. -1.
       -4    1    3    3    0  502  0.16486396538E+04 -0.65252567259E+03 -0.11671473642E+04  0.21227428116E+04  0.12699999809E+01 0.  1.
</event>
<event>
 5   0  0.3682276E-07  0.2479944E+04  0.7818609E-02  0.8410166E-01
        1   -1    0    0  501    0  0.00000000000E+00  0.00000000000E+00  0.22574812040E+04  0.22574812040E+04  0.50400001928E-02 0. -1.
       -1   -1    0    0    0  501  0.00000000000E+00  0.00000000000E+00 -0.68108236579E+03  0.68108236581E+03  0.50400001928E-02 0.  1.
    10030    2    1    2    0    0  0.00000000000E+00  0.00000000000E+00  0.15763988382E+04  0.29385635698E+04  0.24799440632E+04 0.  0.
        1    1    3    3  502    0  0.21474256607E+03 -0.22993138800E+03  0.22093999388E+04  0.22316879044E+04  0.50400001928E-02 0. -1.
       -1    1    3    3    0  502 -0.21474256607E+03  0.22993138800E+03 -0.63300110065E+03  0.70687566539E+03  0.50400001928E-02 0.  1.
</event>
<event>
 5   0  0.3682276E-07  0.2411741E+04  0.7818609E-02  0.8435121E-01
        1   -1    0    0  501    0  0.00000000000E+00  0.00000000000E+00  0.12390096215E+04  0.12390096215E+04  0.50400001928E-02 0.  1.
       -1   -1    0    0    0  501  0.00000000000E+00  0.00000000000E+00 -0.11736175691E+04  0.11736175691E+04  0.50400001928E-02 0. -1.
    10030    2    1    2    0    0  0.00000000000E+00  0.00000000000E+00  0.65392052372E+02  0.24126271906E+04  0.24117408319E+04 0.  0.
        1    1    3    3  502    0  0.52108192328E+03 -0.10007431665E+04 -0.39303082404E+03  0.11947746586E+04  0.50400001928E-02 0. -1.
       -1    1    3    3    0  502 -0.52108192328E+03  0.10007431665E+04  0.45842287642E+03  0.12178525320E+04  0.50400001928E-02 0.  1.
</event>
<event>
 5   0  0.3704306E-07  0.3657414E+04  0.7818609E-02  0.8077465E-01
       -1   -1    0    0    0  501  0.00000000000E+00  0.00000000000E+00  0.12299492183E+04  0.12299492183E+04  0.50400001928E-02 0.  1.
        1   -1    0    0  501    0  0.00000000000E+00  0.00000000000E+00 -0.27189497991E+04  0.27189497991E+04  0.50400001928E-02 0. -1.
    10030    2    1    2    0    0  0.00000000000E+00  0.00000000000E+00 -0.14890005808E+04  0.39488990174E+04  0.36574144857E+04 0.  0.
        3    1    3    3  502    0  0.78130286730E+03 -0.62805509033E+02 -0.25283841796E+04  0.26470937408E+04  0.10100000352E+00 0. -1.
       -3    1    3    3    0  502 -0.78130286730E+03  0.62805509033E+02  0.10393835989E+04  0.13018052766E+04  0.10100000352E+00 0.  1.
</event>
<event>
 5   0  0.3848431E-07  0.3704302E+04  0.7818609E-02  0.8067009E-01
        1   -1    0    0  501    0  0.00000000000E+00  0.00000000000E+00  0.23313894055E+04  0.23313894055E+04  0.50400001928E-02 0. -1.
       -1   -1    0    0    0  501  0.00000000000E+00  0.00000000000E+00 -0.14714248028E+04  0.14714248028E+04  0.50400001928E-02 0.  1.
    10030    2    1    2    0    0  0.00000000000E+00  0.00000000000E+00  0.85996460273E+03  0.38028142083E+04  0.37043024694E+04 0.  0.
        2    1    3    3  502    0  0.86379628488E+03  0.13822456292E+04 -0.47302194187E+03  0.16972026275E+04  0.25500000920E-02 0.  1.
       -2    1    3    3    0  502 -0.86379628488E+03 -0.13822456292E+04  0.13329865446E+04  0.21056115808E+04  0.25500000920E-02 0. -1.
</event>
<event>
 5   0  0.3675819E-07  0.3684448E+04  0.7818609E-02  0.8071417E-01
        1   -1    0    0  501    0  0.00000000000E+00  0.00000000000E+00  0.20730513188E+04  0.20730513188E+04  0.50400001928E-02 0. -1.
       -1   -1    0    0    0  501  0.00000000000E+00  0.00000000000E+00 -0.16370982831E+04  0.16370982831E+04  0.50400001928E-02 0.  1.
    10030    2    1    2    0    0  0.00000000000E+00  0.00000000000E+00  0.43595303572E+03  0.37101496019E+04  0.36844477224E+04 0.  0.
        5    1    3    3  502    0 -0.60503822892E+03 -0.17396137516E+04  0.25618062272E+03  0.18595638910E+04  0.46999998093E+01 0. -1.
       -5    1    3    3    0  502  0.60503822892E+03  0.17396137516E+04  0.17977241300E+03  0.18505857110E+04  0.46999998093E+01 0.  1.
</event>
<event>
 5   0  0.1128166E-06  0.3584077E+04  0.7818609E-02  0.8094149E-01
       -2   -1    0    0    0  501  0.00000000000E+00  0.00000000000E+00  0.21742589000E+04  0.21742589000E+04  0.25500000920E-02 0. -1.
        2   -1    0    0  501    0  0.00000000000E+00  0.00000000000E+00 -0.14770100256E+04  0.14770100256E+04  0.25500000920E-02 0.  1.
    10030    2    1    2    0    0  0.00000000000E+00  0.00000000000E+00  0.69724887445E+03  0.36512689256E+04  0.35840771161E+04 0.  0.
        3    1    3    3  502    0 -0.10960139406E+04 -0.13918082274E+04  0.73326031824E+02  0.17730632862E+04  0.10100000352E+00 0. -1.
       -3    1    3    3    0  502  0.10960139406E+04  0.13918082274E+04  0.62392284263E+03  0.18782056393E+04  0.10100000352E+00 0.  1.
</event>
<event>
 5   0  0.3704306E-07  0.3719814E+04  0.7818609E-02  0.8063585E-01
        1   -1    0    0  501    0  0.00000000000E+00  0.00000000000E+00  0.15769057012E+04  0.15769057012E+04  0.50400001928E-02 0. -1.
       -1   -1    0    0    0  501  0.00000000000E+00  0.00000000000E+00 -0.21936979528E+04  0.21936979528E+04  0.50400001928E-02 0.  1.
    10030    2    1    2    0    0  0.00000000000E+00  0.00000000000E+00 -0.61679225165E+03  0.37706036540E+04  0.37198144086E+04 0.  0.
        3    1    3    3  502    0  0.12732535566E+04 -0.12861265139E+04 -0.74315640520E+03  0.19564195568E+04  0.10100000352E+00 0.  1.
       -3    1    3    3    0  502 -0.12732535566E+04  0.12861265139E+04  0.12636415355E+03  0.18141840973E+04  0.10100000352E+00 0. -1.
</event>
<event>
 5   0  0.3848431E-07  0.3572543E+04  0.7818609E-02  0.8096810E-01
        1   -1    0    0  501    0  0.00000000000E+00  0.00000000000E+00  0.18551732258E+04  0.18551732258E+04  0.50400001928E-02 0. -1.
       -1   -1    0    0    0  501  0.00000000000E+00  0.00000000000E+00 -0.17199288137E+04  0.17199288137E+04  0.50400001928E-02 0.  1.
    10030    2    1    2    0    0  0.00000000000E+00  0.00000000000E+00  0.13524441214E+03  0.35751020395E+04  0.35725430077E+04 0.  0.
        2    1    3    3  502    0  0.11833616134E+04 -0.12251179952E+04  0.60606623726E+03  0.18079201017E+04  0.25500000920E-02 0.  1.
       -2    1    3    3    0  502 -0.11833616134E+04  0.12251179952E+04 -0.47082182512E+03  0.17671819378E+04  0.25500000920E-02 0. -1.
</event>
<event>
 5   0  0.1128530E-06  0.3075468E+04  0.7818609E-02  0.8222503E-01
       -2   -1    0    0    0  501  0.00000000000E+00  0.00000000000E+00  0.15554478142E+04  0.15554478142E+04  0.25500000920E-02 0. -1.
        2   -1    0    0  501    0  0.00000000000E+00  0.00000000000E+00 -0.15202215284E+04  0.15202215284E+04  0.25500000920E-02 0.  1.
    10030    2    1    2    0    0  0.00000000000E+00  0.00000000000E+00  0.35226285825E+02  0.30756693426E+04  0.30754676089E+04 0.  0.
        5    1    3    3  502    0  0.61659683869E+03 -0.13718701011E+04  0.33760901738E+03  0.15414996511E+04  0.46999998093E+01 0. -1.
       -5    1    3    3    0  502 -0.61659683869E+03  0.13718701011E+04 -0.30238273155E+03  0.15341696915E+04  0.46999998093E+01 0.  1.
</event>
<event>
 5   0  0.1128166E-06  0.2424946E+04  0.7818609E-02  0.8430223E-01
        2   -1    0    0  501    0  0.00000000000E+00  0.00000000000E+00  0.10268540490E+04  0.10268540490E+04  0.25500000920E-02 0. -1.
       -2   -1    0    0    0  501  0.00000000000E+00  0.00000000000E+00 -0.14316458101E+04  0.14316458101E+04  0.25500000920E-02 0.  1.
    10030    2    1    2    0    0  0.00000000000E+00  0.00000000000E+00 -0.40479176113E+03  0.24584998591E+04  0.24249464297E+04 0.  0.
        3    1    3    3  502    0  0.33235339018E+03  0.18474217320E+03 -0.13696310648E+04  0.14214350884E+04  0.10100000352E+00 0.  1.
       -3    1    3    3    0  502 -0.33235339018E+03 -0.18474217320E+03  0.96483930367E+03  0.10370647707E+04  0.10100000352E+00 0. -1.
</event>
<event>
 5   0  0.3682276E-07  0.3702890E+04  0.7818609E-02  0.8067322E-01
       -1   -1    0    0    0  501  0.00000000000E+00  0.00000000000E+00  0.26661752167E+04  0.26661752167E+04  0.50400001928E-02 0. -1.
        1   -1    0    0  501    0  0.00000000000E+00  0.00000000000E+00 -0.12856798970E+04  0.12856798970E+04  0.50400001928E-02 0.  1.
    10030    2    1    2    0    0  0.00000000000E+00  0.00000000000E+00  0.13804953197E+04  0.39518551137E+04  0.37028896165E+04 0.  0.
        1    1    3    3  502    0 -0.18344545511E+04 -0.24955256373E+03  0.71015370652E+03  0.19828813048E+04  0.50400001928E-02 0. -1.
       -1    1    3    3    0  502  0.18344545511E+04  0.24955256373E+03  0.67034161321E+03  0.19689738090E+04  0.50400001928E-02 0.  1.
</event>
<event>
 5   0  0.1066907E-06  0.3653996E+04  0.7818609E-02  0.8078234E-01
        2   -1    0    0  501    0  0.00000000000E+00  0.00000000000E+00  0.20226960016E+04  0.20226960016E+04  0.25500000920E-02 0.  1.
       -2   -1    0    0    0  501  0.00000000000E+00  0.00000000000E+00 -0.16502339382E+04  0.16502339382E+04  0.25500000920E-02 0. -1.
    10030    2    1    2    0    0  0.00000000000E+00  0.00000000000E+00  0.37246206345E+03  0.36729299398E+04  0.36539959434E+04 0.  0.
        4    1    3    3  502    0  0.40153818155E+03  0.98460573184E+02 -0.16025950006E+04  0.16550648762E+04  0.12699999809E+01 0. -1.
       -4    1    3    3    0  502 -0.40153818155E+03 -0.98460573184E+02  0.19750570641E+04  0.20178650636E+04  0.12699999809E+01 0.  1.
</event>
<event>
 5   0  0.1092116E-06  0.3576674E+04  0.7818609E-02  0.8095856E-01
       -2   -1    0    0    0  501  0.00000000000E+00  0.00000000000E+00  0.23446728838E+04  0.23446728838E+04  0.25500000920E-02 0. -1.
        2   -1    0    0  501    0  0.00000000000E+00  0.00000000000E+00 -0.13640066425E+04  0.13640066425E+04  0.25500000920E-02 0.  1.
    10030    2    1    2    0    0  0.00000000000E+00  0.00000000000E+00  0.98066624135E+03  0.37086795263E+04  0.35766740908E+04 0.  0.
        1    1    3    3  502    0  0.13125605075E+04 -0.60210695353E+03 -0.60349426618E+03  0.15651048523E+04  0.50400001928E-02 0.  1.
       -1    1    3    3    0  502 -0.13125605075E+04  0.60210695353E+03  0.15841605075E+04  0.21435746740E+04  0.50400001928E-02 0. -1.
</event>
<event>
 5   0  0.1128166E-06  0.3672464E+04  0.7818609E-02  0.8074092E-01
       -2   -1    0    0    0  501  0.00000000000E+00  0.00000000000E+00  0.13596465907E+04  0.13596465907E+04  0.25500000920E-02 0. -1.
        2   -1    0    0  501    0  0.00000000000E+00  0.00000000000E+00 -0.24798710637E+04  0.24798710637E+04  0.25500000920E-02 0.  1.
    10030    2    1    2    0    0  0.00000000000E+00  0.00000000000E+00 -0.11202244730E+04  0.38395176544E+04  0.36724641522E+04 0.  0.
        3    1    3    3  502    0  0.19478699588E+03 -0.16839081277E+03 -0.24609036062E+04  0.24743370847E+04  0.10100000352E+00 0.  1.
       -3    1    3    3    0  502 -0.19478699588E+03  0.16839081277E+03  0.13406791332E+04  0.13651805697E+04  0.10100000352E+00 0. -1.
</event>
<event>
 5   0  0.3490375E-07  0.3011849E+04  0.7818609E-02  0.8240355E-01
        3   -1    0    0  501    0  0.00000000000E+00  0.00000000000E+00  0.15228112660E+04  0.15228112694E+04  0.10100000352E+00 0. -1.
       -3   -1    0    0    0  501  0.00000000000E+00  0.00000000000E+00 -0.14892250122E+04  0.14892250156E+04  0.10100000352E+00 0.  1.
    10030    2    1    2    0    0  0.00000000000E+00  0.00000000000E+00  0.33586253847E+02  0.30120362850E+04  0.30118490244E+04 0.  0.
        4    1    3    3  502    0 -0.11494284001E+04 -0.18400860260E+03 -0.93865217007E+03  0.14953642774E+04  0.12699999809E+01 0.  1.
       -4    1    3    3    0  502  0.11494284001E+04  0.18400860260E+03  0.97223842392E+03  0.15166720076E+04  0.12699999809E+01 0. -1.
</event>
<event>
 5   0  0.3848431E-07  0.4574174E+04  0.7818609E-02  0.7897778E-01
        1   -1    0    0  501    0  0.00000000000E+00  0.00000000000E+00  0.20315733813E+04  0.20315733813E+04  0.50400001928E-02 0. -1.
       -1   -1    0    0    0  501  0.00000000000E+00  0.00000000000E+00 -0.25747371520E+04  0.25747371520E+04  0.50400001928E-02 0.  1.
    10030    2    1    2    0    0  0.00000000000E+00  0.00000000000E+00 -0.54316377073E+03  0.46063105334E+04  0.45741742258E+04 0.  0.
        2    1    3    3  502    0 -0.98629985038E+03  0.12804138716E+04  0.13579711126E+04  0.21110027523E+04  0.25500000920E-02 0. -1.
       -2    1    3    3    0  502  0.98629985038E+03 -0.12804138716E+04 -0.19011348834E+04  0.24953077811E+04  0.25500000920E-02 0.  1.
</event>
<event>
 5   0  0.3704306E-07  0.3507021E+04  0.7818609E-02  0.8112128E-01
        1   -1    0    0  501    0  0.00000000000E+00  0.00000000000E+00  0.21049578140E+04  0.21049578140E+04  0.50400001928E-02 0.  1.
       -1   -1    0    0    0  501  0.00000000000E+00  0.00000000000E+00 -0.14607413548E+04  0.14607413548E+04  0.50400001928E-02 0. -1.
    10030    2    1    2    0    0  0.00000000000E+00  0.00000000000E+00  0.64421645919E+03  0.35656991688E+04  0.35070209175E+04 0.  0.
        3    1    3    3  502    0 -0.14253283283E+04 -0.97961150745E+03  0.61608150078E+03  0.18359618664E+04  0.10100000352E+00 0.  1.
       -3    1    3    3    0  502  0.14253283283E+04  0.97961150745E+03  0.28134958409E+02  0.17297373024E+04  0.10100000352E+00 0. -1.
</event>
<event>
 5   0  0.1051123E-06  0.3714638E+04  0.7818609E-02  0.8064725E-01
       -2   -1    0    0    0  501  0.00000000000E+00  0.00000000000E+00  0.30102605161E+04  0.30102605161E+04  0.25500000920E-02 0.  1.
        2   -1    0    0  501    0  0.00000000000E+00  0.00000000000E+00 -0.11459588779E+04  0.11459588779E+04  0.25500000920E-02 0. -1.
    10030    2    1    2    0    0  0.00000000000E+00  0.00000000000E+00  0.18643016382E+04  0.41562193940E+04  0.37146384821E+04 0.  0.
        2    1    3    3  502    0  0.52429737464E+03  0.17465955887E+03  0.29161424176E+04  0.29680431766E+04  0.25500000920E-02 0.  1.
       -2    1    3    3    0  502 -0.52429737464E+03 -0.17465955887E+03 -0.10518407793E+04  0.11881762174E+04  0.25500000920E-02 0. -1.
</event>
<event>
 5   0  0.1066907E-06  0.3618445E+04  0.7818609E-02  0.8086280E-01
        2   -1    0    0  501    0  0.00000000000E+00  0.00000000000E+00  0.21504592839E+04  0.21504592840E+04  0.25500000920E-02 0.  1.
       -2   -1    0    0    0  501  0.00000000000E+00  0.00000000000E+00 -0.15221338547E+04  0.15221338547E+04  0.25500000920E-02 0. -1.
    10030    2    1    2    0    0  0.00000000000E+00  0.00000000000E+00  0.62832542926E+03  0.36725931386E+04  0.36184454558E+04 0.  0.
        4    1    3    3  502    0  0.11951754167E+04 -0.37228771649E+03 -0.10116165116E+04  0.16094756910E+04  0.12699999809E+01 0. -1.
       -4    1    3    3    0  502 -0.11951754167E+04  0.37228771649E+03  0.16399419409E+04  0.20631174476E+04  0.12699999809E+01 0.  1.
</event>
<event>
 5   0  0.3848431E-07  0.2531505E+04  0.7818609E-02  0.8391847E-01
        1   -1    0    0  501    0  0.00000000000E+00  0.00000000000E+00  0.10263710688E+04  0.10263710688E+04  0.50400001928E-02 0. -1.
       -1   -1    0    0    0  501  0.00000000000E+00  0.00000000000E+00 -0.15609653659E+04  0.15609653659E+04  0.50400001928E-02 0.  1.
    10030    2    1    2    0    0  0.00000000000E+00  0.00000000000E+00 -0.53459429711E+03  0.25873364347E+04  0.25315052368E+04 0.  0.
        2    1    3    3  502    0 -0.15213004526E+03 -0.12409229373E+04 -0.46938605846E+03  0.13354237376E+04  0.25500000920E-02 0.  1.
       -2    1    3    3    0  502  0.15213004526E+03  0.12409229373E+04 -0.65208238652E+02  0.12519126972E+04  0.25500000920E-02 0. -1.
</event>
<event>
 5   0  0.3675819E-07  0.3740452E+04  0.7818609E-02  0.8059056E-01
        1   -1    0    0  501    0  0.00000000000E+00  0.00000000000E+00  0.20109573799E+04  0.20109573799E+04  0.50400001928E-02 0. -1.
       -1   -1    0    0    0  501  0.00000000000E+00  0.00000000000E+00 -0.17393437242E+04  0.17393437243E+04  0.50400001928E-02 0.  1.
    10030    2    1    2    0    0  0.00000000000E+00  0.00000000000E+00  0.27161365568E+03  0.37503011042E+04  0.37404524317E+04 0.  0.
        5    1    3    3  502    0  0.11255092649E+04  0.14936122807E+04  0.12710884794E+03  0.18745206053E+04  0.46999998093E+01 0. -1.
       -5    1    3    3    0  502 -0.11255092649E+04 -0.14936122807E+04  0.14450480774E+03  0.18757804989E+04  0.46999998093E+01 0.  1.
</event>
<event>
 5   0  0.3848431E-07  0.3517653E+04  0.7818609E-02  0.8109619E-01
       -1   -1    0    0    0  501  0.00000000000E+00  0.00000000000E+00  0.10404482354E+04  0.10404482354E+04  0.50400001928E-02 0.  1.
        1   -1    0    0  501    0  0.00000000000E+00  0.00000000000E+00 -0.29732096149E+04  0.29732096149E+04  0.50400001928E-02 0. -1.
    10030    2    1    2    0    0  0.00000000000E+00  0.00000000000E+00 -0.19327613796E+04  0.40136578503E+04  0.35176530229E+04 0.  0.
        2    1    3    3  502    0 -0.51238063076E+02  0.84068245733E+03  0.79539021582E+03  0.11584549748E+04  0.25500000920E-02 0.  1.
       -2    1    3    3    0  502  0.51238063076E+02 -0.84068245733E+03 -0.27281515954E+04  0.28552028756E+04  0.25500000920E-02 0. -1.
</event>
<event>
 5   0  0.1051123E-06  0.3754648E+04  0.7818609E-02  0.8055958E-01
       -2   -1    0    0    0  501  0.00000000000E+00  0.00000000000E+00  0.23918204852E+04  0.23918204852E+04  0.25500000920E-02 0.  1.
        2   -1    0    0  501    0  0.00000000000E+00  0.00000000000E+00 -0.14734992585E+04  0.14734992585E+04  0.25500000920E-02 0. -1.
    10030    2    1    2    0    0  0.00000000000E+00  0.00000000000E+00  0.91832122670E+03  0.38653197436E+04  0.37546481653E+04 0.  0.
        2    1    3    3  502    0 -0.27013182400E+03  0.25661805223E+03  0.23533743333E+04  0.23826864627E+04  0.25500000920E-02 0.  1.
       -2    1    3    3    0  502  0.27013182400E+03 -0.25661805223E+03 -0.14350531066E+04  0.14826332809E+04  0.25500000920E-02 0. -1.
</event>
<event>
 5   0  0.1128166E-06  0.3681640E+04  0.7818609E-02  0.8072043E-01
        2   -1    0    0  501    0  0.00000000000E+00  0.00000000000E+00  0.16876499698E+04  0.16876499698E+04  0.25500000920E-02 0. -1.
       -2   -1    0    0    0  501  0.00000000000E+00  0.00000000000E+00 -0.20078916444E+04  0.20078916444E+04  0.25500000920E-02 0.  1.
    10030    2    1    2    0    0  0.00000000000E+00  0.00000000000E+00 -0.32024167460E+03  0.36955416142E+04  0.36816400004E+04 0.  0.
        3    1    3    3  502    0 -0.46775632301E+03  0.60354449861E+03 -0.18414249415E+04  0.19934662688E+04  0.10100000352E+00 0.  1.
       -3    1    3    3    0  502  0.46775632301E+03 -0.60354449861E+03  0.15211832669E+04  0.17020753454E+04  0.10100000352E+00 0. -1.
</event>
<event>
 5   0  0.1051123E-06  0.3590471E+04  0.7818609E-02  0.8092678E-01
       -2   -1    0    0    0  501  0.00000000000E+00  0.00000000000E+00  0.19166156337E+04  0.19166156337E+04  0.25500000920E-02 0.  1.
        2   -1    0    0  501    0  0.00000000000E+00  0.00000000000E+00 -0.16815422647E+04  0.16815422647E+04  0.25500000920E-02 0. -1.
    10030    2    1    2    0    0  0.00000000000E+00  0.00000000000E+00  0.23507336903E+03  0.35981578984E+04  0.35904708288E+04 0.  0.
        2    1    3    3  502    0  0.71394126019E+03  0.18184597753E+03 -0.15230663599E+04  0.16918957472E+04  0.25500000920E-02 0. -1.
       -2    1    3    3    0  502 -0.71394126019E+03 -0.18184597753E+03  0.17581397290E+04  0.19062621512E+04  0.25500000920E-02 0.  1.
</event>
<event>
 5   0  0.3704306E-07  0.3623789E+04  0.7818609E-02  0.8085064E-01
        1   -1    0    0  501    0  0.00000000000E+00  0.00000000000E+00  0.15998946039E+04  0.15998946039E+04  0.50400001928E-02 0.  1.
       -1   -1    0    0    0  501  0.00000000000E+00  0.00000000000E+00 -0.20519866095E+04  0.20519866095E+04  0.50400001928E-02 0. -1.
    10030    2    1    2    0    0  0.00000000000E+00  0.00000000000E+00 -0.45209200559E+03  0.36518812135E+04  0.36237893449E+04 0.  0.
        3    1    3    3  502    0  0.84742233810E+03 -0.13979122259E+04  0.56147151184E+03  0.17284482865E+04  0.10100000352E+00 0. -1.
       -3    1    3    3    0  502 -0.84742233810E+03  0.13979122259E+04 -0.10135635174E+04  0.19234329270E+04  0.10100000352E+00 0.  1.
</event>
<event>
 5   0  0.3675819E-07  0.3178958E+04  0.7818609E-02  0.8194396E-01
        1   -1    0    0  501    0  0.00000000000E+00  0.00000000000E+00  0.27514489397E+04  0.27514489397E+04  0.50400001928E-02 0.  1.
       -1   -1    0    0    0  501  0.00000000000E+00  0.00000000000E+00 -0.91822318346E+03  0.91822318348E+03  0.50400001928E-02 0. -1.
    10030    2    1    2    0    0  0.00000000000E+00  0.00000000000E+00  0.18332257562E+04  0.36696721232E+04  0.31789584487E+04 0.  0.
        5    1    3    3  502    0  0.75588614374E+03  0.91364084148E+03  0.21384496664E+04  0.24452182960E+04  0.46999998093E+01 0.  1.
       -5    1    3    3    0  502 -0.75588614374E+03 -0.91364084148E+03 -0.30522391015E+03  0.12244538272E+04  0.46999998093E+01 0. -1.
</event>
<event>
 5   0  0.1128530E-06  0.3792861E+04  0.7818609E-02  0.8047689E-01
       -2   -1    0    0    0  501  0.00000000000E+00  0.00000000000E+00  0.15745002197E+04  0.15745002197E+04  0.25500000920E-02 0. -1.
        2   -1    0    0  501    0  0.00000000000E+00  0.00000000000E+00 -0.22841843234E+04  0.22841843234E+04  0.25500000920E-02 0.  1.
    10030    2    1    2    0    0  0.00000000000E+00  0.00000000000E+00 -0.70968410368E+03  0.38586845432E+04  0.37928610410E+04 0.  0.
        5    1    3    3  502    0  0.73718906651E+03  0.48481905392E+03  0.13529594741E+04  0.16152456976E+04  0.46999998093E+01 0. -1.
       -5    1    3    3    0  502 -0.73718906651E+03 -0.48481905392E+03 -0.20626435778E+04  0.22434388456E+04  0.46999998093E+01 0.  1.
</event>
<event>
 5   0  0.3675819E-07  0.3618222E+04  0.7818609E-02  0.8086330E-01
       -1   -1    0    0    0  501  0.00000000000E+00  0.00000000000E+00  0.15903727922E+04  0.15903727922E+04  0.50400001928E-02 0. -1.
        1   -1    0    0  501    0  0.00000000000E+00  0.00000000000E+00 -0.20579344207E+04  0.20579344207E+04  0.50400001928E-02 0.  1.
    10030    2    1    2    0    0  0.00000000000E+00  0.00000000000E+00 -0.46756162851E+03  0.36483072129E+04  0.36182221661E+04 0.  0.
        5    1    3    3  502    0  0.16805876873E+03  0.92405881751E+03 -0.17928365922E+04  0.20239598771E+04  0.46999998093E+01 0.  1.
       -5    1    3    3    0  502 -0.16805876873E+03 -0.92405881751E+03  0.13252749637E+04  0.16243473358E+04  0.46999998093E+01 0. -1.
</event>
<event>
 5   0  0.3848431E-07  0.3713211E+04  0.7818609E-02  0.8065040E-01
        1   -1    0    0  501    0  0.00000000000E+00  0.00000000000E+00  0.17292386877E+04  0.17292386877E+04  0.50400001928E-02 0. -1.
       -1   -1    0    0    0  501  0.00000000000E+00  0.00000000000E+00 -0.19933538557E+04  0.19933538557E+04  0.50400001928E-02 0.  1.
    10030    2    1    2    0    0  0.00000000000E+00  0.00000000000E+00 -0.26411516802E+03  0.37225925434E+04  0.37132113355E+04 0.  0.
        2    1    3    3  502    0 -0.13977395572E+02  0.18407050383E+04  0.11061636078E+03  0.18440787361E+04  0.25500000920E-02 0.  1.
       -2    1    3    3    0  502  0.13977395572E+02 -0.18407050383E+04 -0.37473152879E+03  0.18785138073E+04  0.25500000920E-02 0. -1.
</event>
<event>
 5   0  0.1128530E-06  0.3716813E+04  0.7818609E-02  0.8064246E-01
        2   -1    0    0  501    0  0.00000000000E+00  0.00000000000E+00  0.22484032955E+04  0.22484032955E+04  0.25500000920E-02 0.  1.
       -2   -1    0    0    0  501  0.00000000000E+00  0.00000000000E+00 -0.15360569213E+04  0.15360569213E+04  0.25500000920E-02 0. -1.
    10030    2    1    2    0    0  0.00000000000E+00  0.00000000000E+00  0.71234637419E+03  0.37844602168E+04  0.37168133900E+04 0.  0.
        5    1    3    3  502    0  0.12059715088E+04 -0.10200057858E+03  0.17921178077E+04  0.21625169883E+04  0.46999998093E+01 0.  1.
       -5    1    3    3    0  502 -0.12059715088E+04  0.10200057858E+03 -0.10797714335E+04  0.16219432285E+04  0.46999998093E+01 0. -1.
</event>
<event>
 5   0  0.3682276E-07  0.3670167E+04  0.7818609E-02  0.8074605E-01
        1   -1    0    0  501    0  0.00000000000E+00  0.00000000000E+00  0.16552215396E+04  0.16552215396E+04  0.50400001928E-02 0. -1.
       -1   -1    0    0    0  501  0.00000000000E+00  0.00000000000E+00 -0.20344903034E+04  0.20344903034E+04  0.50400001928E-02 0.  1.
    10030    2    1    2    0    0  0.00000000000E+00  0.00000000000E+00 -0.37926876378E+03  0.36897118430E+04  0.36701673925E+04 0.  0.
        1    1    3    3  502    0 -0.18441006364E+03  0.96213526151E+03  0.13703442955E+04  0.16845043251E+04  0.50400001928E-02 0. -1.
       -1    1    3    3    0  502  0.18441006364E+03 -0.96213526151E+03 -0.17496130592E+04  0.20052075180E+04  0.50400001928E-02 0.  1.
</event>
<event>
 5   0  0.1128166E-06  0.3672412E+04  0.7818609E-02  0.8074103E-01
        2   -1    0    0  501    0  0.00000000000E+00  0.00000000000E+00  0.16454964344E+04  0.16454964344E+04  0.25500000920E-02 0.  1.
       -2   -1    0    0    0  501  0.00000000000E+00  0.00000000000E+00 -0.20490183825E+04  0.20490183825E+04  0.25500000920E-02 0. -1.
    10030    2    1    2    0    0  0.00000000000E+00  0.00000000000E+00 -0.40352194813E+03  0.36945148168E+04  0.36724119825E+04 0.  0.
        3    1    3    3  502    0 -0.79428656764E+03  0.12419906181E+04  0.89945982406E+03  0.17269799745E+04  0.10100000352E+00 0.  1.
       -3    1    3    3    0  502  0.79428656764E+03 -0.12419906181E+04 -0.13029817722E+04  0.19675348424E+04  0.10100000352E+00 0. -1.
</event>
<event>
 5   0  0.1066907E-06  0.3609321E+04  0.7818609E-02  0.8088360E-01
       -2   -1    0    0    0  501  0.00000000000E+00  0.00000000000E+00  0.10834259130E+04  0.10834259130E+04  0.25500000920E-02 0.  1.
        2   -1    0    0  501    0  0.00000000000E+00  0.00000000000E+00 -0.30060198619E+04  0.30060198619E+04  0.25500000920E-02 0. -1.
    10030    2    1    2    0    0  0.00000000000E+00  0.00000000000E+00 -0.19225939489E+04  0.40894457750E+04  0.36093211625E+04 0.  0.
        4    1    3    3  502    0  0.41819566142E+03  0.80127480415E+03 -0.27310888833E+04  0.28767650277E+04  0.12699999809E+01 0. -1.
       -4    1    3    3    0  502 -0.41819566142E+03 -0.80127480415E+03  0.80849493441E+03  0.12126807473E+04  0.12699999809E+01 0.  1.
</event>
<event>
 5   0  0.1128166E-06  0.2459041E+04  0.7818609E-02  0.8417724E-01
        2   -1    0    0  501    0  0.00000000000E+00  0.00000000000E+00  0.18642605200E+04  0.18642605200E+04  0.25500000920E-02 0. -1.
       -2   -1    0    0    0  501  0.00000000000E+00  0.00000000000E+00 -0.81089561931E+03  0.81089561931E+03  0.25500000920E-02 0.  1.
    10030    2    1    2    0    0  0.00000000000E+00  0.00000000000E+00  0.10533649007E+04  0.26751561393E+04  0.24590410236E+04 0.  0.
        3    1    3    3  502    0 -0.89865184829E+03 -0.69168873060E+03  0.10435281548E+04  0.15410903493E+04  0.10100000352E+00 0. -1.
       -3    1    3    3    0  502  0.89865184829E+03  0.69168873060E+03  0.98367459101E+01  0.11340657901E+04  0.10100000352E+00 0.  1.
</event>
<event>
 5   0  0.3848431E-07  0.3732104E+04  0.7818609E-02  0.8060884E-01
        1   -1    0    0  501    0  0.00000000000E+00  0.00000000000E+00  0.21325209105E+04  0.21325209105E+04  0.50400001928E-02 0.  1.
       -1   -1    0    0    0  501  0.00000000000E+00  0.00000000000E+00 -0.16328796307E+04  0.16328796307E+04  0.50400001928E-02 0. -1.
    10030    2    1    2    0    0  0.00000000000E+00  0.00000000000E+00  0.49964127984E+03  0.37654005412E+04  0.37321039411E+04 0.  0.
        2    1    3    3  502    0  0.18315386832E+04  0.22697337653E+03 -0.28501141617E+02  0.18457689934E+04  0.25500000920E-02 0. -1.
       -2    1    3    3    0  502 -0.18315386832E+04 -0.22697337653E+03  0.52814242146E+03  0.19196315478E+04  0.25500000920E-02 0.  1.
</event>
<event>
 5   0  0.1066907E-06  0.3700245E+04  0.7818609E-02  0.8067908E-01
        2   -1    0    0  501    0  0.00000000000E+00  0.00000000000E+00  0.22406135171E+04  0.22406135171E+04  0.25500000920E-02 0. -1.
       -2   -1    0    0    0  501  0.00000000000E+00  0.00000000000E+00 -0.15276855193E+04  0.15276855193E+04  0.25500000920E-02 0.  1.
    10030    2    1    2    0    0  0.00000000000E+00  0.00000000000E+00  0.71292799783E+03  0.37682990364E+04  0.37002447618E+04 0.  0.
        4    1    3    3  502    0  0.85546633517E+03  0.45598881285E+03 -0.12483363061E+04  0.15805358566E+04  0.12699999809E+01 0.  1.
       -4    1    3    3    0  502 -0.85546633517E+03 -0.45598881285E+03  0.19612643039E+04  0.21877631798E+04  0.12699999809E+01 0. -1.
</event>
<event>
 5   0  0.3675819E-07  0.2313246E+04  0.7818609E-02  0.8472717E-01
       -1   -1    0    0    0  501  0.00000000000E+00  0.00000000000E+00  0.72399914054E+03  0.72399914056E+03  0.50400001928E-02 0. -1.
        1   -1    0    0  501    0  0.00000000000E+00  0.00000000000E+00 -0.18477595189E+04  0.18477595189E+04  0.50400001928E-02 0.  1.
    10030    2    1    2    0    0  0.00000000000E+00  0.00000000000E+00 -0.11237603784E+04  0.25717586595E+04  0.23132456019E+04 0.  0.
        5    1    3    3  502    0 -0.41396838569E+03  0.10408973716E+04 -0.88201314907E+03  0.14257652148E+04  0.46999998093E+01 0. -1.
       -5    1    3    3    0  502  0.41396838569E+03 -0.10408973716E+04 -0.24174722932E+03  0.11459934447E+04  0.46999998093E+01 0.  1.
</event>
<event>
 5   0  0.3848431E-07  0.3602090E+04  0.7818609E-02  0.8090013E-01
        1   -1    0    0  501    0  0.00000000000E+00  0.00000000000E+00  0.27800768061E+04  0.27800768061E+04  0.50400001928E-02 0. -1.
       -1   -1    0    0    0  501  0.00000000000E+00  0.00000000000E+00 -0.11667888736E+04  0.11667888736E+04  0.50400001928E-02 0.  1.
    10030    2    1    2    0    0  0.00000000000E+00  0.00000000000E+00  0.16132879325E+04  0.39468656797E+04  0.36020897741E+04 0.  0.
        2    1    3    3  502    0 -0.98964716800E+03  0.14712508853E+04  0.46052617979E+03  0.18319566171E+04  0.25500000920E-02 0.  1.
       -2    1    3    3    0  502  0.98964716800E+03 -0.14712508853E+04  0.11527617527E+04  0.21149090626E+04  0.25500000920E-02 0. -1.
</event>
<event>
 5   0  0.3848431E-07  0.2671259E+04  0.7818609E-02  0.8344391E-01
        1   -1    0    0  501    0  0.00000000000E+00  0.00000000000E+00  0.27835272619E+04  0.27835272619E+04  0.50400001928E-02 0.  1.
       -1   -1    0    0    0  501  0.00000000000E+00  0.00000000000E+00 -0.64087976010E+03  0.64087976011E+03  0.50400001928E-02 0. -1.
    10030    2    1    2    0    0  0.00000000000E+00  0.00000000000E+00  0.21426475018E+04  0.34244070220E+04  0.26712590918E+04 0.  0.
        2    1    3    3  502    0  0.12468536180E+04  0.41820142678E+02  0.16827905345E+04  0.20947975683E+04  0.25500000920E-02 0.  1.
       -2    1    3    3    0  502 -0.12468536180E+04 -0.41820142678E+02  0.45985696731E+03  0.13296094537E+04  0.25500000920E-02 0. -1.
</event>
<event>
 5   0  0.3704306E-07  0.3700784E+04  0.7818609E-02  0.8067788E-01
       -1   -1    0    0    0  501  0.00000000000E+00  0.00000000000E+00  0.16217750401E+04  0.16217750401E+04  0.50400001928E-02 0. -1.
        1   -1    0    0  501    0  0.00000000000E+00  0.00000000000E+00 -0.21112362996E+04  0.21112362996E+04  0.50400001928E-02 0.  1.
    10030    2    1    2    0    0  0.00000000000E+00  0.00000000000E+00 -0.48946125944E+03  0.37330113397E+04  0.37007838815E+04 0.  0.
        3    1    3    3  502    0  0.84540474592E+03 -0.14330506451E+04 -0.10614772997E+04  0.19735950455E+04  0.10100000352E+00 0.  1.
       -3    1    3    3    0  502 -0.84540474592E+03  0.14330506451E+04  0.57201604024E+03  0.17594162942E+04  0.10100000352E+00 0. -1.
</event>
<event>
 5   0  0.3675819E-07  0.3763331E+04  0.7818609E-02  0.8054070E-01
       -1   -1    0    0    0  501  0.00000000000E+00  0.00000000000E+00  0.11096162672E+04  0.11096162672E+04  0.50400001928E-02 0. -1.
        1   -1    0    0  501    0  0.00000000000E+00  0.00000000000E+00 -0.31908915578E+04  0.31908915578E+04  0.50400001928E-02 0.  1.
    10030    2    1    2    0    0  0.00000000000E+00  0.00000000000E+00 -0.20812752906E+04  0.43005078250E+04  0.37633310667E+04 0.  0.
        5    1    3    3  502    0  0.31551961653E+03  0.14779487386E+04 -0.23217084787E+04  0.27702414069E+04  0.46999998093E+01 0.  1.
       -5    1    3    3    0  502 -0.31551961653E+03 -0.14779487386E+04  0.24043318809E+03  0.15302664181E+04  0.46999998093E+01 0. -1.
</event>
<event>
 5   0  0.1128530E-06  0.3683128E+04  0.7818609E-02  0.8071711E-01
       -2   -1    0    0    0  501  0.00000000000E+00  0.00000000000E+00  0.19973038591E+04  0.19973038591E+04  0.25500000920E-02 0. -1.
        2   -1    0    0  501    0  0.00000000000E+00  0.00000000000E+00 -0.16979680662E+04  0.16979680662E+04  0.25500000920E-02 0.  1.
    10030    2    1    2    0    0  0.00000000000E+00  0.00000000000E+00  0.29933579284E+03  0.36952719253E+04  0.36831281114E+04 0.  0.
        5    1    3    3  502    0 -0.17090458515E+04  0.40949339106E+03  0.70176721226E+03  0.18923588112E+04  0.46999998093E+01 0. -1.
       -5    1    3    3    0  502  0.17090458515E+04 -0.40949339106E+03 -0.40243141942E+03  0.18029131142E+04  0.46999998093E+01 0.  1.
</event>
<event>
 5   0  0.3704306E-07  0.3610373E+04  0.7818609E-02  0.8088120E-01
        1   -1    0    0  501    0  0.00000000000E+00  0.00000000000E+00  0.21520921408E+04  0.21520921408E+04  0.50400001928E-02 0. -1.
       -1   -1    0    0    0  501  0.00000000000E+00  0.00000000000E+00 -0.15142000504E+04  0.15142000504E+04  0.50400001928E-02 0.  1.
    10030    2    1    2    0    0  0.00000000000E+00  0.00000000000E+00  0.63789209041E+03  0.36662921912E+04  0.36103728494E+04 0.  0.
        3    1    3    3  502    0 -0.12984748027E+04  0.12049548495E+04  0.67181189098E+03  0.18945406382E+04  0.10100000352E+00 0. -1.
       -3    1    3    3    0  502  0.12984748027E+04 -0.12049548495E+04 -0.33919800570E+02  0.17717515530E+04  0.10100000352E+00 0.  1.
</event>
<event>
 5   0  0.3675819E-07  0.3822055E+04  0.7818609E-02  0.8041439E-01
        1   -1    0    0  501    0  0.00000000000E+00  0.00000000000E+00  0.15034028382E+04  0.15034028382E+04  0.50400001928E-02 0.  1.
       -1   -1    0    0    0  501  0.00000000000E+00  0.00000000000E+00 -0.24291727686E+04  0.24291727687E+04  0.50400001928E-02 0. -1.
    10030    2    1    2    0    0  0.00000000000E+00  0.00000000000E+00 -0.92576993046E+03  0.39325756069E+04  0.38220545443E+04 0.  0.
        5    1    3    3  502    0  0.57969641606E+03  0.14574477813E+04  0.66037971984E+03  0.17018594050E+04  0.46999998093E+01 0.  1.
       -5    1    3    3    0  502 -0.57969641606E+03 -0.14574477813E+04 -0.15861496503E+04  0.22307162018E+04  0.46999998093E+01 0. -1.
</event>
<event>
 5   0  0.3764495E-07  0.3753168E+04  0.7818609E-02  0.8056280E-01
        1   -1    0    0  501    0  0.00000000000E+00  0.00000000000E+00  0.10182982633E+04  0.10182982633E+04  0.50400001928E-02 0. -1.
       -1   -1    0    0    0  501  0.00000000000E+00  0.00000000000E+00 -0.34582860533E+04  0.34582860533E+04  0.50400001928E-02 0.  1.
    10030    2    1    2    0    0  0.00000000000E+00  0.00000000000E+00 -0.24399877900E+04  0.44765843166E+04  0.37531675593E+04 0.  0.
        4    1    3    3  502    0  0.28410608446E+01 -0.30312875125E+03 -0.34288884246E+04  0.34422627082E+04  0.12699999809E+01 0.  1.
       -4    1    3    3    0  502 -0.28410608446E+01  0.30312875125E+03  0.98890063459E+03  0.10343216083E+04  0.12699999809E+01 0. -1.
</event>
<event>
 5   0  0.3848431E-07  0.3460753E+04  0.7818609E-02  0.8123155E-01
       -1   -1    0    0    0  501  0.00000000000E+00  0.00000000000E+00  0.11367544247E+04  0.11367544247E+04  0.50400001928E-02 0. -1.
        1   -1    0    0  501    0  0.00000000000E+00  0.00000000000E+00 -0.26339923809E+04  0.26339923809E+04  0.50400001928E-02 0.  1.
    10030    2    1    2    0    0  0.00000000000E+00  0.00000000000E+00 -0.14972379562E+04  0.37707468056E+04  0.34607528046E+04 0.  0.
        2    1    3    3  502    0  0.40857558837E+03 -0.16371358474E+04 -0.33079222291E+03  0.17194683157E+04  0.25500000920E-02 0. -1.
       -2    1    3    3    0  502 -0.40857558837E+03  0.16371358474E+04 -0.11664457333E+04  0.20512784898E+04  0.25500000920E-02 0.  1.
</event>
<event>
 5   0  0.1051123E-06  0.3686710E+04  0.7818609E-02  0.8070913E-01
       -2   -1    0    0    0  501  0.00000000000E+00  0.00000000000E+00  0.16588244855E+04  0.16588244855E+04  0.25500000920E-02 0. -1.
        2   -1    0    0  501    0  0.00000000000E+00  0.00000000000E+00 -0.20484134386E+04  0.20484134386E+04  0.25500000920E-02 0.  1.
    10030    2    1    2    0    0  0.00000000000E+00  0.00000000000E+00 -0.38958895311E+03  0.37072379241E+04  0.36867103865E+04 0.  0.
        2    1    3    3  502    0 -0.17056528443E+04  0.69093384017E+03 -0.30176900769E+03  0.18648607805E+04  0.25500000920E-02 0.  1.
       -2    1    3    3    0  502  0.17056528443E+04 -0.69093384017E+03 -0.87819945423E+02  0.18423771436E+04  0.25500000920E-02 0. -1.
</event>
<event>
 5   0  0.1128166E-06  0.3683772E+04  0.7818609E-02  0.8071568E-01
       -2   -1    0    0    0  501  0.00000000000E+00  0.00000000000E+00  0.18805523310E+04  0.18805523310E+04  0.25500000920E-02 0.  1.
        2   -1    0    0  501    0  0.00000000000E+00  0.00000000000E+00 -0.18040142416E+04  0.18040142416E+04  0.25500000920E-02 0. -1.
    10030    2    1    2    0    0  0.00000000000E+00  0.00000000000E+00  0.76538089352E+02  0.36845665726E+04  0.36837715386E+04 0.  0.
        3    1    3    3  502    0  0.91147616365E+03  0.13162806747E+03 -0.15572016792E+04  0.18091411844E+04  0.10100000352E+00 0. -1.
       -3    1    3    3    0  502 -0.91147616365E+03 -0.13162806747E+03  0.16337397686E+04  0.18754253882E+04  0.10100000352E+00 0.  1.
</event>
<event>
 5   0  0.1066907E-06  0.2376663E+04  0.7818609E-02  0.8448292E-01
       -2   -1    0    0    0  501  0.00000000000E+00  0.00000000000E+00  0.89689418337E+03  0.89689418338E+03  0.25500000920E-02 0.  1.
        2   -1    0    0  501    0  0.00000000000E+00  0.00000000000E+00 -0.15744691659E+04  0.15744691659E+04  0.25500000920E-02 0. -1.
    10030    2    1    2    0    0  0.00000000000E+00  0.00000000000E+00 -0.67757498257E+03  0.24713633493E+04  0.23766634064E+04 0.  0.
        4    1    3    3  502    0  0.75108179573E+03 -0.79387266914E+03  0.14646847603E+03  0.11026387922E+04  0.12699999809E+01 0.  1.
       -4    1    3    3    0  502 -0.75108179573E+03  0.79387266914E+03 -0.82404345860E+03  0.13687245571E+04  0.12699999809E+01 0. -1.
</event>
<event>
 5   0  0.3675819E-07  0.3784522E+04  0.7818609E-02  0.8049485E-01
       -1   -1    0    0    0  501  0.00000000000E+00  0.00000000000E+00  0.15176459286E+04  0.15176459286E+04  0.50400001928E-02 0.  1.
        1   -1    0    0  501    0  0.00000000000E+00  0.00000000000E+00 -0.23593462988E+04  0.23593462988E+04  0.50400001928E-02 0. -1.
    10030    2    1    2    0    0  0.00000000000E+00  0.00000000000E+00 -0.84170037024E+03  0.38769922274E+04  0.37845223237E+04 0.  0.
        5    1    3    3  502    0 -0.13182264433E+04  0.10833597230E+04 -0.12589101971E+04  0.21204401004E+04  0.46999998093E+01 0. -1.
       -5    1    3    3    0  502  0.13182264433E+04 -0.10833597230E+04  0.41720982683E+03  0.17565521270E+04  0.46999998093E+01 0.  1.
</event>
<event>
 5   0  0.1092116E-06  0.3643519E+04  0.7818609E-02  0.8080595E-01
       -2   -1    0    0    0  501  0.00000000000E+00  0.00000000000E+00  0.16418755566E+04  0.16418755566E+04  0.25500000920E-02 0.  1.
        2   -1    0    0  501    0  0.00000000000E+00  0.00000000000E+00 -0.20213520314E+04  0.20213520314E+04  0.25500000920E-02 0. -1.
    10030    2    1    2    0    0  0.00000000000E+00  0.00000000000E+00 -0.37947647479E+03  0.36632275880E+04  0.36435194478E+04 0.  0.
        1    1    3    3  502    0 -0.66799630195E+03  0.15544931694E+04 -0.86877312421E+03  0.19019555238E+04  0.50400001928E-02 0. -1.
       -1    1    3    3    0  502  0.66799630195E+03 -0.15544931694E+04  0.48929664941E+03  0.17612720642E+04  0.50400001928E-02 0.  1.
</event>
<event>
 5   0  0.1128530E-06  0.3716384E+04  0.7818609E-02  0.8064341E-01
        2   -1    0    0  501    0  0.00000000000E+00  0.00000000000E+00  0.17500949313E+04  0.17500949313E+04  0.25500000920E-02 0. -1.
       -2   -1    0    0    0  501  0.00000000000E+00  0.00000000000E+00 -0.19729660021E+04  0.19729660021E+04  0.25500000920E-02 0.  1.
    10030    2    1    2    0    0  0.00000000000E+00  0.00000000000E+00 -0.22287107081E+03  0.37230609334E+04  0.37163841566E+04 0.  0.
        5    1    3    3  502    0 -0.20737937937E+03 -0.21715377966E+03 -0.19484949468E+04  0.19715011079E+04  0.46999998093E+01 0.  1.
       -5    1    3    3    0  502  0.20737937937E+03  0.21715377966E+03  0.17256238760E+04  0.17515598255E+04  0.46999998093E+01 0. -1.
</event>
<event>
 5   0  0.3764495E-07  0.3726426E+04  0.7818609E-02  0.8062131E-01
        1   -1    0    0  501    0  0.00000000000E+00  0.00000000000E+00  0.22461056997E+04  0.22461056997E+04  0.50400001928E-02 0. -1.
       -1   -1    0    0    0  501  0.00000000000E+00  0.00000000000E+00 -0.15455916186E+04  0.15455916186E+04  0.50400001928E-02 0.  1.
    10030    2    1    2    0    0  0.00000000000E+00  0.00000000000E+00  0.70051408113E+03  0.37916973183E+04  0.37264257105E+04 0.  0.
        4    1    3    3  502    0  0.17744801595E+03 -0.81879085578E+03 -0.13431211956E+04  0.15829979225E+04  0.12699999809E+01 0.  1.
       -4    1    3    3    0  502 -0.17744801595E+03  0.81879085578E+03  0.20436352767E+04  0.22086993958E+04  0.12699999809E+01 0. -1.
</event>
<event>
 5   0  0.3848431E-07  0.3872575E+04  0.7818609E-02  0.8030757E-01
       -1   -1    0    0    0  501  0.00000000000E+00  0.00000000000E+00  0.13198841876E+04  0.13198841876E+04  0.50400001928E-02 0. -1.
        1   -1    0    0  501    0  0.00000000000E+00  0.00000000000E+00 -0.28405594071E+04  0.28405594071E+04  0.50400001928E-02 0.  1.
    10030    2    1    2    0    0  0.00000000000E+00  0.00000000000E+00 -0.15206752195E+04  0.41604435948E+04  0.38725750841E+04 0.  0.
        2    1    3    3  502    0  0.11428244850E+04  0.77043997286E+03  0.70075185265E+03  0.15461819797E+04  0.25500000920E-02 0. -1.
       -2    1    3    3    0  502 -0.11428244850E+04 -0.77043997286E+03 -0.22214270722E+04  0.26142616151E+04  0.25500000920E-02 0.  1.
</event>
<event>
 5   0  0.3848431E-07  0.3158401E+04  0.7818609E-02  0.8199891E-01
       -1   -1    0    0    0  501  0.00000000000E+00  0.00000000000E+00  0.21288835852E+04  0.21288835852E+04  0.50400001928E-02 0.  1.
        1   -1    0    0  501    0  0.00000000000E+00  0.00000000000E+00 -0.11714468467E+04  0.11714468467E+04  0.50400001928E-02 0. -1.
    10030    2    1    2    0    0  0.00000000000E+00  0.00000000000E+00  0.95743673845E+03  0.33003304319E+04  0.31584008377E+04 0.  0.
        2    1    3    3  502    0 -0.84261116004E+03 -0.39198292894E+03 -0.85546213085E+03  0.12631150545E+04  0.25500000920E-02 0. -1.
       -2    1    3    3    0  502  0.84261116004E+03  0.39198292894E+03  0.18128988693E+04  0.20372153774E+04  0.25500000920E-02 0.  1.
</event>
<event>
 5   0  0.3675819E-07  0.3692101E+04  0.7818609E-02  0.8069715E-01
        1   -1    0    0  501    0  0.00000000000E+00  0.00000000000E+00  0.18644129835E+04  0.18644129836E+04  0.50400001928E-02 0.  1.
       -1   -1    0    0    0  501  0.00000000000E+00  0.00000000000E+00 -0.18278687411E+04  0.18278687411E+04  0.50400001928E-02 0. -1.
    10030    2    1    2    0    0  0.00000000000E+00  0.00000000000E+00  0.36544242469E+02  0.36922817246E+04  0.36921008725E+04 0.  0.
        5    1    3    3  502    0  0.37784547145E+03 -0.11258067454E+03  0.18218122938E+04  0.18639913446E+04  0.46999998093E+01 0.  1.
       -5    1    3    3    0  502 -0.37784547145E+03  0.11258067454E+03 -0.17852680514E+04  0.18282903801E+04  0.46999998093E+01 0. -1.
</event>
<event>
 5   0  0.3764495E-07  0.3752940E+04  0.7818609E-02  0.8056330E-01
       -1   -1    0    0    0  501  0.00000000000E+00  0.00000000000E+00  0.13913432164E+04  0.13913432164E+04  0.50400001928E-02 0. -1.
        1   -1    0    0  501    0  0.00000000000E+00  0.00000000000E+00 -0.25307486684E+04  0.25307486684E+04  0.50400001928E-02 0.  1.
    10030    2    1    2    0    0  0.00000000000E+00  0.00000000000E+00 -0.11394054520E+04  0.39220918848E+04  0.37529401765E+04 0.  0.
        4    1    3    3  502    0  0.62667729322E+03  0.10395134858E+03 -0.24149598067E+04  0.24971108893E+04  0.12699999809E+01 0.  1.
       -4    1    3    3    0  502 -0.62667729322E+03 -0.10395134858E+03  0.12755543547E+04  0.14249809954E+04  0.12699999809E+01 0. -1.
</event>
<event>
 5   0  0.1051123E-06  0.3764462E+04  0.7818609E-02  0.8053825E-01
       -2   -1    0    0    0  501  0.00000000000E+00  0.00000000000E+00  0.26324575867E+04  0.26324575867E+04  0.25500000920E-02 0. -1.
        2   -1    0    0  501    0  0.00000000000E+00  0.00000000000E+00 -0.13458119240E+04  0.13458119240E+04  0.25500000920E-02 0.  1.
    10030    2    1    2    0    0  0.00000000000E+00  0.00000000000E+00  0.12866456627E+04  0.39782695107E+04  0.37644616133E+04 0.  0.
        2    1    3    3  502    0  0.44416497910E+03  0.14099646066E+04 -0.58797428232E+03  0.15909105811E+04  0.25500000920E-02 0.  1.
       -2    1    3    3    0  502 -0.44416497910E+03 -0.14099646066E+04  0.18746199450E+04  0.23873589296E+04  0.25500000920E-02 0. -1.
</event>
<event>
 5   0  0.1051123E-06  0.3683492E+04  0.7818609E-02  0.8071630E-01
       -2   -1    0    0    0  501  0.00000000000E+00  0.00000000000E+00  0.20105486256E+04  0.20105486256E+04  0.25500000920E-02 0.  1.
        2   -1    0    0  501    0  0.00000000000E+00  0.00000000000E+00 -0.16871155649E+04  0.16871155649E+04  0.25500000920E-02 0. -1.
    10030    2    1    2    0    0  0.00000000000E+00  0.00000000000E+00  0.32343306071E+03  0.36976641906E+04  0.36834917567E+04 0.  0.
        2    1    3    3  502    0  0.10296916734E+03 -0.18382265329E+04  0.21036373956E+03  0.18530872453E+04  0.25500000920E-02 0.  1.
       -2    1    3    3    0  502 -0.10296916734E+03  0.18382265329E+04  0.11306932115E+03  0.18445769453E+04  0.25500000920E-02 0. -1.
</event>
<event>
 5   0  0.1128166E-06  0.3656297E+04  0.7818609E-02  0.8077716E-01
        2   -1    0    0  501    0  0.00000000000E+00  0.00000000000E+00  0.93981485967E+03  0.93981485967E+03  0.25500000920E-02 0. -1.
       -2   -1    0    0    0  501  0.00000000000E+00  0.00000000000E+00 -0.35561549765E+04  0.35561549765E+04  0.25500000920E-02 0.  1.
    10030    2    1    2    0    0  0.00000000000E+00  0.00000000000E+00 -0.26163401168E+04  0.44959698362E+04  0.36562971926E+04 0.  0.
        3    1    3    3  502    0  0.14574584150E+03 -0.11162277358E+04 -0.30794315889E+04  0.32787352942E+04  0.10100000352E+00 0.  1.
       -3    1    3    3    0  502 -0.14574584150E+03  0.11162277358E+04  0.46309147204E+03  0.12172345420E+04  0.10100000352E+00 0. -1.
</event>
<event>
 5   0  0.3682276E-07  0.2775072E+04  0.7818609E-02  0.8311050E-01
        1   -1    0    0  501    0  0.00000000000E+00  0.00000000000E+00  0.22597714647E+04  0.22597714647E+04  0.50400001928E-02 0.  1.
       -1   -1    0    0    0  501  0.00000000000E+00  0.00000000000E+00 -0.85196921533E+03  0.85196921535E+03  0.50400001928E-02 0. -1.
    10030    2    1    2    0    0  0.00000000000E+00  0.00000000000E+00  0.14078022493E+04  0.31117406800E+04  0.27750716903E+04 0.  0.
        1    1    3    3  502    0  0.13701240980E+04 -0.20779843442E+03  0.78187504405E+03  0.15911470132E+04  0.50400001928E-02 0.  1.
       -1    1    3    3    0  502 -0.13701240980E+04  0.20779843442E+03  0.62592720529E+03  0.15205936668E+04  0.50400001928E-02 0. -1.
</event>
<event>
 5   0  0.3848431E-07  0.3732598E+04  0.7818609E-02  0.8060776E-01
       -1   -1    0    0    0  501  0.00000000000E+00  0.00000000000E+00  0.15304393942E+04  0.15304393943E+04  0.50400001928E-02 0.  1.
        1   -1    0    0  501    0  0.00000000000E+00  0.00000000000E+00 -0.22758639282E+04  0.22758639282E+04  0.50400001928E-02 0. -1.
    10030    2    1    2    0    0  0.00000000000E+00  0.00000000000E+00 -0.74542453398E+03  0.38063033225E+04  0.37325979219E+04 0.  0.
        2    1    3    3  502    0 -0.10538978758E+04 -0.13585413155E+04 -0.11128097397E+04  0.20480919792E+04  0.25500000920E-02 0. -1.
       -2    1    3    3    0  502  0.10538978758E+04  0.13585413155E+04  0.36738520571E+03  0.17582113433E+04  0.25500000920E-02 0.  1.
</event>
<event>
 5   0  0.3848431E-07  0.3416976E+04  0.7818609E-02  0.8133752E-01
        1   -1    0    0  501    0  0.00000000000E+00  0.00000000000E+00  0.15909324811E+04  0.15909324811E+04  0.50400001928E-02 0.  1.
       -1   -1    0    0    0  501  0.00000000000E+00  0.00000000000E+00 -0.18347299250E+04  0.18347299250E+04  0.50400001928E-02 0. -1.
    10030    2    1    2    0    0  0.00000000000E+00  0.00000000000E+00 -0.24379744392E+03  0.34256624061E+04  0.34169761086E+04 0.  0.
        2    1    3    3  502    0  0.35557012765E+03 -0.16186860666E+04  0.29431533844E+03  0.16832100927E+04  0.25500000920E-02 0.  1.
       -2    1    3    3    0  502 -0.35557012765E+03  0.16186860666E+04 -0.53811278237E+03  0.17424523134E+04  0.25500000920E-02 0. -1.
</event>
<event>
 5   0  0.1128166E-06  0.3549065E+04  0.7818609E-02  0.8102260E-01
       -2   -1    0    0    0  501  0.00000000000E+00  0.00000000000E+00  0.19786729827E+04  0.19786729827E+04  0.25500000920E-02 0.  1.
        2   -1    0    0  501    0  0.00000000000E+00  0.00000000000E+00 -0.15914529071E+04  0.15914529071E+04  0.25500000920E-02 0. -1.
    10030    2    1    2    0    0  0.00000000000E+00  0.00000000000E+00  0.38722007557E+03  0.35701258898E+04  0.35490645926E+04 0.  0.
        3    1    3    3  502    0 -0.15792099301E+04  0.33635885166E+03 -0.54691313143E+03  0.17047449263E+04  0.10100000352E+00 0. -1.
       -3    1    3    3    0  502  0.15792099301E+04 -0.33635885166E+03  0.93413320700E+03  0.18653809635E+04  0.10100000352E+00 0.  1.
</event>
<event>
 5   0  0.1051123E-06  0.2450708E+04  0.7818609E-02  0.8420760E-01
       -2   -1    0    0    0  501  0.00000000000E+00  0.00000000000E+00  0.13061660479E+04  0.13061660479E+04  0.25500000920E-02 0. -1.
        2   -1    0    0  501    0  0.00000000000E+00  0.00000000000E+00 -0.11495414224E+04  0.11495414224E+04  0.25500000920E-02 0.  1.
    10030    2    1    2    0    0  0.00000000000E+00  0.00000000000E+00  0.15662462546E+03  0.24557074703E+04  0.24507076338E+04 0.  0.
        2    1    3    3  502    0  0.61375944003E+03 -0.14605766590E+03  0.11309117341E+04  0.12949883561E+04  0.25500000920E-02 0. -1.
       -2    1    3    3    0  502 -0.61375944003E+03  0.14605766590E+03 -0.97428710867E+03  0.11607191142E+04  0.25500000920E-02 0.  1.
</event>
<event>
 5   0  0.1051123E-06  0.3709237E+04  0.7818609E-02  0.8065918E-01
       -2   -1    0    0    0  501  0.00000000000E+00  0.00000000000E+00  0.18539359540E+04  0.18539359540E+04  0.25500000920E-02 0. -1.
        2   -1    0    0  501    0  0.00000000000E+00  0.00000000000E+00 -0.18553016252E+04  0.18553016252E+04  0.25500000920E-02 0.  1.
    10030    2    1    2    0    0  0.00000000000E+00  0.00000000000E+00 -0.13656711077E+01  0.37092375792E+04  0.37092373278E+04 0.  0.
        2    1    3    3  502    0 -0.14116242908E+04  0.72844231874E+03  0.95655233016E+03  0.18542663537E+04  0.25500000920E-02 0. -1.
       -2    1    3    3    0  502  0.14116242908E+04 -0.72844231874E+03 -0.95791800127E+03  0.18549712255E+04  0.25500000920E-02 0.  1.
</event>
<event>
 5   0  0.3764495E-07  0.3628380E+04  0.7818609E-02  0.8084022E-01
       -1   -1    0    0    0  501  0.00000000000E+00  0.00000000000E+00  0.13756229064E+04  0.13756229064E+04  0.50400001928E-02 0.  1.
        1   -1    0    0  501    0  0.00000000000E+00  0.00000000000E+00 -0.23925782957E+04  0.23925782957E+04  0.50400001928E-02 0. -1.
    10030    2    1    2    0    0  0.00000000000E+00  0.00000000000E+00 -0.10169553893E+04  0.37682012021E+04  0.36283800842E+04 0.  0.
        4    1    3    3  502    0 -0.36409187645E+03  0.73508020508E+03  0.11720183271E+04  0.14305713455E+04  0.12699999809E+01 0.  1.
       -4    1    3    3    0  502  0.36409187645E+03 -0.73508020508E+03 -0.21889737165E+04  0.23376298567E+04  0.12699999809E+01 0. -1.
</event>
<event>
 5   0  0.1092116E-06  0.3665993E+04  0.7818609E-02  0.8075540E-01
       -2   -1    0    0    0  501  0.00000000000E+00  0.00000000000E+00  0.14194335472E+04  0.14194335472E+04  0.25500000920E-02 0.  1.
        2   -1    0    0  501    0  0.00000000000E+00  0.00000000000E+00 -0.23670544562E+04  0.23670544562E+04  0.25500000920E-02 0. -1.
    10030    2    1    2    0    0  0.00000000000E+00  0.00000000000E+00 -0.94762090899E+03  0.37864880034E+04  0.36659931823E+04 0.  0.
        1    1    3    3  502    0 -0.41128132574E+03  0.12988966609E+03  0.13662764136E+04  0.14327368539E+04  0.50400001928E-02 0.  1.
       -1    1    3    3    0  502  0.41128132574E+03 -0.12988966609E+03 -0.23138973226E+04  0.23537511495E+04  0.50400001928E-02 0. -1.
</event>
<event>
 5   0  0.1128166E-06  0.2653860E+04  0.7818609E-02  0.8350133E-01
       -2   -1    0    0    0  501  0.00000000000E+00  0.00000000000E+00  0.18653225956E+04  0.18653225956E+04  0.25500000920E-02 0. -1.
        2   -1    0    0  501    0  0.00000000000E+00  0.00000000000E+00 -0.94393472304E+03  0.94393472304E+03  0.25500000920E-02 0.  1.
    10030    2    1    2    0    0  0.00000000000E+00  0.00000000000E+00  0.92138787253E+03  0.28092573186E+04  0.26538596554E+04 0.  0.
        3    1    3    3  502    0  0.31431707527E+03  0.18380035186E+03 -0.89001810424E+03  0.96161844264E+03  0.10100000352E+00 0.  1.
       -3    1    3    3    0  502 -0.31431707527E+03 -0.18380035186E+03  0.18114059768E+04  0.18476388760E+04  0.10100000352E+00 0. -1.
</event>
<event>
 5   0  0.3848431E-07  0.3711720E+04  0.7818609E-02  0.8065369E-01
       -1   -1    0    0    0  501  0.00000000000E+00  0.00000000000E+00  0.12156481918E+04  0.12156481918E+04  0.50400001928E-02 0. -1.
        1   -1    0    0  501    0  0.00000000000E+00  0.00000000000E+00 -0.28332350521E+04  0.28332350521E+04  0.50400001928E-02 0.  1.
    10030    2    1    2    0    0  0.00000000000E+00  0.00000000000E+00 -0.16175868603E+04  0.40488832439E+04  0.37117203925E+04 0.  0.
        2    1    3    3  502    0 -0.12946959179E+04  0.13232885013E+04 -0.66703874788E+03  0.19678085956E+04  0.25500000920E-02 0.  1.
       -2    1    3    3    0  502  0.12946959179E+04 -0.13232885013E+04 -0.95054811246E+03  0.20810746483E+04  0.25500000920E-02 0. -1.
</event>
<event>
 5   0  0.1128166E-06  0.3807892E+04  0.7818609E-02  0.8044463E-01
       -2   -1    0    0    0  501  0.00000000000E+00  0.00000000000E+00  0.17415531203E+04  0.17415531203E+04  0.25500000920E-02 0.  1.
        2   -1    0    0  501    0  0.00000000000E+00  0.00000000000E+00 -0.20814813119E+04  0.20814813119E+04  0.25500000920E-02 0. -1.
    10030    2    1    2    0    0  0.00000000000E+00  0.00000000000E+00 -0.33992819157E+03  0.38230344322E+04  0.38078919489E+04 0.  0.
        3    1    3    3  502    0  0.63987562752E+03 -0.13968292904E+04 -0.12989077215E+04  0.20118981496E+04  0.10100000352E+00 0. -1.
       -3    1    3    3    0  502 -0.63987562752E+03  0.13968292904E+04  0.95897952989E+03  0.18111362826E+04  0.10100000352E+00 0.  1.
</event>
<event>
 5   0  0.1051123E-06  0.2533194E+04  0.7818609E-02  0.8391255E-01
        2   -1    0    0  501    0  0.00000000000E+00  0.00000000000E+00  0.16852881627E+04  0.16852881627E+04  0.25500000920E-02 0. -1.
       -2   -1    0    0    0  501  0.00000000000E+00  0.00000000000E+00 -0.95192472370E+03  0.95192472371E+03  0.25500000920E-02 0.  1.
    10030    2    1    2    0    0  0.00000000000E+00  0.00000000000E+00  0.73336343896E+03  0.26372128864E+04  0.25331936117E+04 0.  0.
        2    1    3    3  502    0  0.18011846230E+03 -0.10993858400E+04 -0.26070471814E+03  0.11441410908E+04  0.25500000920E-02 0. -1.
       -2    1    3    3    0  502 -0.18011846230E+03  0.10993858400E+04  0.99406815710E+03  0.14930717955E+04  0.25500000920E-02 0.  1.
</event>
<event>
 5   0  0.1128166E-06  0.3707797E+04  0.7818609E-02  0.8066236E-01
       -2   -1    0    0    0  501  0.00000000000E+00  0.00000000000E+00  0.20667674630E+04  0.20667674630E+04  0.25500000920E-02 0.  1.
        2   -1    0    0  501    0  0.00000000000E+00  0.00000000000E+00 -0.16629540615E+04  0.16629540615E+04  0.25500000920E-02 0. -1.
    10030    2    1    2    0    0  0.00000000000E+00  0.00000000000E+00  0.40381340144E+03  0.37297215245E+04  0.37077968374E+04 0.  0.
        3    1    3    3  502    0 -0.66132408856E+03 -0.87755986291E+03 -0.13000662759E+04  0.17022435769E+04  0.10100000352E+00 0. -1.
       -3    1    3    3    0  502  0.66132408856E+03  0.87755986291E+03  0.17038796774E+04  0.20274779476E+04  0.10100000352E+00 0.  1.
</event>
<event>
 5   0  0.3675819E-07  0.3748681E+04  0.7818609E-02  0.8057258E-01
       -1   -1    0    0    0  501  0.00000000000E+00  0.00000000000E+00  0.18934731667E+04  0.18934731667E+04  0.50400001928E-02 0.  1.
        1   -1    0    0  501    0  0.00000000000E+00  0.00000000000E+00 -0.18554014715E+04  0.18554014715E+04  0.50400001928E-02 0. -1.
    10030    2    1    2    0    0  0.00000000000E+00  0.00000000000E+00  0.38071695190E+02  0.37488746382E+04  0.37486813146E+04 0.  0.
        5    1    3    3  502    0 -0.13923033933E+04  0.12529896224E+04  0.87150127706E+02  0.18751290536E+04  0.46999998093E+01 0.  1.
       -5    1    3    3    0  502  0.13923033933E+04 -0.12529896224E+04 -0.49078432516E+02  0.18737455845E+04  0.46999998093E+01 0. -1.
</event>
<event>
 5   0  0.3490375E-07  0.3684924E+04  0.7818609E-02  0.8071311E-01
       -3   -1    0    0    0  501  0.00000000000E+00  0.00000000000E+00  0.15442261912E+04  0.15442261945E+04  0.10100000352E+00 0. -1.
        3   -1    0    0  501    0  0.00000000000E+00  0.00000000000E+00 -0.21982965127E+04  0.21982965150E+04  0.10100000352E+00 0.  1.
    10030    2    1    2    0    0  0.00000000000E+00  0.00000000000E+00 -0.65407032148E+03  0.37425227096E+04  0.36849244559E+04 0.  0.
        1    1    3    3  502    0 -0.13744311862E+04 -0.26085496292E+03  0.89068906411E+03  0.16584430669E+04  0.50400001928E-02 0. -1.
       -1    1    3    3    0  502  0.13744311862E+04  0.26085496292E+03 -0.15447593856E+04  0.20840796426E+04  0.50400001928E-02 0.  1.
</event>
<event>
 5   0  0.1092116E-06  0.3702622E+04  0.7818609E-02  0.8067381E-01
       -2   -1    0    0    0  501  0.00000000000E+00  0.00000000000E+00  0.15039016518E+04  0.15039016518E+04  0.25500000920E-02 0. -1.
        2   -1    0    0  501    0  0.00000000000E+00  0.00000000000E+00 -0.22789738646E+04  0.22789738646E+04  0.25500000920E-02 0.  1.
    10030    2    1    2    0    0  0.00000000000E+00  0.00000000000E+00 -0.77507221272E+03  0.37828755164E+04  0.37026220760E+04 0.  0.
        1    1    3    3  502    0  0.70388711195E+03  0.14181930434E+04  0.59275216504E+03  0.16905867928E+04  0.50400001928E-02 0. -1.
       -1    1    3    3    0  502 -0.70388711195E+03 -0.14181930434E+04 -0.13678243778E+04  0.20922887236E+04  0.50400001928E-02 0.  1.
</event>
<event>
 5   0  0.3764495E-07  0.3208006E+04  0.7818609E-02  0.8186706E-01
       -1   -1    0    0    0  501  0.00000000000E+00  0.00000000000E+00  0.12639516849E+04  0.12639516849E+04  0.50400001928E-02 0. -1.
        1   -1    0    0  501    0  0.00000000000E+00  0.00000000000E+00 -0.20355408525E+04  0.20355408526E+04  0.50400001928E-02 0.  1.
    10030    2    1    2    0    0  0.00000000000E+00  0.00000000000E+00 -0.77158916763E+03  0.32994925375E+04  0.32080057920E+04 0.  0.
        4    1    3    3  502    0 -0.50675892727E+03  0.97694920324E+03  0.81435416047E+03  0.13690904527E+04  0.12699999809E+01 0. -1.
       -4    1    3    3    0  502  0.50675892727E+03 -0.97694920324E+03 -0.15859433281E+04  0.19304020848E+04  0.12699999809E+01 0.  1.
</event>
<event>
 5   0  0.1051123E-06  0.2732817E+04  0.7818609E-02  0.8324435E-01
       -2   -1    0    0    0  501  0.00000000000E+00  0.00000000000E+00  0.94975186244E+03  0.94975186244E+03  0.25500000920E-02 0.  1.
        2   -1    0    0  501    0  0.00000000000E+00  0.00000000000E+00 -0.19658522018E+04  0.19658522018E+04  0.25500000920E-02 0. -1.
    10030    2    1    2    0    0  0.00000000000E+00  0.00000000000E+00 -0.10161003394E+04  0.29156040642E+04  0.27328167081E+04 0.  0.
        2    1    3    3  502    0 -0.85942239468E+03 -0.10421777165E+04 -0.72755544951E+03  0.15343005499E+04  0.25500000920E-02 0.  1.
       -2    1    3    3    0  502  0.85942239468E+03  0.10421777165E+04 -0.28854488986E+03  0.13813035144E+04  0.25500000920E-02 0. -1.
</event>
<event>
 5   0  0.3682276E-07  0.3670860E+04  0.7818609E-02  0.8074450E-01
       -1   -1    0    0    0  501  0.00000000000E+00  0.00000000000E+00  0.16769559788E+04  0.16769559788E+04  0.50400001928E-02 0. -1.
        1   -1    0    0  501    0  0.00000000000E+00  0.00000000000E+00 -0.20088800456E+04  0.20088800456E+04  0.50400001928E-02 0.  1.
    10030    2    1    2    0    0  0.00000000000E+00  0.00000000000E+00 -0.33192406683E+03  0.36858360244E+04  0.36708600644E+04 0.  0.
        1    1    3    3  502    0  0.19803328305E+03  0.13600905983E+03  0.16611009841E+04  0.16783837836E+04  0.50400001928E-02 0. -1.
       -1    1    3    3    0  502 -0.19803328305E+03 -0.13600905983E+03 -0.19930250509E+04  0.20074522408E+04  0.50400001928E-02 0.  1.
</event>
<event>
 5   0  0.1066907E-06  0.3601680E+04  0.7818609E-02  0.8090107E-01
       -2   -1    0    0    0  501  0.00000000000E+00  0.00000000000E+00  0.13168901243E+04  0.13168901243E+04  0.25500000920E-02 0.  1.
        2   -1    0    0  501    0  0.00000000000E+00  0.00000000000E+00 -0.24626386535E+04  0.24626386535E+04  0.25500000920E-02 0. -1.
    10030    2    1    2    0    0  0.00000000000E+00  0.00000000000E+00 -0.11457485292E+04  0.37795287778E+04  0.36016798984E+04 0.  0.
        4    1    3    3  502    0  0.63979641169E+03  0.21813571779E+03 -0.23244580476E+04  0.24207497739E+04  0.12699999809E+01 0. -1.
       -4    1    3    3    0  502 -0.63979641169E+03 -0.21813571779E+03  0.11787095184E+04  0.13587790039E+04  0.12699999809E+01 0.  1.
</event>
<event>
 5   0  0.3764495E-07  0.3512939E+04  0.7818609E-02  0.8110731E-01
        1   -1    0    0  501    0  0.00000000000E+00  0.00000000000E+00  0.13864228915E+04  0.13864228915E+04  0.50400001928E-02 0.  1.
       -1   -1    0    0    0  501  0.00000000000E+00  0.00000000000E+00 -0.22252837082E+04  0.22252837082E+04  0.50400001928E-02 0. -1.
    10030    2    1    2    0    0  0.00000000000E+00  0.00000000000E+00 -0.83886081667E+03  0.36117065998E+04  0.35129385268E+04 0.  0.
        4    1    3    3  502    0 -0.24348180786E+03 -0.40963554913E+03 -0.21575532610E+04  0.22095525250E+04  0.12699999809E+01 0. -1.
       -4    1    3    3    0  502  0.24348180786E+03  0.40963554913E+03  0.13186924443E+04  0.14021540748E+04  0.12699999809E+01 0.  1.
</event>
<event>
 5   0  0.1128530E-06  0.3658504E+04  0.7818609E-02  0.8077221E-01
        2   -1    0    0  501    0  0.00000000000E+00  0.00000000000E+00  0.15011992606E+04  0.15011992606E+04  0.25500000920E-02 0.  1.
       -2   -1    0    0    0  501  0.00000000000E+00  0.00000000000E+00 -0.22289930206E+04  0.22289930206E+04  0.25500000920E-02 0. -1.
    10030    2    1    2    0    0  0.00000000000E+00  0.00000000000E+00 -0.72779375993E+03  0.37301922812E+04  0.36585038879E+04 0.  0.
        5    1    3    3  502    0 -0.13854878472E+04 -0.11682761146E+04 -0.11064514178E+03  0.18156844693E+04  0.46999998093E+01 0.  1.
       -5    1    3    3    0  502  0.13854878472E+04  0.11682761146E+04 -0.61714861815E+03  0.19145078119E+04  0.46999998093E+01 0. -1.
</event>
<event>
 5   0  0.3764495E-07  0.3663047E+04  0.7818609E-02  0.8076201E-01
        1   -1    0    0  501    0  0.00000000000E+00  0.00000000000E+00  0.25764354755E+04  0.25764354755E+04  0.50400001928E-02 0.  1.
       -1   -1    0    0    0  501  0.00000000000E+00  0.00000000000E+00 -0.13019842548E+04  0.13019842549E+04  0.50400001928E-02 0. -1.
    10030    2    1    2    0    0  0.00000000000E+00  0.00000000000E+00  0.12744512206E+04  0.38784197303E+04  0.36630470501E+04 0.  0.
        4    1    3    3  502    0 -0.95751100995E+03 -0.11516151406E+04  0.17534558079E+04  0.23060038268E+04  0.12699999809E+01 0.  1.
       -4    1    3    3    0  502  0.95751100995E+03  0.11516151406E+04 -0.47900458724E+03  0.15724159035E+04  0.12699999809E+01 0. -1.
</event>
<event>
 5   0  0.3675819E-07  0.3692550E+04  0.7818609E-02  0.8069615E-01
       -1   -1    0    0    0  501  0.00000000000E+00  0.00000000000E+00  0.21179437315E+04  0.21179437315E+04  0.50400001928E-02 0. -1.
        1   -1    0    0  501    0  0.00000000000E+00  0.00000000000E+00 -0.16094536386E+04  0.16094536386E+04  0.50400001928E-02 0.  1.
    10030    2    1    2    0    0  0.00000000000E+00  0.00000000000E+00  0.50849009289E+03  0.37273973702E+04  0.36925504710E+04 0.  0.
        5    1    3    3  502    0 -0.34005133124E+03  0.17351951587E+04 -0.28196752114E+03  0.17905487761E+04  0.46999998093E+01 0.  1.
       -5    1    3    3    0  502  0.34005133124E+03 -0.17351951587E+04  0.79045761403E+03  0.19368485940E+04  0.46999998093E+01 0. -1.
</event>
<event>
 5   0  0.1092116E-06  0.3633786E+04  0.7818609E-02  0.8082796E-01
       -2   -1    0    0    0  501  0.00000000000E+00  0.00000000000E+00  0.22754061927E+04  0.22754061928E+04  0.25500000920E-02 0.  1.
        2   -1    0    0  501    0  0.00000000000E+00  0.00000000000E+00 -0.14507738196E+04  0.14507738196E+04  0.25500000920E-02 0. -1.
    10030    2    1    2    0    0  0.00000000000E+00  0.00000000000E+00  0.82463237318E+03  0.37261800123E+04  0.36337857578E+04 0.  0.
        1    1    3    3  502    0 -0.16090146571E+04 -0.80187348161E+03  0.14262613478E+03  0.18034055178E+04  0.50400001928E-02 0. -1.
       -1    1    3    3    0  502  0.16090146571E+04  0.80187348161E+03  0.68200623840E+03  0.19227744945E+04  0.50400001928E-02 0.  1.
</event>
<event>
 5   0  0.3675819E-07  0.3702063E+04  0.7818609E-02  0.8067505E-01
        1   -1    0    0  501    0  0.00000000000E+00  0.00000000000E+00  0.19579381401E+04  0.19579381401E+04  0.50400001928E-02 0. -1.
       -1   -1    0    0    0  501  0.00000000000E+00  0.00000000000E+00 -0.17499623690E+04  0.17499623690E+04  0.50400001928E-02 0.  1.
    10030    2    1    2    0    0  0.00000000000E+00  0.00000000000E+00  0.20797577113E+03  0.37079005091E+04  0.37020632442E+04 0.  0.
        5    1    3    3  502    0  0.79806149524E+03 -0.15729640368E+04 -0.45830444800E+03  0.18224113335E+04  0.46999998093E+01 0.  1.
       -5    1    3    3    0  502 -0.79806149524E+03  0.15729640368E+04  0.66628021913E+03  0.18854891757E+04  0.46999998093E+01 0. -1.
</event>
<event>
 5   0  0.1092116E-06  0.2844386E+04  0.7818609E-02  0.8289619E-01
       -2   -1    0    0    0  501  0.00000000000E+00  0.00000000000E+00  0.11051253986E+04  0.11051253986E+04  0.25500000920E-02 0. -1.
        2   -1    0    0  501    0  0.00000000000E+00  0.00000000000E+00 -0.18302297130E+04  0.18302297130E+04  0.25500000920E-02 0.  1.
    10030    2    1    2    0    0  0.00000000000E+00  0.00000000000E+00 -0.72510431445E+03  0.29353551116E+04  0.28443862896E+04 0.  0.
        1    1    3    3  502    0  0.44344308164E+03  0.12446911666E+04 -0.90543296550E+03  0.16017823579E+04  0.50400001928E-02 0. -1.
       -1    1    3    3    0  502 -0.44344308164E+03 -0.12446911666E+04  0.18032865106E+03  0.13335727537E+04  0.50400001928E-02 0.  1.
</event>
<event>
 5   0  0.3704306E-07  0.3647278E+04  0.7818609E-02  0.8079747E-01
        1   -1    0    0  501    0  0.00000000000E+00  0.00000000000E+00  0.15454638951E+04  0.15454638951E+04  0.50400001928E-02 0.  1.
       -1   -1    0    0    0  501  0.00000000000E+00  0.00000000000E+00 -0.21518844487E+04  0.21518844487E+04  0.50400001928E-02 0. -1.
    10030    2    1    2    0    0  0.00000000000E+00  0.00000000000E+00 -0.60642055361E+03  0.36973483437E+04  0.36472782848E+04 0.  0.
        3    1    3    3  502    0  0.14653260460E+04  0.37908651673E+03  0.72799220671E+03  0.16795415063E+04  0.10100000352E+00 0.  1.
       -3    1    3    3    0  502 -0.14653260460E+04 -0.37908651673E+03 -0.13344127603E+04  0.20178068374E+04  0.10100000352E+00 0. -1.
</event>
<event>
 5   0  0.3675819E-07  0.2867813E+04  0.7818609E-02  0.8282519E-01
        1   -1    0    0  501    0  0.00000000000E+00  0.00000000000E+00  0.29987791915E+04  0.29987791915E+04  0.50400001928E-02 0. -1.
       -1   -1    0    0    0  501  0.00000000000E+00  0.00000000000E+00 -0.68564142125E+03  0.68564142127E+03  0.50400001928E-02 0.  1.
    10030    2    1    2    0    0  0.00000000000E+00  0.00000000000E+00  0.23131377703E+04  0.36844206128E+04  0.28678125650E+04 0.  0.
        5    1    3    3  502    0  0.17228258497E+03  0.14166790546E+04  0.13355336262E+04  0.19545672128E+04  0.46999998093E+01 0.  1.
       -5    1    3    3    0  502 -0.17228258497E+03 -0.14166790546E+04  0.97760414407E+03  0.17298534000E+04  0.46999998093E+01 0. -1.
</event>
<event>
 5   0  0.1066907E-06  0.3694142E+04  0.7818609E-02  0.8069261E-01
       -2   -1    0    0    0  501  0.00000000000E+00  0.00000000000E+00  0.11700471987E+04  0.11700471987E+04  0.25500000920E-02 0.  1.
        2   -1    0    0  501    0  0.00000000000E+00  0.00000000000E+00 -0.29158408993E+04  0.29158408993E+04  0.25500000920E-02 0. -1.
    10030    2    1    2    0    0  0.00000000000E+00  0.00000000000E+00 -0.17457937006E+04  0.40858880980E+04  0.36941421067E+04 0.  0.
        4    1    3    3  502    0 -0.13555617462E+03  0.16404414595E+04  0.53970471638E+02  0.16469177524E+04  0.12699999809E+01 0.  1.
       -4    1    3    3    0  502  0.13555617462E+03 -0.16404414595E+04 -0.17997641722E+04  0.24389703456E+04  0.12699999809E+01 0. -1.
</event>
<event>
 5   0  0.1051123E-06  0.2471679E+04  0.7818609E-02  0.8413145E-01
       -2   -1    0    0    0  501  0.00000000000E+00  0.00000000000E+00  0.82942369901E+03  0.82942369901E+03  0.25500000920E-02 0.  1.
        2   -1    0    0  501    0  0.00000000000E+00  0.00000000000E+00 -0.18413977464E+04  0.18413977464E+04  0.25500000920E-02 0. -1.
    10030    2    1    2    0    0  0.00000000000E+00  0.00000000000E+00 -0.10119740474E+04  0.26708214455E+04  0.24716787252E+04 0.  0.
        2    1    3    3  502    0  0.71365788786E+03  0.10067585011E+04 -0.57789705530E+03  0.13626574284E+04  0.25500000920E-02 0.  1.
       -2    1    3    3    0  502 -0.71365788786E+03 -0.10067585011E+04 -0.43407699213E+03  0.13081640171E+04  0.25500000920E-02 0. -1.
</event>
<event>
 5   0  0.3682276E-07  0.3771014E+04  0.7818609E-02  0.8052404E-01
        1   -1    0    0  501    0  0.00000000000E+00  0.00000000000E+00  0.15485877318E+04  0.15485877318E+04  0.50400001928E-02 0.  1.
       -1   -1    0    0    0  501  0.00000000000E+00  0.00000000000E+00 -0.22957284406E+04  0.22957284406E+04  0.50400001928E-02 0. -1.
    10030    2    1    2    0    0  0.00000000000E+00  0.00000000000E+00 -0.74714070873E+03  0.38443161724E+04  0.37710141334E+04 0.  0.
        1    1    3    3  502    0  0.13600774665E+03 -0.11374605593E+04  0.11531460363E+04  0.16254416053E+04  0.50400001928E-02 0.  1.
       -1    1    3    3    0  502 -0.13600774665E+03  0.11374605593E+04 -0.19002867451E+04  0.22188745671E+04  0.50400001928E-02 0. -1.
</event>
<event>
 5   0  0.1128530E-06  0.3379690E+04  0.7818609E-02  0.8142909E-01
       -2   -1    0    0    0  501  0.00000000000E+00  0.00000000000E+00  0.19061980348E+04  0.19061980348E+04  0.25500000920E-02 0.  1.
        2   -1    0    0  501    0  0.00000000000E+00  0.00000000000E+00 -0.14980476449E+04  0.14980476449E+04  0.25500000920E-02 0. -1.
    10030    2    1    2    0    0  0.00000000000E+00  0.00000000000E+00  0.40815038987E+03  0.34042456797E+04  0.33796896169E+04 0.  0.
        5    1    3    3  502    0  0.11296051477E+04  0.79160358625E+03  0.11873385950E+04  0.18200107298E+04  0.46999998093E+01 0.  1.
       -5    1    3    3    0  502 -0.11296051477E+04 -0.79160358625E+03 -0.77918820514E+03  0.15842349499E+04  0.46999998093E+01 0. -1.
</event>
<event>
 5   0  0.3682276E-07  0.3638110E+04  0.7818609E-02  0.8081818E-01
       -1   -1    0    0    0  501  0.00000000000E+00  0.00000000000E+00  0.13426052871E+04  0.13426052871E+04  0.50400001928E-02 0.  1.
        1   -1    0    0  501    0  0.00000000000E+00  0.00000000000E+00 -0.24645816316E+04  0.24645816316E+04  0.50400001928E-02 0. -1.
    10030    2    1    2    0    0  0.00000000000E+00  0.00000000000E+00 -0.11219763445E+04  0.38071869188E+04  0.36381095801E+04 0.  0.
        1    1    3    3  502    0  0.80556053064E+03 -0.73711693224E+03 -0.20834877283E+04  0.23522734225E+04  0.50400001928E-02 0. -1.
       -1    1    3    3    0  502 -0.80556053064E+03  0.73711693224E+03  0.96151138382E+03  0.14549134962E+04  0.50400001928E-02 0.  1.
</event>
<event>
 5   0  0.1066907E-06  0.3804413E+04  0.7818609E-02  0.8045208E-01
        2   -1    0    0  501    0  0.00000000000E+00  0.00000000000E+00  0.20659557934E+04  0.20659557934E+04  0.25500000920E-02 0. -1.
       -2   -1    0    0    0  501  0.00000000000E+00  0.00000000000E+00 -0.17514365557E+04  0.17514365557E+04  0.25500000920E-02 0.  1.
    10030    2    1    2    0    0  0.00000000000E+00  0.00000000000E+00  0.31451923767E+03  0.38173923491E+04  0.38044134891E+04 0.  0.
        4    1    3    3  502    0 -0.14519963324E+04  0.94138805099E+03 -0.63529834773E+03  0.18433964346E+04  0.12699999809E+01 0.  1.
       -4    1    3    3    0  502  0.14519963324E+04 -0.94138805099E+03  0.94981758541E+03  0.19739959144E+04  0.12699999809E+01 0. -1.
</event>
<event>
 5   0  0.3764495E-07  0.3599267E+04  0.7818609E-02  0.8090660E-01
        1   -1    0    0  501    0  0.00000000000E+00  0.00000000000E+00  0.12589286480E+04  0.12589286480E+04  0.50400001928E-02 0.  1.
       -1   -1    0    0    0  501  0.00000000000E+00  0.00000000000E+00 -0.25725693284E+04  0.25725693284E+04  0.50400001928E-02 0. -1.
    10030    2    1    2    0    0  0.00000000000E+00  0.00000000000E+00 -0.13136406804E+04  0.38314979764E+04  0.35992672735E+04 0.  0.
        4    1    3    3  502    0  0.11142915001E+04  0.10354398959E+04 -0.16805881992E+04  0.22667508980E+04  0.12699999809E+01 0. -1.
       -4    1    3    3    0  502 -0.11142915001E+04 -0.10354398959E+04  0.36694751886E+03  0.15647470785E+04  0.12699999809E+01 0.  1.
</event>
<event>
 5   0  0.3848431E-07  0.3716299E+04  0.7818609E-02  0.8064359E-01
       -1   -1    0    0    0  501  0.00000000000E+00  0.00000000000E+00  0.16952297524E+04  0.16952297524E+04  0.50400001928E-02 0.  1.
        1   -1    0    0  501    0  0.00000000000E+00  0.00000000000E+00 -0.20367262092E+04  0.20367262092E+04  0.50400001928E-02 0. -1.
    10030    2    1    2    0    0  0.00000000000E+00  0.00000000000E+00 -0.34149645677E+03  0.37319559616E+04  0.37162986249E+04 0.  0.
        2    1    3    3  502    0 -0.18163376160E+04 -0.25264123638E+03  0.13019576894E+03  0.18384397917E+04  0.25500000920E-02 0.  1.
       -2    1    3    3    0  502  0.18163376160E+04  0.25264123638E+03 -0.47169222571E+03  0.18935161698E+04  0.25500000920E-02 0. -1.
</event>
<event>
 5   0  0.1051123E-06  0.3775599E+04  0.7818609E-02  0.8051412E-01
       -2   -1    0    0    0  501  0.00000000000E+00  0.00000000000E+00  0.19025400893E+04  0.19025400893E+04  0.25500000920E-02 0.  1.
        2   -1    0    0  501    0  0.00000000000E+00  0.00000000000E+00 -0.18731729876E+04  0.18731729876E+04  0.25500000920E-02 0. -1.
    10030    2    1    2    0    0  0.00000000000E+00  0.00000000000E+00  0.29367101675E+02  0.37757130770E+04  0.37755988681E+04 0.  0.
        2    1    3    3  502    0 -0.39379412968E+03  0.32085658408E+02  0.18607305599E+04  0.19022148992E+04  0.25500000920E-02 0.  1.
       -2    1    3    3    0  502  0.39379412968E+03 -0.32085658408E+02 -0.18313634582E+04  0.18734981778E+04  0.25500000920E-02 0. -1.
</event>
<event>
 5   0  0.3490375E-07  0.3743449E+04  0.7818609E-02  0.8058401E-01
       -3   -1    0    0    0  501  0.00000000000E+00  0.00000000000E+00  0.15511656500E+04  0.15511656532E+04  0.10100000352E+00 0.  1.
        3   -1    0    0  501    0  0.00000000000E+00  0.00000000000E+00 -0.22585295556E+04  0.22585295578E+04  0.10100000352E+00 0. -1.
    10030    2    1    2    0    0  0.00000000000E+00  0.00000000000E+00 -0.70736390561E+03  0.38096952111E+04  0.37434494662E+04 0.  0.
        5    1    3    3  502    0 -0.12600733125E+04  0.13581399293E+04 -0.62486046891E+03  0.19551985873E+04  0.46999998093E+01 0. -1.
       -5    1    3    3    0  502  0.12600733125E+04 -0.13581399293E+04 -0.82503436699E+02  0.18544966237E+04  0.46999998093E+01 0.  1.
</event>
<event>
 5   0  0.3682276E-07  0.3189823E+04  0.7818609E-02  0.8191510E-01
        1   -1    0    0  501    0  0.00000000000E+00  0.00000000000E+00  0.13454563413E+04  0.13454563413E+04  0.50400001928E-02 0.  1.
       -1   -1    0    0    0  501  0.00000000000E+00  0.00000000000E+00 -0.18906170214E+04  0.18906170214E+04  0.50400001928E-02 0. -1.
    10030    2    1    2    0    0  0.00000000000E+00  0.00000000000E+00 -0.54516068011E+03  0.32360733628E+04  0.31898229797E+04 0.  0.
        1    1    3    3  502    0 -0.41141032725E+03  0.83639795512E+03 -0.15855332673E+04  0.18392215034E+04  0.50400001928E-02 0. -1.
       -1    1    3    3    0  502  0.41141032725E+03 -0.83639795512E+03  0.10403725872E+04  0.13968518594E+04  0.50400001928E-02 0.  1.
</event>
<event>
 5   0  0.3675819E-07  0.3332376E+04  0.7818609E-02  0.8154706E-01
       -1   -1    0    0    0  501  0.00000000000E+00  0.00000000000E+00  0.15543775902E+04  0.15543775902E+04  0.50400001928E-02 0.  1.
        1   -1    0    0  501    0  0.00000000000E+00  0.00000000000E+00 -0.17860410902E+04  0.17860410902E+04  0.50400001928E-02 0. -1.
    10030    2    1    2    0    0  0.00000000000E+00  0.00000000000E+00 -0.23166350005E+03  0.33404186804E+04  0.33323758766E+04 0.  0.
        5    1    3    3  502    0  0.16601645387E+04 -0.12036726910E+03 -0.41318090764E+02  0.16650416960E+04  0.46999998093E+01 0. -1.
       -5    1    3    3    0  502 -0.16601645387E+04  0.12036726910E+03 -0.19034540928E+03  0.16753769844E+04  0.46999998093E+01 0.  1.
</event>
<event>
 5   0  0.1051123E-06  0.3701650E+04  0.7818609E-02  0.8067596E-01
        2   -1    0    0  501    0  0.00000000000E+00  0.00000000000E+00  0.22756895748E+04  0.22756895748E+04  0.25500000920E-02 0.  1.
       -2   -1    0    0    0  501  0.00000000000E+00  0.00000000000E+00 -0.15052813723E+04  0.15052813723E+04  0.25500000920E-02 0. -1.
    10030    2    1    2    0    0  0.00000000000E+00  0.00000000000E+00  0.77040820254E+03  0.37809709471E+04  0.37016499705E+04 0.  0.
        2    1    3    3  502    0 -0.22407255317E+03  0.95965966258E+03  0.19854269996E+04  0.22165458596E+04  0.25500000920E-02 0.  1.
       -2    1    3    3    0  502  0.22407255317E+03 -0.95965966258E+03 -0.12150187971E+04  0.15644250875E+04  0.25500000920E-02 0. -1.
</event>
<event>
 5   0  0.1051123E-06  0.3624577E+04  0.7818609E-02  0.8084885E-01
       -2   -1    0    0    0  501  0.00000000000E+00  0.00000000000E+00  0.18519472238E+04  0.18519472238E+04  0.25500000920E-02 0.  1.
        2   -1    0    0  501    0  0.00000000000E+00  0.00000000000E+00 -0.17734791977E+04  0.17734791977E+04  0.25500000920E-02 0. -1.
    10030    2    1    2    0    0  0.00000000000E+00  0.00000000000E+00  0.78468026029E+02  0.36254264215E+04  0.36245771487E+04 0.  0.
        2    1    3    3  502    0 -0.99083354962E+03  0.12079642406E+04 -0.87938258558E+03  0.17928308513E+04  0.25500000920E-02 0. -1.
       -2    1    3    3    0  502  0.99083354962E+03 -0.12079642406E+04  0.95785061161E+03  0.18325955702E+04  0.25500000920E-02 0.  1.
</event>
<event>
 5   0  0.3682276E-07  0.3705839E+04  0.7818609E-02  0.8066669E-01
       -1   -1    0    0    0  501  0.00000000000E+00  0.00000000000E+00  0.13635066860E+04  0.13635066860E+04  0.50400001928E-02 0. -1.
        1   -1    0    0  501    0  0.00000000000E+00  0.00000000000E+00 -0.25180004375E+04  0.25180004375E+04  0.50400001928E-02 0.  1.
    10030    2    1    2    0    0  0.00000000000E+00  0.00000000000E+00 -0.11544937515E+04  0.38815071235E+04  0.37058388696E+04 0.  0.
        1    1    3    3  502    0  0.98587061319E+03  0.96779860502E+03  0.71608833342E+03  0.15560711767E+04  0.50400001928E-02 0. -1.
       -1    1    3    3    0  502 -0.98587061319E+03 -0.96779860502E+03 -0.18705820849E+04  0.23254359467E+04  0.50400001928E-02 0.  1.
</event>
<event>
 5   0  0.1128166E-06  0.3609587E+04  0.7818609E-02  0.8088299E-01
        2   -1    0    0  501    0  0.00000000000E+00  0.00000000000E+00  0.27274351829E+04  0.27274351829E+04  0.25500000920E-02 0. -1.
       -2   -1    0    0    0  501  0.00000000000E+00  0.00000000000E+00 -0.11942647035E+04  0.11942647035E+04  0.25500000920E-02 0.  1.
    10030    2    1    2    0    0  0.00000000000E+00  0.00000000000E+00  0.15331704794E+04  0.39216998864E+04  0.36095869957E+04 0.  0.
        3    1    3    3  502    0 -0.95732993406E+03 -0.13458697941E+04 -0.23952363195E+02  0.16517929142E+04  0.10100000352E+00 0.  1.
       -3    1    3    3    0  502  0.95732993406E+03  0.13458697941E+04  0.15571228426E+04  0.22699069722E+04  0.10100000352E+00 0. -1.
</event>
<event>
 5   0  0.1128166E-06  0.3633587E+04  0.7818609E-02  0.8082841E-01
        2   -1    0    0  501    0  0.00000000000E+00  0.00000000000E+00  0.10979948209E+04  0.10979948209E+04  0.25500000920E-02 0.  1.
       -2   -1    0    0    0  501  0.00000000000E+00  0.00000000000E+00 -0.30061510043E+04  0.30061510043E+04  0.25500000920E-02 0. -1.
    10030    2    1    2    0    0  0.00000000000E+00  0.00000000000E+00 -0.19081561834E+04  0.41041458252E+04  0.36335867864E+04 0.  0.
        3    1    3    3  502    0  0.77052222815E+02  0.15341472327E+04 -0.20498664776E+04  0.25615419893E+04  0.10100000352E+00 0. -1.
       -3    1    3    3    0  502 -0.77052222815E+02 -0.15341472327E+04  0.14171029425E+03  0.15426038359E+04  0.10100000352E+00 0.  1.
</event>
<event>
 5   0  0.1066907E-06  0.3344829E+04  0.7818609E-02  0.8151581E-01
       -2   -1    0    0    0  501  0.00000000000E+00  0.00000000000E+00  0.23707115940E+04  0.23707115940E+04  0.25500000920E-02 0.  1.
        2   -1    0    0  501    0  0.00000000000E+00  0.00000000000E+00 -0.11798021934E+04  0.11798021934E+04  0.25500000920E-02 0. -1.
    10030    2    1    2    0    0  0.00000000000E+00  0.00000000000E+00  0.11909094006E+04  0.35505137873E+04  0.33448292862E+04 0.  0.
        4    1    3    3  502    0 -0.82232367059E+03 -0.29773061733E+03  0.21086353788E+04  0.22828062803E+04  0.12699999809E+01 0.  1.
       -4    1    3    3    0  502  0.82232367059E+03  0.29773061733E+03 -0.91772597813E+03  0.12677075071E+04  0.12699999809E+01 0. -1.
</event>
<event>
 5   0  0.4046128E-07  0.2266723E+04  0.7818609E-02  0.8491158E-01
       -1   -1    0    0    0  501  0.00000000000E+00  0.00000000000E+00  0.76987663113E+03  0.76987663115E+03  0.50400001928E-02 0.  1.
        1   -1    0    0  501    0  0.00000000000E+00  0.00000000000E+00 -0.16684605638E+04  0.16684605638E+04  0.50400001928E-02 0. -1.
    10030    2    1    2    0    0  0.00000000000E+00  0.00000000000E+00 -0.89858393264E+03  0.24383371949E+04  0.22667234485E+04 0.  0.
        4    1    3    3  502    0  0.18554377879E+03  0.10956522715E+04 -0.68892866286E+03  0.13074802902E+04  0.12699999809E+01 0. -1.
       -4    1    3    3    0  502 -0.18554377879E+03 -0.10956522715E+04 -0.20965526977E+03  0.11308569047E+04  0.12699999809E+01 0.  1.
</event>
<event>
 5   0  0.3764495E-07  0.3681487E+04  0.7818609E-02  0.8072077E-01
        1   -1    0    0  501    0  0.00000000000E+00  0.00000000000E+00  0.12834208474E+04  0.12834208474E+04  0.50400001928E-02 0.  1.
       -1   -1    0    0    0  501  0.00000000000E+00  0.00000000000E+00 -0.26400827107E+04  0.26400827108E+04  0.50400001928E-02 0. -1.
    10030    2    1    2    0    0  0.00000000000E+00  0.00000000000E+00 -0.13566618634E+04  0.39235035581E+04  0.36814873026E+04 0.  0.
        4    1    3    3  502    0  0.12701924127E+04 -0.17467110487E+03 -0.20859280396E+04  0.24484681250E+04  0.12699999809E+01 0. -1.
       -4    1    3    3    0  502 -0.12701924127E+04  0.17467110487E+03  0.72926617618E+03  0.14750354331E+04  0.12699999809E+01 0.  1.
</event>
<event>
 5   0  0.1128530E-06  0.3654557E+04  0.7818609E-02  0.8078108E-01
        2   -1    0    0  501    0  0.00000000000E+00  0.00000000000E+00  0.30436062272E+04  0.30436062272E+04  0.25500000920E-02 0.  1.
       -2   -1    0    0    0  501  0.00000000000E+00  0.00000000000E+00 -0.10970363745E+04  0.10970363745E+04  0.25500000920E-02 0. -1.
    10030    2    1    2    0    0  0.00000000000E+00  0.00000000000E+00  0.19465698527E+04  0.41406426017E+04  0.36545570133E+04 0.  0.
        5    1    3    3  502    0  0.67496870690E+03  0.62406332738E+03 -0.81596652432E+03  0.12291709607E+04  0.46999998093E+01 0. -1.
       -5    1    3    3    0  502 -0.67496870690E+03 -0.62406332738E+03  0.27625363770E+04  0.29114716410E+04  0.46999998093E+01 0.  1.
</event>
<event>
 5   0  0.3764495E-07  0.3632104E+04  0.7818609E-02  0.8083177E-01
        1   -1    0    0  501    0  0.00000000000E+00  0.00000000000E+00  0.25494803913E+04  0.25494803913E+04  0.50400001928E-02 0.  1.
       -1   -1    0    0    0  501  0.00000000000E+00  0.00000000000E+00 -0.12936148177E+04  0.12936148177E+04  0.50400001928E-02 0. -1.
    10030    2    1    2    0    0  0.00000000000E+00  0.00000000000E+00  0.12558655737E+04  0.38430952090E+04  0.36321044102E+04 0.  0.
        4    1    3    3  502    0 -0.12695008032E+04  0.50511390592E+03 -0.63792190054E+03  0.15078853774E+04  0.12699999809E+01 0. -1.
       -4    1    3    3    0  502  0.12695008032E+04 -0.50511390592E+03  0.18937874742E+04  0.23352098316E+04  0.12699999809E+01 0.  1.
</event>
<event>
 5   0  0.1128166E-06  0.2470318E+04  0.7818609E-02  0.8413637E-01
       -2   -1    0    0    0  501  0.00000000000E+00  0.00000000000E+00  0.78038736114E+03  0.78038736115E+03  0.25500000920E-02 0. -1.
        2   -1    0    0  501    0  0.00000000000E+00  0.00000000000E+00 -0.19549495448E+04  0.19549495448E+04  0.25500000920E-02 0.  1.
    10030    2    1    2    0    0  0.00000000000E+00  0.00000000000E+00 -0.11745621837E+04  0.27353369060E+04  0.24703181305E+04 0.  0.
        3    1    3    3  502    0 -0.10698835714E+04  0.60719768244E+03 -0.70997476993E+03  0.14203535004E+04  0.10100000352E+00 0. -1.
       -3    1    3    3    0  502  0.10698835714E+04 -0.60719768244E+03 -0.46458741375E+03  0.13149834056E+04  0.10100000352E+00 0.  1.
</event>
<event>
 5   0  0.1128166E-06  0.3511354E+04  0.7818609E-02  0.8111104E-01
        2   -1    0    0  501    0  0.00000000000E+00  0.00000000000E+00  0.26860381264E+04  0.26860381264E+04  0.25500000920E-02 0.  1.
       -2   -1    0    0    0  501  0.00000000000E+00  0.00000000000E+00 -0.11475647134E+04  0.11475647134E+04  0.25500000920E-02 0. -1.
    10030    2    1    2    0    0  0.00000000000E+00  0.00000000000E+00  0.15384734130E+04  0.38336028399E+04  0.35113544810E+04 0.  0.
        3    1    3    3  502    0  0.62703106134E+02  0.17446241171E+04  0.97278017254E+03  0.19984859929E+04  0.10100000352E+00 0.  1.
       -3    1    3    3    0  502 -0.62703106134E+02 -0.17446241171E+04  0.56569324048E+03  0.18351168470E+04  0.10100000352E+00 0. -1.
</event>
<event>
 5   0  0.3764495E-07  0.3618609E+04  0.7818609E-02  0.8086242E-01
        1   -1    0    0  501    0  0.00000000000E+00  0.00000000000E+00  0.24950654002E+04  0.24950654002E+04  0.50400001928E-02 0.  1.
       -1   -1    0    0    0  501  0.00000000000E+00  0.00000000000E+00 -0.13120224806E+04  0.13120224806E+04  0.50400001928E-02 0. -1.
    10030    2    1    2    0    0  0.00000000000E+00  0.00000000000E+00  0.11830429196E+04  0.38070878808E+04  0.36186085146E+04 0.  0.
        4    1    3    3  502    0 -0.53012413194E+03 -0.18466445378E+03 -0.12180813055E+04  0.13412144629E+04  0.12699999809E+01 0. -1.
       -4    1    3    3    0  502  0.53012413194E+03  0.18466445378E+03  0.24011242251E+04  0.24658734179E+04  0.12699999809E+01 0.  1.
</event>
<event>
 5   0  0.3704306E-07  0.2266449E+04  0.7818609E-02  0.8491269E-01
       -1   -1    0    0    0  501  0.00000000000E+00  0.00000000000E+00  0.20002165559E+04  0.20002165559E+04  0.50400001928E-02 0.  1.
        1   -1    0    0  501    0  0.00000000000E+00  0.00000000000E+00 -0.64202928926E+03  0.64202928928E+03  0.50400001928E-02 0. -1.
    10030    2    1    2    0    0  0.00000000000E+00  0.00000000000E+00  0.13581872666E+04  0.26422458452E+04  0.22664488644E+04 0.  0.
        3    1    3    3  502    0  0.10710799127E+04  0.35654232494E+03  0.79487314150E+03  0.13806367843E+04  0.10100000352E+00 0.  1.
       -3    1    3    3    0  502 -0.10710799127E+04 -0.35654232494E+03  0.56331412512E+03  0.12616090609E+04  0.10100000352E+00 0. -1.
</event>
<event>
 5   0  0.3764495E-07  0.3343554E+04  0.7818609E-02  0.8151901E-01
       -1   -1    0    0    0  501  0.00000000000E+00  0.00000000000E+00  0.90186076835E+03  0.90186076836E+03  0.50400001928E-02 0.  1.
        1   -1    0    0  501    0  0.00000000000E+00  0.00000000000E+00 -0.30989690196E+04  0.30989690196E+04  0.50400001928E-02 0. -1.
    10030    2    1    2    0    0  0.00000000000E+00  0.00000000000E+00 -0.21971082512E+04  0.40008297879E+04  0.33435541456E+04 0.  0.
        4    1    3    3  502    0 -0.16326140907E+04 -0.14814275426E+03 -0.70629864618E+03  0.17850026430E+04  0.12699999809E+01 0. -1.
       -4    1    3    3    0  502  0.16326140907E+04  0.14814275426E+03 -0.14908096051E+04  0.22158271450E+04  0.12699999809E+01 0.  1.
</event>
<event>
 5   0  0.1128530E-06  0.3785318E+04  0.7818609E-02  0.8049313E-01
        2   -1    0    0  501    0  0.00000000000E+00  0.00000000000E+00  0.22507128099E+04  0.22507128099E+04  0.25500000920E-02 0. -1.
       -2   -1    0    0    0  501  0.00000000000E+00  0.00000000000E+00 -0.15915661371E+04  0.15915661371E+04  0.25500000920E-02 0.  1.
    10030    2    1    2    0    0  0.00000000000E+00  0.00000000000E+00  0.65914667281E+03  0.38422789470E+04  0.37853181069E+04 0.  0.
        5    1    3    3  502    0  0.82393171694E+03  0.36352980398E+03  0.20192907592E+04  0.22110121331E+04  0.46999998093E+01 0. -1.
       -5    1    3    3    0  502 -0.82393171694E+03 -0.36352980398E+03 -0.13601440864E+04  0.16312668139E+04  0.46999998093E+01 0.  1.
</event>
<event>
 5   0  0.3764495E-07  0.3690538E+04  0.7818609E-02  0.8070062E-01
        1   -1    0    0  501    0  0.00000000000E+00  0.00000000000E+00  0.24234599921E+04  0.24234599921E+04  0.50400001928E-02 0.  1.
       -1   -1    0    0    0  501  0.00000000000E+00  0.00000000000E+00 -0.14050230145E+04  0.14050230145E+04  0.50400001928E-02 0. -1.
    10030    2    1    2    0    0  0.00000000000E+00  0.00000000000E+00  0.10184369776E+04  0.38284830066E+04  0.36905376647E+04 0.  0.
        4    1    3    3  502    0 -0.82219591654E+03  0.32438632801E+02 -0.12041700077E+04  0.14584530882E+04  0.12699999809E+01 0. -1.
       -4    1    3    3    0  502  0.82219591654E+03 -0.32438632801E+02  0.22226069853E+04  0.23700299184E+04  0.12699999809E+01 0.  1.
</event>
<event>
 5   0  0.3848431E-07  0.2642856E+04  0.7818609E-02  0.8353788E-01
        1   -1    0    0  501    0  0.00000000000E+00  0.00000000000E+00  0.15175622635E+04  0.15175622635E+04  0.50400001928E-02 0.  1.
       -1   -1    0    0    0  501  0.00000000000E+00  0.00000000000E+00 -0.11506427754E+04  0.11506427755E+04  0.50400001928E-02 0. -1.
    10030    2    1    2    0    0  0.00000000000E+00  0.00000000000E+00  0.36691948801E+03  0.26682050389E+04  0.26428560723E+04 0.  0.
        2    1    3    3  502    0 -0.63225478249E+03  0.42952979803E+03 -0.90480782765E+03  0.11844488855E+04  0.25500000920E-02 0. -1.
       -2    1    3    3    0  502  0.63225478249E+03 -0.42952979803E+03  0.12717273157E+04  0.14837561534E+04  0.25500000920E-02 0.  1.
</event>
<event>
 5   0  0.3490375E-07  0.2877422E+04  0.7818609E-02  0.8279627E-01
        3   -1    0    0  501    0  0.00000000000E+00  0.00000000000E+00  0.15885005098E+04  0.15885005130E+04  0.10100000352E+00 0. -1.
       -3   -1    0    0    0  501  0.00000000000E+00  0.00000000000E+00 -0.13030462847E+04  0.13030462886E+04  0.10100000352E+00 0.  1.
    10030    2    1    2    0    0  0.00000000000E+00  0.00000000000E+00  0.28545422508E+03  0.28915468017E+04  0.28774222477E+04 0.  0.
        5    1    3    3  502    0  0.83411472626E+03  0.11959822161E+03  0.13145629663E+04  0.15614573301E+04  0.46999998093E+01 0. -1.
       -5    1    3    3    0  502 -0.83411472626E+03 -0.11959822161E+03 -0.10291087412E+04  0.13300894716E+04  0.46999998093E+01 0.  1.
</event>
<event>
 5   0  0.1051123E-06  0.3701195E+04  0.7818609E-02  0.8067697E-01
        2   -1    0    0  501    0  0.00000000000E+00  0.00000000000E+00  0.20624573635E+04  0.20624573635E+04  0.25500000920E-02 0.  1.
       -2   -1    0    0    0  501  0.00000000000E+00  0.00000000000E+00 -0.16605007626E+04  0.16605007626E+04  0.25500000920E-02 0. -1.
    10030    2    1    2    0    0  0.00000000000E+00  0.00000000000E+00  0.40195660095E+03  0.37229581261E+04  0.37011954960E+04 0.  0.
        2    1    3    3  502    0 -0.13876603375E+04  0.10880787339E+04  0.76570213522E+03  0.19224505984E+04  0.25500000920E-02 0. -1.
       -2    1    3    3    0  502  0.13876603375E+04 -0.10880787339E+04 -0.36374553427E+03  0.18005075277E+04  0.25500000920E-02 0.  1.
</event>
<event>
 5   0  0.1066907E-06  0.3694050E+04  0.7818609E-02  0.8069282E-01
       -2   -1    0    0    0  501  0.00000000000E+00  0.00000000000E+00  0.30435095420E+04  0.30435095420E+04  0.25500000920E-02 0. -1.
        2   -1    0    0  501    0  0.00000000000E+00  0.00000000000E+00 -0.11209102080E+04  0.11209102080E+04  0.25500000920E-02 0.  1.
    10030    2    1    2    0    0  0.00000000000E+00  0.00000000000E+00  0.19225993341E+04  0.41644197500E+04  0.36940497635E+04 0.  0.
        4    1    3    3  502    0 -0.61480671310E+02 -0.30306287188E+03 -0.10915193192E+04  0.11344791819E+04  0.12699999809E+01 0.  1.
       -4    1    3    3    0  502  0.61480671310E+02  0.30306287188E+03  0.30141186532E+04  0.30299405681E+04  0.12699999809E+01 0. -1.
</event>
<event>
 5   0  0.1128166E-06  0.3726715E+04  0.7818609E-02  0.8062067E-01
       -2   -1    0    0    0  501  0.00000000000E+00  0.00000000000E+00  0.16801108359E+04  0.16801108359E+04  0.25500000920E-02 0. -1.
        2   -1    0    0  501    0  0.00000000000E+00  0.00000000000E+00 -0.20665909759E+04  0.20665909759E+04  0.25500000920E-02 0.  1.
    10030    2    1    2    0    0  0.00000000000E+00  0.00000000000E+00 -0.38648013998E+03  0.37467018118E+04  0.37267153859E+04 0.  0.
        3    1    3    3  502    0  0.17797968142E+04  0.46956244366E+03  0.98031299255E+02  0.18433056540E+04  0.10100000352E+00 0. -1.
       -3    1    3    3    0  502 -0.17797968142E+04 -0.46956244366E+03 -0.48451143924E+03  0.19033961577E+04  0.10100000352E+00 0.  1.
</event>
<event>
 5   0  0.3682276E-07  0.3678547E+04  0.7818609E-02  0.8072733E-01
        1   -1    0    0  501    0  0.00000000000E+00  0.00000000000E+00  0.16511211185E+04  0.16511211186E+04  0.50400001928E-02 0.  1.
       -1   -1    0    0    0  501  0.00000000000E+00  0.00000000000E+00 -0.20488666135E+04  0.20488666135E+04  0.50400001928E-02 0. -1.
    10030    2    1    2    0    0  0.00000000000E+00  0.00000000000E+00 -0.39774549500E+03  0.36999877321E+04  0.36785469603E+04 0.  0.
        1    1    3    3  502    0 -0.34881998492E+03  0.20620269873E+03 -0.20034122286E+04  0.20439803063E+04  0.50400001928E-02 0. -1.
       -1    1    3    3    0  502  0.34881998492E+03 -0.20620269873E+03  0.16056667336E+04  0.16560074258E+04  0.50400001928E-02 0.  1.
</event>
<event>
 5   0  0.3704306E-07  0.2386966E+04  0.7818609E-02  0.8444400E-01
        1   -1    0    0  501    0  0.00000000000E+00  0.00000000000E+00  0.17684497276E+04  0.17684497276E+04  0.50400001928E-02 0.  1.
       -1   -1    0    0    0  501  0.00000000000E+00  0.00000000000E+00 -0.80545196218E+03  0.80545196220E+03  0.50400001928E-02 0. -1.
    10030    2    1    2    0    0  0.00000000000E+00  0.00000000000E+00  0.96299776546E+03  0.25739016898E+04  0.23869656916E+04 0.  0.
        3    1    3    3  502    0 -0.90676049746E+03  0.39565990664E+03  0.12013419520E+04  0.15562724239E+04  0.10100000352E+00 0.  1.
       -3    1    3    3    0  502  0.90676049746E+03 -0.39565990664E+03 -0.23834418656E+03  0.10176292660E+04  0.10100000352E+00 0. -1.
</event>
<event>
 5   0  0.3490375E-07  0.3674260E+04  0.7818609E-02  0.8073690E-01
       -3   -1    0    0    0  501  0.00000000000E+00  0.00000000000E+00  0.16285797961E+04  0.16285797992E+04  0.10100000352E+00 0.  1.
        3   -1    0    0  501    0  0.00000000000E+00  0.00000000000E+00 -0.20723862087E+04  0.20723862111E+04  0.10100000352E+00 0. -1.
    10030    2    1    2    0    0  0.00000000000E+00  0.00000000000E+00 -0.44380641261E+03  0.37009660103E+04  0.36742598272E+04 0.  0.
        1    1    3    3  502    0 -0.67487653737E+03 -0.16698585687E+04  0.14288979503E+03  0.18067383523E+04  0.50400001928E-02 0. -1.
       -1    1    3    3    0  502  0.67487653737E+03  0.16698585687E+04 -0.58669620764E+03  0.18942276580E+04  0.50400001928E-02 0.  1.
</event>
<event>
 5   0  0.3675819E-07  0.3489334E+04  0.7818609E-02  0.8116322E-01
        1   -1    0    0  501    0  0.00000000000E+00  0.00000000000E+00  0.17722011338E+04  0.17722011338E+04  0.50400001928E-02 0.  1.
       -1   -1    0    0    0  501  0.00000000000E+00  0.00000000000E+00 -0.17175606965E+04  0.17175606965E+04  0.50400001928E-02 0. -1.
    10030    2    1    2    0    0  0.00000000000E+00  0.00000000000E+00  0.54640437253E+02  0.34897618303E+04  0.34893340418E+04 0.  0.
        5    1    3    3  502    0  0.11977201667E+04 -0.93331440711E+03 -0.83198913626E+03  0.17314264042E+04  0.46999998093E+01 0. -1.
       -5    1    3    3    0  502 -0.11977201667E+04  0.93331440711E+03  0.88662957351E+03  0.17583354262E+04  0.46999998093E+01 0.  1.
</event>
<event>
 5   0  0.1051123E-06  0.3656341E+04  0.7818609E-02  0.8077707E-01
        2   -1    0    0  501    0  0.00000000000E+00  0.00000000000E+00  0.20813411401E+04  0.20813411401E+04  0.25500000920E-02 0. -1.
       -2   -1    0    0    0  501  0.00000000000E+00  0.00000000000E+00 -0.16057954108E+04  0.16057954108E+04  0.25500000920E-02 0.  1.
    10030    2    1    2    0    0  0.00000000000E+00  0.00000000000E+00  0.47554572920E+03  0.36871365509E+04  0.36563413687E+04 0.  0.
        2    1    3    3  502    0  0.52589312799E+03 -0.42892904197E+03 -0.14740711241E+04  0.16227844540E+04  0.25500000920E-02 0.  1.
       -2    1    3    3    0  502 -0.52589312799E+03  0.42892904197E+03  0.19496168533E+04  0.20643520969E+04  0.25500000920E-02 0. -1.
</event>
<event>
 5   0  0.1051123E-06  0.3731140E+04  0.7818609E-02  0.8061096E-01
       -2   -1    0    0    0  501  0.00000000000E+00  0.00000000000E+00  0.10472806191E+04  0.10472806191E+04  0.25500000920E-02 0.  1.
        2   -1    0    0  501    0  0.00000000000E+00  0.00000000000E+00 -0.33232278823E+04  0.33232278823E+04  0.25500000920E-02 0. -1.
    10030    2    1    2    0    0  0.00000000000E+00  0.00000000000E+00 -0.22759472632E+04  0.43705085014E+04  0.37311403908E+04 0.  0.
        2    1    3    3  502    0  0.10743876960E+04  0.59968055227E+03 -0.27805638583E+04  0.30406349758E+04  0.25500000920E-02 0. -1.
       -2    1    3    3    0  502 -0.10743876960E+04 -0.59968055227E+03  0.50461659507E+03  0.13298735256E+04  0.25500000920E-02 0.  1.
</event>
<event>
 5   0  0.3704306E-07  0.3485346E+04  0.7818609E-02  0.8117272E-01
        1   -1    0    0  501    0  0.00000000000E+00  0.00000000000E+00  0.18675546440E+04  0.18675546440E+04  0.50400001928E-02 0. -1.
       -1   -1    0    0    0  501  0.00000000000E+00  0.00000000000E+00 -0.16261422248E+04  0.16261422248E+04  0.50400001928E-02 0.  1.
    10030    2    1    2    0    0  0.00000000000E+00  0.00000000000E+00  0.24141241914E+03  0.34936968688E+04  0.34853461600E+04 0.  0.
        3    1    3    3  502    0  0.10393206730E+04  0.13987780020E+04  0.10875735859E+03  0.17460227758E+04  0.10100000352E+00 0. -1.
       -3    1    3    3    0  502 -0.10393206730E+04 -0.13987780020E+04  0.13265506055E+03  0.17476740930E+04  0.10100000352E+00 0.  1.
</event>
<event>
 5   0  0.3682276E-07  0.3697654E+04  0.7818609E-02  0.8068482E-01
        1   -1    0    0  501    0  0.00000000000E+00  0.00000000000E+00  0.23331825588E+04  0.23331825588E+04  0.50400001928E-02 0. -1.
       -1   -1    0    0    0  501  0.00000000000E+00  0.00000000000E+00 -0.14650211921E+04  0.14650211921E+04  0.50400001928E-02 0.  1.
    10030    2    1    2    0    0  0.00000000000E+00  0.00000000000E+00  0.86816136666E+03  0.37982037509E+04  0.36976543342E+04 0.  0.
        1    1    3    3  502    0 -0.12730895531E+04  0.12986507934E+04  0.91991565367E+02  0.18209100312E+04  0.50400001928E-02 0.  1.
       -1    1    3    3    0  502  0.12730895531E+04 -0.12986507934E+04  0.77616980130E+03  0.19772937197E+04  0.50400001928E-02 0. -1.
</event>
<event>
 5   0  0.1092116E-06  0.2847798E+04  0.7818609E-02  0.8288581E-01
       -2   -1    0    0    0  501  0.00000000000E+00  0.00000000000E+00  0.10269727418E+04  0.10269727418E+04  0.25500000920E-02 0. -1.
        2   -1    0    0  501    0  0.00000000000E+00  0.00000000000E+00 -0.19742382718E+04  0.19742382718E+04  0.25500000920E-02 0.  1.
    10030    2    1    2    0    0  0.00000000000E+00  0.00000000000E+00 -0.94726552996E+03  0.30012110135E+04  0.28477983713E+04 0.  0.
        1    1    3    3  502    0 -0.71133858847E+02  0.13024239939E+04 -0.10754663421E+04  0.16905608947E+04  0.50400001928E-02 0.  1.
       -1    1    3    3    0  502  0.71133858847E+02 -0.13024239939E+04  0.12820081210E+03  0.13106501188E+04  0.50400001928E-02 0. -1.
</event>
<event>
 5   0  0.1128530E-06  0.3259908E+04  0.7818609E-02  0.8173172E-01
        2   -1    0    0  501    0  0.00000000000E+00  0.00000000000E+00  0.22383396416E+04  0.22383396416E+04  0.25500000920E-02 0. -1.
       -2   -1    0    0    0  501  0.00000000000E+00  0.00000000000E+00 -0.11869288972E+04  0.11869288972E+04  0.25500000920E-02 0.  1.
    10030    2    1    2    0    0  0.00000000000E+00  0.00000000000E+00  0.10514107445E+04  0.34252685388E+04  0.32599079756E+04 0.  0.
        5    1    3    3  502    0 -0.78419410252E+03  0.13222358296E+04 -0.43493055653E+02  0.15379147296E+04  0.46999998093E+01 0.  1.
       -5    1    3    3    0  502  0.78419410252E+03 -0.13222358296E+04  0.10949038001E+04  0.18873538092E+04  0.46999998093E+01 0. -1.
</event>
<event>
 5   0  0.3848431E-07  0.3505539E+04  0.7818609E-02  0.8112479E-01
       -1   -1    0    0    0  501  0.00000000000E+00  0.00000000000E+00  0.11442050187E+04  0.11442050187E+04  0.50400001928E-02 0. -1.
        1   -1    0    0  501    0  0.00000000000E+00  0.00000000000E+00 -0.26850090567E+04  0.26850090568E+04  0.50400001928E-02 0.  1.
    10030    2    1    2    0    0  0.00000000000E+00  0.00000000000E+00 -0.15408040381E+04  0.38292140754E+04  0.35055389531E+04 0.  0.
        2    1    3    3  502    0  0.95785649116E+03 -0.55370220214E+03 -0.22553819927E+04  0.25121351714E+04  0.25500000920E-02 0.  1.
       -2    1    3    3    0  502 -0.95785649116E+03  0.55370220214E+03  0.71457795462E+03  0.13170789041E+04  0.25500000920E-02 0. -1.
</event>
<event>
 5   0  0.3848431E-07  0.3685392E+04  0.7818609E-02  0.8071207E-01
        1   -1    0    0  501    0  0.00000000000E+00  0.00000000000E+00  0.28585829956E+04  0.28585829956E+04  0.50400001928E-02 0.  1.
       -1   -1    0    0    0  501  0.00000000000E+00  0.00000000000E+00 -0.11878360883E+04  0.11878360883E+04  0.50400001928E-02 0. -1.
    10030    2    1    2    0    0  0.00000000000E+00  0.00000000000E+00  0.16707469073E+04  0.40464190839E+04  0.36853917260E+04 0.  0.
        2    1    3    3  502    0  0.79658384022E+03 -0.99260207898E+03 -0.62772939382E+03  0.14191014388E+04  0.25500000920E-02 0. -1.
       -2    1    3    3    0  502 -0.79658384022E+03  0.99260207898E+03  0.22984763011E+04  0.26273176451E+04  0.25500000920E-02 0.  1.
</event>
<event>
 5   0  0.3704306E-07  0.3122668E+04  0.7818609E-02  0.8209544E-01
        1   -1    0    0  501    0  0.00000000000E+00  0.00000000000E+00  0.83388381473E+03  0.83388381475E+03  0.50400001928E-02 0. -1.
       -1   -1    0    0    0  501  0.00000000000E+00  0.00000000000E+00 -0.29233859172E+04  0.29233859172E+04  0.50400001928E-02 0.  1.
    10030    2    1    2    0    0  0.00000000000E+00  0.00000000000E+00 -0.20895021024E+04  0.37572697319E+04  0.31226682184E+04 0.  0.
        3    1    3    3  502    0 -0.54186638868E+03 -0.73035203515E+03  0.48231572137E+03  0.10293987292E+04  0.10100000352E+00 0. -1.
       -3    1    3    3    0  502  0.54186638868E+03  0.73035203515E+03 -0.25718178238E+04  0.27278710027E+04  0.10100000352E+00 0.  1.
</event>
<event>
 5   0  0.1128166E-06  0.3664653E+04  0.7818609E-02  0.8075841E-01
        2   -1    0    0  501    0  0.00000000000E+00  0.00000000000E+00  0.13376451947E+04  0.13376451947E+04  0.25500000920E-02 0.  1.
       -2   -1    0    0    0  501  0.00000000000E+00  0.00000000000E+00 -0.25099489578E+04  0.25099489578E+04  0.25500000920E-02 0. -1.
    10030    2    1    2    0    0  0.00000000000E+00  0.00000000000E+00 -0.11723037630E+04  0.38475941525E+04  0.36646534147E+04 0.  0.
        3    1    3    3  502    0  0.98350507502E+02 -0.79927836542E+03 -0.23141888511E+04  0.24503038131E+04  0.10100000352E+00 0. -1.
       -3    1    3    3    0  502 -0.98350507502E+02  0.79927836542E+03  0.11418850881E+04  0.13972903394E+04  0.10100000352E+00 0.  1.
</event>
<event>
 5   0  0.3675819E-07  0.3722019E+04  0.7818609E-02  0.8063100E-01
        1   -1    0    0  501    0  0.00000000000E+00  0.00000000000E+00  0.21196523203E+04  0.21196523203E+04  0.50400001928E-02 0. -1.
       -1   -1    0    0    0  501  0.00000000000E+00  0.00000000000E+00 -0.16339269442E+04  0.16339269442E+04  0.50400001928E-02 0.  1.
    10030    2    1    2    0    0  0.00000000000E+00  0.00000000000E+00  0.48572537606E+03  0.37535792645E+04  0.37220193650E+04 0.  0.
        5    1    3    3  502    0  0.13242206546E+04  0.37378203759E+03  0.15065083424E+04  0.20403094935E+04  0.46999998093E+01 0. -1.
       -5    1    3    3    0  502 -0.13242206546E+04 -0.37378203759E+03 -0.10207829663E+04  0.17132697709E+04  0.46999998093E+01 0.  1.
</event>
<event>
 5   0  0.3764495E-07  0.3846092E+04  0.7818609E-02  0.8036335E-01
       -1   -1    0    0    0  501  0.00000000000E+00  0.00000000000E+00  0.14197694710E+04  0.14197694711E+04  0.50400001928E-02 0.  1.
        1   -1    0    0  501    0  0.00000000000E+00  0.00000000000E+00 -0.26047222685E+04  0.26047222685E+04  0.50400001928E-02 0. -1.
    10030    2    1    2    0    0  0.00000000000E+00  0.00000000000E+00 -0.11849527975E+04  0.40244917396E+04  0.38460916044E+04 0.  0.
        4    1    3    3  502    0 -0.80781853699E+02  0.10557218708E+04 -0.22722512833E+04  0.25068310441E+04  0.12699999809E+01 0. -1.
       -4    1    3    3    0  502  0.80781853699E+02 -0.10557218708E+04  0.10872984859E+04  0.15176606955E+04  0.12699999809E+01 0.  1.
</event>
<event>
 5   0  0.1128166E-06  0.3340818E+04  0.7818609E-02  0.8152586E-01
       -2   -1    0    0    0  501  0.00000000000E+00  0.00000000000E+00  0.10145818368E+04  0.10145818368E+04  0.25500000920E-02 0. -1.
        2   -1    0    0  501    0  0.00000000000E+00  0.00000000000E+00 -0.27501639424E+04  0.27501639424E+04  0.25500000920E-02 0.  1.
    10030    2    1    2    0    0  0.00000000000E+00  0.00000000000E+00 -0.17355821056E+04  0.37647457792E+04  0.33408180939E+04 0.  0.
        3    1    3    3  502    0  0.73792147256E+02  0.16179405935E+04 -0.40715578806E+03  0.16700158356E+04  0.10100000352E+00 0. -1.
       -3    1    3    3    0  502 -0.73792147256E+02 -0.16179405935E+04 -0.13284263175E+04  0.20947299436E+04  0.10100000352E+00 0.  1.
</event>
<event>
 5   0  0.1128530E-06  0.3653191E+04  0.7818609E-02  0.8078415E-01
        2   -1    0    0  501    0  0.00000000000E+00  0.00000000000E+00  0.11677510981E+04  0.11677510981E+04  0.25500000920E-02 0. -1.
       -2   -1    0    0    0  501  0.00000000000E+00  0.00000000000E+00 -0.28571602240E+04  0.28571602240E+04  0.25500000920E-02 0.  1.
    10030    2    1    2    0    0  0.00000000000E+00  0.00000000000E+00 -0.16894091259E+04  0.40249113221E+04  0.36531914754E+04 0.  0.
        5    1    3    3  502    0  0.15154519182E+04 -0.10078574438E+04 -0.10155960625E+04  0.20841853554E+04  0.46999998093E+01 0.  1.
       -5    1    3    3    0  502 -0.15154519182E+04  0.10078574438E+04 -0.67381306337E+03  0.19407259667E+04  0.46999998093E+01 0. -1.
</event>
<event>
 5   0  0.1128530E-06  0.3708382E+04  0.7818609E-02  0.8066107E-01
       -2   -1    0    0    0  501  0.00000000000E+00  0.00000000000E+00  0.14443066626E+04  0.14443066626E+04  0.25500000920E-02 0. -1.
        2   -1    0    0  501    0  0.00000000000E+00  0.00000000000E+00 -0.23803970911E+04  0.23803970911E+04  0.25500000920E-02 0.  1.
    10030    2    1    2    0    0  0.00000000000E+00  0.00000000000E+00 -0.93609042848E+03  0.38247037537E+04  0.37083815221E+04 0.  0.
        5    1    3    3  502    0 -0.38339185738E+03  0.65561595906E+03  0.12765149849E+04  0.14853734206E+04  0.46999998093E+01 0. -1.
       -5    1    3    3    0  502  0.38339185738E+03 -0.65561595906E+03 -0.22126054134E+04  0.23393303331E+04  0.46999998093E+01 0.  1.
</event>
<event>
 5   0  0.1128530E-06  0.3425779E+04  0.7818609E-02  0.8131608E-01
        2   -1    0    0  501    0  0.00000000000E+00  0.00000000000E+00  0.16091464640E+04  0.16091464640E+04  0.25500000920E-02 0. -1.
       -2   -1    0    0    0  501  0.00000000000E+00  0.00000000000E+00 -0.18233213384E+04  0.18233213384E+04  0.25500000920E-02 0.  1.
    10030    2    1    2    0    0  0.00000000000E+00  0.00000000000E+00 -0.21417487441E+03  0.34324678025E+04  0.34257793768E+04 0.  0.
        5    1    3    3  502    0 -0.11111661019E+04 -0.16608127606E+03  0.11883776701E+04  0.16354010741E+04  0.46999998093E+01 0. -1.
       -5    1    3    3    0  502  0.11111661019E+04  0.16608127606E+03 -0.14025525445E+04  0.17970667284E+04  0.46999998093E+01 0.  1.
</event>
<event>
 5   0  0.1051123E-06  0.3391104E+04  0.7818609E-02  0.8140093E-01
        2   -1    0    0  501    0  0.00000000000E+00  0.00000000000E+00  0.28820514647E+04  0.28820514647E+04  0.25500000920E-02 0.  1.
       -2   -1    0    0    0  501  0.00000000000E+00  0.00000000000E+00 -0.99751731083E+03  0.99751731083E+03  0.25500000920E-02 0. -1.
    10030    2    1    2    0    0  0.00000000000E+00  0.00000000000E+00  0.18845341539E+04  0.38795687755E+04  0.33911037889E+04 0.  0.
        2    1    3    3  502    0 -0.50112132599E+03 -0.79789983798E+02 -0.90861188789E+03  0.10407038905E+04  0.25500000920E-02 0. -1.
       -2    1    3    3    0  502  0.50112132599E+03  0.79789983798E+02  0.27931460418E+04  0.28388648850E+04  0.25500000920E-02 0.  1.
</event>
<event>
 5   0  0.1066907E-06  0.3710901E+04  0.7818609E-02  0.8065550E-01
        2   -1    0    0  501    0  0.00000000000E+00  0.00000000000E+00  0.18380142573E+04  0.18380142573E+04  0.25500000920E-02 0. -1.
       -2   -1    0    0    0  501  0.00000000000E+00  0.00000000000E+00 -0.18730521938E+04  0.18730521938E+04  0.25500000920E-02 0.  1.
    10030    2    1    2    0    0  0.00000000000E+00  0.00000000000E+00 -0.35037936515E+02  0.37110664512E+04  0.37109010426E+04 0.  0.
        4    1    3    3  502    0 -0.12360740545E+04 -0.28452758266E+03  0.13367422687E+04  0.18427470036E+04  0.12699999809E+01 0. -1.
       -4    1    3    3    0  502  0.12360740545E+04  0.28452758266E+03 -0.13717802053E+04  0.18683194475E+04  0.12699999809E+01 0.  1.
</event>
<event>
 5   0  0.1128166E-06  0.2627360E+04  0.7818609E-02  0.8358966E-01
        2   -1    0    0  501    0  0.00000000000E+00  0.00000000000E+00  0.23052299461E+04  0.23052299461E+04  0.25500000920E-02 0. -1.
       -2   -1    0    0    0  501  0.00000000000E+00  0.00000000000E+00 -0.74862631275E+03  0.74862631276E+03  0.25500000920E-02 0.  1.
    10030    2    1    2    0    0  0.00000000000E+00  0.00000000000E+00  0.15566036334E+04  0.30538562589E+04  0.26273604965E+04 0.  0.
        3    1    3    3  502    0 -0.68148575064E+03 -0.97304970585E+03  0.14301466683E+04  0.18591847841E+04  0.10100000352E+00 0. -1.
       -3    1    3    3    0  502  0.68148575064E+03  0.97304970585E+03  0.12645696504E+03  0.11946714748E+04  0.10100000352E+00 0.  1.
</event>
<event>
 5   0  0.1128530E-06  0.3506248E+04  0.7818609E-02  0.8112311E-01
        2   -1    0    0  501    0  0.00000000000E+00  0.00000000000E+00  0.27075852135E+04  0.27075852135E+04  0.25500000920E-02 0.  1.
       -2   -1    0    0    0  501  0.00000000000E+00  0.00000000000E+00 -0.11351238087E+04  0.11351238087E+04  0.25500000920E-02 0. -1.
    10030    2    1    2    0    0  0.00000000000E+00  0.00000000000E+00  0.15724614048E+04  0.38427090222E+04  0.35062483882E+04 0.  0.
        5    1    3    3  502    0 -0.92533621809E+03 -0.14886832197E+04  0.75161665877E+03  0.19071902204E+04  0.46999998093E+01 0.  1.
       -5    1    3    3    0  502  0.92533621809E+03  0.14886832197E+04  0.82084474604E+03  0.19355188018E+04  0.46999998093E+01 0. -1.
</event>
<event>
 5   0  0.1066907E-06  0.3609380E+04  0.7818609E-02  0.8088346E-01
       -2   -1    0    0    0  501  0.00000000000E+00  0.00000000000E+00  0.26201181458E+04  0.26201181458E+04  0.25500000920E-02 0. -1.
        2   -1    0    0  501    0  0.00000000000E+00  0.00000000000E+00 -0.12430379920E+04  0.12430379920E+04  0.25500000920E-02 0.  1.
    10030    2    1    2    0    0  0.00000000000E+00  0.00000000000E+00  0.13770801538E+04  0.38631561378E+04  0.36093802231E+04 0.  0.
        4    1    3    3  502    0  0.11406452381E+04 -0.12034840968E+04 -0.73907899222E+02  0.16597920114E+04  0.12699999809E+01 0.  1.
       -4    1    3    3    0  502 -0.11406452381E+04  0.12034840968E+04  0.14509880531E+04  0.22033641264E+04  0.12699999809E+01 0. -1.
</event>
<event>
 5   0  0.1092116E-06  0.3502640E+04  0.7818609E-02  0.8113165E-01
        2   -1    0    0  501    0  0.00000000000E+00  0.00000000000E+00  0.17253531698E+04  0.17253531699E+04  0.25500000920E-02 0. -1.
       -2   -1    0    0    0  501  0.00000000000E+00  0.00000000000E+00 -0.17776778227E+04  0.17776778227E+04  0.25500000920E-02 0.  1.
    10030    2    1    2    0    0  0.00000000000E+00  0.00000000000E+00 -0.52324652822E+02  0.35030309925E+04  0.35026401850E+04 0.  0.
        1    1    3    3  502    0  0.17379054651E+04 -0.99111092731E+02  0.16617047173E+03  0.17486426279E+04  0.50400001928E-02 0.  1.
       -1    1    3    3    0  502 -0.17379054651E+04  0.99111092731E+02 -0.21849512455E+03  0.17543883646E+04  0.50400001928E-02 0. -1.
</event>
<event>
 5   0  0.5293126E-07  0.2273449E+04  0.7818609E-02  0.8488464E-01
        1   -1    0    0  501    0  0.00000000000E+00  0.00000000000E+00  0.12113979817E+04  0.12113979817E+04  0.50400001928E-02 0. -1.
       -1   -1    0    0    0  501  0.00000000000E+00  0.00000000000E+00 -0.10666536803E+04  0.10666536803E+04  0.50400001928E-02 0.  1.
    10030    2    1    2    0    0  0.00000000000E+00  0.00000000000E+00  0.14474430142E+03  0.22780516621E+04  0.22734485836E+04 0.  0.
        2    1    3    3  502    0  0.22608043545E+03 -0.10290799202E+04 -0.35513470268E+03  0.11118626275E+04  0.25500000920E-02 0.  1.
       -2    1    3    3    0  502 -0.22608043545E+03  0.10290799202E+04  0.49987900410E+03  0.11661890345E+04  0.25500000920E-02 0. -1.
</event>
<event>
 5   0  0.1128166E-06  0.3688374E+04  0.7818609E-02  0.8070543E-01
        2   -1    0    0  501    0  0.00000000000E+00  0.00000000000E+00  0.18639101388E+04  0.18639101388E+04  0.25500000920E-02 0. -1.
       -2   -1    0    0    0  501  0.00000000000E+00  0.00000000000E+00 -0.18246726569E+04  0.18246726569E+04  0.25500000920E-02 0.  1.
    10030    2    1    2    0    0  0.00000000000E+00  0.00000000000E+00  0.39237481953E+02  0.36885827957E+04  0.36883740944E+04 0.  0.
        3    1    3    3  502    0  0.16270952583E+04 -0.78204960148E+02 -0.84499414983E+03  0.18350940354E+04  0.10100000352E+00 0.  1.
       -3    1    3    3    0  502 -0.16270952583E+04  0.78204960148E+02  0.88423163178E+03  0.18534887602E+04  0.10100000352E+00 0. -1.
</event>
<event>
 5   0  0.3764495E-07  0.3524272E+04  0.7818609E-02  0.8108062E-01
       -1   -1    0    0    0  501  0.00000000000E+00  0.00000000000E+00  0.23722905989E+04  0.23722905989E+04  0.50400001928E-02 0.  1.
        1   -1    0    0  501    0  0.00000000000E+00  0.00000000000E+00 -0.13089137182E+04  0.13089137182E+04  0.50400001928E-02 0. -1.
    10030    2    1    2    0    0  0.00000000000E+00  0.00000000000E+00  0.10633768807E+04  0.36812043170E+04  0.35242722417E+04 0.  0.
        4    1    3    3  502    0 -0.67202703488E+03  0.15868820059E+04  0.91590937320E+03  0.19515907432E+04  0.12699999809E+01 0.  1.
       -4    1    3    3    0  502  0.67202703488E+03 -0.15868820059E+04  0.14746750752E+03  0.17296135738E+04  0.12699999809E+01 0. -1.
</event>
<event>
 5   0  0.3704306E-07  0.3680182E+04  0.7818609E-02  0.8072368E-01
       -1   -1    0    0    0  501  0.00000000000E+00  0.00000000000E+00  0.18804440021E+04  0.18804440021E+04  0.50400001928E-02 0.  1.
        1   -1    0    0  501    0  0.00000000000E+00  0.00000000000E+00 -0.18006042668E+04  0.18006042668E+04  0.50400001928E-02 0. -1.
    10030    2    1    2    0    0  0.00000000000E+00  0.00000000000E+00  0.79839735278E+02  0.36810482689E+04  0.36801823290E+04 0.  0.
        3    1    3    3  502    0 -0.15434980766E+04 -0.68806874308E+03  0.76817811390E+03  0.18563196203E+04  0.10100000352E+00 0.  1.
       -3    1    3    3    0  502  0.15434980766E+04  0.68806874308E+03 -0.68833837862E+03  0.18247286487E+04  0.10100000352E+00 0. -1.
</event>
<event>
 5   0  0.3490375E-07  0.3721211E+04  0.7818609E-02  0.8063277E-01
       -3   -1    0    0    0  501  0.00000000000E+00  0.00000000000E+00  0.15795361713E+04  0.15795361745E+04  0.10100000352E+00 0. -1.
        3   -1    0    0  501    0  0.00000000000E+00  0.00000000000E+00 -0.21916893081E+04  0.21916893104E+04  0.10100000352E+00 0.  1.
    10030    2    1    2    0    0  0.00000000000E+00  0.00000000000E+00 -0.61215313686E+03  0.37712254849E+04  0.37212108507E+04 0.  0.
        3    1    3    3  502    0  0.13347641921E+04 -0.99981428437E+03  0.53001391908E+03  0.17498968017E+04  0.10100000352E+00 0. -1.
       -3    1    3    3    0  502 -0.13347641921E+04  0.99981428437E+03 -0.11421670559E+04  0.20213286833E+04  0.10100000352E+00 0.  1.
</event>
<event>
 5   0  0.1066907E-06  0.3738167E+04  0.7818609E-02  0.8059556E-01
       -2   -1    0    0    0  501  0.00000000000E+00  0.00000000000E+00  0.27901521705E+04  0.27901521705E+04  0.25500000920E-02 0. -1.
        2   -1    0    0  501    0  0.00000000000E+00  0.00000000000E+00 -0.12520725971E+04  0.12520725971E+04  0.25500000920E-02 0.  1.
    10030    2    1    2    0    0  0.00000000000E+00  0.00000000000E+00  0.15380795734E+04  0.40422247676E+04  0.37381669703E+04 0.  0.
        4    1    3    3  502    0 -0.37681869942E+03 -0.31616524523E+03 -0.11808267621E+04  0.12791818673E+04  0.12699999809E+01 0.  1.
       -4    1    3    3    0  502  0.37681869942E+03  0.31616524523E+03  0.27189063356E+04  0.27630429003E+04  0.12699999809E+01 0. -1.
</event>
<event>
 5   0  0.3764495E-07  0.3731290E+04  0.7818609E-02  0.8061063E-01
       -1   -1    0    0    0  501  0.00000000000E+00  0.00000000000E+00  0.18527529369E+04  0.18527529370E+04  0.50400001928E-02 0. -1.
        1   -1    0    0  501    0  0.00000000000E+00  0.00000000000E+00 -0.18786265665E+04  0.18786265665E+04  0.50400001928E-02 0.  1.
    10030    2    1    2    0    0  0.00000000000E+00  0.00000000000E+00 -0.25873629517E+02  0.37313795034E+04  0.37312897976E+04 0.  0.
        4    1    3    3  502    0  0.39461129059E+03 -0.91656716028E+03 -0.15893045778E+04  0.18766203889E+04  0.12699999809E+01 0.  1.
       -4    1    3    3    0  502 -0.39461129059E+03  0.91656716028E+03  0.15634309483E+04  0.18547591145E+04  0.12699999809E+01 0. -1.
</event>
<event>
 5   0  0.1051123E-06  0.3697117E+04  0.7818609E-02  0.8068601E-01
        2   -1    0    0  501    0  0.00000000000E+00  0.00000000000E+00  0.27304017196E+04  0.27304017196E+04  0.25500000920E-02 0.  1.
       -2   -1    0    0    0  501  0.00000000000E+00  0.00000000000E+00 -0.12515259783E+04  0.12515259783E+04  0.25500000920E-02 0. -1.
    10030    2    1    2    0    0  0.00000000000E+00  0.00000000000E+00  0.14788757414E+04  0.39819276979E+04  0.36971170840E+04 0.  0.
        2    1    3    3  502    0 -0.78385515474E+03 -0.15222828578E+04  0.14898116878E+04  0.22696503845E+04  0.25500000920E-02 0.  1.
       -2    1    3    3    0  502  0.78385515474E+03  0.15222828578E+04 -0.10935946463E+02  0.17122773133E+04  0.25500000920E-02 0. -1.
</event>
<event>
 5   0  0.1092116E-06  0.3666655E+04  0.7818609E-02  0.8075392E-01
        2   -1    0    0  501    0  0.00000000000E+00  0.00000000000E+00  0.23778533919E+04  0.23778533919E+04  0.25500000920E-02 0. -1.
       -2   -1    0    0    0  501  0.00000000000E+00  0.00000000000E+00 -0.14134977903E+04  0.14134977904E+04  0.25500000920E-02 0.  1.
    10030    2    1    2    0    0  0.00000000000E+00  0.00000000000E+00  0.96435560150E+03  0.37913511822E+04  0.36666554325E+04 0.  0.
        1    1    3    3  502    0 -0.60310371217E+03  0.94288201106E+03  0.19835667054E+04  0.22775639287E+04  0.50400001928E-02 0. -1.
       -1    1    3    3    0  502  0.60310371217E+03 -0.94288201106E+03 -0.10192111039E+04  0.15137872535E+04  0.50400001928E-02 0.  1.
</event>
<event>
 5   0  0.1128530E-06  0.3733332E+04  0.7818609E-02  0.8060615E-01
       -2   -1    0    0    0  501  0.00000000000E+00  0.00000000000E+00  0.13876825358E+04  0.13876825358E+04  0.25500000920E-02 0.  1.
        2   -1    0    0  501    0  0.00000000000E+00  0.00000000000E+00 -0.25109797379E+04  0.25109797379E+04  0.25500000920E-02 0. -1.
    10030    2    1    2    0    0  0.00000000000E+00  0.00000000000E+00 -0.11232972022E+04  0.38986622737E+04  0.37333324149E+04 0.  0.
        5    1    3    3  502    0 -0.59310015465E+03 -0.68869511005E+03  0.11410006390E+04  0.14587574494E+04  0.46999998093E+01 0.  1.
       -5    1    3    3    0  502  0.59310015465E+03  0.68869511005E+03 -0.22642978412E+04  0.24399048243E+04  0.46999998093E+01 0. -1.
</event>
<event>
 5   0  0.3848431E-07  0.3628794E+04  0.7818609E-02  0.8083928E-01
       -1   -1    0    0    0  501  0.00000000000E+00  0.00000000000E+00  0.17548920939E+04  0.17548920939E+04  0.50400001928E-02 0.  1.
        1   -1    0    0  501    0  0.00000000000E+00  0.00000000000E+00 -0.18759198151E+04  0.18759198151E+04  0.50400001928E-02 0. -1.
    10030    2    1    2    0    0  0.00000000000E+00  0.00000000000E+00 -0.12102772119E+03  0.36308119091E+04  0.36287942088E+04 0.  0.
        2    1    3    3  502    0  0.10888005225E+04  0.90303815532E+03 -0.11973992994E+04  0.18533023417E+04  0.25500000920E-02 0. -1.
       -2    1    3    3    0  502 -0.10888005225E+04 -0.90303815532E+03  0.10763715782E+04  0.17775095673E+04  0.25500000920E-02 0.  1.
</event>
<event>
 5   0  0.3764495E-07  0.3610030E+04  0.7818609E-02  0.8088198E-01
        1   -1    0    0  501    0  0.00000000000E+00  0.00000000000E+00  0.13630969932E+04  0.13630969932E+04  0.50400001928E-02 0.  1.
       -1   -1    0    0    0  501  0.00000000000E+00  0.00000000000E+00 -0.23902034499E+04  0.23902034499E+04  0.50400001928E-02 0. -1.
    10030    2    1    2    0    0  0.00000000000E+00  0.00000000000E+00 -0.10271064567E+04  0.37533004431E+04  0.36100299919E+04 0.  0.
        4    1    3    3  502    0  0.48036944717E+03  0.16962040312E+04 -0.11059632984E+03  0.17663793710E+04  0.12699999809E+01 0. -1.
       -4    1    3    3    0  502 -0.48036944717E+03 -0.16962040312E+04 -0.91651012684E+03  0.19869210721E+04  0.12699999809E+01 0.  1.
</event>
<event>
 5   0  0.1066907E-06  0.3678493E+04  0.7818609E-02  0.8072745E-01
       -2   -1    0    0    0  501  0.00000000000E+00  0.00000000000E+00  0.25272196184E+04  0.25272196184E+04  0.25500000920E-02 0. -1.
        2   -1    0    0  501    0  0.00000000000E+00  0.00000000000E+00 -0.13385567760E+04  0.13385567760E+04  0.25500000920E-02 0.  1.
    10030    2    1    2    0    0  0.00000000000E+00  0.00000000000E+00  0.11886628425E+04  0.38657763944E+04  0.36784925960E+04 0.  0.
        4    1    3    3  502    0 -0.53430025065E+03 -0.41547690731E+03 -0.12029229513E+04  0.13802619527E+04  0.12699999809E+01 0.  1.
       -4    1    3    3    0  502  0.53430025065E+03  0.41547690731E+03  0.23915857938E+04  0.24855144418E+04  0.12699999809E+01 0. -1.
</event>
<event>
 5   0  0.1128166E-06  0.3497413E+04  0.7818609E-02  0.8114403E-01
       -2   -1    0    0    0  501  0.00000000000E+00  0.00000000000E+00  0.15256738608E+04  0.15256738608E+04  0.25500000920E-02 0. -1.
        2   -1    0    0  501    0  0.00000000000E+00  0.00000000000E+00 -0.20043434869E+04  0.20043434869E+04  0.25500000920E-02 0.  1.
    10030    2    1    2    0    0  0.00000000000E+00  0.00000000000E+00 -0.47866962613E+03  0.35300173477E+04  0.34974130246E+04 0.  0.
        3    1    3    3  502    0  0.54349331375E+03 -0.37915677833E+02 -0.19164970077E+04  0.19924315224E+04  0.10100000352E+00 0.  1.
       -3    1    3    3    0  502 -0.54349331375E+03  0.37915677833E+02  0.14378273816E+04  0.15375858253E+04  0.10100000352E+00 0. -1.
</event>
<event>
 5   0  0.3682276E-07  0.3633729E+04  0.7818609E-02  0.8082809E-01
        1   -1    0    0  501    0  0.00000000000E+00  0.00000000000E+00  0.20160933259E+04  0.20160933259E+04  0.50400001928E-02 0.  1.
       -1   -1    0    0    0  501  0.00000000000E+00  0.00000000000E+00 -0.16373237377E+04  0.16373237377E+04  0.50400001928E-02 0. -1.
    10030    2    1    2    0    0  0.00000000000E+00  0.00000000000E+00  0.37876958812E+03  0.36534170636E+04  0.36337294671E+04 0.  0.
        1    1    3    3  502    0  0.10262242910E+04 -0.57968923536E+03 -0.12007929742E+04  0.16825812527E+04  0.50400001928E-02 0. -1.
       -1    1    3    3    0  502 -0.10262242910E+04  0.57968923536E+03  0.15795625624E+04  0.19708358109E+04  0.50400001928E-02 0.  1.
</event>
<event>
 5   0  0.3704306E-07  0.3681755E+04  0.7818609E-02  0.8072017E-01
        1   -1    0    0  501    0  0.00000000000E+00  0.00000000000E+00  0.22163692666E+04  0.22163692666E+04  0.50400001928E-02 0. -1.
       -1   -1    0    0    0  501  0.00000000000E+00  0.00000000000E+00 -0.15290004980E+04  0.15290004980E+04  0.50400001928E-02 0.  1.
    10030    2    1    2    0    0  0.00000000000E+00  0.00000000000E+00  0.68736876858E+03  0.37453697647E+04  0.36817548601E+04 0.  0.
        3    1    3    3  502    0 -0.76371776620E+03  0.16224649407E+04  0.76701449423E+03  0.19503765162E+04  0.10100000352E+00 0. -1.
       -3    1    3    3    0  502  0.76371776620E+03 -0.16224649407E+04 -0.79645725648E+02  0.17949932485E+04  0.10100000352E+00 0.  1.
</event>
<event>
 5   0  0.3848431E-07  0.3604887E+04  0.7818609E-02  0.8089373E-01
        1   -1    0    0  501    0  0.00000000000E+00  0.00000000000E+00  0.25190577291E+04  0.25190577291E+04  0.50400001928E-02 0. -1.
       -1   -1    0    0    0  501  0.00000000000E+00  0.00000000000E+00 -0.12896896272E+04  0.12896896272E+04  0.50400001928E-02 0.  1.
    10030    2    1    2    0    0  0.00000000000E+00  0.00000000000E+00  0.12293681019E+04  0.38087473563E+04  0.36048870293E+04 0.  0.
        2    1    3    3  502    0  0.90333835137E+03  0.15823034111E+03 -0.10247570020E+04  0.13752032326E+04  0.25500000920E-02 0.  1.
       -2    1    3    3    0  502 -0.90333835137E+03 -0.15823034111E+03  0.22541251038E+04  0.24335441236E+04  0.25500000920E-02 0. -1.
</event>
<event>
 5   0  0.3848431E-07  0.3679070E+04  0.7818609E-02  0.8072616E-01
        1   -1    0    0  501    0  0.00000000000E+00  0.00000000000E+00  0.19750569634E+04  0.19750569635E+04  0.50400001928E-02 0. -1.
       -1   -1    0    0    0  501  0.00000000000E+00  0.00000000000E+00 -0.17133125261E+04  0.17133125261E+04  0.50400001928E-02 0.  1.
    10030    2    1    2    0    0  0.00000000000E+00  0.00000000000E+00  0.26174443736E+03  0.36883694895E+04  0.36790704452E+04 0.  0.
        2    1    3    3  502    0 -0.14627341264E+03 -0.17507677616E+04 -0.41576384134E+03  0.18053928210E+04  0.25500000920E-02 0.  1.
       -2    1    3    3    0  502  0.14627341264E+03  0.17507677616E+04  0.67750827870E+03  0.18829766685E+04  0.25500000920E-02 0. -1.
</event>
<event>
 5   0  0.1128530E-06  0.3531725E+04  0.7818609E-02  0.8106312E-01
       -2   -1    0    0    0  501  0.00000000000E+00  0.00000000000E+00  0.12824697558E+04  0.12824697558E+04  0.25500000920E-02 0. -1.
        2   -1    0    0  501    0  0.00000000000E+00  0.00000000000E+00 -0.24314571952E+04  0.24314571952E+04  0.25500000920E-02 0.  1.
    10030    2    1    2    0    0  0.00000000000E+00  0.00000000000E+00 -0.11489874393E+04  0.37139269510E+04  0.35317249697E+04 0.  0.
        5    1    3    3  502    0 -0.14992536236E+02 -0.10705671595E+04 -0.20511858513E+04  0.23138116401E+04  0.46999998093E+01 0.  1.
       -5    1    3    3    0  502  0.14992536236E+02  0.10705671595E+04  0.90219841199E+03  0.14001153109E+04  0.46999998093E+01 0. -1.
</event>
<event>
 5   0  0.3490375E-07  0.3704268E+04  0.7818609E-02  0.8067017E-01
       -3   -1    0    0    0  501  0.00000000000E+00  0.00000000000E+00  0.18342650374E+04  0.18342650402E+04  0.10100000352E+00 0. -1.
        3   -1    0    0  501    0  0.00000000000E+00  0.00000000000E+00 -0.18701774572E+04  0.18701774599E+04  0.10100000352E+00 0.  1.
    10030    2    1    2    0    0  0.00000000000E+00  0.00000000000E+00 -0.35912419769E+02  0.37044425001E+04  0.37042684210E+04 0.  0.
        1    1    3    3  502    0 -0.12505861486E+04  0.22687730280E+03 -0.13652248162E+04  0.18652822372E+04  0.50400001928E-02 0.  1.
       -1    1    3    3    0  502  0.12505861486E+04 -0.22687730280E+03  0.13293123964E+04  0.18391602630E+04  0.50400001928E-02 0. -1.
</event>
<event>
 5   0  0.3704306E-07  0.3751166E+04  0.7818609E-02  0.8056717E-01
        1   -1    0    0  501    0  0.00000000000E+00  0.00000000000E+00  0.24447435417E+04  0.24447435417E+04  0.50400001928E-02 0.  1.
       -1   -1    0    0    0  501  0.00000000000E+00  0.00000000000E+00 -0.14389284054E+04  0.14389284054E+04  0.50400001928E-02 0. -1.
    10030    2    1    2    0    0  0.00000000000E+00  0.00000000000E+00  0.10058151363E+04  0.38836719471E+04  0.37511656460E+04 0.  0.
        3    1    3    3  502    0 -0.38708380800E+03 -0.11752529196E+04  0.19622215346E+04  0.23197772868E+04  0.10100000352E+00 0.  1.
       -3    1    3    3    0  502  0.38708380800E+03  0.11752529196E+04 -0.95640639827E+03  0.15638946602E+04  0.10100000352E+00 0. -1.
</event>
<event>
 5   0  0.3675819E-07  0.2394198E+04  0.7818609E-02  0.8441679E-01
        1   -1    0    0  501    0  0.00000000000E+00  0.00000000000E+00  0.79278086059E+03  0.79278086060E+03  0.50400001928E-02 0.  1.
       -1   -1    0    0    0  501  0.00000000000E+00  0.00000000000E+00 -0.18076192661E+04  0.18076192661E+04  0.50400001928E-02 0. -1.
    10030    2    1    2    0    0  0.00000000000E+00  0.00000000000E+00 -0.10148384056E+04  0.26004001267E+04  0.23941979513E+04 0.  0.
        5    1    3    3  502    0 -0.11182346731E+04 -0.19107379971E+03 -0.92252091337E+03  0.14621986550E+04  0.46999998093E+01 0.  1.
       -5    1    3    3    0  502  0.11182346731E+04  0.19107379971E+03 -0.92317492179E+02  0.11382014718E+04  0.46999998093E+01 0. -1.
</event>
<event>
 5   0  0.3682276E-07  0.3622229E+04  0.7818609E-02  0.8085419E-01
       -1   -1    0    0    0  501  0.00000000000E+00  0.00000000000E+00  0.19325427327E+04  0.19325427327E+04  0.50400001928E-02 0. -1.
        1   -1    0    0  501    0  0.00000000000E+00  0.00000000000E+00 -0.16973161540E+04  0.16973161541E+04  0.50400001928E-02 0.  1.
    10030    2    1    2    0    0  0.00000000000E+00  0.00000000000E+00  0.23522657866E+03  0.36298588868E+04  0.36222291472E+04 0.  0.
        1    1    3    3  502    0  0.16131696200E+04  0.11719112290E+02  0.94256197811E+03  0.18683887826E+04  0.50400001928E-02 0. -1.
       -1    1    3    3    0  502 -0.16131696200E+04 -0.11719112290E+02 -0.70733539945E+03  0.17614701041E+04  0.50400001928E-02 0.  1.
</event>
<event>
 5   0  0.1051123E-06  0.3779339E+04  0.7818609E-02  0.8050603E-01
       -2   -1    0    0    0  501  0.00000000000E+00  0.00000000000E+00  0.19423727067E+04  0.19423727067E+04  0.25500000920E-02 0.  1.
        2   -1    0    0  501    0  0.00000000000E+00  0.00000000000E+00 -0.18383960025E+04  0.18383960025E+04  0.25500000920E-02 0. -1.
    10030    2    1    2    0    0  0.00000000000E+00  0.00000000000E+00  0.10397670427E+03  0.37807687092E+04  0.37793386825E+04 0.  0.
        2    1    3    3  502    0  0.62894726518E+03 -0.13700621864E+04 -0.10878308345E+04  0.18590376493E+04  0.25500000920E-02 0. -1.
       -2    1    3    3    0  502 -0.62894726518E+03  0.13700621864E+04  0.11918075387E+04  0.19217310599E+04  0.25500000920E-02 0.  1.
</event>
<event>
 5   0  0.1092116E-06  0.3609210E+04  0.7818609E-02  0.8088385E-01
        2   -1    0    0  501    0  0.00000000000E+00  0.00000000000E+00  0.32205169778E+04  0.32205169778E+04  0.25500000920E-02 0. -1.
       -2   -1    0    0    0  501  0.00000000000E+00  0.00000000000E+00 -0.10112041337E+04  0.10112041337E+04  0.25500000920E-02 0.  1.
    10030    2    1    2    0    0  0.00000000000E+00  0.00000000000E+00  0.22093128441E+04  0.42317211115E+04  0.36092104846E+04 0.  0.
        1    1    3    3  502    0  0.11052486635E+04 -0.12696368692E+04  0.18672611496E+04  0.25140040948E+04  0.50400001928E-02 0. -1.
       -1    1    3    3    0  502 -0.11052486635E+04  0.12696368692E+04  0.34205169454E+03  0.17177170167E+04  0.50400001928E-02 0.  1.
</event>
<event>
 5   0  0.3848431E-07  0.3693128E+04  0.7818609E-02  0.8069487E-01
       -1   -1    0    0    0  501  0.00000000000E+00  0.00000000000E+00  0.12138113653E+04  0.12138113653E+04  0.50400001928E-02 0.  1.
        1   -1    0    0  501    0  0.00000000000E+00  0.00000000000E+00 -0.28091661432E+04  0.28091661432E+04  0.50400001928E-02 0. -1.
    10030    2    1    2    0    0  0.00000000000E+00  0.00000000000E+00 -0.15953547779E+04  0.40229775085E+04  0.36931275590E+04 0.  0.
        2    1    3    3  502    0  0.20799324036E+03 -0.79607112272E+03  0.10030907850E+04  0.12973748662E+04  0.25500000920E-02 0.  1.
       -2    1    3    3    0  502 -0.20799324036E+03  0.79607112272E+03 -0.25984455629E+04  0.27256026423E+04  0.25500000920E-02 0. -1.
</event>
<event>
 5   0  0.3704306E-07  0.3668260E+04  0.7818609E-02  0.8075032E-01
       -1   -1    0    0    0  501  0.00000000000E+00  0.00000000000E+00  0.13835620327E+04  0.13835620328E+04  0.50400001928E-02 0. -1.
        1   -1    0    0  501    0  0.00000000000E+00  0.00000000000E+00 -0.24314287707E+04  0.24314287707E+04  0.50400001928E-02 0.  1.
    10030    2    1    2    0    0  0.00000000000E+00  0.00000000000E+00 -0.10478667380E+04  0.38149908035E+04  0.36682598231E+04 0.  0.
        3    1    3    3  502    0  0.18177449349E+04 -0.13500425465E+03 -0.73607740650E+03  0.19657651832E+04  0.10100000352E+00 0.  1.
       -3    1    3    3    0  502 -0.18177449349E+04  0.13500425465E+03 -0.31178933146E+03  0.18492256202E+04  0.10100000352E+00 0. -1.
</event>
<event>
 5   0  0.1051123E-06  0.3613034E+04  0.7818609E-02  0.8087513E-01
        2   -1    0    0  501    0  0.00000000000E+00  0.00000000000E+00  0.23019989286E+04  0.23019989286E+04  0.25500000920E-02 0.  1.
       -2   -1    0    0    0  501  0.00000000000E+00  0.00000000000E+00 -0.14176827318E+04  0.14176827318E+04  0.25500000920E-02 0. -1.
    10030    2    1    2    0    0  0.00000000000E+00  0.00000000000E+00  0.88431619687E+03  0.37196816604E+04  0.36130342538E+04 0.  0.
        2    1    3    3  502    0 -0.59011000504E+02  0.11771178090E+04 -0.96734692299E+03  0.15247454554E+04  0.25500000920E-02 0. -1.
       -2    1    3    3    0  502  0.59011000504E+02 -0.11771178090E+04  0.18516631199E+04  0.21949362050E+04  0.25500000920E-02 0.  1.
</event>
<event>
 5   0  0.1092116E-06  0.3548108E+04  0.7818609E-02  0.8102483E-01
       -2   -1    0    0    0  501  0.00000000000E+00  0.00000000000E+00  0.13209088060E+04  0.13209088060E+04  0.25500000920E-02 0.  1.
        2   -1    0    0  501    0  0.00000000000E+00  0.00000000000E+00 -0.23826529551E+04  0.23826529551E+04  0.25500000920E-02 0. -1.
    10030    2    1    2    0    0  0.00000000000E+00  0.00000000000E+00 -0.10617441491E+04  0.37035617612E+04  0.35481078170E+04 0.  0.
        1    1    3    3  502    0  0.15246564934E+04  0.79311859196E+03 -0.99021244175E+03  0.19834654531E+04  0.50400001928E-02 0. -1.
       -1    1    3    3    0  502 -0.15246564934E+04 -0.79311859196E+03 -0.71531707349E+02  0.17200963081E+04  0.50400001928E-02 0.  1.
</event>
<event>
 5   0  0.3682276E-07  0.2492233E+04  0.7818609E-02  0.8405758E-01
        1   -1    0    0  501    0  0.00000000000E+00  0.00000000000E+00  0.12386600469E+04  0.12386600469E+04  0.50400001928E-02 0.  1.
       -1   -1    0    0    0  501  0.00000000000E+00  0.00000000000E+00 -0.12536182973E+04  0.12536182973E+04  0.50400001928E-02 0. -1.
    10030    2    1    2    0    0  0.00000000000E+00  0.00000000000E+00 -0.14958250416E+02  0.24922783442E+04  0.24922334553E+04 0.  0.
        1    1    3    3  502    0  0.91078306792E+03  0.12489041026E+03 -0.84873353422E+03  0.12511882446E+04  0.50400001928E-02 0. -1.
       -1    1    3    3    0  502 -0.91078306792E+03 -0.12489041026E+03  0.83377528381E+03  0.12410900996E+04  0.50400001928E-02 0.  1.
</event>
<event>
 5   0  0.1051123E-06  0.3624572E+04  0.7818609E-02  0.8084886E-01
        2   -1    0    0  501    0  0.00000000000E+00  0.00000000000E+00  0.14835700669E+04  0.14835700669E+04  0.25500000920E-02 0. -1.
       -2   -1    0    0    0  501  0.00000000000E+00  0.00000000000E+00 -0.22138357694E+04  0.22138357694E+04  0.25500000920E-02 0.  1.
    10030    2    1    2    0    0  0.00000000000E+00  0.00000000000E+00 -0.73026570251E+03  0.36974058362E+04  0.36245719639E+04 0.  0.
        2    1    3    3  502    0 -0.16690454918E+04  0.45685259317E+02  0.35371208724E+03  0.17067255894E+04  0.25500000920E-02 0. -1.
       -2    1    3    3    0  502  0.16690454918E+04 -0.45685259317E+02 -0.10839777898E+04  0.19906802469E+04  0.25500000920E-02 0.  1.
</event>
<event>
 5   0  0.3764495E-07  0.2534383E+04  0.7818609E-02  0.8390838E-01
       -1   -1    0    0    0  501  0.00000000000E+00  0.00000000000E+00  0.82833605690E+03  0.82833605692E+03  0.50400001928E-02 0.  1.
        1   -1    0    0  501    0  0.00000000000E+00  0.00000000000E+00 -0.19385539024E+04  0.19385539024E+04  0.50400001928E-02 0. -1.
    10030    2    1    2    0    0  0.00000000000E+00  0.00000000000E+00 -0.11102178455E+04  0.27668899593E+04  0.25343828405E+04 0.  0.
        4    1    3    3  502    0  0.99669617325E+02 -0.65974895458E+03 -0.17312388321E+04  0.18553684870E+04  0.12699999809E+01 0. -1.
       -4    1    3    3    0  502 -0.99669617325E+02  0.65974895458E+03  0.62102098668E+03  0.91152147231E+03  0.12699999809E+01 0.  1.
</event>
<event>
 5   0  0.3704306E-07  0.3651836E+04  0.7818609E-02  0.8078720E-01
        1   -1    0    0  501    0  0.00000000000E+00  0.00000000000E+00  0.13781904764E+04  0.13781904764E+04  0.50400001928E-02 0.  1.
       -1   -1    0    0    0  501  0.00000000000E+00  0.00000000000E+00 -0.24190974605E+04  0.24190974605E+04  0.50400001928E-02 0. -1.
    10030    2    1    2    0    0  0.00000000000E+00  0.00000000000E+00 -0.10409069841E+04  0.37972879369E+04  0.36518362951E+04 0.  0.
        3    1    3    3  502    0  0.13751479537E+04 -0.74732509033E+03 -0.14983636715E+04  0.21667072685E+04  0.10100000352E+00 0.  1.
       -3    1    3    3    0  502 -0.13751479537E+04  0.74732509033E+03  0.45745668736E+03  0.16305806684E+04  0.10100000352E+00 0. -1.
</event>
<event>
 5   0  0.1128530E-06  0.3699519E+04  0.7818609E-02  0.8068068E-01
        2   -1    0    0  501    0  0.00000000000E+00  0.00000000000E+00  0.15615414234E+04  0.15615414234E+04  0.25500000920E-02 0. -1.
       -2   -1    0    0    0  501  0.00000000000E+00  0.00000000000E+00 -0.21911746464E+04  0.21911746464E+04  0.25500000920E-02 0.  1.
    10030    2    1    2    0    0  0.00000000000E+00  0.00000000000E+00 -0.62963322302E+03  0.37527160698E+04  0.36995188748E+04 0.  0.
        5    1    3    3  502    0  0.11876617854E+04 -0.10152363046E+04 -0.13191765942E+04  0.20448702275E+04  0.46999998093E+01 0. -1.
       -5    1    3    3    0  502 -0.11876617854E+04  0.10152363046E+04  0.68954337116E+03  0.17078458424E+04  0.46999998093E+01 0.  1.
</event>
<event>
 5   0  0.1051123E-06  0.3709083E+04  0.7818609E-02  0.8065952E-01
        2   -1    0    0  501    0  0.00000000000E+00  0.00000000000E+00  0.25339292482E+04  0.25339292482E+04  0.25500000920E-02 0. -1.
       -2   -1    0    0    0  501  0.00000000000E+00  0.00000000000E+00 -0.13573086023E+04  0.13573086023E+04  0.25500000920E-02 0.  1.
    10030    2    1    2    0    0  0.00000000000E+00  0.00000000000E+00  0.11766206459E+04  0.38912378504E+04  0.37090828872E+04 0.  0.
        2    1    3    3  502    0  0.45282628088E+03  0.53105846697E+03 -0.12142829585E+04  0.14005562607E+04  0.25500000920E-02 0.  1.
       -2    1    3    3    0  502 -0.45282628088E+03 -0.53105846697E+03  0.23909036044E+04  0.24906815898E+04  0.25500000920E-02 0. -1.
</event>
<event>
 5   0  0.3848431E-07  0.3709582E+04  0.7818609E-02  0.8065842E-01
       -1   -1    0    0    0  501  0.00000000000E+00  0.00000000000E+00  0.15198983365E+04  0.15198983365E+04  0.50400001928E-02 0.  1.
        1   -1    0    0  501    0  0.00000000000E+00  0.00000000000E+00 -0.22634736210E+04  0.22634736210E+04  0.50400001928E-02 0. -1.
    10030    2    1    2    0    0  0.00000000000E+00  0.00000000000E+00 -0.74357528453E+03  0.37833719576E+04  0.37095820742E+04 0.  0.
        2    1    3    3  502    0 -0.27390555515E+03 -0.72888646417E+03 -0.20887080102E+04  0.22291255870E+04  0.25500000920E-02 0. -1.
       -2    1    3    3    0  502  0.27390555515E+03  0.72888646417E+03  0.13451327257E+04  0.15542463706E+04  0.25500000920E-02 0.  1.
</event>
<event>
 5   0  0.3682276E-07  0.3853554E+04  0.7818609E-02  0.8034759E-01
       -1   -1    0    0    0  501  0.00000000000E+00  0.00000000000E+00  0.18352358776E+04  0.18352358777E+04  0.50400001928E-02 0. -1.
        1   -1    0    0  501    0  0.00000000000E+00  0.00000000000E+00 -0.20228838322E+04  0.20228838322E+04  0.50400001928E-02 0.  1.
    10030    2    1    2    0    0  0.00000000000E+00  0.00000000000E+00 -0.18764795457E+03  0.38581197099E+04  0.38535536769E+04 0.  0.
        1    1    3    3  502    0 -0.12764050699E+04  0.11794394877E+04 -0.92678427998E+03  0.19695726717E+04  0.50400001928E-02 0. -1.
       -1    1    3    3    0  502  0.12764050699E+04 -0.11794394877E+04  0.73913632541E+03  0.18885470381E+04  0.50400001928E-02 0.  1.
</event>
<event>
 5   0  0.1051123E-06  0.3649573E+04  0.7818609E-02  0.8079230E-01
       -2   -1    0    0    0  501  0.00000000000E+00  0.00000000000E+00  0.16766957511E+04  0.16766957511E+04  0.25500000920E-02 0.  1.
        2   -1    0    0  501    0  0.00000000000E+00  0.00000000000E+00 -0.19859565614E+04  0.19859565614E+04  0.25500000920E-02 0. -1.
    10030    2    1    2    0    0  0.00000000000E+00  0.00000000000E+00 -0.30926081032E+03  0.36626523125E+04  0.36495725385E+04 0.  0.
        2    1    3    3  502    0  0.15991917375E+03 -0.10004423218E+04 -0.16777606794E+04  0.19599336414E+04  0.25500000920E-02 0. -1.
       -2    1    3    3    0  502 -0.15991917375E+03  0.10004423218E+04  0.13684998691E+04  0.17027186711E+04  0.25500000920E-02 0.  1.
</event>
<event>
 5   0  0.3682276E-07  0.3762084E+04  0.7818609E-02  0.8054341E-01
       -1   -1    0    0    0  501  0.00000000000E+00  0.00000000000E+00  0.20097649353E+04  0.20097649353E+04  0.50400001928E-02 0.  1.
        1   -1    0    0  501    0  0.00000000000E+00  0.00000000000E+00 -0.17605631882E+04  0.17605631882E+04  0.50400001928E-02 0. -1.
    10030    2    1    2    0    0  0.00000000000E+00  0.00000000000E+00  0.24920174714E+03  0.37703281235E+04  0.37620835514E+04 0.  0.
        1    1    3    3  502    0 -0.92387218153E+03  0.67660945548E+03 -0.13709757706E+04  0.17863131659E+04  0.50400001928E-02 0. -1.
       -1    1    3    3    0  502  0.92387218153E+03 -0.67660945548E+03  0.16201775177E+04  0.19840149576E+04  0.50400001928E-02 0.  1.
</event>
<event>
 5   0  0.1128530E-06  0.3698280E+04  0.7818609E-02  0.8068343E-01
       -2   -1    0    0    0  501  0.00000000000E+00  0.00000000000E+00  0.10560193118E+04  0.10560193118E+04  0.25500000920E-02 0.  1.
        2   -1    0    0  501    0  0.00000000000E+00  0.00000000000E+00 -0.32379321635E+04  0.32379321635E+04  0.25500000920E-02 0. -1.
    10030    2    1    2    0    0  0.00000000000E+00  0.00000000000E+00 -0.21819128517E+04  0.42939514753E+04  0.36982800839E+04 0.  0.
        5    1    3    3  502    0 -0.19110343838E+03 -0.12609530109E+03 -0.32214042914E+04  0.32295337508E+04  0.46999998093E+01 0. -1.
       -5    1    3    3    0  502  0.19110343838E+03  0.12609530109E+03  0.10394914396E+04  0.10644177245E+04  0.46999998093E+01 0.  1.
</event>
<event>
 5   0  0.3704306E-07  0.3684922E+04  0.7818609E-02  0.8071311E-01
       -1   -1    0    0    0  501  0.00000000000E+00  0.00000000000E+00  0.16856355123E+04  0.16856355123E+04  0.50400001928E-02 0.  1.
        1   -1    0    0  501    0  0.00000000000E+00  0.00000000000E+00 -0.20138772707E+04  0.20138772707E+04  0.50400001928E-02 0. -1.
    10030    2    1    2    0    0  0.00000000000E+00  0.00000000000E+00 -0.32824175844E+03  0.36995127831E+04  0.36849222760E+04 0.  0.
        3    1    3    3  502    0  0.90580106702E+03  0.36249067975E+03  0.14050097018E+04  0.17105342260E+04  0.10100000352E+00 0.  1.
       -3    1    3    3    0  502 -0.90580106702E+03 -0.36249067975E+03 -0.17332514602E+04  0.19889785571E+04  0.10100000352E+00 0. -1.
</event>
<event>
 5   0  0.3675819E-07  0.3328562E+04  0.7818609E-02  0.8155666E-01
        1   -1    0    0  501    0  0.00000000000E+00  0.00000000000E+00  0.12967025654E+04  0.12967025654E+04  0.50400001928E-02 0. -1.
       -1   -1    0    0    0  501  0.00000000000E+00  0.00000000000E+00 -0.21360569948E+04  0.21360569948E+04  0.50400001928E-02 0.  1.
    10030    2    1    2    0    0  0.00000000000E+00  0.00000000000E+00 -0.83935442940E+03  0.34327595602E+04  0.33285616023E+04 0.  0.
        5    1    3    3  502    0 -0.60562573243E+03 -0.70342902403E+03  0.10049468527E+04  0.13680406377E+04  0.46999998093E+01 0. -1.
       -5    1    3    3    0  502  0.60562573243E+03  0.70342902403E+03 -0.18443012821E+04  0.20647189225E+04  0.46999998093E+01 0.  1.
</event>
<event>
 5   0  0.1051123E-06  0.3721912E+04  0.7818609E-02  0.8063123E-01
       -2   -1    0    0    0  501  0.00000000000E+00  0.00000000000E+00  0.11904151009E+04  0.11904151009E+04  0.25500000920E-02 0.  1.
        2   -1    0    0  501    0  0.00000000000E+00  0.00000000000E+00 -0.29092009506E+04  0.29092009506E+04  0.25500000920E-02 0. -1.
    10030    2    1    2    0    0  0.00000000000E+00  0.00000000000E+00 -0.17187858497E+04  0.40996160515E+04  0.37219117362E+04 0.  0.
        2    1    3    3  502    0 -0.17670751696E+04 -0.58244760201E+03 -0.81881893849E+03  0.20327971660E+04  0.25500000920E-02 0.  1.
       -2    1    3    3    0  502  0.17670751696E+04  0.58244760201E+03 -0.89996691118E+03  0.20668188855E+04  0.25500000920E-02 0. -1.
</event>
<event>
 5   0  0.3704306E-07  0.3684216E+04  0.7818609E-02  0.8071469E-01
       -1   -1    0    0    0  501  0.00000000000E+00  0.00000000000E+00  0.20975741387E+04  0.20975741387E+04  0.50400001928E-02 0.  1.
        1   -1    0    0  501    0  0.00000000000E+00  0.00000000000E+00 -0.16177549853E+04  0.16177549853E+04  0.50400001928E-02 0. -1.
    10030    2    1    2    0    0  0.00000000000E+00  0.00000000000E+00  0.47981915346E+03  0.37153291240E+04  0.36842155311E+04 0.  0.
        3    1    3    3  502    0 -0.22667154185E+03  0.14441866346E+04 -0.89040668952E+03  0.17116889631E+04  0.10100000352E+00 0. -1.
       -3    1    3    3    0  502  0.22667154185E+03 -0.14441866346E+04  0.13702258430E+04  0.20036401609E+04  0.10100000352E+00 0.  1.
</event>
<event>
 5   0  0.1051123E-06  0.3712619E+04  0.7818609E-02  0.8065171E-01
       -2   -1    0    0    0  501  0.00000000000E+00  0.00000000000E+00  0.24017904103E+04  0.24017904103E+04  0.25500000920E-02 0.  1.
        2   -1    0    0  501    0  0.00000000000E+00  0.00000000000E+00 -0.14347154726E+04  0.14347154726E+04  0.25500000920E-02 0. -1.
    10030    2    1    2    0    0  0.00000000000E+00  0.00000000000E+00  0.96707493766E+03  0.38365058829E+04  0.37126194869E+04 0.  0.
        2    1    3    3  502    0 -0.13562555021E+04  0.37729257276E+03  0.17339170284E+04  0.22334383658E+04  0.25500000920E-02 0.  1.
       -2    1    3    3    0  502  0.13562555021E+04 -0.37729257276E+03 -0.76684209070E+03  0.16030675171E+04  0.25500000920E-02 0. -1.
</event>
<event>
 5   0  0.3848431E-07  0.3415102E+04  0.7818609E-02  0.8134210E-01
        1   -1    0    0  501    0  0.00000000000E+00  0.00000000000E+00  0.15942913824E+04  0.15942913824E+04  0.50400001928E-02 0. -1.
       -1   -1    0    0    0  501  0.00000000000E+00  0.00000000000E+00 -0.18288566164E+04  0.18288566164E+04  0.50400001928E-02 0.  1.
    10030    2    1    2    0    0  0.00000000000E+00  0.00000000000E+00 -0.23456523397E+03  0.34231479988E+04  0.34151019564E+04 0.  0.
        2    1    3    3  502    0 -0.60054220006E+03 -0.13997489938E+04  0.65640518680E+03  0.16585583948E+04  0.25500000920E-02 0.  1.
       -2    1    3    3    0  502  0.60054220006E+03  0.13997489938E+04 -0.89097042077E+03  0.17645896040E+04  0.25500000920E-02 0. -1.
</event>
<event>
 5   0  0.3848431E-07  0.3503331E+04  0.7818609E-02  0.8113001E-01
       -1   -1    0    0    0  501  0.00000000000E+00  0.00000000000E+00  0.20315425034E+04  0.20315425034E+04  0.50400001928E-02 0.  1.
        1   -1    0    0  501    0  0.00000000000E+00  0.00000000000E+00 -0.15103455868E+04  0.15103455869E+04  0.50400001928E-02 0. -1.
    10030    2    1    2    0    0  0.00000000000E+00  0.00000000000E+00  0.52119691658E+03  0.35418880903E+04  0.35033305608E+04 0.  0.
        2    1    3    3  502    0 -0.45180493827E+03  0.15790093707E+04  0.87634421788E+03  0.18615524391E+04  0.25500000920E-02 0.  1.
       -2    1    3    3    0  502  0.45180493827E+03 -0.15790093707E+04 -0.35514730130E+03  0.16803356512E+04  0.25500000920E-02 0. -1.
</event>
<event>
 5   0  0.3764495E-07  0.3058232E+04  0.7818609E-02  0.8227295E-01
        1   -1    0    0  501    0  0.00000000000E+00  0.00000000000E+00  0.22318059134E+04  0.22318059134E+04  0.50400001928E-02 0. -1.
       -1   -1    0    0    0  501  0.00000000000E+00  0.00000000000E+00 -0.10476696275E+04  0.10476696275E+04  0.50400001928E-02 0.  1.
    10030    2    1    2    0    0  0.00000000000E+00  0.00000000000E+00  0.11841362859E+04  0.32794755410E+04  0.30582316917E+04 0.  0.
        4    1    3    3  502    0  0.60046035859E+03 -0.13669430107E+03 -0.90881305569E+03  0.10978072496E+04  0.12699999809E+01 0.  1.
       -4    1    3    3    0  502 -0.60046035859E+03  0.13669430107E+03  0.20929493416E+04  0.21816682914E+04  0.12699999809E+01 0. -1.
</event>
<event>
 5   0  0.3764495E-07  0.3691260E+04  0.7818609E-02  0.8069901E-01
        1   -1    0    0  501    0  0.00000000000E+00  0.00000000000E+00  0.14975531762E+04  0.14975531762E+04  0.50400001928E-02 0.  1.
       -1   -1    0    0    0  501  0.00000000000E+00  0.00000000000E+00 -0.22746109831E+04  0.22746109831E+04  0.50400001928E-02 0. -1.
    10030    2    1    2    0    0  0.00000000000E+00  0.00000000000E+00 -0.77705780690E+03  0.37721641593E+04  0.36912604364E+04 0.  0.
        4    1    3    3  502    0 -0.52025577576E+03 -0.15947958918E+04  0.39795559165E+03  0.17240679437E+04  0.12699999809E+01 0. -1.
       -4    1    3    3    0  502  0.52025577576E+03  0.15947958918E+04 -0.11750133985E+04  0.20480962156E+04  0.12699999809E+01 0.  1.
</event>
<event>
 5   0  0.3490375E-07  0.3638625E+04  0.7818609E-02  0.8081701E-01
       -3   -1    0    0    0  501  0.00000000000E+00  0.00000000000E+00  0.20607309063E+04  0.20607309088E+04  0.10100000352E+00 0. -1.
        3   -1    0    0  501    0  0.00000000000E+00  0.00000000000E+00 -0.16061770188E+04  0.16061770220E+04  0.10100000352E+00 0.  1.
    10030    2    1    2    0    0  0.00000000000E+00  0.00000000000E+00  0.45455388755E+03  0.36669079308E+04  0.36386253635E+04 0.  0.
        2    1    3    3  502    0  0.31573611426E+03 -0.55704722591E+03  0.19434250008E+04  0.20461895414E+04  0.25500000920E-02 0. -1.
       -2    1    3    3    0  502 -0.31573611426E+03  0.55704722591E+03 -0.14888711132E+04  0.16207183894E+04  0.25500000920E-02 0.  1.
</event>
<event>
 5   0  0.3704306E-07  0.2929735E+04  0.7818609E-02  0.8264085E-01
       -1   -1    0    0    0  501  0.00000000000E+00  0.00000000000E+00  0.18456985072E+04  0.18456985072E+04  0.50400001928E-02 0. -1.
        1   -1    0    0  501    0  0.00000000000E+00  0.00000000000E+00 -0.11626153960E+04  0.11626153960E+04  0.50400001928E-02 0.  1.
    10030    2    1    2    0    0  0.00000000000E+00  0.00000000000E+00  0.68308311122E+03  0.30083139033E+04  0.29297354836E+04 0.  0.
        3    1    3    3  502    0 -0.99498759471E+03  0.10502736704E+04  0.57740301858E+03  0.15577128594E+04  0.10100000352E+00 0.  1.
       -3    1    3    3    0  502  0.99498759471E+03 -0.10502736704E+04  0.10568009263E+03  0.14506010439E+04  0.10100000352E+00 0. -1.
</event>
<event>
 5   0  0.1128530E-06  0.3531164E+04  0.7818609E-02  0.8106444E-01
        2   -1    0    0  501    0  0.00000000000E+00  0.00000000000E+00  0.18570267176E+04  0.18570267176E+04  0.25500000920E-02 0.  1.
       -2   -1    0    0    0  501  0.00000000000E+00  0.00000000000E+00 -0.16786406832E+04  0.16786406832E+04  0.25500000920E-02 0. -1.
    10030    2    1    2    0    0  0.00000000000E+00  0.00000000000E+00  0.17838603435E+03  0.35356674008E+04  0.35311644527E+04 0.  0.
        5    1    3    3  502    0 -0.13206103315E+04 -0.11470062414E+04  0.32954816998E+03  0.17799604074E+04  0.46999998093E+01 0. -1.
       -5    1    3    3    0  502  0.13206103315E+04  0.11470062414E+04 -0.15116213563E+03  0.17557069934E+04  0.46999998093E+01 0.  1.
</event>
<event>
 5   0  0.3490375E-07  0.2859327E+04  0.7818609E-02  0.8285083E-01
        3   -1    0    0  501    0  0.00000000000E+00  0.00000000000E+00  0.18209149162E+04  0.18209149190E+04  0.10100000352E+00 0. -1.
       -3   -1    0    0    0  501  0.00000000000E+00  0.00000000000E+00 -0.11224783270E+04  0.11224783316E+04  0.10100000352E+00 0.  1.
    10030    2    1    2    0    0  0.00000000000E+00  0.00000000000E+00  0.69843658917E+03  0.29433932506E+04  0.28593268716E+04 0.  0.
        2    1    3    3  502    0 -0.63332342512E+03 -0.10393281649E+04  0.11213621521E+04  0.16549183277E+04  0.25500000920E-02 0. -1.
       -2    1    3    3    0  502  0.63332342512E+03  0.10393281649E+04 -0.42292556295E+03  0.12884749229E+04  0.25500000920E-02 0.  1.
</event>
<event>
 5   0  0.1092116E-06  0.3690192E+04  0.7818609E-02  0.8070139E-01
        2   -1    0    0  501    0  0.00000000000E+00  0.00000000000E+00  0.16939415368E+04  0.16939415368E+04  0.25500000920E-02 0. -1.
       -2   -1    0    0    0  501  0.00000000000E+00  0.00000000000E+00 -0.20097385450E+04  0.20097385450E+04  0.25500000920E-02 0.  1.
    10030    2    1    2    0    0  0.00000000000E+00  0.00000000000E+00 -0.31579700819E+03  0.37036800818E+04  0.36901921898E+04 0.  0.
        1    1    3    3  502    0 -0.25069921319E+03 -0.13468917235E+03  0.16717810115E+04  0.16958310703E+04  0.50400001928E-02 0. -1.
       -1    1    3    3    0  502  0.25069921319E+03  0.13468917235E+03 -0.19875780196E+04  0.20078490115E+04  0.50400001928E-02 0.  1.
</event>
<event>
 5   0  0.3704306E-07  0.2980018E+04  0.7818609E-02  0.8249460E-01
        1   -1    0    0  501    0  0.00000000000E+00  0.00000000000E+00  0.22036496871E+04  0.22036496871E+04  0.50400001928E-02 0. -1.
       -1   -1    0    0    0  501  0.00000000000E+00  0.00000000000E+00 -0.10074772081E+04  0.10074772082E+04  0.50400001928E-02 0.  1.
    10030    2    1    2    0    0  0.00000000000E+00  0.00000000000E+00  0.11961724789E+04  0.32111268952E+04  0.29800180097E+04 0.  0.
        3    1    3    3  502    0 -0.87190746545E+03  0.22755322701E+03  0.18767577449E+04  0.20818796177E+04  0.10100000352E+00 0. -1.
       -3    1    3    3    0  502  0.87190746545E+03 -0.22755322701E+03 -0.68058526593E+03  0.11292472775E+04  0.10100000352E+00 0.  1.
</event>
<event>
 5   0  0.3764495E-07  0.3688881E+04  0.7818609E-02  0.8070430E-01
        1   -1    0    0  501    0  0.00000000000E+00  0.00000000000E+00  0.14901189480E+04  0.14901189480E+04  0.50400001928E-02 0.  1.
       -1   -1    0    0    0  501  0.00000000000E+00  0.00000000000E+00 -0.22830125410E+04  0.22830125410E+04  0.50400001928E-02 0. -1.
    10030    2    1    2    0    0  0.00000000000E+00  0.00000000000E+00 -0.79289359297E+03  0.37731314890E+04  0.36888807223E+04 0.  0.
        4    1    3    3  502    0  0.16200217705E+04 -0.87351020293E+03 -0.51947704455E+03  0.19124195733E+04  0.12699999809E+01 0. -1.
       -4    1    3    3    0  502 -0.16200217705E+04  0.87351020293E+03 -0.27341654842E+03  0.18607119157E+04  0.12699999809E+01 0.  1.
</event>
<event>
 5   0  0.1092116E-06  0.3656626E+04  0.7818609E-02  0.8077643E-01
        2   -1    0    0  501    0  0.00000000000E+00  0.00000000000E+00  0.14968474632E+04  0.14968474632E+04  0.25500000920E-02 0. -1.
       -2   -1    0    0    0  501  0.00000000000E+00  0.00000000000E+00 -0.22331793197E+04  0.22331793197E+04  0.25500000920E-02 0.  1.
    10030    2    1    2    0    0  0.00000000000E+00  0.00000000000E+00 -0.73633185654E+03  0.37300267829E+04  0.36566262043E+04 0.  0.
        1    1    3    3  502    0  0.27404287962E+03 -0.10807246858E+04  0.11099422757E+04  0.15732250957E+04  0.50400001928E-02 0. -1.
       -1    1    3    3    0  502 -0.27404287962E+03  0.10807246858E+04 -0.18462741322E+04  0.21568016872E+04  0.50400001928E-02 0.  1.
</event>
<event>
 5   0  0.1128166E-06  0.3625717E+04  0.7818609E-02  0.8084626E-01
       -2   -1    0    0    0  501  0.00000000000E+00  0.00000000000E+00  0.19921790843E+04  0.19921790843E+04  0.25500000920E-02 0. -1.
        2   -1    0    0  501    0  0.00000000000E+00  0.00000000000E+00 -0.16496793092E+04  0.16496793092E+04  0.25500000920E-02 0.  1.
    10030    2    1    2    0    0  0.00000000000E+00  0.00000000000E+00  0.34249977505E+03  0.36418583935E+04  0.36257173721E+04 0.  0.
        3    1    3    3  502    0 -0.74846872454E+03  0.14645196962E+04 -0.59466239353E+03  0.17488987234E+04  0.10100000352E+00 0.  1.
       -3    1    3    3    0  502  0.74846872454E+03 -0.14645196962E+04  0.93716216858E+03  0.18929596701E+04  0.10100000352E+00 0. -1.
</event>
<event>
 5   0  0.1092116E-06  0.3617801E+04  0.7818609E-02  0.8086426E-01
        2   -1    0    0  501    0  0.00000000000E+00  0.00000000000E+00  0.18317522329E+04  0.18317522329E+04  0.25500000920E-02 0.  1.
       -2   -1    0    0    0  501  0.00000000000E+00  0.00000000000E+00 -0.17863337814E+04  0.17863337814E+04  0.25500000920E-02 0. -1.
    10030    2    1    2    0    0  0.00000000000E+00  0.00000000000E+00  0.45418451448E+02  0.36180860143E+04  0.36178009303E+04 0.  0.
        1    1    3    3  502    0  0.40649018055E+03 -0.11794887682E+04  0.13326570402E+04  0.18254870057E+04  0.50400001928E-02 0.  1.
       -1    1    3    3    0  502 -0.40649018055E+03  0.11794887682E+04 -0.12872385887E+04  0.17925990086E+04  0.50400001928E-02 0. -1.
</event>
<event>
 5   0  0.1128166E-06  0.3653443E+04  0.7818609E-02  0.8078358E-01
       -2   -1    0    0    0  501  0.00000000000E+00  0.00000000000E+00  0.14979107709E+04  0.14979107709E+04  0.25500000920E-02 0.  1.
        2   -1    0    0  501    0  0.00000000000E+00  0.00000000000E+00 -0.22277109643E+04  0.22277109643E+04  0.25500000920E-02 0. -1.
    10030    2    1    2    0    0  0.00000000000E+00  0.00000000000E+00 -0.72980019334E+03  0.37256217352E+04  0.36534434430E+04 0.  0.
        3    1    3    3  502    0 -0.82307023143E+03 -0.89997208347E+03 -0.17517377904E+04  0.21344740929E+04  0.10100000352E+00 0. -1.
       -3    1    3    3    0  502  0.82307023143E+03  0.89997208347E+03  0.10219375971E+04  0.15911476422E+04  0.10100000352E+00 0.  1.
</event>
<event>
 5   0  0.1051123E-06  0.3709603E+04  0.7818609E-02  0.8065837E-01
        2   -1    0    0  501    0  0.00000000000E+00  0.00000000000E+00  0.18242529560E+04  0.18242529560E+04  0.25500000920E-02 0. -1.
       -2   -1    0    0    0  501  0.00000000000E+00  0.00000000000E+00 -0.18858615900E+04  0.18858615900E+04  0.25500000920E-02 0.  1.
    10030    2    1    2    0    0  0.00000000000E+00  0.00000000000E+00 -0.61608633981E+02  0.37101145459E+04  0.37096029869E+04 0.  0.
        2    1    3    3  502    0 -0.10816591042E+04 -0.46657941189E+03 -0.14636936943E+04  0.18788512438E+04  0.25500000920E-02 0.  1.
       -2    1    3    3    0  502  0.10816591042E+04  0.46657941189E+03  0.14020850604E+04  0.18312633022E+04  0.25500000920E-02 0. -1.
</event>
<event>
 5   0  0.1092116E-06  0.3743116E+04  0.7818609E-02  0.8058473E-01
       -2   -1    0    0    0  501  0.00000000000E+00  0.00000000000E+00  0.13859861301E+04  0.13859861301E+04  0.25500000920E-02 0.  1.
        2   -1    0    0  501    0  0.00000000000E+00  0.00000000000E+00 -0.25272475794E+04  0.25272475794E+04  0.25500000920E-02 0. -1.
    10030    2    1    2    0    0  0.00000000000E+00  0.00000000000E+00 -0.11412614493E+04  0.39132337095E+04  0.37431163981E+04 0.  0.
        1    1    3    3  502    0 -0.77533983577E+03  0.10989992398E+04 -0.19312318101E+04  0.23534246311E+04  0.50400001928E-02 0. -1.
       -1    1    3    3    0  502  0.77533983577E+03 -0.10989992398E+04  0.78997036080E+03  0.15598090784E+04  0.50400001928E-02 0.  1.
</event>
<event>
 5   0  0.3675819E-07  0.3786929E+04  0.7818609E-02  0.8048966E-01
       -1   -1    0    0    0  501  0.00000000000E+00  0.00000000000E+00  0.18098458522E+04  0.18098458522E+04  0.50400001928E-02 0. -1.
        1   -1    0    0  501    0  0.00000000000E+00  0.00000000000E+00 -0.19809467300E+04  0.19809467300E+04  0.50400001928E-02 0.  1.
    10030    2    1    2    0    0  0.00000000000E+00  0.00000000000E+00 -0.17110087785E+03  0.37907925822E+04  0.37869292165E+04 0.  0.
        5    1    3    3  502    0  0.31273811640E+03  0.15444618804E+04  0.96529121140E+03  0.18479655955E+04  0.46999998093E+01 0.  1.
       -5    1    3    3    0  502 -0.31273811640E+03 -0.15444618804E+04 -0.11363920893E+04  0.19428269866E+04  0.46999998093E+01 0. -1.
</event>
<event>
 5   0  0.3675819E-07  0.3506719E+04  0.7818609E-02  0.8112199E-01
       -1   -1    0    0    0  501  0.00000000000E+00  0.00000000000E+00  0.20364241042E+04  0.20364241043E+04  0.50400001928E-02 0.  1.
        1   -1    0    0  501    0  0.00000000000E+00  0.00000000000E+00 -0.15096414345E+04  0.15096414345E+04  0.50400001928E-02 0. -1.
    10030    2    1    2    0    0  0.00000000000E+00  0.00000000000E+00  0.52678266975E+03  0.35460655388E+04  0.35067193820E+04 0.  0.
        5    1    3    3  502    0 -0.11674781638E+04 -0.12181368649E+04  0.74559117509E+03  0.18446655456E+04  0.46999998093E+01 0.  1.
       -5    1    3    3    0  502  0.11674781638E+04  0.12181368649E+04 -0.21880850534E+03  0.17013999932E+04  0.46999998093E+01 0. -1.
</event>
<event>
 5   0  0.1051123E-06  0.2493199E+04  0.7818609E-02  0.8405412E-01
       -2   -1    0    0    0  501  0.00000000000E+00  0.00000000000E+00  0.76475076945E+03  0.76475076945E+03  0.25500000920E-02 0. -1.
        2   -1    0    0  501    0  0.00000000000E+00  0.00000000000E+00 -0.20320479151E+04  0.20320479151E+04  0.25500000920E-02 0.  1.
    10030    2    1    2    0    0  0.00000000000E+00  0.00000000000E+00 -0.12672971456E+04  0.27967986845E+04  0.24931989143E+04 0.  0.
        2    1    3    3  502    0  0.53756311166E+03  0.70954041463E+03 -0.16126074942E+04  0.18419893130E+04  0.25500000920E-02 0.  1.
       -2    1    3    3    0  502 -0.53756311166E+03 -0.70954041463E+03  0.34531034859E+03  0.95480937147E+03  0.25500000920E-02 0. -1.
</event>
<event>
 5   0  0.3704306E-07  0.3736758E+04  0.7818609E-02  0.8059864E-01
       -1   -1    0    0    0  501  0.00000000000E+00  0.00000000000E+00  0.15347679004E+04  0.15347679005E+04  0.50400001928E-02 0.  1.
        1   -1    0    0  501    0  0.00000000000E+00  0.00000000000E+00 -0.22745070877E+04  0.22745070877E+04  0.50400001928E-02 0. -1.
    10030    2    1    2    0    0  0.00000000000E+00  0.00000000000E+00 -0.73973918726E+03  0.38092749882E+04  0.37367582033E+04 0.  0.
        3    1    3    3  502    0  0.10022295369E+04  0.14970692713E+04  0.13487554353E+03  0.18066189056E+04  0.10100000352E+00 0. -1.
       -3    1    3    3    0  502 -0.10022295369E+04 -0.14970692713E+04 -0.87461473079E+03  0.20026560826E+04  0.10100000352E+00 0.  1.
</event>
<event>
 5   0  0.3675819E-07  0.2270402E+04  0.7818609E-02  0.8489684E-01
       -1   -1    0    0    0  501  0.00000000000E+00  0.00000000000E+00  0.11899168181E+04  0.11899168181E+04  0.50400001928E-02 0.  1.
        1   -1    0    0  501    0  0.00000000000E+00  0.00000000000E+00 -0.10830009928E+04  0.10830009928E+04  0.50400001928E-02 0. -1.
    10030    2    1    2    0    0  0.00000000000E+00  0.00000000000E+00  0.10691582529E+03  0.22729178109E+04  0.22704018105E+04 0.  0.
        5    1    3    3  502    0  0.31255398836E+03  0.10908758352E+04  0.22457131619E+02  0.11350006591E+04  0.46999998093E+01 0.  1.
       -5    1    3    3    0  502 -0.31255398836E+03 -0.10908758352E+04  0.84458693675E+02  0.11379171518E+04  0.46999998093E+01 0. -1.
</event>
<event>
 5   0  0.1128530E-06  0.3622946E+04  0.7818609E-02  0.8085256E-01
       -2   -1    0    0    0  501  0.00000000000E+00  0.00000000000E+00  0.13996910994E+04  0.13996910994E+04  0.25500000920E-02 0. -1.
        2   -1    0    0  501    0  0.00000000000E+00  0.00000000000E+00 -0.23443990611E+04  0.23443990611E+04  0.25500000920E-02 0.  1.
    10030    2    1    2    0    0  0.00000000000E+00  0.00000000000E+00 -0.94470796178E+03  0.37440901605E+04  0.36229460384E+04 0.  0.
        5    1    3    3  502    0  0.15717990541E+04 -0.86678256044E+03 -0.72453855461E+03  0.19356762335E+04  0.46999998093E+01 0.  1.
       -5    1    3    3    0  502 -0.15717990541E+04  0.86678256044E+03 -0.22016940716E+03  0.18084139270E+04  0.46999998093E+01 0. -1.
</event>
<event>
 5   0  0.1128166E-06  0.3634889E+04  0.7818609E-02  0.8082546E-01
        2   -1    0    0  501    0  0.00000000000E+00  0.00000000000E+00  0.23851458294E+04  0.23851458294E+04  0.25500000920E-02 0. -1.
       -2   -1    0    0    0  501  0.00000000000E+00  0.00000000000E+00 -0.13848647914E+04  0.13848647914E+04  0.25500000920E-02 0.  1.
    10030    2    1    2    0    0  0.00000000000E+00  0.00000000000E+00  0.10002810380E+04  0.37700106209E+04  0.36348889841E+04 0.  0.
        3    1    3    3  502    0 -0.16834993957E+04 -0.43116288682E+03 -0.51644394926E+02  0.17386025434E+04  0.10100000352E+00 0. -1.
       -3    1    3    3    0  502  0.16834993957E+04  0.43116288682E+03  0.10519254329E+04  0.20314080774E+04  0.10100000352E+00 0.  1.
</event>
<event>
 5   0  0.1051123E-06  0.3672507E+04  0.7818609E-02  0.8074082E-01
        2   -1    0    0  501    0  0.00000000000E+00  0.00000000000E+00  0.11662257954E+04  0.11662257954E+04  0.25500000920E-02 0.  1.
       -2   -1    0    0    0  501  0.00000000000E+00  0.00000000000E+00 -0.28912302668E+04  0.28912302668E+04  0.25500000920E-02 0. -1.
    10030    2    1    2    0    0  0.00000000000E+00  0.00000000000E+00 -0.17250044714E+04  0.40574560623E+04  0.36725072186E+04 0.  0.
        2    1    3    3  502    0  0.44097919280E+03 -0.12177163959E+04 -0.23006913065E+04  0.26401659715E+04  0.25500000920E-02 0. -1.
       -2    1    3    3    0  502 -0.44097919280E+03  0.12177163959E+04  0.57568683503E+03  0.14172900908E+04  0.25500000920E-02 0.  1.
</event>
<event>
 5   0  0.3704306E-07  0.4329009E+04  0.7818609E-02  0.7941276E-01
       -1   -1    0    0    0  501  0.00000000000E+00  0.00000000000E+00  0.21654038243E+04  0.21654038243E+04  0.50400001928E-02 0. -1.
        1   -1    0    0  501    0  0.00000000000E+00  0.00000000000E+00 -0.21636051077E+04  0.21636051077E+04  0.50400001928E-02 0.  1.
    10030    2    1    2    0    0  0.00000000000E+00  0.00000000000E+00  0.17987165978E+01  0.43290089320E+04  0.43290085583E+04 0.  0.
        3    1    3    3  502    0 -0.80254517322E+02  0.95410026830E+03 -0.19403196673E+04  0.21636978835E+04  0.10100000352E+00 0.  1.
       -3    1    3    3    0  502  0.80254517322E+02 -0.95410026830E+03  0.19421183839E+04  0.21653110485E+04  0.10100000352E+00 0. -1.
</event>
<event>
 5   0  0.1092116E-06  0.3676558E+04  0.7818609E-02  0.8073177E-01
       -2   -1    0    0    0  501  0.00000000000E+00  0.00000000000E+00  0.18482662087E+04  0.18482662087E+04  0.25500000920E-02 0.  1.
        2   -1    0    0  501    0  0.00000000000E+00  0.00000000000E+00 -0.18283461177E+04  0.18283461177E+04  0.25500000920E-02 0. -1.
    10030    2    1    2    0    0  0.00000000000E+00  0.00000000000E+00  0.19920090991E+02  0.36766123264E+04  0.36765583619E+04 0.  0.
        1    1    3    3  502    0 -0.10488336388E+04 -0.92911802519E+03  0.11999178630E+04  0.18447534211E+04  0.50400001928E-02 0.  1.
       -1    1    3    3    0  502  0.10488336388E+04  0.92911802519E+03 -0.11799977720E+04  0.18318589052E+04  0.50400001928E-02 0. -1.
</event>
<event>
 5   0  0.3848431E-07  0.2422504E+04  0.7818609E-02  0.8431126E-01
       -1   -1    0    0    0  501  0.00000000000E+00  0.00000000000E+00  0.79837350967E+03  0.79837350969E+03  0.50400001928E-02 0. -1.
        1   -1    0    0  501    0  0.00000000000E+00  0.00000000000E+00 -0.18376498907E+04  0.18376498907E+04  0.50400001928E-02 0.  1.
    10030    2    1    2    0    0  0.00000000000E+00  0.00000000000E+00 -0.10392763810E+04  0.26360234004E+04  0.24225036576E+04 0.  0.
        2    1    3    3  502    0 -0.36171108552E+02  0.12104851977E+04 -0.49416014254E+03  0.13079667463E+04  0.25500000920E-02 0. -1.
       -2    1    3    3    0  502  0.36171108552E+02 -0.12104851977E+04 -0.54511623845E+03  0.13280566541E+04  0.25500000920E-02 0.  1.
</event>
<event>
 5   0  0.3675819E-07  0.3486771E+04  0.7818609E-02  0.8116932E-01
       -1   -1    0    0    0  501  0.00000000000E+00  0.00000000000E+00  0.10717408656E+04  0.10717408656E+04  0.50400001928E-02 0.  1.
        1   -1    0    0  501    0  0.00000000000E+00  0.00000000000E+00 -0.28359398446E+04  0.28359398446E+04  0.50400001928E-02 0. -1.
    10030    2    1    2    0    0  0.00000000000E+00  0.00000000000E+00 -0.17641989790E+04  0.39076807102E+04  0.34867707833E+04 0.  0.
        5    1    3    3  502    0  0.57888978936E+03  0.14949941895E+04 -0.16498101846E+04  0.23004383821E+04  0.46999998093E+01 0. -1.
       -5    1    3    3    0  502 -0.57888978936E+03 -0.14949941895E+04 -0.11438879435E+03  0.16072423280E+04  0.46999998093E+01 0.  1.
</event>
<event>
 5   0  0.3675819E-07  0.3219103E+04  0.7818609E-02  0.8183790E-01
        1   -1    0    0  501    0  0.00000000000E+00  0.00000000000E+00  0.18105087762E+04  0.18105087762E+04  0.50400001928E-02 0.  1.
       -1   -1    0    0    0  501  0.00000000000E+00  0.00000000000E+00 -0.14308996469E+04  0.14308996469E+04  0.50400001928E-02 0. -1.
    10030    2    1    2    0    0  0.00000000000E+00  0.00000000000E+00  0.37960912935E+03  0.32414084231E+04  0.32191032097E+04 0.  0.
        5    1    3    3  502    0  0.11535558372E+03 -0.30146907946E+03  0.17775766989E+04  0.18066520215E+04  0.46999998093E+01 0.  1.
       -5    1    3    3    0  502 -0.11535558372E+03  0.30146907946E+03 -0.13979675695E+04  0.14347564016E+04  0.46999998093E+01 0. -1.
</event>
<event>
 5   0  0.3848431E-07  0.3436866E+04  0.7818609E-02  0.8128917E-01
        1   -1    0    0  501    0  0.00000000000E+00  0.00000000000E+00  0.26233669272E+04  0.26233669272E+04  0.50400001928E-02 0.  1.
       -1   -1    0    0    0  501  0.00000000000E+00  0.00000000000E+00 -0.11256575168E+04  0.11256575168E+04  0.50400001928E-02 0. -1.
    10030    2    1    2    0    0  0.00000000000E+00  0.00000000000E+00  0.14977094104E+04  0.37490244440E+04  0.34368664222E+04 0.  0.
        2    1    3    3  502    0  0.13984148002E+04  0.42944055408E+03  0.17324326605E+04  0.22674448319E+04  0.25500000920E-02 0.  1.
       -2    1    3    3    0  502 -0.13984148002E+04 -0.42944055408E+03 -0.23472325002E+03  0.14815796121E+04  0.25500000920E-02 0. -1.
</event>
<event>
 5   0  0.1066907E-06  0.2935193E+04  0.7818609E-02  0.8262483E-01
        2   -1    0    0  501    0  0.00000000000E+00  0.00000000000E+00  0.18943087211E+04  0.18943087211E+04  0.25500000920E-02 0.  1.
       -2   -1    0    0    0  501  0.00000000000E+00  0.00000000000E+00 -0.11370056766E+04  0.11370056766E+04  0.25500000920E-02 0. -1.
    10030    2    1    2    0    0  0.00000000000E+00  0.00000000000E+00  0.75730304452E+03  0.30313143978E+04  0.29351931924E+04 0.  0.
        4    1    3    3  502    0 -0.22942698041E+03 -0.10793393657E+04 -0.62062363829E+03  0.12660116583E+04  0.12699999809E+01 0. -1.
       -4    1    3    3    0  502  0.22942698041E+03  0.10793393657E+04  0.13779266828E+04  0.17653027394E+04  0.12699999809E+01 0.  1.
</event>
<event>
 5   0  0.3764495E-07  0.3534319E+04  0.7818609E-02  0.8105705E-01
        1   -1    0    0  501    0  0.00000000000E+00  0.00000000000E+00  0.16503933586E+04  0.16503933586E+04  0.50400001928E-02 0. -1.
       -1   -1    0    0    0  501  0.00000000000E+00  0.00000000000E+00 -0.18921867213E+04  0.18921867213E+04  0.50400001928E-02 0.  1.
    10030    2    1    2    0    0  0.00000000000E+00  0.00000000000E+00 -0.24179336272E+03  0.35425800800E+04  0.35343188301E+04 0.  0.
        4    1    3    3  502    0  0.13991368411E+04  0.44629602568E+03  0.86429789631E+03  0.17040470971E+04  0.12699999809E+01 0. -1.
       -4    1    3    3    0  502 -0.13991368411E+04 -0.44629602568E+03 -0.11060912590E+04  0.18385329828E+04  0.12699999809E+01 0.  1.
</event>
<event>
 5   0  0.3675819E-07  0.3750545E+04  0.7818609E-02  0.8056852E-01
       -1   -1    0    0    0  501  0.00000000000E+00  0.00000000000E+00  0.33309554866E+04  0.33309554866E+04  0.50400001928E-02 0.  1.
        1   -1    0    0  501    0  0.00000000000E+00  0.00000000000E+00 -0.10557470591E+04  0.10557470591E+04  0.50400001928E-02 0. -1.
    10030    2    1    2    0    0  0.00000000000E+00  0.00000000000E+00  0.22752084275E+04  0.43867025457E+04  0.37505447385E+04 0.  0.
        5    1    3    3  502    0  0.70927719895E+02  0.11593630130E+04 -0.58434558996E+03  0.13002442832E+04  0.46999998093E+01 0. -1.
       -5    1    3    3    0  502 -0.70927719895E+02 -0.11593630130E+04  0.28595540175E+04  0.30864582625E+04  0.46999998093E+01 0.  1.
</event>
<event>
 5   0  0.3848431E-07  0.3705780E+04  0.7818609E-02  0.8066682E-01
       -1   -1    0    0    0  501  0.00000000000E+00  0.00000000000E+00  0.14904148285E+04  0.14904148285E+04  0.50400001928E-02 0.  1.
        1   -1    0    0  501    0  0.00000000000E+00  0.00000000000E+00 -0.23035201025E+04  0.23035201025E+04  0.50400001928E-02 0. -1.
    10030    2    1    2    0    0  0.00000000000E+00  0.00000000000E+00 -0.81310527395E+03  0.37939349310E+04  0.37057795501E+04 0.  0.
        2    1    3    3  502    0  0.15720976513E+04  0.27623947089E+03 -0.13698943430E+04  0.21034281023E+04  0.25500000920E-02 0. -1.
       -2    1    3    3    0  502 -0.15720976513E+04 -0.27623947089E+03  0.55678906908E+03  0.16905068287E+04  0.25500000920E-02 0.  1.
</event>
<event>
 5   0  0.1092116E-06  0.3157678E+04  0.7818609E-02  0.8200085E-01
        2   -1    0    0  501    0  0.00000000000E+00  0.00000000000E+00  0.16517149821E+04  0.16517149821E+04  0.25500000920E-02 0. -1.
       -2   -1    0    0    0  501  0.00000000000E+00  0.00000000000E+00 -0.15091785858E+04  0.15091785859E+04  0.25500000920E-02 0.  1.
    10030    2    1    2    0    0  0.00000000000E+00  0.00000000000E+00  0.14253639628E+03  0.31608935680E+04  0.31576781856E+04 0.  0.
        1    1    3    3  502    0 -0.14603410430E+04  0.52833764745E+03 -0.21362000141E+03  0.15676001201E+04  0.50400001928E-02 0.  1.
       -1    1    3    3    0  502  0.14603410430E+04 -0.52833764745E+03  0.35615639770E+03  0.15932934479E+04  0.50400001928E-02 0. -1.
</event>
<event>
 5   0  0.1128166E-06  0.3806367E+04  0.7818609E-02  0.8044790E-01
       -2   -1    0    0    0  501  0.00000000000E+00  0.00000000000E+00  0.15332472680E+04  0.15332472680E+04  0.25500000920E-02 0.  1.
        2   -1    0    0  501    0  0.00000000000E+00  0.00000000000E+00 -0.23623764049E+04  0.23623764049E+04  0.25500000920E-02 0. -1.
    10030    2    1    2    0    0  0.00000000000E+00  0.00000000000E+00 -0.82912913697E+03  0.38956236729E+04  0.38063668603E+04 0.  0.
        3    1    3    3  502    0  0.46918049965E+03 -0.11724358130E+03  0.14693137296E+04  0.15468546295E+04  0.10100000352E+00 0.  1.
       -3    1    3    3    0  502 -0.46918049965E+03  0.11724358130E+03 -0.22984428665E+04  0.23487690435E+04  0.10100000352E+00 0. -1.
</event>
<event>
 5   0  0.1128166E-06  0.3717342E+04  0.7818609E-02  0.8064129E-01
       -2   -1    0    0    0  501  0.00000000000E+00  0.00000000000E+00  0.17422222807E+04  0.17422222807E+04  0.25500000920E-02 0.  1.
        2   -1    0    0  501    0  0.00000000000E+00  0.00000000000E+00 -0.19829032083E+04  0.19829032083E+04  0.25500000920E-02 0. -1.
    10030    2    1    2    0    0  0.00000000000E+00  0.00000000000E+00 -0.24068092757E+03  0.37251254890E+04  0.37173421419E+04 0.  0.
        3    1    3    3  502    0  0.15158526086E+04 -0.10638196185E+04 -0.27921840806E+03  0.18728278728E+04  0.10100000352E+00 0. -1.
       -3    1    3    3    0  502 -0.15158526086E+04  0.10638196185E+04  0.38537480492E+02  0.18522976162E+04  0.10100000352E+00 0.  1.
</event>
<event>
 5   0  0.3682276E-07  0.3630492E+04  0.7818609E-02  0.8083543E-01
        1   -1    0    0  501    0  0.00000000000E+00  0.00000000000E+00  0.27457110971E+04  0.27457110971E+04  0.50400001928E-02 0.  1.
       -1   -1    0    0    0  501  0.00000000000E+00  0.00000000000E+00 -0.12000961933E+04  0.12000961933E+04  0.50400001928E-02 0. -1.
    10030    2    1    2    0    0  0.00000000000E+00  0.00000000000E+00  0.15456149039E+04  0.39458072904E+04  0.36304916667E+04 0.  0.
        1    1    3    3  502    0 -0.16863008408E+03 -0.63598439863E+03  0.26115495017E+04  0.26931585657E+04  0.50400001928E-02 0.  1.
       -1    1    3    3    0  502  0.16863008408E+03  0.63598439863E+03 -0.10659345978E+04  0.12526487247E+04  0.50400001928E-02 0. -1.
</event>
<event>
 5   0  0.1092116E-06  0.3664043E+04  0.7818609E-02  0.8075977E-01
        2   -1    0    0  501    0  0.00000000000E+00  0.00000000000E+00  0.22303474718E+04  0.22303474718E+04  0.25500000920E-02 0.  1.
       -2   -1    0    0    0  501  0.00000000000E+00  0.00000000000E+00 -0.15048343632E+04  0.15048343632E+04  0.25500000920E-02 0. -1.
    10030    2    1    2    0    0  0.00000000000E+00  0.00000000000E+00  0.72551310867E+03  0.37351818350E+04  0.36640434044E+04 0.  0.
        1    1    3    3  502    0  0.14983801113E+03 -0.42998220631E+03 -0.14462295080E+04  0.15162176351E+04  0.50400001928E-02 0. -1.
       -1    1    3    3    0  502 -0.14983801113E+03  0.42998220631E+03  0.21717426166E+04  0.22189641999E+04  0.50400001928E-02 0.  1.
</event>
<event>
 5   0  0.3848431E-07  0.2516187E+04  0.7818609E-02  0.8397242E-01
        1   -1    0    0  501    0  0.00000000000E+00  0.00000000000E+00  0.11551085188E+04  0.11551085188E+04  0.50400001928E-02 0.  1.
       -1   -1    0    0    0  501  0.00000000000E+00  0.00000000000E+00 -0.13702599811E+04  0.13702599811E+04  0.50400001928E-02 0. -1.
    10030    2    1    2    0    0  0.00000000000E+00  0.00000000000E+00 -0.21515146235E+03  0.25253684999E+04  0.25161867793E+04 0.  0.
        2    1    3    3  502    0  0.86325579016E+03  0.34418120629E+03 -0.95868416929E+03  0.13351953409E+04  0.25500000920E-02 0. -1.
       -2    1    3    3    0  502 -0.86325579016E+03 -0.34418120629E+03  0.74353270694E+03  0.11901731590E+04  0.25500000920E-02 0.  1.
</event>
<event>
 5   0  0.3704306E-07  0.3512094E+04  0.7818609E-02  0.8110930E-01
        1   -1    0    0  501    0  0.00000000000E+00  0.00000000000E+00  0.18891777288E+04  0.18891777288E+04  0.50400001928E-02 0. -1.
       -1   -1    0    0    0  501  0.00000000000E+00  0.00000000000E+00 -0.16322984000E+04  0.16322984000E+04  0.50400001928E-02 0.  1.
    10030    2    1    2    0    0  0.00000000000E+00  0.00000000000E+00  0.25687932886E+03  0.35214761288E+04  0.35120944088E+04 0.  0.
        3    1    3    3  502    0 -0.41233976040E+03  0.25799965424E+03  0.18202862761E+04  0.18841523391E+04  0.10100000352E+00 0. -1.
       -3    1    3    3    0  502  0.41233976040E+03 -0.25799965424E+03 -0.15634069473E+04  0.16373237898E+04  0.10100000352E+00 0.  1.
</event>
<event>
 5   0  0.3490375E-07  0.3556933E+04  0.7818609E-02  0.8100429E-01
       -3   -1    0    0    0  501  0.00000000000E+00  0.00000000000E+00  0.14231176307E+04  0.14231176343E+04  0.10100000352E+00 0. -1.
        3   -1    0    0  501    0  0.00000000000E+00  0.00000000000E+00 -0.22225445562E+04  0.22225445585E+04  0.10100000352E+00 0.  1.
    10030    2    1    2    0    0  0.00000000000E+00  0.00000000000E+00 -0.79942692548E+03  0.36456621928E+04  0.35569325850E+04 0.  0.
        4    1    3    3  502    0  0.13639326207E+04 -0.86468947237E+03  0.36381294933E+03  0.16554037430E+04  0.12699999809E+01 0. -1.
       -4    1    3    3    0  502 -0.13639326207E+04  0.86468947237E+03 -0.11632398748E+04  0.19902584497E+04  0.12699999809E+01 0.  1.
</event>
<event>
 5   0  0.1051123E-06  0.3668156E+04  0.7818609E-02  0.8075056E-01
       -2   -1    0    0    0  501  0.00000000000E+00  0.00000000000E+00  0.31627555433E+04  0.31627555433E+04  0.25500000920E-02 0. -1.
        2   -1    0    0  501    0  0.00000000000E+00  0.00000000000E+00 -0.10635797937E+04  0.10635797937E+04  0.25500000920E-02 0.  1.
    10030    2    1    2    0    0  0.00000000000E+00  0.00000000000E+00  0.20991757496E+04  0.42263353370E+04  0.36681564242E+04 0.  0.
        2    1    3    3  502    0  0.29481953160E+03 -0.11760198484E+04  0.26351921811E+04  0.29007204401E+04  0.25500000920E-02 0. -1.
       -2    1    3    3    0  502 -0.29481953160E+03  0.11760198484E+04 -0.53601643152E+03  0.13256148969E+04  0.25500000920E-02 0.  1.
</event>
<event>
 5   0  0.1066907E-06  0.3673630E+04  0.7818609E-02  0.8073831E-01
       -2   -1    0    0    0  501  0.00000000000E+00  0.00000000000E+00  0.16816754698E+04  0.16816754698E+04  0.25500000920E-02 0.  1.
        2   -1    0    0  501    0  0.00000000000E+00  0.00000000000E+00 -0.20062661497E+04  0.20062661497E+04  0.25500000920E-02 0. -1.
    10030    2    1    2    0    0  0.00000000000E+00  0.00000000000E+00 -0.32459067995E+03  0.36879416195E+04  0.36736295784E+04 0.  0.
        4    1    3    3  502    0 -0.12555963613E+04  0.13195784505E+04 -0.40002468420E+03  0.18648943323E+04  0.12699999809E+01 0.  1.
       -4    1    3    3    0  502  0.12555963613E+04 -0.13195784505E+04  0.75434004258E+02  0.18230472872E+04  0.12699999809E+01 0. -1.
</event>
<event>
 5   0  0.1128166E-06  0.2300504E+04  0.7818609E-02  0.8477722E-01
       -2   -1    0    0    0  501  0.00000000000E+00  0.00000000000E+00  0.52758496092E+03  0.52758496092E+03  0.25500000920E-02 0. -1.
        2   -1    0    0  501    0  0.00000000000E+00  0.00000000000E+00 -0.25078042179E+04  0.25078042179E+04  0.25500000920E-02 0.  1.
    10030    2    1    2    0    0  0.00000000000E+00  0.00000000000E+00 -0.19802192570E+04  0.30353891789E+04  0.23005041102E+04 0.  0.
        3    1    3    3  502    0 -0.10392036292E+04 -0.44713715358E+03 -0.71585550839E+03  0.13387774035E+04  0.10100000352E+00 0. -1.
       -3    1    3    3    0  502  0.10392036292E+04  0.44713715358E+03 -0.12643637486E+04  0.16966117753E+04  0.10100000352E+00 0.  1.
</event>
<event>
 5   0  0.3848432E-07  0.2320107E+04  0.7818609E-02  0.8470035E-01
       -1   -1    0    0    0  501  0.00000000000E+00  0.00000000000E+00  0.78087000936E+03  0.78087000938E+03  0.50400001928E-02 0.  1.
        1   -1    0    0  501    0  0.00000000000E+00  0.00000000000E+00 -0.17233648449E+04  0.17233648449E+04  0.50400001928E-02 0. -1.
    10030    2    1    2    0    0  0.00000000000E+00  0.00000000000E+00 -0.94249483552E+03  0.25042348543E+04  0.23201068274E+04 0.  0.
        2    1    3    3  502    0 -0.90830585284E+03 -0.59313594773E+03 -0.27664948172E+02  0.10851705507E+04  0.25500000920E-02 0.  1.
       -2    1    3    3    0  502  0.90830585284E+03  0.59313594773E+03 -0.91482988734E+03  0.14190643035E+04  0.25500000920E-02 0. -1.
</event>
<event>
 5   0  0.1066907E-06  0.3702870E+04  0.7818609E-02  0.8067326E-01
       -2   -1    0    0    0  501  0.00000000000E+00  0.00000000000E+00  0.18674014662E+04  0.18674014662E+04  0.25500000920E-02 0.  1.
        2   -1    0    0  501    0  0.00000000000E+00  0.00000000000E+00 -0.18356045682E+04  0.18356045682E+04  0.25500000920E-02 0. -1.
    10030    2    1    2    0    0  0.00000000000E+00  0.00000000000E+00  0.31796898019E+02  0.37030060343E+04  0.37028695153E+04 0.  0.
        4    1    3    3  502    0 -0.68516908249E+03 -0.72553476379E+03 -0.15436306503E+04  0.18381116839E+04  0.12699999809E+01 0. -1.
       -4    1    3    3    0  502  0.68516908249E+03  0.72553476379E+03  0.15754275484E+04  0.18648943504E+04  0.12699999809E+01 0.  1.
</event>
<event>
 5   0  0.1092116E-06  0.3631480E+04  0.7818609E-02  0.8083319E-01
       -2   -1    0    0    0  501  0.00000000000E+00  0.00000000000E+00  0.16643437248E+04  0.16643437248E+04  0.25500000920E-02 0. -1.
        2   -1    0    0  501    0  0.00000000000E+00  0.00000000000E+00 -0.19809075831E+04  0.19809075831E+04  0.25500000920E-02 0.  1.
    10030    2    1    2    0    0  0.00000000000E+00  0.00000000000E+00 -0.31656385834E+03  0.36452513079E+04  0.36314796463E+04 0.  0.
        1    1    3    3  502    0 -0.17323096956E+04  0.45693709611E+03  0.13817298818E+03  0.17968806766E+04  0.50400001928E-02 0.  1.
       -1    1    3    3    0  502  0.17323096956E+04 -0.45693709611E+03 -0.45473684652E+03  0.18483706313E+04  0.50400001928E-02 0. -1.
</event>
<event>
 5   0  0.3682276E-07  0.3737306E+04  0.7818609E-02  0.8059744E-01
        1   -1    0    0  501    0  0.00000000000E+00  0.00000000000E+00  0.26601472939E+04  0.26601472939E+04  0.50400001928E-02 0.  1.
       -1   -1    0    0    0  501  0.00000000000E+00  0.00000000000E+00 -0.13126584428E+04  0.13126584428E+04  0.50400001928E-02 0. -1.
    10030    2    1    2    0    0  0.00000000000E+00  0.00000000000E+00  0.13474888511E+04  0.39728057367E+04  0.37373064120E+04 0.  0.
        1    1    3    3  502    0  0.91841837747E+03  0.25239878623E+03  0.23827400507E+04  0.25660568217E+04  0.50400001928E-02 0.  1.
       -1    1    3    3    0  502 -0.91841837747E+03 -0.25239878623E+03 -0.10352511996E+04  0.14067489149E+04  0.50400001928E-02 0. -1.
</event>
<event>
 5   0  0.3675819E-07  0.2313984E+04  0.7818609E-02  0.8472428E-01
        1   -1    0    0  501    0  0.00000000000E+00  0.00000000000E+00  0.71865486884E+03  0.71865486886E+03  0.50400001928E-02 0.  1.
       -1   -1    0    0    0  501  0.00000000000E+00  0.00000000000E+00 -0.18626895077E+04  0.18626895078E+04  0.50400001928E-02 0. -1.
    10030    2    1    2    0    0  0.00000000000E+00  0.00000000000E+00 -0.11440346389E+04  0.25813443766E+04  0.23139843421E+04 0.  0.
        5    1    3    3  502    0  0.66869723069E+03 -0.47294691871E+02  0.47991832362E+03  0.82446131599E+03  0.46999998093E+01 0.  1.
       -5    1    3    3    0  502 -0.66869723069E+03  0.47294691871E+02 -0.16239529625E+04  0.17568830606E+04  0.46999998093E+01 0. -1.
</event>
<event>
 5   0  0.1128530E-06  0.3709420E+04  0.7818609E-02  0.8065877E-01
       -2   -1    0    0    0  501  0.00000000000E+00  0.00000000000E+00  0.23876036771E+04  0.23876036771E+04  0.25500000920E-02 0. -1.
        2   -1    0    0  501    0  0.00000000000E+00  0.00000000000E+00 -0.14407538520E+04  0.14407538520E+04  0.25500000920E-02 0.  1.
    10030    2    1    2    0    0  0.00000000000E+00  0.00000000000E+00  0.94684982513E+03  0.38283575291E+04  0.37094200058E+04 0.  0.
        5    1    3    3  502    0  0.17103241490E+04  0.36402743130E+03  0.11114727001E+04  0.20719841502E+04  0.46999998093E+01 0. -1.
       -5    1    3    3    0  502 -0.17103241490E+04 -0.36402743130E+03 -0.16462287502E+03  0.17563733790E+04  0.46999998093E+01 0.  1.
</event>
<event>
 5   0  0.1128530E-06  0.3766370E+04  0.7818609E-02  0.8053410E-01
        2   -1    0    0  501    0  0.00000000000E+00  0.00000000000E+00  0.26944073626E+04  0.26944073626E+04  0.25500000920E-02 0. -1.
       -2   -1    0    0    0  501  0.00000000000E+00  0.00000000000E+00 -0.13162027139E+04  0.13162027139E+04  0.25500000920E-02 0.  1.
    10030    2    1    2    0    0  0.00000000000E+00  0.00000000000E+00  0.13782046487E+04  0.40106100765E+04  0.37663702861E+04 0.  0.
        5    1    3    3  502    0 -0.15471401801E+04 -0.97456572527E+03  0.20939696093E+03  0.18404592544E+04  0.46999998093E+01 0.  1.
       -5    1    3    3    0  502  0.15471401801E+04  0.97456572527E+03  0.11688076878E+04  0.21701508221E+04  0.46999998093E+01 0. -1.
</event>
<event>
 5   0  0.1128530E-06  0.3708506E+04  0.7818609E-02  0.8066079E-01
        2   -1    0    0  501    0  0.00000000000E+00  0.00000000000E+00  0.14166934731E+04  0.14166934731E+04  0.25500000920E-02 0. -1.
       -2   -1    0    0    0  501  0.00000000000E+00  0.00000000000E+00 -0.24269565028E+04  0.24269565028E+04  0.25500000920E-02 0.  1.
    10030    2    1    2    0    0  0.00000000000E+00  0.00000000000E+00 -0.10102630297E+04  0.38436499758E+04  0.37085055949E+04 0.  0.
        5    1    3    3  502    0  0.17892012146E+04  0.39509582749E+03 -0.21035602865E+03  0.18443463471E+04  0.46999998093E+01 0.  1.
       -5    1    3    3    0  502 -0.17892012146E+04 -0.39509582749E+03 -0.79990700107E+03  0.19993036287E+04  0.46999998093E+01 0. -1.
</event>
<event>
 5   0  0.1066907E-06  0.2886749E+04  0.7818609E-02  0.8276831E-01
        2   -1    0    0  501    0  0.00000000000E+00  0.00000000000E+00  0.16928356813E+04  0.16928356813E+04  0.25500000920E-02 0. -1.
       -2   -1    0    0    0  501  0.00000000000E+00  0.00000000000E+00 -0.12306746403E+04  0.12306746403E+04  0.25500000920E-02 0.  1.
    10030    2    1    2    0    0  0.00000000000E+00  0.00000000000E+00  0.46216104098E+03  0.29235103216E+04  0.28867489972E+04 0.  0.
        4    1    3    3  502    0 -0.59976523533E+03  0.19919373092E+03  0.15452696288E+04  0.16695078073E+04  0.12699999809E+01 0. -1.
       -4    1    3    3    0  502  0.59976523533E+03 -0.19919373092E+03 -0.10831085878E+04  0.12540025143E+04  0.12699999809E+01 0.  1.
</event>
<event>
 5   0  0.1066907E-06  0.3664028E+04  0.7818609E-02  0.8075981E-01
        2   -1    0    0  501    0  0.00000000000E+00  0.00000000000E+00  0.23626990180E+04  0.23626990180E+04  0.25500000920E-02 0.  1.
       -2   -1    0    0    0  501  0.00000000000E+00  0.00000000000E+00 -0.14205256291E+04  0.14205256291E+04  0.25500000920E-02 0. -1.
    10030    2    1    2    0    0  0.00000000000E+00  0.00000000000E+00  0.94217338890E+03  0.37832246470E+04  0.36640275702E+04 0.  0.
        4    1    3    3  502    0  0.14703586844E+04  0.21485560754E+03 -0.63529177456E+03  0.16160800861E+04  0.12699999809E+01 0. -1.
       -4    1    3    3    0  502 -0.14703586844E+04 -0.21485560754E+03  0.15774651635E+04  0.21671445609E+04  0.12699999809E+01 0.  1.
</event>
<event>
 5   0  0.3675819E-07  0.2312268E+04  0.7818609E-02  0.8473100E-01
        1   -1    0    0  501    0  0.00000000000E+00  0.00000000000E+00  0.98218275752E+03  0.98218275754E+03  0.50400001928E-02 0.  1.
       -1   -1    0    0    0  501  0.00000000000E+00  0.00000000000E+00 -0.13608935648E+04  0.13608935648E+04  0.50400001928E-02 0. -1.
    10030    2    1    2    0    0  0.00000000000E+00  0.00000000000E+00 -0.37871080726E+03  0.23430763223E+04  0.23122683185E+04 0.  0.
        5    1    3    3  502    0  0.76322105052E+03  0.61679513851E+03 -0.80879505125E+03  0.12716580278E+04  0.46999998093E+01 0. -1.
       -5    1    3    3    0  502 -0.76322105052E+03 -0.61679513851E+03  0.43008424399E+03  0.10714182945E+04  0.46999998093E+01 0.  1.
</event>
<event>
 5   0  0.1128166E-06  0.3605088E+04  0.7818609E-02  0.8089327E-01
       -2   -1    0    0    0  501  0.00000000000E+00  0.00000000000E+00  0.19815839852E+04  0.19815839852E+04  0.25500000920E-02 0.  1.
        2   -1    0    0  501    0  0.00000000000E+00  0.00000000000E+00 -0.16396804067E+04  0.16396804067E+04  0.25500000920E-02 0. -1.
    10030    2    1    2    0    0  0.00000000000E+00  0.00000000000E+00  0.34190357852E+03  0.36212643918E+04  0.36050877574E+04 0.  0.
        3    1    3    3  502    0 -0.16439416099E+04 -0.29970963361E+03  0.84985028568E+03  0.18747307538E+04  0.10100000352E+00 0.  1.
       -3    1    3    3    0  502  0.16439416099E+04  0.29970963361E+03 -0.50794670716E+03  0.17465336380E+04  0.10100000352E+00 0. -1.
</event>
<event>
 5   0  0.1051123E-06  0.3701362E+04  0.7818609E-02  0.8067660E-01
        2   -1    0    0  501    0  0.00000000000E+00  0.00000000000E+00  0.22010535489E+04  0.22010535489E+04  0.25500000920E-02 0.  1.
       -2   -1    0    0    0  501  0.00000000000E+00  0.00000000000E+00 -0.15560822179E+04  0.15560822179E+04  0.25500000920E-02 0. -1.
    10030    2    1    2    0    0  0.00000000000E+00  0.00000000000E+00  0.64497133098E+03  0.37571357667E+04  0.37013620671E+04 0.  0.
        2    1    3    3  502    0  0.10342606453E+04 -0.26675862764E+03  0.18566047025E+04  0.21419234975E+04  0.25500000920E-02 0.  1.
       -2    1    3    3    0  502 -0.10342606453E+04  0.26675862764E+03 -0.12116333715E+04  0.16152122693E+04  0.25500000920E-02 0. -1.
</event>
<event>
 5   0  0.3704306E-07  0.3710529E+04  0.7818609E-02  0.8065632E-01
       -1   -1    0    0    0  501  0.00000000000E+00  0.00000000000E+00  0.13432002791E+04  0.13432002791E+04  0.50400001928E-02 0. -1.
        1   -1    0    0  501    0  0.00000000000E+00  0.00000000000E+00 -0.25625415337E+04  0.25625415337E+04  0.50400001928E-02 0.  1.
    10030    2    1    2    0    0  0.00000000000E+00  0.00000000000E+00 -0.12193412546E+04  0.39057418128E+04  0.37105290746E+04 0.  0.
        3    1    3    3  502    0  0.10133098358E+04  0.22357633611E+03 -0.22285100265E+04  0.24582595774E+04  0.10100000352E+00 0.  1.
       -3    1    3    3    0  502 -0.10133098358E+04 -0.22357633611E+03  0.10091687719E+04  0.14474822354E+04  0.10100000352E+00 0. -1.
</event>
<event>
 5   0  0.1128530E-06  0.3660128E+04  0.7818609E-02  0.8076856E-01
        2   -1    0    0  501    0  0.00000000000E+00  0.00000000000E+00  0.16205117816E+04  0.16205117816E+04  0.25500000920E-02 0.  1.
       -2   -1    0    0    0  501  0.00000000000E+00  0.00000000000E+00 -0.20667133812E+04  0.20667133813E+04  0.25500000920E-02 0. -1.
    10030    2    1    2    0    0  0.00000000000E+00  0.00000000000E+00 -0.44620159965E+03  0.36872251629E+04  0.36601275298E+04 0.  0.
        5    1    3    3  502    0  0.82413572761E+03 -0.10956281430E+04  0.99810764259E+03  0.16958306759E+04  0.46999998093E+01 0.  1.
       -5    1    3    3    0  502 -0.82413572761E+03  0.10956281430E+04 -0.14443092422E+04  0.19913944869E+04  0.46999998093E+01 0. -1.
</event>
<event>
 5   0  0.1051123E-06  0.3055659E+04  0.7818609E-02  0.8228013E-01
        2   -1    0    0  501    0  0.00000000000E+00  0.00000000000E+00  0.27187658609E+04  0.27187658610E+04  0.25500000920E-02 0. -1.
       -2   -1    0    0    0  501  0.00000000000E+00  0.00000000000E+00 -0.85857459800E+03  0.85857459800E+03  0.25500000920E-02 0.  1.
    10030    2    1    2    0    0  0.00000000000E+00  0.00000000000E+00  0.18601912630E+04  0.35773404590E+04  0.30556592128E+04 0.  0.
        2    1    3    3  502    0 -0.78468139663E+02 -0.68976376142E+03 -0.66326753376E+03  0.96013286417E+03  0.25500000920E-02 0.  1.
       -2    1    3    3    0  502  0.78468139663E+02  0.68976376142E+03  0.25234587967E+04  0.26172075948E+04  0.25500000920E-02 0. -1.
</event>
<event>
 5   0  0.3682276E-07  0.3705601E+04  0.7818609E-02  0.8066722E-01
       -1   -1    0    0    0  501  0.00000000000E+00  0.00000000000E+00  0.17689406395E+04  0.17689406395E+04  0.50400001928E-02 0. -1.
        1   -1    0    0  501    0  0.00000000000E+00  0.00000000000E+00 -0.19406359301E+04  0.19406359301E+04  0.50400001928E-02 0.  1.
    10030    2    1    2    0    0  0.00000000000E+00  0.00000000000E+00 -0.17169529059E+03  0.37095765697E+04  0.37056010381E+04 0.  0.
        1    1    3    3  502    0 -0.46789003752E+03  0.86195088640E+03  0.14877768847E+04  0.17819541174E+04  0.50400001928E-02 0. -1.
       -1    1    3    3    0  502  0.46789003752E+03 -0.86195088640E+03 -0.16594721753E+04  0.19276224523E+04  0.50400001928E-02 0.  1.
</event>
<event>
 5   0  0.1128530E-06  0.3698566E+04  0.7818609E-02  0.8068280E-01
        2   -1    0    0  501    0  0.00000000000E+00  0.00000000000E+00  0.16603410487E+04  0.16603410487E+04  0.25500000920E-02 0. -1.
       -2   -1    0    0    0  501  0.00000000000E+00  0.00000000000E+00 -0.20597257658E+04  0.20597257658E+04  0.25500000920E-02 0.  1.
    10030    2    1    2    0    0  0.00000000000E+00  0.00000000000E+00 -0.39938471712E+03  0.37200668145E+04  0.36985657966E+04 0.  0.
        5    1    3    3  502    0 -0.59139612504E+03 -0.21178874497E+03 -0.19491199254E+04  0.20478511720E+04  0.46999998093E+01 0.  1.
       -5    1    3    3    0  502  0.59139612504E+03  0.21178874497E+03  0.15497352083E+04  0.16722156425E+04  0.46999998093E+01 0. -1.
</event>
<event>
 5   0  0.1128530E-06  0.3617846E+04  0.7818609E-02  0.8086416E-01
       -2   -1    0    0    0  501  0.00000000000E+00  0.00000000000E+00  0.15017069933E+04  0.15017069933E+04  0.25500000920E-02 0. -1.
        2   -1    0    0  501    0  0.00000000000E+00  0.00000000000E+00 -0.21789883795E+04  0.21789883795E+04  0.25500000920E-02 0.  1.
    10030    2    1    2    0    0  0.00000000000E+00  0.00000000000E+00 -0.67728138617E+03  0.36806953728E+04  0.36178458164E+04 0.  0.
        5    1    3    3  502    0 -0.27296398815E+03  0.14431577736E+04  0.73562248817E+03  0.16426735018E+04  0.46999998093E+01 0. -1.
       -5    1    3    3    0  502  0.27296398815E+03 -0.14431577736E+04 -0.14129038743E+04  0.20380218710E+04  0.46999998093E+01 0.  1.
</event>
<event>
 5   0  0.1128166E-06  0.2612533E+04  0.7818609E-02  0.8363957E-01
       -2   -1    0    0    0  501  0.00000000000E+00  0.00000000000E+00  0.72936197755E+03  0.72936197756E+03  0.25500000920E-02 0. -1.
        2   -1    0    0  501    0  0.00000000000E+00  0.00000000000E+00 -0.23394855952E+04  0.23394855952E+04  0.25500000920E-02 0.  1.
    10030    2    1    2    0    0  0.00000000000E+00  0.00000000000E+00 -0.16101236177E+04  0.30688475728E+04  0.26125327483E+04 0.  0.
        3    1    3    3  502    0 -0.19982358549E+03  0.60121091488E+02  0.70965690855E+03  0.73970058065E+03  0.10100000352E+00 0. -1.
       -3    1    3    3    0  502  0.19982358549E+03 -0.60121091488E+02 -0.23197805262E+04  0.23291469921E+04  0.10100000352E+00 0.  1.
</event>
<event>
 5   0  0.3848431E-07  0.3681766E+04  0.7818609E-02  0.8072015E-01
       -1   -1    0    0    0  501  0.00000000000E+00  0.00000000000E+00  0.24398334997E+04  0.24398334997E+04  0.50400001928E-02 0. -1.
        1   -1    0    0  501    0  0.00000000000E+00  0.00000000000E+00 -0.13889680944E+04  0.13889680944E+04  0.50400001928E-02 0.  1.
    10030    2    1    2    0    0  0.00000000000E+00  0.00000000000E+00  0.10508654053E+04  0.38288015942E+04  0.36817663624E+04 0.  0.
        2    1    3    3  502    0 -0.74355433289E+03 -0.70023737281E+03 -0.10672813860E+04  0.14772592803E+04  0.25500000920E-02 0.  1.
       -2    1    3    3    0  502  0.74355433289E+03  0.70023737281E+03  0.21181467913E+04  0.23515423139E+04  0.25500000920E-02 0. -1.
</event>
<event>
 5   0  0.3675819E-07  0.3636941E+04  0.7818609E-02  0.8082082E-01
       -1   -1    0    0    0  501  0.00000000000E+00  0.00000000000E+00  0.18665971492E+04  0.18665971492E+04  0.50400001928E-02 0.  1.
        1   -1    0    0  501    0  0.00000000000E+00  0.00000000000E+00 -0.17715849174E+04  0.17715849174E+04  0.50400001928E-02 0. -1.
    10030    2    1    2    0    0  0.00000000000E+00  0.00000000000E+00  0.95012231874E+02  0.36381820666E+04  0.36369412183E+04 0.  0.
        5    1    3    3  502    0 -0.16820091367E+04  0.39323376057E+03  0.61605356055E+03  0.18339388228E+04  0.46999998093E+01 0.  1.
       -5    1    3    3    0  502  0.16820091367E+04 -0.39323376057E+03 -0.52104132868E+03  0.18042432438E+04  0.46999998093E+01 0. -1.
</event>
<event>
 5   0  0.1051123E-06  0.3227656E+04  0.7818609E-02  0.8181551E-01
       -2   -1    0    0    0  501  0.00000000000E+00  0.00000000000E+00  0.20584225350E+04  0.20584225350E+04  0.25500000920E-02 0. -1.
        2   -1    0    0  501    0  0.00000000000E+00  0.00000000000E+00 -0.12652602596E+04  0.12652602596E+04  0.25500000920E-02 0.  1.
    10030    2    1    2    0    0  0.00000000000E+00  0.00000000000E+00  0.79316227538E+03  0.33236827946E+04  0.32276556390E+04 0.  0.
        2    1    3    3  502    0  0.12355432897E+04 -0.13737283480E+03 -0.66311342805E+03  0.14089563283E+04  0.25500000920E-02 0.  1.
       -2    1    3    3    0  502 -0.12355432897E+04  0.13737283480E+03  0.14562757034E+04  0.19147264663E+04  0.25500000920E-02 0. -1.
</event>
<event>
 5   0  0.1092116E-06  0.3688912E+04  0.7818609E-02  0.8070423E-01
        2   -1    0    0  501    0  0.00000000000E+00  0.00000000000E+00  0.21735919798E+04  0.21735919798E+04  0.25500000920E-02 0.  1.
       -2   -1    0    0    0  501  0.00000000000E+00  0.00000000000E+00 -0.15651597039E+04  0.15651597039E+04  0.25500000920E-02 0. -1.
    10030    2    1    2    0    0  0.00000000000E+00  0.00000000000E+00  0.60843227594E+03  0.37387516837E+04  0.36889123490E+04 0.  0.
        1    1    3    3  502    0 -0.12069033683E+04 -0.81263654720E+03 -0.84468859882E+03  0.16824068257E+04  0.50400001928E-02 0.  1.
       -1    1    3    3    0  502  0.12069033683E+04  0.81263654720E+03  0.14531208748E+04  0.20563448580E+04  0.50400001928E-02 0. -1.
</event>
<event>
 5   0  0.3764495E-07  0.3652377E+04  0.7818609E-02  0.8078598E-01
       -1   -1    0    0    0  501  0.00000000000E+00  0.00000000000E+00  0.12403289502E+04  0.12403289502E+04  0.50400001928E-02 0. -1.
        1   -1    0    0  501    0  0.00000000000E+00  0.00000000000E+00 -0.26887748076E+04  0.26887748076E+04  0.50400001928E-02 0.  1.
    10030    2    1    2    0    0  0.00000000000E+00  0.00000000000E+00 -0.14484458574E+04  0.39291037578E+04  0.36523774364E+04 0.  0.
        4    1    3    3  502    0 -0.12285853155E+04  0.60390709608E+03 -0.20244489991E+04  0.24438741828E+04  0.12699999809E+01 0. -1.
       -4    1    3    3    0  502  0.12285853155E+04 -0.60390709608E+03  0.57600314177E+03  0.14852295750E+04  0.12699999809E+01 0.  1.
</event>
<event>
 5   0  0.3704306E-07  0.3480777E+04  0.7818609E-02  0.8118361E-01
       -1   -1    0    0    0  501  0.00000000000E+00  0.00000000000E+00  0.90910186010E+03  0.90910186012E+03  0.50400001928E-02 0.  1.
        1   -1    0    0  501    0  0.00000000000E+00  0.00000000000E+00 -0.33318072536E+04  0.33318072536E+04  0.50400001928E-02 0. -1.
    10030    2    1    2    0    0  0.00000000000E+00  0.00000000000E+00 -0.24227053935E+04  0.42409091137E+04  0.34807770235E+04 0.  0.
        3    1    3    3  502    0  0.39885364043E+03  0.83365572554E+03 -0.30081579853E+04  0.31469160412E+04  0.10100000352E+00 0. -1.
       -3    1    3    3    0  502 -0.39885364043E+03 -0.83365572554E+03  0.58545259187E+03  0.10939930725E+04  0.10100000352E+00 0.  1.
</event>
<event>
 5   0  0.1051123E-06  0.3694567E+04  0.7818609E-02  0.8069167E-01
        2   -1    0    0  501    0  0.00000000000E+00  0.00000000000E+00  0.21207273131E+04  0.21207273131E+04  0.25500000920E-02 0.  1.
       -2   -1    0    0    0  501  0.00000000000E+00  0.00000000000E+00 -0.16090968937E+04  0.16090968937E+04  0.25500000920E-02 0. -1.
    10030    2    1    2    0    0  0.00000000000E+00  0.00000000000E+00  0.51163041946E+03  0.37298242068E+04  0.36945666766E+04 0.  0.
        2    1    3    3  502    0 -0.42587969439E+03 -0.15060955364E+04 -0.73475103527E+03  0.17290333608E+04  0.25500000920E-02 0. -1.
       -2    1    3    3    0  502  0.42587969439E+03  0.15060955364E+04  0.12463814547E+04  0.20007908460E+04  0.25500000920E-02 0.  1.
</event>
<event>
 5   0  0.3704306E-07  0.2631891E+04  0.7818609E-02  0.8357448E-01
       -1   -1    0    0    0  501  0.00000000000E+00  0.00000000000E+00  0.15572832876E+04  0.15572832876E+04  0.50400001928E-02 0. -1.
        1   -1    0    0  501    0  0.00000000000E+00  0.00000000000E+00 -0.11120088924E+04  0.11120088924E+04  0.50400001928E-02 0.  1.
    10030    2    1    2    0    0  0.00000000000E+00  0.00000000000E+00  0.44527439519E+03  0.26692921800E+04  0.26318912316E+04 0.  0.
        3    1    3    3  502    0  0.74963880434E+03  0.10813792041E+04  0.20303553419E+03  0.13313762648E+04  0.10100000352E+00 0. -1.
       -3    1    3    3    0  502 -0.74963880434E+03 -0.10813792041E+04  0.24223886100E+03  0.13379159152E+04  0.10100000352E+00 0.  1.
</event>
<event>
 5   0  0.3682276E-07  0.2433384E+04  0.7818609E-02  0.8427110E-01
       -1   -1    0    0    0  501  0.00000000000E+00  0.00000000000E+00  0.12817786854E+04  0.12817786854E+04  0.50400001928E-02 0. -1.
        1   -1    0    0  501    0  0.00000000000E+00  0.00000000000E+00 -0.11549102258E+04  0.11549102258E+04  0.50400001928E-02 0.  1.
    10030    2    1    2    0    0  0.00000000000E+00  0.00000000000E+00  0.12686845955E+03  0.24366889112E+04  0.24333839081E+04 0.  0.
        1    1    3    3  502    0  0.75336904912E+03 -0.14872656706E+03  0.10084611071E+04  0.12675481531E+04  0.50400001928E-02 0. -1.
       -1    1    3    3    0  502 -0.75336904912E+03  0.14872656706E+03 -0.88159264757E+03  0.11691407581E+04  0.50400001928E-02 0.  1.
</event>
<event>
 5   0  0.3764495E-07  0.3310895E+04  0.7818609E-02  0.8160129E-01
        1   -1    0    0  501    0  0.00000000000E+00  0.00000000000E+00  0.98523572754E+03  0.98523572755E+03  0.50400001928E-02 0. -1.
       -1   -1    0    0    0  501  0.00000000000E+00  0.00000000000E+00 -0.27815747273E+04  0.27815747273E+04  0.50400001928E-02 0.  1.
    10030    2    1    2    0    0  0.00000000000E+00  0.00000000000E+00 -0.17963389997E+04  0.37668104548E+04  0.33108952265E+04 0.  0.
        4    1    3    3  502    0 -0.88564771000E+02 -0.16067365162E+04 -0.13403524281E+04  0.20942760553E+04  0.12699999809E+01 0. -1.
       -4    1    3    3    0  502  0.88564771000E+02  0.16067365162E+04 -0.45598657162E+03  0.16725343995E+04  0.12699999809E+01 0.  1.
</event>
<event>
 5   0  0.1066907E-06  0.3699532E+04  0.7818609E-02  0.8068065E-01
        2   -1    0    0  501    0  0.00000000000E+00  0.00000000000E+00  0.25143054142E+04  0.25143054142E+04  0.25500000920E-02 0. -1.
       -2   -1    0    0    0  501  0.00000000000E+00  0.00000000000E+00 -0.13608668156E+04  0.13608668156E+04  0.25500000920E-02 0.  1.
    10030    2    1    2    0    0  0.00000000000E+00  0.00000000000E+00  0.11534385986E+04  0.38751722298E+04  0.36995322961E+04 0.  0.
        4    1    3    3  502    0  0.90572563556E+02  0.34479289025E+03  0.24779818054E+04  0.25034937522E+04  0.12699999809E+01 0. -1.
       -4    1    3    3    0  502 -0.90572563556E+02 -0.34479289025E+03 -0.13245432068E+04  0.13716784777E+04  0.12699999809E+01 0.  1.
</event>
<event>
 5   0  0.3490375E-07  0.2440382E+04  0.7818609E-02  0.8424538E-01
        4   -1    0    0  501    0  0.00000000000E+00  0.00000000000E+00  0.17749946171E+04  0.17749950714E+04  0.12699999809E+01 0.  1.
       -4   -1    0    0    0  501  0.00000000000E+00  0.00000000000E+00 -0.83879940882E+03  0.83880037026E+03  0.12699999809E+01 0. -1.
    10030    2    1    2    0    0  0.00000000000E+00  0.00000000000E+00  0.93619520826E+03  0.26137954417E+04  0.24403821715E+04 0.  0.
        2    1    3    3  502    0 -0.10627586731E+04 -0.59521797127E+03  0.54478021942E+03  0.13343634880E+04  0.25500000920E-02 0.  1.
       -2    1    3    3    0  502  0.10627586731E+04  0.59521797127E+03  0.39141498884E+03  0.12794319537E+04  0.25500000920E-02 0. -1.
</event>
<event>
 5   0  0.1066907E-06  0.3777414E+04  0.7818609E-02  0.8051019E-01
        2   -1    0    0  501    0  0.00000000000E+00  0.00000000000E+00  0.22164869575E+04  0.22164869575E+04  0.25500000920E-02 0.  1.
       -2   -1    0    0    0  501  0.00000000000E+00  0.00000000000E+00 -0.16094001995E+04  0.16094001995E+04  0.25500000920E-02 0. -1.
    10030    2    1    2    0    0  0.00000000000E+00  0.00000000000E+00  0.60708675800E+03  0.38258871571E+04  0.37774142223E+04 0.  0.
        4    1    3    3  502    0 -0.79894126378E+03 -0.16725420738E+04 -0.63751577573E+02  0.18546616964E+04  0.12699999809E+01 0. -1.
       -4    1    3    3    0  502  0.79894126378E+03  0.16725420738E+04  0.67083833558E+03  0.19712254607E+04  0.12699999809E+01 0.  1.
</event>
<event>
 5   0  0.1092116E-06  0.3846643E+04  0.7818609E-02  0.8036219E-01
       -2   -1    0    0    0  501  0.00000000000E+00  0.00000000000E+00  0.19235044780E+04  0.19235044780E+04  0.25500000920E-02 0. -1.
        2   -1    0    0  501    0  0.00000000000E+00  0.00000000000E+00 -0.19231383730E+04  0.19231383730E+04  0.25500000920E-02 0.  1.
    10030    2    1    2    0    0  0.00000000000E+00  0.00000000000E+00  0.36610494484E+00  0.38466428510E+04  0.38466428336E+04 0.  0.
        1    1    3    3  502    0 -0.83771316322E+03  0.12764563349E+04  0.11698245214E+04  0.19234327463E+04  0.50400001928E-02 0. -1.
       -1    1    3    3    0  502  0.83771316322E+03 -0.12764563349E+04 -0.11694584165E+04  0.19232101046E+04  0.50400001928E-02 0.  1.
</event>
<event>
 5   0  0.1128530E-06  0.3728631E+04  0.7818609E-02  0.8061646E-01
        2   -1    0    0  501    0  0.00000000000E+00  0.00000000000E+00  0.31821003667E+04  0.31821003667E+04  0.25500000920E-02 0.  1.
       -2   -1    0    0    0  501  0.00000000000E+00  0.00000000000E+00 -0.10922569855E+04  0.10922569855E+04  0.25500000920E-02 0. -1.
    10030    2    1    2    0    0  0.00000000000E+00  0.00000000000E+00  0.20898433811E+04  0.42743573522E+04  0.37286305015E+04 0.  0.
        5    1    3    3  502    0  0.96957043867E+03 -0.77795650672E+03 -0.54780523267E+03  0.13584534680E+04  0.46999998093E+01 0. -1.
       -5    1    3    3    0  502 -0.96957043867E+03  0.77795650672E+03  0.26376486138E+04  0.29159038842E+04  0.46999998093E+01 0.  1.
</event>
<event>
 5   0  0.1128166E-06  0.4134424E+04  0.7818609E-02  0.7977965E-01
       -2   -1    0    0    0  501  0.00000000000E+00  0.00000000000E+00  0.18352528620E+04  0.18352528620E+04  0.25500000920E-02 0. -1.
        2   -1    0    0  501    0  0.00000000000E+00  0.00000000000E+00 -0.23284886587E+04  0.23284886587E+04  0.25500000920E-02 0.  1.
    10030    2    1    2    0    0  0.00000000000E+00  0.00000000000E+00 -0.49323579676E+03  0.41637415207E+04  0.41344240107E+04 0.  0.
        3    1    3    3  502    0  0.37207962339E+03 -0.56847672792E+03 -0.22128343149E+04  0.23147882736E+04  0.10100000352E+00 0.  1.
       -3    1    3    3    0  502 -0.37207962339E+03  0.56847672792E+03  0.17195985181E+04  0.18489532471E+04  0.10100000352E+00 0. -1.
</event>
<event>
 5   0  0.1066907E-06  0.3712648E+04  0.7818609E-02  0.8065165E-01
       -2   -1    0    0    0  501  0.00000000000E+00  0.00000000000E+00  0.15038944592E+04  0.15038944592E+04  0.25500000920E-02 0.  1.
        2   -1    0    0  501    0  0.00000000000E+00  0.00000000000E+00 -0.22913428930E+04  0.22913428930E+04  0.25500000920E-02 0. -1.
    10030    2    1    2    0    0  0.00000000000E+00  0.00000000000E+00 -0.78744843374E+03  0.37952373522E+04  0.37126475087E+04 0.  0.
        4    1    3    3  502    0  0.90289040958E+03  0.93017302876E+03  0.96455636575E+03  0.16157981157E+04  0.12699999809E+01 0.  1.
       -4    1    3    3    0  502 -0.90289040958E+03 -0.93017302876E+03 -0.17520047995E+04  0.21794392365E+04  0.12699999809E+01 0. -1.
</event>
<event>
 5   0  0.3704306E-07  0.3561588E+04  0.7818609E-02  0.8099347E-01
       -1   -1    0    0    0  501  0.00000000000E+00  0.00000000000E+00  0.15847257246E+04  0.15847257246E+04  0.50400001928E-02 0.  1.
        1   -1    0    0  501    0  0.00000000000E+00  0.00000000000E+00 -0.20011208069E+04  0.20011208069E+04  0.50400001928E-02 0. -1.
    10030    2    1    2    0    0  0.00000000000E+00  0.00000000000E+00 -0.41639508230E+03  0.35858465315E+04  0.35615881967E+04 0.  0.
        3    1    3    3  502    0  0.13998554031E+04  0.92735834080E+03 -0.80522800776E+03  0.18622515396E+04  0.10100000352E+00 0. -1.
       -3    1    3    3    0  502 -0.13998554031E+04 -0.92735834080E+03  0.38883292546E+03  0.17235949919E+04  0.10100000352E+00 0.  1.
</event>
<event>
 5   0  0.3848431E-07  0.3420504E+04  0.7818609E-02  0.8132892E-01
       -1   -1    0    0    0  501  0.00000000000E+00  0.00000000000E+00  0.10415855018E+04  0.10415855018E+04  0.50400001928E-02 0.  1.
        1   -1    0    0  501    0  0.00000000000E+00  0.00000000000E+00 -0.28081819970E+04  0.28081819970E+04  0.50400001928E-02 0. -1.
    10030    2    1    2    0    0  0.00000000000E+00  0.00000000000E+00 -0.17665964952E+04  0.38497674988E+04  0.34205038544E+04 0.  0.
        2    1    3    3  502    0  0.22580231877E+03  0.10011631291E+04 -0.24230702908E+04  0.26314604182E+04  0.25500000920E-02 0. -1.
       -2    1    3    3    0  502 -0.22580231877E+03 -0.10011631291E+04  0.65647379566E+03  0.12183070806E+04  0.25500000920E-02 0.  1.
</event>
<event>
 5   0  0.3675819E-07  0.2296763E+04  0.7818609E-02  0.8479198E-01
       -1   -1    0    0    0  501  0.00000000000E+00  0.00000000000E+00  0.93119035390E+03  0.93119035391E+03  0.50400001928E-02 0. -1.
        1   -1    0    0  501    0  0.00000000000E+00  0.00000000000E+00 -0.14162308141E+04  0.14162308141E+04  0.50400001928E-02 0.  1.
    10030    2    1    2    0    0  0.00000000000E+00  0.00000000000E+00 -0.48504046024E+03  0.23474211681E+04  0.22967633514E+04 0.  0.
        5    1    3    3  502    0  0.79337063071E+03 -0.20341802112E+03 -0.10652230993E+04  0.13437031630E+04  0.46999998093E+01 0.  1.
       -5    1    3    3    0  502 -0.79337063071E+03  0.20341802112E+03  0.58018263906E+03  0.10037180050E+04  0.46999998093E+01 0. -1.
</event>
<event>
 5   0  0.1066907E-06  0.3676650E+04  0.7818609E-02  0.8073156E-01
        2   -1    0    0  501    0  0.00000000000E+00  0.00000000000E+00  0.21193204685E+04  0.21193204685E+04  0.25500000920E-02 0. -1.
       -2   -1    0    0    0  501  0.00000000000E+00  0.00000000000E+00 -0.15945859584E+04  0.15945859584E+04  0.25500000920E-02 0.  1.
    10030    2    1    2    0    0  0.00000000000E+00  0.00000000000E+00  0.52473451003E+03  0.37139064269E+04  0.36766499210E+04 0.  0.
        4    1    3    3  502    0 -0.94181574941E+03  0.94650618451E+03 -0.10139816812E+04  0.16766190163E+04  0.12699999809E+01 0.  1.
       -4    1    3    3    0  502  0.94181574941E+03 -0.94650618451E+03  0.15387161913E+04  0.20372874106E+04  0.12699999809E+01 0. -1.
</event>
<event>
 5   0  0.3682276E-07  0.3620329E+04  0.7818609E-02  0.8085851E-01
        1   -1    0    0  501    0  0.00000000000E+00  0.00000000000E+00  0.15710029452E+04  0.15710029452E+04  0.50400001928E-02 0.  1.
       -1   -1    0    0    0  501  0.00000000000E+00  0.00000000000E+00 -0.20857352603E+04  0.20857352603E+04  0.50400001928E-02 0. -1.
    10030    2    1    2    0    0  0.00000000000E+00  0.00000000000E+00 -0.51473231514E+03  0.36567382055E+04  0.36203293976E+04 0.  0.
        1    1    3    3  502    0 -0.54330316214E+03  0.16426828013E+04 -0.79479905911E+03  0.19040196049E+04  0.50400001928E-02 0.  1.
       -1    1    3    3    0  502  0.54330316214E+03 -0.16426828013E+04  0.28006674397E+03  0.17527186005E+04  0.50400001928E-02 0. -1.
</event>
<event>
 5   0  0.3675819E-07  0.2335219E+04  0.7818609E-02  0.8464163E-01
       -1   -1    0    0    0  501  0.00000000000E+00  0.00000000000E+00  0.10920671702E+04  0.10920671702E+04  0.50400001928E-02 0. -1.
        1   -1    0    0  501    0  0.00000000000E+00  0.00000000000E+00 -0.12483769466E+04  0.12483769466E+04  0.50400001928E-02 0.  1.
    10030    2    1    2    0    0  0.00000000000E+00  0.00000000000E+00 -0.15630977646E+03  0.23404441168E+04  0.23352186017E+04 0.  0.
        5    1    3    3  502    0 -0.48825388392E+03 -0.10234700644E+04 -0.35699780844E+03  0.11888449660E+04  0.46999998093E+01 0.  1.
       -5    1    3    3    0  502  0.48825388392E+03  0.10234700644E+04  0.20068803197E+03  0.11515991508E+04  0.46999998093E+01 0. -1.
</event>
<event>
 5   0  0.3682276E-07  0.2668416E+04  0.7818609E-02  0.8345326E-01
       -1   -1    0    0    0  501  0.00000000000E+00  0.00000000000E+00  0.15909190536E+04  0.15909190536E+04  0.50400001928E-02 0.  1.
        1   -1    0    0  501    0  0.00000000000E+00  0.00000000000E+00 -0.11189195089E+04  0.11189195089E+04  0.50400001928E-02 0. -1.
    10030    2    1    2    0    0  0.00000000000E+00  0.00000000000E+00  0.47199954469E+03  0.27098385624E+04  0.26684155344E+04 0.  0.
        1    1    3    3  502    0  0.89977506831E+03  0.86346831888E+03  0.71763810011E+03  0.14388110210E+04  0.50400001928E-02 0.  1.
       -1    1    3    3    0  502 -0.89977506831E+03 -0.86346831888E+03 -0.24563855542E+03  0.12710275415E+04  0.50400001928E-02 0. -1.
</event>
<event>
 5   0  0.3848431E-07  0.3716884E+04  0.7818609E-02  0.8064230E-01
       -1   -1    0    0    0  501  0.00000000000E+00  0.00000000000E+00  0.21161708091E+04  0.21161708091E+04  0.50400001928E-02 0.  1.
        1   -1    0    0  501    0  0.00000000000E+00  0.00000000000E+00 -0.16321021904E+04  0.16321021905E+04  0.50400001928E-02 0. -1.
    10030    2    1    2    0    0  0.00000000000E+00  0.00000000000E+00  0.48406861869E+03  0.37482729996E+04  0.37168841860E+04 0.  0.
        2    1    3    3  502    0 -0.71638464817E+02 -0.12546987060E+04 -0.11386170661E+04  0.16958330506E+04  0.25500000920E-02 0. -1.
       -2    1    3    3    0  502  0.71638464817E+02  0.12546987060E+04  0.16226856848E+04  0.20524399490E+04  0.25500000920E-02 0.  1.
</event>
<event>
 5   0  0.1128530E-06  0.3569543E+04  0.7818609E-02  0.8097504E-01
        2   -1    0    0  501    0  0.00000000000E+00  0.00000000000E+00  0.19070865275E+04  0.19070865275E+04  0.25500000920E-02 0. -1.
       -2   -1    0    0    0  501  0.00000000000E+00  0.00000000000E+00 -0.16703011949E+04  0.16703011949E+04  0.25500000920E-02 0.  1.
    10030    2    1    2    0    0  0.00000000000E+00  0.00000000000E+00  0.23678533259E+03  0.35773877224E+04  0.35695427750E+04 0.  0.
        5    1    3    3  502    0  0.11919157379E+04 -0.12669332095E+04 -0.28198995168E+03  0.17621927552E+04  0.46999998093E+01 0.  1.
       -5    1    3    3    0  502 -0.11919157379E+04  0.12669332095E+04  0.51877528427E+03  0.18151949672E+04  0.46999998093E+01 0. -1.
</event>
<event>
 5   0  0.1066907E-06  0.3712599E+04  0.7818609E-02  0.8065175E-01
       -2   -1    0    0    0  501  0.00000000000E+00  0.00000000000E+00  0.16009656872E+04  0.16009656872E+04  0.25500000920E-02 0. -1.
        2   -1    0    0  501    0  0.00000000000E+00  0.00000000000E+00 -0.21523563373E+04  0.21523563373E+04  0.25500000920E-02 0.  1.
    10030    2    1    2    0    0  0.00000000000E+00  0.00000000000E+00 -0.55139065013E+03  0.37533220245E+04  0.37125994357E+04 0.  0.
        4    1    3    3  502    0  0.18564856530E+03 -0.54941894882E+03 -0.20584206836E+04  0.21385564979E+04  0.12699999809E+01 0.  1.
       -4    1    3    3    0  502 -0.18564856530E+03  0.54941894882E+03  0.15070300335E+04  0.16147655266E+04  0.12699999809E+01 0. -1.
</event>
<event>
 5   0  0.3675819E-07  0.3522831E+04  0.7818609E-02  0.8108401E-01
       -1   -1    0    0    0  501  0.00000000000E+00  0.00000000000E+00  0.12805411846E+04  0.12805411846E+04  0.50400001928E-02 0. -1.
        1   -1    0    0  501    0  0.00000000000E+00  0.00000000000E+00 -0.24228691957E+04  0.24228691957E+04  0.50400001928E-02 0.  1.
    10030    2    1    2    0    0  0.00000000000E+00  0.00000000000E+00 -0.11423280111E+04  0.37034103803E+04  0.35228305607E+04 0.  0.
        5    1    3    3  502    0  0.36323254747E+03  0.23637562068E+02  0.12405642904E+04  0.12928721772E+04  0.46999998093E+01 0. -1.
       -5    1    3    3    0  502 -0.36323254747E+03 -0.23637562068E+02 -0.23828923015E+04  0.24105382031E+04  0.46999998093E+01 0.  1.
</event>
<event>
 5   0  0.3848431E-07  0.3649660E+04  0.7818609E-02  0.8079210E-01
        1   -1    0    0  501    0  0.00000000000E+00  0.00000000000E+00  0.23087671015E+04  0.23087671015E+04  0.50400001928E-02 0. -1.
       -1   -1    0    0    0  501  0.00000000000E+00  0.00000000000E+00 -0.14423302793E+04  0.14423302793E+04  0.50400001928E-02 0.  1.
    10030    2    1    2    0    0  0.00000000000E+00  0.00000000000E+00  0.86643682225E+03  0.37510973808E+04  0.36496600929E+04 0.  0.
        2    1    3    3  502    0  0.12504524206E+04 -0.19468691073E+03  0.17844721217E+04  0.21876642801E+04  0.25500000920E-02 0. -1.
       -2    1    3    3    0  502 -0.12504524206E+04  0.19468691073E+03 -0.91803529947E+03  0.15634331007E+04  0.25500000920E-02 0.  1.
</event>
<event>
 5   0  0.1051123E-06  0.3654803E+04  0.7818609E-02  0.8078052E-01
        2   -1    0    0  501    0  0.00000000000E+00  0.00000000000E+00  0.22363296237E+04  0.22363296237E+04  0.25500000920E-02 0.  1.
       -2   -1    0    0    0  501  0.00000000000E+00  0.00000000000E+00 -0.14932489735E+04  0.14932489735E+04  0.25500000920E-02 0. -1.
    10030    2    1    2    0    0  0.00000000000E+00  0.00000000000E+00  0.74308065019E+03  0.37295785971E+04  0.36548033681E+04 0.  0.
        2    1    3    3  502    0  0.17745477228E+04  0.38913723038E+03  0.57293442770E+03  0.19049150277E+04  0.25500000920E-02 0.  1.
       -2    1    3    3    0  502 -0.17745477228E+04 -0.38913723038E+03  0.17014622249E+03  0.18246635694E+04  0.25500000920E-02 0. -1.
</event>
<event>
 5   0  0.3682276E-07  0.2498698E+04  0.7818609E-02  0.8403450E-01
        1   -1    0    0  501    0  0.00000000000E+00  0.00000000000E+00  0.13570897492E+04  0.13570897492E+04  0.50400001928E-02 0. -1.
       -1   -1    0    0    0  501  0.00000000000E+00  0.00000000000E+00 -0.11501616115E+04  0.11501616115E+04  0.50400001928E-02 0.  1.
    10030    2    1    2    0    0  0.00000000000E+00  0.00000000000E+00  0.20692813772E+03  0.25072513607E+04  0.24986976871E+04 0.  0.
        1    1    3    3  502    0 -0.78276094913E+03 -0.72821348380E+03 -0.54517199947E+03  0.12000925341E+04  0.50400001928E-02 0.  1.
       -1    1    3    3    0  502  0.78276094913E+03  0.72821348380E+03  0.75210013719E+03  0.13071588266E+04  0.50400001928E-02 0. -1.
</event>
<event>
 5   0  0.1066907E-06  0.3688226E+04  0.7818609E-02  0.8070576E-01
       -2   -1    0    0    0  501  0.00000000000E+00  0.00000000000E+00  0.23138708492E+04  0.23138708492E+04  0.25500000920E-02 0. -1.
        2   -1    0    0  501    0  0.00000000000E+00  0.00000000000E+00 -0.14697245464E+04  0.14697245464E+04  0.25500000920E-02 0.  1.
    10030    2    1    2    0    0  0.00000000000E+00  0.00000000000E+00  0.84414630275E+03  0.37835953956E+04  0.36882260149E+04 0.  0.
        4    1    3    3  502    0  0.35415154942E+03  0.17329957257E+04 -0.11300159335E+03  0.17724188213E+04  0.12699999809E+01 0.  1.
       -4    1    3    3    0  502 -0.35415154942E+03 -0.17329957257E+04  0.95714789610E+03  0.20111765743E+04  0.12699999809E+01 0. -1.
</event>
<event>
 5   0  0.3682276E-07  0.3539130E+04  0.7818609E-02  0.8104579E-01
       -1   -1    0    0    0  501  0.00000000000E+00  0.00000000000E+00  0.17922074644E+04  0.17922074644E+04  0.50400001928E-02 0.  1.
        1   -1    0    0  501    0  0.00000000000E+00  0.00000000000E+00 -0.17472089848E+04  0.17472089848E+04  0.50400001928E-02 0. -1.
    10030    2    1    2    0    0  0.00000000000E+00  0.00000000000E+00  0.44998479585E+02  0.35394164493E+04  0.35391303929E+04 0.  0.
        1    1    3    3  502    0  0.11047067131E+03 -0.17611289657E+04 -0.11010854252E+03  0.17680223115E+04  0.50400001928E-02 0.  1.
       -1    1    3    3    0  502 -0.11047067131E+03  0.17611289657E+04  0.15510702211E+03  0.17713941377E+04  0.50400001928E-02 0. -1.
</event>
<event>
 5   0  0.3682276E-07  0.2508808E+04  0.7818609E-02  0.8399855E-01
        1   -1    0    0  501    0  0.00000000000E+00  0.00000000000E+00  0.13265341920E+04  0.13265341920E+04  0.50400001928E-02 0. -1.
       -1   -1    0    0    0  501  0.00000000000E+00  0.00000000000E+00 -0.11861954696E+04  0.11861954696E+04  0.50400001928E-02 0.  1.
    10030    2    1    2    0    0  0.00000000000E+00  0.00000000000E+00  0.14033872236E+03  0.25127296616E+04  0.25088075644E+04 0.  0.
        1    1    3    3  502    0 -0.10203740645E+04 -0.38705248837E+03  0.68964740511E+03  0.12909633626E+04  0.50400001928E-02 0. -1.
       -1    1    3    3    0  502  0.10203740645E+04  0.38705248837E+03 -0.54930868275E+03  0.12217662989E+04  0.50400001928E-02 0.  1.
</event>
<event>
 5   0  0.1128166E-06  0.3655813E+04  0.7818609E-02  0.8077825E-01
        2   -1    0    0  501    0  0.00000000000E+00  0.00000000000E+00  0.14890127420E+04  0.14890127420E+04  0.25500000920E-02 0.  1.
       -2   -1    0    0    0  501  0.00000000000E+00  0.00000000000E+00 -0.22439316260E+04  0.22439316260E+04  0.25500000920E-02 0. -1.
    10030    2    1    2    0    0  0.00000000000E+00  0.00000000000E+00 -0.75491888400E+03  0.37329443680E+04  0.36558133340E+04 0.  0.
        3    1    3    3  502    0  0.15438286007E+04  0.23536000615E+03  0.59255249951E+03  0.16703052283E+04  0.10100000352E+00 0. -1.
       -3    1    3    3    0  502 -0.15438286007E+04 -0.23536000615E+03 -0.13474713835E+04  0.20626391397E+04  0.10100000352E+00 0.  1.
</event>
<event>
 5   0  0.1128166E-06  0.3724348E+04  0.7818609E-02  0.8062587E-01
       -2   -1    0    0    0  501  0.00000000000E+00  0.00000000000E+00  0.14268676771E+04  0.14268676771E+04  0.25500000920E-02 0.  1.
        2   -1    0    0  501    0  0.00000000000E+00  0.00000000000E+00 -0.24302824241E+04  0.24302824241E+04  0.25500000920E-02 0. -1.
    10030    2    1    2    0    0  0.00000000000E+00  0.00000000000E+00 -0.10034147470E+04  0.38571501012E+04  0.37243476943E+04 0.  0.
        3    1    3    3  502    0  0.44164291117E+03  0.69470566073E+03 -0.22316054867E+04  0.23785977959E+04  0.10100000352E+00 0. -1.
       -3    1    3    3    0  502 -0.44164291117E+03 -0.69470566073E+03  0.12281907397E+04  0.14785523053E+04  0.10100000352E+00 0.  1.
</event>
<event>
 5   0  0.1066907E-06  0.2686054E+04  0.7818609E-02  0.8339544E-01
       -2   -1    0    0    0  501  0.00000000000E+00  0.00000000000E+00  0.78889764896E+03  0.78889764897E+03  0.25500000920E-02 0. -1.
        2   -1    0    0  501    0  0.00000000000E+00  0.00000000000E+00 -0.22863817258E+04  0.22863817258E+04  0.25500000920E-02 0.  1.
    10030    2    1    2    0    0  0.00000000000E+00  0.00000000000E+00 -0.14974840769E+04  0.30752793748E+04  0.26860537360E+04 0.  0.
        4    1    3    3  502    0  0.58277093778E+03 -0.26451790725E+02 -0.21337462416E+04  0.22120570290E+04  0.12699999809E+01 0.  1.
       -4    1    3    3    0  502 -0.58277093778E+03  0.26451790725E+02  0.63626216471E+03  0.86322234580E+03  0.12699999809E+01 0. -1.
</event>
<event>
 5   0  0.1128166E-06  0.3512894E+04  0.7818609E-02  0.8110741E-01
        2   -1    0    0  501    0  0.00000000000E+00  0.00000000000E+00  0.20792974903E+04  0.20792974903E+04  0.25500000920E-02 0. -1.
       -2   -1    0    0    0  501  0.00000000000E+00  0.00000000000E+00 -0.14837251478E+04  0.14837251478E+04  0.25500000920E-02 0.  1.
    10030    2    1    2    0    0  0.00000000000E+00  0.00000000000E+00  0.59557234244E+03  0.35630226381E+04  0.35128939501E+04 0.  0.
        3    1    3    3  502    0  0.13425710138E+04  0.78733184794E+03  0.11234776350E+04  0.19195286850E+04  0.10100000352E+00 0. -1.
       -3    1    3    3    0  502 -0.13425710138E+04 -0.78733184794E+03 -0.52790529257E+03  0.16434939531E+04  0.10100000352E+00 0.  1.
</event>
<event>
 5   0  0.1092116E-06  0.3494646E+04  0.7818609E-02  0.8115060E-01
       -2   -1    0    0    0  501  0.00000000000E+00  0.00000000000E+00  0.22142456562E+04  0.22142456562E+04  0.25500000920E-02 0.  1.
        2   -1    0    0  501    0  0.00000000000E+00  0.00000000000E+00 -0.13788614968E+04  0.13788614968E+04  0.25500000920E-02 0. -1.
    10030    2    1    2    0    0  0.00000000000E+00  0.00000000000E+00  0.83538415933E+03  0.35931071530E+04  0.34946462366E+04 0.  0.
        1    1    3    3  502    0  0.40654389892E+03  0.14896137124E+03  0.21582163673E+04  0.22012190532E+04  0.50400001928E-02 0.  1.
       -1    1    3    3    0  502 -0.40654389892E+03 -0.14896137124E+03 -0.13228322080E+04  0.13918880998E+04  0.50400001928E-02 0. -1.
</event>
<event>
 5   0  0.3848431E-07  0.3650717E+04  0.7818609E-02  0.8078972E-01
       -1   -1    0    0    0  501  0.00000000000E+00  0.00000000000E+00  0.17144323129E+04  0.17144323129E+04  0.50400001928E-02 0.  1.
        1   -1    0    0  501    0  0.00000000000E+00  0.00000000000E+00 -0.19434615668E+04  0.19434615668E+04  0.50400001928E-02 0. -1.
    10030    2    1    2    0    0  0.00000000000E+00  0.00000000000E+00 -0.22902925392E+03  0.36578938797E+04  0.36507168113E+04 0.  0.
        2    1    3    3  502    0 -0.63995400374E+03  0.15788352189E+04  0.54226738107E+03  0.17878242889E+04  0.25500000920E-02 0.  1.
       -2    1    3    3    0  502  0.63995400374E+03 -0.15788352189E+04 -0.77129663499E+03  0.18700695908E+04  0.25500000920E-02 0. -1.
</event>
<event>
 5   0  0.3764495E-07  0.3602068E+04  0.7818609E-02  0.8090018E-01
        1   -1    0    0  501    0  0.00000000000E+00  0.00000000000E+00  0.15805318318E+04  0.15805318318E+04  0.50400001928E-02 0. -1.
       -1   -1    0    0    0  501  0.00000000000E+00  0.00000000000E+00 -0.20522991137E+04  0.20522991137E+04  0.50400001928E-02 0.  1.
    10030    2    1    2    0    0  0.00000000000E+00  0.00000000000E+00 -0.47176728197E+03  0.36328309455E+04  0.36020683378E+04 0.  0.
        4    1    3    3  502    0  0.13491422634E+04  0.11880049460E+03  0.96144695659E+03  0.16609275323E+04  0.12699999809E+01 0. -1.
       -4    1    3    3    0  502 -0.13491422634E+04 -0.11880049460E+03 -0.14332142386E+04  0.19719034132E+04  0.12699999809E+01 0.  1.
</event>
<event>
 5   0  0.1128530E-06  0.2579469E+04  0.7818609E-02  0.8375209E-01
        2   -1    0    0  501    0  0.00000000000E+00  0.00000000000E+00  0.12473504795E+04  0.12473504795E+04  0.25500000920E-02 0.  1.
       -2   -1    0    0    0  501  0.00000000000E+00  0.00000000000E+00 -0.13335590108E+04  0.13335590108E+04  0.25500000920E-02 0. -1.
    10030    2    1    2    0    0  0.00000000000E+00  0.00000000000E+00 -0.86208531312E+02  0.25809094903E+04  0.25794693032E+04 0.  0.
        5    1    3    3  502    0 -0.54865948906E+03 -0.12126980206E+03 -0.12046399178E+04  0.13292528057E+04  0.46999998093E+01 0. -1.
       -5    1    3    3    0  502  0.54865948906E+03  0.12126980206E+03  0.11184313865E+04  0.12516566846E+04  0.46999998093E+01 0.  1.
</event>
<event>
 5   0  0.3682276E-07  0.3737008E+04  0.7818609E-02  0.8059810E-01
        1   -1    0    0  501    0  0.00000000000E+00  0.00000000000E+00  0.22155565479E+04  0.22155565479E+04  0.50400001928E-02 0. -1.
       -1   -1    0    0    0  501  0.00000000000E+00  0.00000000000E+00 -0.15758147455E+04  0.15758147455E+04  0.50400001928E-02 0.  1.
    10030    2    1    2    0    0  0.00000000000E+00  0.00000000000E+00  0.63974180245E+03  0.37913712934E+04  0.37370077215E+04 0.  0.
        1    1    3    3  502    0  0.24920604559E+03  0.17710186536E+04  0.86875504006E+03  0.19883023020E+04  0.50400001928E-02 0. -1.
       -1    1    3    3    0  502 -0.24920604559E+03 -0.17710186536E+04 -0.22901323761E+03  0.18030689914E+04  0.50400001928E-02 0.  1.
</event>
<event>
 5   0  0.3764495E-07  0.3769514E+04  0.7818609E-02  0.8052729E-01
        1   -1    0    0  501    0  0.00000000000E+00  0.00000000000E+00  0.25557308099E+04  0.25557308100E+04  0.50400001928E-02 0.  1.
       -1   -1    0    0    0  501  0.00000000000E+00  0.00000000000E+00 -0.13899387891E+04  0.13899387891E+04  0.50400001928E-02 0. -1.
    10030    2    1    2    0    0  0.00000000000E+00  0.00000000000E+00  0.11657920209E+04  0.39456695990E+04  0.37695142325E+04 0.  0.
        4    1    3    3  502    0 -0.15646619219E+04 -0.42101382169E+03  0.15906371919E+04  0.22705831535E+04  0.12699999809E+01 0.  1.
       -4    1    3    3    0  502  0.15646619219E+04  0.42101382169E+03 -0.42484517100E+03  0.16750864456E+04  0.12699999809E+01 0. -1.
</event>
<event>
 5   0  0.3675819E-07  0.3679645E+04  0.7818609E-02  0.8072488E-01
        1   -1    0    0  501    0  0.00000000000E+00  0.00000000000E+00  0.12456662487E+04  0.12456662487E+04  0.50400001928E-02 0.  1.
       -1   -1    0    0    0  501  0.00000000000E+00  0.00000000000E+00 -0.27173781814E+04  0.27173781815E+04  0.50400001928E-02 0. -1.
    10030    2    1    2    0    0  0.00000000000E+00  0.00000000000E+00 -0.14717119328E+04  0.39630444301E+04  0.36796447033E+04 0.  0.
        5    1    3    3  502    0  0.20317560181E+03 -0.66741567586E+03  0.10976707603E+04  0.13006256947E+04  0.46999998093E+01 0.  1.
       -5    1    3    3    0  502 -0.20317560181E+03  0.66741567586E+03 -0.25693826931E+04  0.26624187355E+04  0.46999998093E+01 0. -1.
</event>
<event>
 5   0  0.1066907E-06  0.3660494E+04  0.7818609E-02  0.8076774E-01
        2   -1    0    0  501    0  0.00000000000E+00  0.00000000000E+00  0.18764889253E+04  0.18764889253E+04  0.25500000920E-02 0. -1.
       -2   -1    0    0    0  501  0.00000000000E+00  0.00000000000E+00 -0.17851447364E+04  0.17851447364E+04  0.25500000920E-02 0.  1.
    10030    2    1    2    0    0  0.00000000000E+00  0.00000000000E+00  0.91344188856E+02  0.36616336617E+04  0.36604941349E+04 0.  0.
        4    1    3    3  502    0  0.15620085123E+04 -0.31978508033E+03 -0.85331209062E+03  0.18083905073E+04  0.12699999809E+01 0.  1.
       -4    1    3    3    0  502 -0.15620085123E+04  0.31978508033E+03  0.94465627947E+03  0.18532431544E+04  0.12699999809E+01 0. -1.
</event>
<event>
 5   0  0.3682276E-07  0.3684823E+04  0.7818609E-02  0.8071334E-01
       -1   -1    0    0    0  501  0.00000000000E+00  0.00000000000E+00  0.29234091850E+04  0.29234091850E+04  0.50400001928E-02 0.  1.
        1   -1    0    0  501    0  0.00000000000E+00  0.00000000000E+00 -0.11611372348E+04  0.11611372348E+04  0.50400001928E-02 0. -1.
    10030    2    1    2    0    0  0.00000000000E+00  0.00000000000E+00  0.17622719503E+04  0.40845464198E+04  0.36848225234E+04 0.  0.
        1    1    3    3  502    0  0.18396082252E+04 -0.53367192841E+02  0.78531329914E+03  0.20009306478E+04  0.50400001928E-02 0. -1.
       -1    1    3    3    0  502 -0.18396082252E+04  0.53367192841E+02  0.97695865112E+03  0.20836157720E+04  0.50400001928E-02 0.  1.
</event>
<event>
 5   0  0.1051123E-06  0.3543772E+04  0.7818609E-02  0.8103494E-01
       -2   -1    0    0    0  501  0.00000000000E+00  0.00000000000E+00  0.13204608921E+04  0.13204608921E+04  0.25500000920E-02 0. -1.
        2   -1    0    0  501    0  0.00000000000E+00  0.00000000000E+00 -0.23776392443E+04  0.23776392443E+04  0.25500000920E-02 0.  1.
    10030    2    1    2    0    0  0.00000000000E+00  0.00000000000E+00 -0.10571783522E+04  0.36981001364E+04  0.35437717972E+04 0.  0.
        2    1    3    3  502    0 -0.92034563499E+03  0.11799217447E+03 -0.21038374223E+04  0.22993673348E+04  0.25500000920E-02 0.  1.
       -2    1    3    3    0  502  0.92034563499E+03 -0.11799217447E+03  0.10466590701E+04  0.13987328016E+04  0.25500000920E-02 0. -1.
</event>
<event>
 5   0  0.1128530E-06  0.2710915E+04  0.7818609E-02  0.8331472E-01
        2   -1    0    0  501    0  0.00000000000E+00  0.00000000000E+00  0.18765868898E+04  0.18765868898E+04  0.25500000920E-02 0.  1.
       -2   -1    0    0    0  501  0.00000000000E+00  0.00000000000E+00 -0.97904627854E+03  0.97904627855E+03  0.25500000920E-02 0. -1.
    10030    2    1    2    0    0  0.00000000000E+00  0.00000000000E+00  0.89754061123E+03  0.28556331683E+04  0.27109152778E+04 0.  0.
        5    1    3    3  502    0  0.24455374786E+03 -0.51633740288E+03  0.17435462669E+04  0.18347715182E+04  0.46999998093E+01 0.  1.
       -5    1    3    3    0  502 -0.24455374786E+03  0.51633740288E+03 -0.84600565568E+03  0.10208616501E+04  0.46999998093E+01 0. -1.
</event>
<event>
 5   0  0.3704306E-07  0.3720294E+04  0.7818609E-02  0.8063479E-01
       -1   -1    0    0    0  501  0.00000000000E+00  0.00000000000E+00  0.26006571577E+04  0.26006571577E+04  0.50400001928E-02 0. -1.
        1   -1    0    0  501    0  0.00000000000E+00  0.00000000000E+00 -0.13304895697E+04  0.13304895697E+04  0.50400001928E-02 0.  1.
    10030    2    1    2    0    0  0.00000000000E+00  0.00000000000E+00  0.12701675879E+04  0.39311467274E+04  0.37202941942E+04 0.  0.
        3    1    3    3  502    0  0.22951974459E+03  0.96895784568E+03  0.22953064202E+04  0.25019972407E+04  0.10100000352E+00 0. -1.
       -3    1    3    3    0  502 -0.22951974459E+03 -0.96895784568E+03 -0.10251388322E+04  0.14291494867E+04  0.10100000352E+00 0.  1.
</event>
<event>
 5   0  0.3675819E-07  0.3651330E+04  0.7818609E-02  0.8078834E-01
        1   -1    0    0  501    0  0.00000000000E+00  0.00000000000E+00  0.25020187494E+04  0.25020187494E+04  0.50400001928E-02 0. -1.
       -1   -1    0    0    0  501  0.00000000000E+00  0.00000000000E+00 -0.13321456556E+04  0.13321456557E+04  0.50400001928E-02 0.  1.
    10030    2    1    2    0    0  0.00000000000E+00  0.00000000000E+00  0.11698730937E+04  0.38341644050E+04  0.36513303917E+04 0.  0.
        5    1    3    3  502    0  0.11331980366E+03  0.17987958374E+04  0.27964957530E+03  0.18239336110E+04  0.46999998093E+01 0.  1.
       -5    1    3    3    0  502 -0.11331980366E+03 -0.17987958374E+04  0.89022351842E+03  0.20102307940E+04  0.46999998093E+01 0. -1.
</event>
<event>
 5   0  0.1051123E-06  0.2582413E+04  0.7818609E-02  0.8374200E-01
        2   -1    0    0  501    0  0.00000000000E+00  0.00000000000E+00  0.13010044664E+04  0.13010044664E+04  0.25500000920E-02 0. -1.
       -2   -1    0    0    0  501  0.00000000000E+00  0.00000000000E+00 -0.12814823647E+04  0.12814823647E+04  0.25500000920E-02 0.  1.
    10030    2    1    2    0    0  0.00000000000E+00  0.00000000000E+00  0.19522101737E+02  0.25824868311E+04  0.25824130422E+04 0.  0.
        2    1    3    3  502    0  0.11155290865E+03  0.34586589744E+03  0.12488069501E+04  0.13006098835E+04  0.25500000920E-02 0. -1.
       -2    1    3    3    0  502 -0.11155290865E+03 -0.34586589744E+03 -0.12292848484E+04  0.12818769476E+04  0.25500000920E-02 0.  1.
</event>
<event>
 5   0  0.3764495E-07  0.2503237E+04  0.7818609E-02  0.8401833E-01
        1   -1    0    0  501    0  0.00000000000E+00  0.00000000000E+00  0.19832527461E+04  0.19832527461E+04  0.50400001928E-02 0.  1.
       -1   -1    0    0    0  501  0.00000000000E+00  0.00000000000E+00 -0.78988867457E+03  0.78988867458E+03  0.50400001928E-02 0. -1.
    10030    2    1    2    0    0  0.00000000000E+00  0.00000000000E+00  0.11933640715E+04  0.27731414206E+04  0.25032370107E+04 0.  0.
        4    1    3    3  502    0  0.10143662929E+04  0.19248572781E+03  0.13804672195E+04  0.17238564582E+04  0.12699999809E+01 0.  1.
       -4    1    3    3    0  502 -0.10143662929E+04 -0.19248572781E+03 -0.18710314801E+03  0.10492849624E+04  0.12699999809E+01 0. -1.
</event>
<event>
 5   0  0.1128166E-06  0.3715046E+04  0.7818609E-02  0.8064636E-01
        2   -1    0    0  501    0  0.00000000000E+00  0.00000000000E+00  0.25096680887E+04  0.25096680887E+04  0.25500000920E-02 0. -1.
       -2   -1    0    0    0  501  0.00000000000E+00  0.00000000000E+00 -0.13748401072E+04  0.13748401072E+04  0.25500000920E-02 0.  1.
    10030    2    1    2    0    0  0.00000000000E+00  0.00000000000E+00  0.11348279814E+04  0.38845081959E+04  0.37150463492E+04 0.  0.
        3    1    3    3  502    0  0.12929912997E+04 -0.69947720827E+03  0.17546809190E+04  0.22891046293E+04  0.10100000352E+00 0. -1.
       -3    1    3    3    0  502 -0.12929912997E+04  0.69947720827E+03 -0.61985293757E+03  0.15954035666E+04  0.10100000352E+00 0.  1.
</event>
<event>
 5   0  0.1128530E-06  0.3775564E+04  0.7818609E-02  0.8051419E-01
        2   -1    0    0  501    0  0.00000000000E+00  0.00000000000E+00  0.25703159243E+04  0.25703159244E+04  0.25500000920E-02 0. -1.
       -2   -1    0    0    0  501  0.00000000000E+00  0.00000000000E+00 -0.13864912303E+04  0.13864912303E+04  0.25500000920E-02 0.  1.
    10030    2    1    2    0    0  0.00000000000E+00  0.00000000000E+00  0.11838246941E+04  0.39568071547E+04  0.37755637927E+04 0.  0.
        5    1    3    3  502    0 -0.14963692721E+04 -0.76432068009E+03 -0.30985337834E+03  0.17086071247E+04  0.46999998093E+01 0.  1.
       -5    1    3    3    0  502  0.14963692721E+04  0.76432068009E+03  0.14936780724E+04  0.22482000299E+04  0.46999998093E+01 0. -1.
</event>
<event>
 5   0  0.1066907E-06  0.2506159E+04  0.7818609E-02  0.8400795E-01
       -2   -1    0    0    0  501  0.00000000000E+00  0.00000000000E+00  0.82774195204E+03  0.82774195205E+03  0.25500000920E-02 0.  1.
        2   -1    0    0  501    0  0.00000000000E+00  0.00000000000E+00 -0.18969778119E+04  0.18969778119E+04  0.25500000920E-02 0. -1.
    10030    2    1    2    0    0  0.00000000000E+00  0.00000000000E+00 -0.10692358598E+04  0.27247197639E+04  0.25061589072E+04 0.  0.
        4    1    3    3  502    0  0.50401722862E+03 -0.11081752702E+04 -0.21187835283E+03  0.12357102596E+04  0.12699999809E+01 0. -1.
       -4    1    3    3    0  502 -0.50401722862E+03  0.11081752702E+04 -0.85735750701E+03  0.14890095044E+04  0.12699999809E+01 0.  1.
</event>
<event>
 5   0  0.3682276E-07  0.3720000E+04  0.7818609E-02  0.8063544E-01
       -1   -1    0    0    0  501  0.00000000000E+00  0.00000000000E+00  0.10311371536E+04  0.10311371537E+04  0.50400001928E-02 0.  1.
        1   -1    0    0  501    0  0.00000000000E+00  0.00000000000E+00 -0.33551314475E+04  0.33551314476E+04  0.50400001928E-02 0. -1.
    10030    2    1    2    0    0  0.00000000000E+00  0.00000000000E+00 -0.23239942939E+04  0.43862686012E+04  0.37200003715E+04 0.  0.
        1    1    3    3  502    0 -0.91966881046E+03 -0.74411077827E+02 -0.30662681722E+04  0.32020818592E+04  0.50400001928E-02 0. -1.
       -1    1    3    3    0  502  0.91966881046E+03  0.74411077827E+02  0.74227387829E+03  0.11841867420E+04  0.50400001928E-02 0.  1.
</event>
<event>
 5   0  0.1092116E-06  0.3728662E+04  0.7818609E-02  0.8061639E-01
        2   -1    0    0  501    0  0.00000000000E+00  0.00000000000E+00  0.21637918591E+04  0.21637918591E+04  0.25500000920E-02 0.  1.
       -2   -1    0    0    0  501  0.00000000000E+00  0.00000000000E+00 -0.16063145956E+04  0.16063145956E+04  0.25500000920E-02 0. -1.
    10030    2    1    2    0    0  0.00000000000E+00  0.00000000000E+00  0.55747726344E+03  0.37701064547E+04  0.37286621972E+04 0.  0.
        1    1    3    3  502    0  0.14169261192E+04 -0.51719296278E+03  0.13866191274E+04  0.20488730543E+04  0.50400001928E-02 0.  1.
       -1    1    3    3    0  502 -0.14169261192E+04  0.51719296278E+03 -0.82914186398E+03  0.17212334004E+04  0.50400001928E-02 0. -1.
</event>
<event>
 5   0  0.3682276E-07  0.2303144E+04  0.7818609E-02  0.8476683E-01
        1   -1    0    0  501    0  0.00000000000E+00  0.00000000000E+00  0.49083908812E+03  0.49083908815E+03  0.50400001928E-02 0.  1.
       -1   -1    0    0    0  501  0.00000000000E+00  0.00000000000E+00 -0.27017363583E+04  0.27017363583E+04  0.50400001928E-02 0. -1.
    10030    2    1    2    0    0  0.00000000000E+00  0.00000000000E+00 -0.22108972702E+04  0.31925754465E+04  0.23031437736E+04 0.  0.
        1    1    3    3  502    0  0.86128441710E+03 -0.11143525370E+03 -0.57171658990E+02  0.87034318606E+03  0.50400001928E-02 0.  1.
       -1    1    3    3    0  502 -0.86128441710E+03  0.11143525370E+03 -0.21537256112E+04  0.23222322604E+04  0.50400001928E-02 0. -1.
</event>
<event>
 5   0  0.1066907E-06  0.3627039E+04  0.7818609E-02  0.8084326E-01
       -2   -1    0    0    0  501  0.00000000000E+00  0.00000000000E+00  0.12451189124E+04  0.12451189124E+04  0.25500000920E-02 0. -1.
        2   -1    0    0  501    0  0.00000000000E+00  0.00000000000E+00 -0.26413971866E+04  0.26413971866E+04  0.25500000920E-02 0.  1.
    10030    2    1    2    0    0  0.00000000000E+00  0.00000000000E+00 -0.13962782742E+04  0.38865160989E+04  0.36270393392E+04 0.  0.
        4    1    3    3  502    0  0.13271347004E+04  0.87220208829E+03  0.24019488800E+03  0.16061501153E+04  0.12699999809E+01 0. -1.
       -4    1    3    3    0  502 -0.13271347004E+04 -0.87220208829E+03 -0.16364731622E+04  0.22803659836E+04  0.12699999809E+01 0.  1.
</event>
<event>
 5   0  0.3682276E-07  0.3333265E+04  0.7818609E-02  0.8154482E-01
       -1   -1    0    0    0  501  0.00000000000E+00  0.00000000000E+00  0.86396223691E+03  0.86396223693E+03  0.50400001928E-02 0. -1.
        1   -1    0    0  501    0  0.00000000000E+00  0.00000000000E+00 -0.32150294839E+04  0.32150294839E+04  0.50400001928E-02 0.  1.
    10030    2    1    2    0    0  0.00000000000E+00  0.00000000000E+00 -0.23510672470E+04  0.40789917208E+04  0.33332651048E+04 0.  0.
        1    1    3    3  502    0  0.43656839042E+03  0.74785245423E+03  0.56705281273E+03  0.10350962010E+04  0.50400001928E-02 0. -1.
       -1    1    3    3    0  502 -0.43656839042E+03 -0.74785245423E+03 -0.29181200597E+04  0.30438955198E+04  0.50400001928E-02 0.  1.
</event>
<event>
 5   0  0.1128530E-06  0.3783693E+04  0.7818609E-02  0.8049663E-01
       -2   -1    0    0    0  501  0.00000000000E+00  0.00000000000E+00  0.19473282488E+04  0.19473282488E+04  0.25500000920E-02 0. -1.
        2   -1    0    0  501    0  0.00000000000E+00  0.00000000000E+00 -0.18379459079E+04  0.18379459079E+04  0.25500000920E-02 0.  1.
    10030    2    1    2    0    0  0.00000000000E+00  0.00000000000E+00  0.10938234095E+03  0.37852741567E+04  0.37836934264E+04 0.  0.
        5    1    3    3  502    0 -0.45516889899E+03 -0.91275022379E+03  0.16487087075E+04  0.19386990972E+04  0.46999998093E+01 0. -1.
       -5    1    3    3    0  502  0.45516889899E+03  0.91275022379E+03 -0.15393263665E+04  0.18465750595E+04  0.46999998093E+01 0.  1.
</event>
<event>
 5   0  0.1128530E-06  0.3677336E+04  0.7818609E-02  0.8073003E-01
        2   -1    0    0  501    0  0.00000000000E+00  0.00000000000E+00  0.29044567621E+04  0.29044567621E+04  0.25500000920E-02 0.  1.
       -2   -1    0    0    0  501  0.00000000000E+00  0.00000000000E+00 -0.11639698852E+04  0.11639698852E+04  0.25500000920E-02 0. -1.
    10030    2    1    2    0    0  0.00000000000E+00  0.00000000000E+00  0.17404868768E+04  0.40684266473E+04  0.36773361032E+04 0.  0.
        5    1    3    3  502    0 -0.12730227213E+04 -0.19497950048E+03  0.23220845905E+04  0.26553159492E+04  0.46999998093E+01 0.  1.
       -5    1    3    3    0  502  0.12730227213E+04  0.19497950048E+03 -0.58159771369E+03  0.14131106981E+04  0.46999998093E+01 0. -1.
</event>
<event>
 5   0  0.1051123E-06  0.3676234E+04  0.7818609E-02  0.8073249E-01
        2   -1    0    0  501    0  0.00000000000E+00  0.00000000000E+00  0.17221656138E+04  0.17221656138E+04  0.25500000920E-02 0.  1.
       -2   -1    0    0    0  501  0.00000000000E+00  0.00000000000E+00 -0.19618747799E+04  0.19618747799E+04  0.25500000920E-02 0. -1.
    10030    2    1    2    0    0  0.00000000000E+00  0.00000000000E+00 -0.23970916615E+03  0.36840403937E+04  0.36762335533E+04 0.  0.
        2    1    3    3  502    0  0.41649410211E+03 -0.13522670359E+03  0.16691310310E+04  0.17256164108E+04  0.25500000920E-02 0.  1.
       -2    1    3    3    0  502 -0.41649410211E+03  0.13522670359E+03 -0.19088401972E+04  0.19584239829E+04  0.25500000920E-02 0. -1.
</event>
<event>
 5   0  0.1051123E-06  0.3660277E+04  0.7818609E-02  0.8076822E-01
        2   -1    0    0  501    0  0.00000000000E+00  0.00000000000E+00  0.18310502362E+04  0.18310502362E+04  0.25500000920E-02 0. -1.
       -2   -1    0    0    0  501  0.00000000000E+00  0.00000000000E+00 -0.18292275902E+04  0.18292275902E+04  0.25500000920E-02 0.  1.
    10030    2    1    2    0    0  0.00000000000E+00  0.00000000000E+00  0.18226459508E+01  0.36602778264E+04  0.36602773726E+04 0.  0.
        2    1    3    3  502    0 -0.31225591807E+03  0.17962820336E+04  0.15989155677E+03  0.18302180779E+04  0.25500000920E-02 0. -1.
       -2    1    3    3    0  502  0.31225591807E+03 -0.17962820336E+04 -0.15806891082E+03  0.18300597485E+04  0.25500000920E-02 0.  1.
</event>
<event>
 5   0  0.1092116E-06  0.3647564E+04  0.7818609E-02  0.8079683E-01
        2   -1    0    0  501    0  0.00000000000E+00  0.00000000000E+00  0.33328011885E+04  0.33328011885E+04  0.25500000920E-02 0.  1.
       -2   -1    0    0    0  501  0.00000000000E+00  0.00000000000E+00 -0.99801347450E+03  0.99801347451E+03  0.25500000920E-02 0. -1.
    10030    2    1    2    0    0  0.00000000000E+00  0.00000000000E+00  0.23347877140E+04  0.43308146630E+04  0.36475638412E+04 0.  0.
        1    1    3    3  502    0  0.95884539284E+03  0.15357285022E+04  0.14284253751E+04  0.23061321671E+04  0.50400001928E-02 0. -1.
       -1    1    3    3    0  502 -0.95884539284E+03 -0.15357285022E+04  0.90636233880E+03  0.20246824959E+04  0.50400001928E-02 0.  1.
</event>
<event>
 5   0  0.3675819E-07  0.3938240E+04  0.7818609E-02  0.8017123E-01
        1   -1    0    0  501    0  0.00000000000E+00  0.00000000000E+00  0.24998389344E+04  0.24998389344E+04  0.50400001928E-02 0. -1.
       -1   -1    0    0    0  501  0.00000000000E+00  0.00000000000E+00 -0.15510733255E+04  0.15510733255E+04  0.50400001928E-02 0.  1.
    10030    2    1    2    0    0  0.00000000000E+00  0.00000000000E+00  0.94876560889E+03  0.40509122599E+04  0.39382399567E+04 0.  0.
        5    1    3    3  502    0  0.55501899760E+03 -0.34924221430E+03  0.23842193439E+04  0.24727596287E+04  0.46999998093E+01 0. -1.
       -5    1    3    3    0  502 -0.55501899760E+03  0.34924221430E+03 -0.14354537350E+04  0.15781526311E+04  0.46999998093E+01 0.  1.
</event>
<event>
 5   0  0.3704306E-07  0.3477345E+04  0.7818609E-02  0.8119180E-01
       -1   -1    0    0    0  501  0.00000000000E+00  0.00000000000E+00  0.14284644273E+04  0.14284644273E+04  0.50400001928E-02 0.  1.
        1   -1    0    0  501    0  0.00000000000E+00  0.00000000000E+00 -0.21162459507E+04  0.21162459507E+04  0.50400001928E-02 0. -1.
    10030    2    1    2    0    0  0.00000000000E+00  0.00000000000E+00 -0.68778152341E+03  0.35447103780E+04  0.34773449987E+04 0.  0.
        3    1    3    3  502    0 -0.10662917193E+04 -0.13459415176E+04 -0.62202346507E+03  0.18263213848E+04  0.10100000352E+00 0. -1.
       -3    1    3    3    0  502  0.10662917193E+04  0.13459415176E+04 -0.65758058349E+02  0.17183889932E+04  0.10100000352E+00 0.  1.
</event>
<event>
 5   0  0.1128166E-06  0.3678775E+04  0.7818609E-02  0.8072682E-01
        2   -1    0    0  501    0  0.00000000000E+00  0.00000000000E+00  0.22157388376E+04  0.22157388376E+04  0.25500000920E-02 0. -1.
       -2   -1    0    0    0  501  0.00000000000E+00  0.00000000000E+00 -0.15269610602E+04  0.15269610602E+04  0.25500000920E-02 0.  1.
    10030    2    1    2    0    0  0.00000000000E+00  0.00000000000E+00  0.68877777737E+03  0.37426998978E+04  0.36787752987E+04 0.  0.
        3    1    3    3  502    0 -0.85932408911E+03  0.71461524925E+03  0.18306761920E+04  0.21448748623E+04  0.10100000352E+00 0. -1.
       -3    1    3    3    0  502  0.85932408911E+03 -0.71461524925E+03 -0.11418984147E+04  0.15978250355E+04  0.10100000352E+00 0.  1.
</event>
<event>
 5   0  0.3682276E-07  0.2449749E+04  0.7818609E-02  0.8421110E-01
       -1   -1    0    0    0  501  0.00000000000E+00  0.00000000000E+00  0.10466706073E+04  0.10466706073E+04  0.50400001928E-02 0. -1.
        1   -1    0    0  501    0  0.00000000000E+00  0.00000000000E+00 -0.14334191565E+04  0.14334191565E+04  0.50400001928E-02 0.  1.
    10030    2    1    2    0    0  0.00000000000E+00  0.00000000000E+00 -0.38674854923E+03  0.24800897638E+04  0.24497491292E+04 0.  0.
        1    1    3    3  502    0 -0.10491600448E+04  0.20943020028E+03  0.41043511588E+03  0.11458860296E+04  0.50400001928E-02 0.  1.
       -1    1    3    3    0  502  0.10491600448E+04 -0.20943020028E+03 -0.79718366511E+03  0.13342037342E+04  0.50400001928E-02 0. -1.
</event>
<event>
 5   0  0.1051123E-06  0.3508151E+04  0.7818609E-02  0.8111861E-01
        2   -1    0    0  501    0  0.00000000000E+00  0.00000000000E+00  0.25106878111E+04  0.25106878111E+04  0.25500000920E-02 0. -1.
       -2   -1    0    0    0  501  0.00000000000E+00  0.00000000000E+00 -0.12254736015E+04  0.12254736015E+04  0.25500000920E-02 0.  1.
    10030    2    1    2    0    0  0.00000000000E+00  0.00000000000E+00  0.12852142096E+04  0.37361614126E+04  0.35081514415E+04 0.  0.
        2    1    3    3  502    0 -0.16029757264E+04  0.38912401400E+03  0.73194995455E+01  0.16495460748E+04  0.25500000920E-02 0.  1.
       -2    1    3    3    0  502  0.16029757264E+04 -0.38912401400E+03  0.12778947101E+04  0.20866153378E+04  0.25500000920E-02 0. -1.
</event>
<event>
 5   0  0.3764495E-07  0.3646451E+04  0.7818609E-02  0.8079934E-01
        1   -1    0    0  501    0  0.00000000000E+00  0.00000000000E+00  0.24838205520E+04  0.24838205521E+04  0.50400001928E-02 0.  1.
       -1   -1    0    0    0  501  0.00000000000E+00  0.00000000000E+00 -0.13383216801E+04  0.13383216801E+04  0.50400001928E-02 0. -1.
    10030    2    1    2    0    0  0.00000000000E+00  0.00000000000E+00  0.11454988720E+04  0.38221422321E+04  0.36464508192E+04 0.  0.
        4    1    3    3  502    0  0.12436263889E+04  0.64049404344E+03  0.17984093696E+04  0.22784023105E+04  0.12699999809E+01 0.  1.
       -4    1    3    3    0  502 -0.12436263889E+04 -0.64049404344E+03 -0.65291049759E+03  0.15437399216E+04  0.12699999809E+01 0. -1.
</event>
<event>
 5   0  0.3682276E-07  0.3280595E+04  0.7818609E-02  0.8167851E-01
        1   -1    0    0  501    0  0.00000000000E+00  0.00000000000E+00  0.12322833155E+04  0.12322833155E+04  0.50400001928E-02 0.  1.
       -1   -1    0    0    0  501  0.00000000000E+00  0.00000000000E+00 -0.21834069478E+04  0.21834069478E+04  0.50400001928E-02 0. -1.
    10030    2    1    2    0    0  0.00000000000E+00  0.00000000000E+00 -0.95112363227E+03  0.34156902633E+04  0.32805950392E+04 0.  0.
        1    1    3    3  502    0  0.73266244116E+02 -0.11661827942E+04  0.72302855035E+03  0.13740889843E+04  0.50400001928E-02 0.  1.
       -1    1    3    3    0  502 -0.73266244116E+02  0.11661827942E+04 -0.16741521826E+04  0.20416012790E+04  0.50400001928E-02 0. -1.
</event>
<event>
 5   0  0.3848431E-07  0.3898205E+04  0.7818609E-02  0.8025403E-01
        1   -1    0    0  501    0  0.00000000000E+00  0.00000000000E+00  0.15304867367E+04  0.15304867367E+04  0.50400001928E-02 0. -1.
       -1   -1    0    0    0  501  0.00000000000E+00  0.00000000000E+00 -0.24822169087E+04  0.24822169087E+04  0.50400001928E-02 0.  1.
    10030    2    1    2    0    0  0.00000000000E+00  0.00000000000E+00 -0.95173017194E+03  0.40127036454E+04  0.38982047440E+04 0.  0.
        2    1    3    3  502    0  0.11325521530E+03 -0.81093490721E+03  0.13448606813E+04  0.15745133914E+04  0.25500000920E-02 0. -1.
       -2    1    3    3    0  502 -0.11325521530E+03  0.81093490721E+03 -0.22965908533E+04  0.24381902540E+04  0.25500000920E-02 0.  1.
</event>
<event>
 5   0  0.3675819E-07  0.3678047E+04  0.7818609E-02  0.8072844E-01
       -1   -1    0    0    0  501  0.00000000000E+00  0.00000000000E+00  0.14381483505E+04  0.14381483505E+04  0.50400001928E-02 0. -1.
        1   -1    0    0  501    0  0.00000000000E+00  0.00000000000E+00 -0.23516401460E+04  0.23516401460E+04  0.50400001928E-02 0.  1.
    10030    2    1    2    0    0  0.00000000000E+00  0.00000000000E+00 -0.91349179556E+03  0.37897884965E+04  0.36780469801E+04 0.  0.
        5    1    3    3  502    0 -0.17989248339E+04 -0.42500879382E+02 -0.65678189040E+02  0.18006311664E+04  0.46999998093E+01 0.  1.
       -5    1    3    3    0  502  0.17989248339E+04  0.42500879382E+02 -0.84781360652E+03  0.19891573302E+04  0.46999998093E+01 0. -1.
</event>
<event>
 5   0  0.1066907E-06  0.3697727E+04  0.7818609E-02  0.8068466E-01
       -2   -1    0    0    0  501  0.00000000000E+00  0.00000000000E+00  0.22368888568E+04  0.22368888568E+04  0.25500000920E-02 0.  1.
        2   -1    0    0  501    0  0.00000000000E+00  0.00000000000E+00 -0.15281472677E+04  0.15281472677E+04  0.25500000920E-02 0. -1.
    10030    2    1    2    0    0  0.00000000000E+00  0.00000000000E+00  0.70874158911E+03  0.37650361245E+04  0.36977266500E+04 0.  0.
        4    1    3    3  502    0 -0.78453888762E+03  0.11880731691E+04 -0.84662313719E+03  0.16564393954E+04  0.12699999809E+01 0. -1.
       -4    1    3    3    0  502  0.78453888762E+03 -0.11880731691E+04  0.15553647263E+04  0.21085967291E+04  0.12699999809E+01 0.  1.
</event>
<event>
 5   0  0.1066907E-06  0.2396010E+04  0.7818609E-02  0.8440999E-01
        2   -1    0    0  501    0  0.00000000000E+00  0.00000000000E+00  0.19036593842E+04  0.19036593842E+04  0.25500000920E-02 0.  1.
       -2   -1    0    0    0  501  0.00000000000E+00  0.00000000000E+00 -0.75392508804E+03  0.75392508804E+03  0.25500000920E-02 0. -1.
    10030    2    1    2    0    0  0.00000000000E+00  0.00000000000E+00  0.11497342962E+04  0.26575844722E+04  0.23960104915E+04 0.  0.
        4    1    3    3  502    0  0.21627825303E+03  0.11769568665E+04  0.51201320214E+03  0.13016001231E+04  0.12699999809E+01 0. -1.
       -4    1    3    3    0  502 -0.21627825303E+03 -0.11769568665E+04  0.63772109401E+03  0.13559843491E+04  0.12699999809E+01 0.  1.
</event>
<event>
 5   0  0.3848431E-07  0.3658260E+04  0.7818609E-02  0.8077275E-01
       -1   -1    0    0    0  501  0.00000000000E+00  0.00000000000E+00  0.30716343542E+04  0.30716343542E+04  0.50400001928E-02 0. -1.
        1   -1    0    0  501    0  0.00000000000E+00  0.00000000000E+00 -0.10892299923E+04  0.10892299923E+04  0.50400001928E-02 0.  1.
    10030    2    1    2    0    0  0.00000000000E+00  0.00000000000E+00  0.19824043619E+04  0.41608643465E+04  0.36582598399E+04 0.  0.
        2    1    3    3  502    0  0.12316566969E+04 -0.80715690955E+03 -0.24287048234E+03  0.14924699551E+04  0.25500000920E-02 0.  1.
       -2    1    3    3    0  502 -0.12316566969E+04  0.80715690955E+03  0.22252748443E+04  0.26683943914E+04  0.25500000920E-02 0. -1.
</event>
<event>
 5   0  0.1066907E-06  0.3641038E+04  0.7818609E-02  0.8081156E-01
       -2   -1    0    0    0  501  0.00000000000E+00  0.00000000000E+00  0.19666695197E+04  0.19666695197E+04  0.25500000920E-02 0.  1.
        2   -1    0    0  501    0  0.00000000000E+00  0.00000000000E+00 -0.16852291064E+04  0.16852291064E+04  0.25500000920E-02 0. -1.
    10030    2    1    2    0    0  0.00000000000E+00  0.00000000000E+00  0.28144041328E+03  0.36518986261E+04  0.36410376089E+04 0.  0.
        4    1    3    3  502    0  0.10303464121E+04 -0.97972999564E+03  0.12811265964E+04  0.19138368692E+04  0.12699999809E+01 0.  1.
       -4    1    3    3    0  502 -0.10303464121E+04  0.97972999564E+03 -0.99968618310E+03  0.17380617569E+04  0.12699999809E+01 0. -1.
</event>
<event>
 5   0  0.1092116E-06  0.3721459E+04  0.7818609E-02  0.8063223E-01
        2   -1    0    0  501    0  0.00000000000E+00  0.00000000000E+00  0.23106240676E+04  0.23106240676E+04  0.25500000920E-02 0. -1.
       -2   -1    0    0    0  501  0.00000000000E+00  0.00000000000E+00 -0.14984321616E+04  0.14984321616E+04  0.25500000920E-02 0.  1.
    10030    2    1    2    0    0  0.00000000000E+00  0.00000000000E+00  0.81219190598E+03  0.38090562292E+04  0.37214585400E+04 0.  0.
        1    1    3    3  502    0  0.93697968290E+03  0.15701638288E+04  0.75913224533E+03  0.19798048241E+04  0.50400001928E-02 0. -1.
       -1    1    3    3    0  502 -0.93697968290E+03 -0.15701638288E+04  0.53059660654E+02  0.18292514051E+04  0.50400001928E-02 0.  1.
</event>
<event>
 5   0  0.1066907E-06  0.3504516E+04  0.7818609E-02  0.8112720E-01
        2   -1    0    0  501    0  0.00000000000E+00  0.00000000000E+00  0.26824521748E+04  0.26824521748E+04  0.25500000920E-02 0.  1.
       -2   -1    0    0    0  501  0.00000000000E+00  0.00000000000E+00 -0.11446276517E+04  0.11446276517E+04  0.25500000920E-02 0. -1.
    10030    2    1    2    0    0  0.00000000000E+00  0.00000000000E+00  0.15378245232E+04  0.38270798265E+04  0.35045164765E+04 0.  0.
        4    1    3    3  502    0 -0.10454489939E+04  0.64294247962E+02 -0.76512910216E+03  0.12971204666E+04  0.12699999809E+01 0. -1.
       -4    1    3    3    0  502  0.10454489939E+04 -0.64294247962E+02  0.23029536254E+04  0.25299593599E+04  0.12699999809E+01 0.  1.
</event>
<event>
 5   0  0.3675819E-07  0.3717301E+04  0.7818609E-02  0.8064139E-01
       -1   -1    0    0    0  501  0.00000000000E+00  0.00000000000E+00  0.28427939063E+04  0.28427939063E+04  0.50400001928E-02 0. -1.
        1   -1    0    0  501    0  0.00000000000E+00  0.00000000000E+00 -0.12152062803E+04  0.12152062803E+04  0.50400001928E-02 0.  1.
    10030    2    1    2    0    0  0.00000000000E+00  0.00000000000E+00  0.16275876260E+04  0.40580001866E+04  0.37173006381E+04 0.  0.
        5    1    3    3  502    0 -0.10597683637E+04 -0.34775258806E+03 -0.80925436422E+03  0.13780259661E+04  0.46999998093E+01 0.  1.
       -5    1    3    3    0  502  0.10597683637E+04  0.34775258806E+03  0.24368419903E+04  0.26799742205E+04  0.46999998093E+01 0. -1.
</event>
<event>
 5   0  0.1128530E-06  0.2409609E+04  0.7818609E-02  0.8435915E-01
       -2   -1    0    0    0  501  0.00000000000E+00  0.00000000000E+00  0.14828100558E+04  0.14828100558E+04  0.25500000920E-02 0.  1.
        2   -1    0    0  501    0  0.00000000000E+00  0.00000000000E+00 -0.97892104178E+03  0.97892104178E+03  0.25500000920E-02 0. -1.
    10030    2    1    2    0    0  0.00000000000E+00  0.00000000000E+00  0.50388901403E+03  0.24617310976E+04  0.24096090675E+04 0.  0.
        5    1    3    3  502    0 -0.89488968580E+03 -0.59035477137E+03  0.81354940033E+03  0.13458198329E+04  0.46999998093E+01 0.  1.
       -5    1    3    3    0  502  0.89488968580E+03  0.59035477137E+03 -0.30966038630E+03  0.11159112647E+04  0.46999998093E+01 0. -1.
</event>
<event>
 5   0  0.3675819E-07  0.3609989E+04  0.7818609E-02  0.8088207E-01
        1   -1    0    0  501    0  0.00000000000E+00  0.00000000000E+00  0.23194557607E+04  0.23194557607E+04  0.50400001928E-02 0.  1.
       -1   -1    0    0    0  501  0.00000000000E+00  0.00000000000E+00 -0.14046424091E+04  0.14046424091E+04  0.50400001928E-02 0. -1.
    10030    2    1    2    0    0  0.00000000000E+00  0.00000000000E+00  0.91481335160E+03  0.37240981698E+04  0.36099894335E+04 0.  0.
        5    1    3    3  502    0 -0.11427196371E+04  0.12219627000E+04  0.11563040503E+04  0.20337310923E+04  0.46999998093E+01 0.  1.
       -5    1    3    3    0  502  0.11427196371E+04 -0.12219627000E+04 -0.24149069870E+03  0.16903670775E+04  0.46999998093E+01 0. -1.
</event>
<event>
 5   0  0.3704306E-07  0.2327008E+04  0.7818609E-02  0.8467348E-01
        1   -1    0    0  501    0  0.00000000000E+00  0.00000000000E+00  0.83174483196E+03  0.83174483197E+03  0.50400001928E-02 0.  1.
       -1   -1    0    0    0  501  0.00000000000E+00  0.00000000000E+00 -0.16275918010E+04  0.16275918010E+04  0.50400001928E-02 0. -1.
    10030    2    1    2    0    0  0.00000000000E+00  0.00000000000E+00 -0.79584696901E+03  0.24593366329E+04  0.23270075797E+04 0.  0.
        3    1    3    3  502    0  0.95240969227E+03 -0.38136828241E+03  0.18211729706E+03  0.10419657906E+04  0.10100000352E+00 0.  1.
       -3    1    3    3    0  502 -0.95240969227E+03  0.38136828241E+03 -0.97796426606E+03  0.14173708423E+04  0.10100000352E+00 0. -1.
</event>
<event>
 5   0  0.1128166E-06  0.3719597E+04  0.7818609E-02  0.8063633E-01
        2   -1    0    0  501    0  0.00000000000E+00  0.00000000000E+00  0.27169951449E+04  0.27169951449E+04  0.25500000920E-02 0. -1.
       -2   -1    0    0    0  501  0.00000000000E+00  0.00000000000E+00 -0.12730425051E+04  0.12730425051E+04  0.25500000920E-02 0.  1.
    10030    2    1    2    0    0  0.00000000000E+00  0.00000000000E+00  0.14439526399E+04  0.39900376500E+04  0.37195969166E+04 0.  0.
        3    1    3    3  502    0 -0.77708033852E+03  0.11227769623E+04  0.20764652032E+04  0.24851940991E+04  0.10100000352E+00 0. -1.
       -3    1    3    3    0  502  0.77708033852E+03 -0.11227769623E+04 -0.63251256339E+03  0.15048435509E+04  0.10100000352E+00 0.  1.
</event>
<event>
 5   0  0.3682276E-07  0.3451280E+04  0.7818609E-02  0.8125434E-01
       -1   -1    0    0    0  501  0.00000000000E+00  0.00000000000E+00  0.17857729929E+04  0.17857729929E+04  0.50400001928E-02 0. -1.
        1   -1    0    0  501    0  0.00000000000E+00  0.00000000000E+00 -0.16675321244E+04  0.16675321244E+04  0.50400001928E-02 0.  1.
    10030    2    1    2    0    0  0.00000000000E+00  0.00000000000E+00  0.11824086845E+03  0.34533051173E+04  0.34512802451E+04 0.  0.
        1    1    3    3  502    0  0.11280169639E+03 -0.17073584503E+04  0.28294059116E+03  0.17343161415E+04  0.50400001928E-02 0. -1.
       -1    1    3    3    0  502 -0.11280169639E+03  0.17073584503E+04 -0.16469972271E+03  0.17189889758E+04  0.50400001928E-02 0.  1.
</event>
<event>
 5   0  0.3764495E-07  0.3564140E+04  0.7818609E-02  0.8098756E-01
       -1   -1    0    0    0  501  0.00000000000E+00  0.00000000000E+00  0.18372056900E+04  0.18372056900E+04  0.50400001928E-02 0. -1.
        1   -1    0    0  501    0  0.00000000000E+00  0.00000000000E+00 -0.17285890773E+04  0.17285890773E+04  0.50400001928E-02 0.  1.
    10030    2    1    2    0    0  0.00000000000E+00  0.00000000000E+00  0.10861661270E+03  0.35657947674E+04  0.35641401143E+04 0.  0.
        4    1    3    3  502    0  0.53859304748E+02 -0.65852430383E+03  0.17101346702E+04  0.18333350175E+04  0.12699999809E+01 0. -1.
       -4    1    3    3    0  502 -0.53859304748E+02  0.65852430383E+03 -0.16015180575E+04  0.17324597498E+04  0.12699999809E+01 0.  1.
</event>
<event>
 5   0  0.3675819E-07  0.3631829E+04  0.7818609E-02  0.8083240E-01
       -1   -1    0    0    0  501  0.00000000000E+00  0.00000000000E+00  0.15064748066E+04  0.15064748066E+04  0.50400001928E-02 0. -1.
        1   -1    0    0  501    0  0.00000000000E+00  0.00000000000E+00 -0.21889147084E+04  0.21889147084E+04  0.50400001928E-02 0.  1.
    10030    2    1    2    0    0  0.00000000000E+00  0.00000000000E+00 -0.68243990173E+03  0.36953895150E+04  0.36318286645E+04 0.  0.
        5    1    3    3  502    0  0.13760109325E+04 -0.93067013666E+03  0.40508068450E+03  0.17098729311E+04  0.46999998093E+01 0. -1.
       -5    1    3    3    0  502 -0.13760109325E+04  0.93067013666E+03 -0.10875205862E+04  0.19855165839E+04  0.46999998093E+01 0.  1.
</event>
<event>
 5   0  0.3682276E-07  0.3724408E+04  0.7818609E-02  0.8062574E-01
        1   -1    0    0  501    0  0.00000000000E+00  0.00000000000E+00  0.10606397067E+04  0.10606397067E+04  0.50400001928E-02 0.  1.
       -1   -1    0    0    0  501  0.00000000000E+00  0.00000000000E+00 -0.32695394618E+04  0.32695394618E+04  0.50400001928E-02 0. -1.
    10030    2    1    2    0    0  0.00000000000E+00  0.00000000000E+00 -0.22088997550E+04  0.43301791685E+04  0.37244078057E+04 0.  0.
        1    1    3    3  502    0  0.78100110045E+03 -0.62983605793E+03 -0.29284187928E+04  0.30955278718E+04  0.50400001928E-02 0. -1.
       -1    1    3    3    0  502 -0.78100110045E+03  0.62983605793E+03  0.71951903777E+03  0.12346512967E+04  0.50400001928E-02 0.  1.
</event>
<event>
 5   0  0.3682276E-07  0.3791087E+04  0.7818609E-02  0.8048070E-01
       -1   -1    0    0    0  501  0.00000000000E+00  0.00000000000E+00  0.14555214982E+04  0.14555214982E+04  0.50400001928E-02 0. -1.
        1   -1    0    0  501    0  0.00000000000E+00  0.00000000000E+00 -0.24685893954E+04  0.24685893954E+04  0.50400001928E-02 0.  1.
    10030    2    1    2    0    0  0.00000000000E+00  0.00000000000E+00 -0.10130678972E+04  0.39241108936E+04  0.37910868812E+04 0.  0.
        1    1    3    3  502    0 -0.90664287243E+03  0.12179443927E+04  0.66804998173E+03  0.16588190438E+04  0.50400001928E-02 0. -1.
       -1    1    3    3    0  502  0.90664287243E+03 -0.12179443927E+04 -0.16811178789E+04  0.22652918498E+04  0.50400001928E-02 0.  1.
</event>
<event>
 5   0  0.1066907E-06  0.3706797E+04  0.7818609E-02  0.8066457E-01
       -2   -1    0    0    0  501  0.00000000000E+00  0.00000000000E+00  0.16106288129E+04  0.16106288129E+04  0.25500000920E-02 0. -1.
        2   -1    0    0  501    0  0.00000000000E+00  0.00000000000E+00 -0.21327604943E+04  0.21327604943E+04  0.25500000920E-02 0.  1.
    10030    2    1    2    0    0  0.00000000000E+00  0.00000000000E+00 -0.52213168141E+03  0.37433893072E+04  0.37067967320E+04 0.  0.
        4    1    3    3  502    0  0.98423616009E+03  0.13200384349E+04  0.59813361600E+03  0.17518526548E+04  0.12699999809E+01 0. -1.
       -4    1    3    3    0  502 -0.98423616009E+03 -0.13200384349E+04 -0.11202652974E+04  0.19915366524E+04  0.12699999809E+01 0.  1.
</event>
<event>
 5   0  0.3764495E-07  0.3717920E+04  0.7818609E-02  0.8064002E-01
       -1   -1    0    0    0  501  0.00000000000E+00  0.00000000000E+00  0.29533609224E+04  0.29533609224E+04  0.50400001928E-02 0.  1.
        1   -1    0    0  501    0  0.00000000000E+00  0.00000000000E+00 -0.11701012920E+04  0.11701012920E+04  0.50400001928E-02 0. -1.
    10030    2    1    2    0    0  0.00000000000E+00  0.00000000000E+00  0.17832596304E+04  0.41234622144E+04  0.37179195425E+04 0.  0.
        4    1    3    3  502    0 -0.78597743641E+03  0.13155784891E+04 -0.27539338154E+03  0.15570325684E+04  0.12699999809E+01 0. -1.
       -4    1    3    3    0  502  0.78597743641E+03 -0.13155784891E+04  0.20586530120E+04  0.25664296461E+04  0.12699999809E+01 0.  1.
</event>
<event>
 5   0  0.3682276E-07  0.2673517E+04  0.7818609E-02  0.8343649E-01
       -1   -1    0    0    0  501  0.00000000000E+00  0.00000000000E+00  0.91939182672E+03  0.91939182673E+03  0.50400001928E-02 0.  1.
        1   -1    0    0  501    0  0.00000000000E+00  0.00000000000E+00 -0.19435926128E+04  0.19435926128E+04  0.50400001928E-02 0. -1.
    10030    2    1    2    0    0  0.00000000000E+00  0.00000000000E+00 -0.10242007860E+04  0.28629844395E+04  0.26735169068E+04 0.  0.
        1    1    3    3  502    0 -0.56185123293E+03 -0.24054140533E+03  0.76101120363E+03  0.97605073008E+03  0.50400001928E-02 0.  1.
       -1    1    3    3    0  502  0.56185123293E+03  0.24054140533E+03 -0.17852119897E+04  0.18869337094E+04  0.50400001928E-02 0. -1.
</event>
<event>
 5   0  0.3704306E-07  0.2615579E+04  0.7818609E-02  0.8362929E-01
        1   -1    0    0  501    0  0.00000000000E+00  0.00000000000E+00  0.15177190366E+04  0.15177190366E+04  0.50400001928E-02 0.  1.
       -1   -1    0    0    0  501  0.00000000000E+00  0.00000000000E+00 -0.11268971693E+04  0.11268971693E+04  0.50400001928E-02 0. -1.
    10030    2    1    2    0    0  0.00000000000E+00  0.00000000000E+00  0.39082186727E+03  0.26446162059E+04  0.26155789310E+04 0.  0.
        3    1    3    3  502    0  0.28942388462E+03 -0.63490776101E+03  0.13137822629E+04  0.14875812228E+04  0.10100000352E+00 0.  1.
       -3    1    3    3    0  502 -0.28942388462E+03  0.63490776101E+03 -0.92296039561E+03  0.11570349831E+04  0.10100000352E+00 0. -1.
</event>
<event>
 5   0  0.3675819E-07  0.3648804E+04  0.7818609E-02  0.8079403E-01
       -1   -1    0    0    0  501  0.00000000000E+00  0.00000000000E+00  0.25137414237E+04  0.25137414237E+04  0.50400001928E-02 0. -1.
        1   -1    0    0  501    0  0.00000000000E+00  0.00000000000E+00 -0.13240990551E+04  0.13240990551E+04  0.50400001928E-02 0.  1.
    10030    2    1    2    0    0  0.00000000000E+00  0.00000000000E+00  0.11896423687E+04  0.38378404788E+04  0.36488039925E+04 0.  0.
        5    1    3    3  502    0 -0.62604363885E+03  0.74922107512E+03 -0.10261773028E+04  0.14164479531E+04  0.46999998093E+01 0.  1.
       -5    1    3    3    0  502  0.62604363885E+03 -0.74922107512E+03  0.22158196714E+04  0.24213925257E+04  0.46999998093E+01 0. -1.
</event>
<event>
 5   0  0.1066907E-06  0.3742257E+04  0.7818609E-02  0.8058661E-01
       -2   -1    0    0    0  501  0.00000000000E+00  0.00000000000E+00  0.14618225524E+04  0.14618225524E+04  0.25500000920E-02 0. -1.
        2   -1    0    0  501    0  0.00000000000E+00  0.00000000000E+00 -0.23950395004E+04  0.23950395004E+04  0.25500000920E-02 0.  1.
    10030    2    1    2    0    0  0.00000000000E+00  0.00000000000E+00 -0.93321694799E+03  0.38568620528E+04  0.37422574768E+04 0.  0.
        4    1    3    3  502    0  0.15268204177E+04  0.49520821967E+03 -0.14576756011E+04  0.21682323537E+04  0.12699999809E+01 0.  1.
       -4    1    3    3    0  502 -0.15268204177E+04 -0.49520821967E+03  0.52445865312E+03  0.16886296991E+04  0.12699999809E+01 0. -1.
</event>
<event>
 5   0  0.3848431E-07  0.3736375E+04  0.7818609E-02  0.8059948E-01
       -1   -1    0    0    0  501  0.00000000000E+00  0.00000000000E+00  0.18205301180E+04  0.18205301180E+04  0.50400001928E-02 0. -1.
        1   -1    0    0  501    0  0.00000000000E+00  0.00000000000E+00 -0.19170925059E+04  0.19170925059E+04  0.50400001928E-02 0.  1.
    10030    2    1    2    0    0  0.00000000000E+00  0.00000000000E+00 -0.96562387861E+02  0.37376226239E+04  0.37363750593E+04 0.  0.
        2    1    3    3  502    0 -0.37232621241E+02 -0.17055704657E+04  0.71339786884E+03  0.18491331484E+04  0.25500000920E-02 0. -1.
       -2    1    3    3    0  502  0.37232621241E+02  0.17055704657E+04 -0.80996025670E+03  0.18884894754E+04  0.25500000920E-02 0.  1.
</event>
<event>
 5   0  0.3682276E-07  0.3716744E+04  0.7818609E-02  0.8064261E-01
        1   -1    0    0  501    0  0.00000000000E+00  0.00000000000E+00  0.19784611430E+04  0.19784611430E+04  0.50400001928E-02 0.  1.
       -1   -1    0    0    0  501  0.00000000000E+00  0.00000000000E+00 -0.17455721574E+04  0.17455721574E+04  0.50400001928E-02 0. -1.
    10030    2    1    2    0    0  0.00000000000E+00  0.00000000000E+00  0.23288898554E+03  0.37240333004E+04  0.37167441051E+04 0.  0.
        1    1    3    3  502    0 -0.23717915460E+03  0.46059678882E+03 -0.16717526011E+04  0.17501885935E+04  0.50400001928E-02 0. -1.
       -1    1    3    3    0  502  0.23717915460E+03 -0.46059678882E+03  0.19046415867E+04  0.19738447069E+04  0.50400001928E-02 0.  1.
</event>
<event>
 5   0  0.1066907E-06  0.3576089E+04  0.7818609E-02  0.8095991E-01
        2   -1    0    0  501    0  0.00000000000E+00  0.00000000000E+00  0.11925809979E+04  0.11925809979E+04  0.25500000920E-02 0. -1.
       -2   -1    0    0    0  501  0.00000000000E+00  0.00000000000E+00 -0.26808262106E+04  0.26808262106E+04  0.25500000920E-02 0.  1.
    10030    2    1    2    0    0  0.00000000000E+00  0.00000000000E+00 -0.14882452127E+04  0.38734072085E+04  0.35760885881E+04 0.  0.
        4    1    3    3  502    0 -0.80053171113E+02  0.24938343602E+02 -0.26786951431E+04  0.26800074093E+04  0.12699999809E+01 0.  1.
       -4    1    3    3    0  502  0.80053171113E+02 -0.24938343602E+02  0.11904499304E+04  0.11933997992E+04  0.12699999809E+01 0. -1.
</event>
<event>
 5   0  0.1128530E-06  0.3747319E+04  0.7818609E-02  0.8057556E-01
       -2   -1    0    0    0  501  0.00000000000E+00  0.00000000000E+00  0.15882690272E+04  0.15882690272E+04  0.25500000920E-02 0. -1.
        2   -1    0    0  501    0  0.00000000000E+00  0.00000000000E+00 -0.22103303383E+04  0.22103303383E+04  0.25500000920E-02 0.  1.
    10030    2    1    2    0    0  0.00000000000E+00  0.00000000000E+00 -0.62206131115E+03  0.37985993655E+04  0.37473186234E+04 0.  0.
        5    1    3    3  502    0 -0.20866268218E+03  0.99585110288E+03 -0.19058751156E+04  0.21604725363E+04  0.46999998093E+01 0.  1.
       -5    1    3    3    0  502  0.20866268218E+03 -0.99585110288E+03  0.12838138044E+04  0.16381268292E+04  0.46999998093E+01 0. -1.
</event>
<event>
 5   0  0.3764495E-07  0.3548685E+04  0.7818609E-02  0.8102348E-01
        1   -1    0    0  501    0  0.00000000000E+00  0.00000000000E+00  0.20595896477E+04  0.20595896477E+04  0.50400001928E-02 0. -1.
       -1   -1    0    0    0  501  0.00000000000E+00  0.00000000000E+00 -0.15286010757E+04  0.15286010757E+04  0.50400001928E-02 0.  1.
    10030    2    1    2    0    0  0.00000000000E+00  0.00000000000E+00  0.53098857195E+03  0.35881907234E+04  0.35486847992E+04 0.  0.
        4    1    3    3  502    0  0.10501062742E+04 -0.56660710620E+02  0.17105140440E+04  0.20079326510E+04  0.12699999809E+01 0. -1.
       -4    1    3    3    0  502 -0.10501062742E+04  0.56660710620E+02 -0.11795254720E+04  0.15802580724E+04  0.12699999809E+01 0.  1.
</event>
<event>
 5   0  0.1066907E-06  0.3645816E+04  0.7818609E-02  0.8080077E-01
        2   -1    0    0  501    0  0.00000000000E+00  0.00000000000E+00  0.26526014098E+04  0.26526014098E+04  0.25500000920E-02 0. -1.
       -2   -1    0    0    0  501  0.00000000000E+00  0.00000000000E+00 -0.12527302833E+04  0.12527302833E+04  0.25500000920E-02 0.  1.
    10030    2    1    2    0    0  0.00000000000E+00  0.00000000000E+00  0.13998711264E+04  0.39053316931E+04  0.36458162958E+04 0.  0.
        4    1    3    3  502    0 -0.24728802443E+03 -0.12518750924E+04  0.20943861771E+04  0.24525084476E+04  0.12699999809E+01 0. -1.
       -4    1    3    3    0  502  0.24728802443E+03  0.12518750924E+04 -0.69451505066E+03  0.14528232455E+04  0.12699999809E+01 0.  1.
</event>
<event>
 5   0  0.1128166E-06  0.3645027E+04  0.7818609E-02  0.8080255E-01
        2   -1    0    0  501    0  0.00000000000E+00  0.00000000000E+00  0.23086308030E+04  0.23086308030E+04  0.25500000920E-02 0. -1.
       -2   -1    0    0    0  501  0.00000000000E+00  0.00000000000E+00 -0.14387553348E+04  0.14387553348E+04  0.25500000920E-02 0.  1.
    10030    2    1    2    0    0  0.00000000000E+00  0.00000000000E+00  0.86987546820E+03  0.37473861377E+04  0.36450266851E+04 0.  0.
        3    1    3    3  502    0  0.12371980993E+04 -0.30678391204E+03  0.17741222560E+04  0.21845560865E+04  0.10100000352E+00 0. -1.
       -3    1    3    3    0  502 -0.12371980993E+04  0.30678391204E+03 -0.90424678776E+03  0.15628300512E+04  0.10100000352E+00 0.  1.
</event>
<event>
 5   0  0.3675819E-07  0.3676110E+04  0.7818609E-02  0.8073277E-01
       -1   -1    0    0    0  501  0.00000000000E+00  0.00000000000E+00  0.11033496258E+04  0.11033496258E+04  0.50400001928E-02 0.  1.
        1   -1    0    0  501    0  0.00000000000E+00  0.00000000000E+00 -0.30619903080E+04  0.30619903080E+04  0.50400001928E-02 0. -1.
    10030    2    1    2    0    0  0.00000000000E+00  0.00000000000E+00 -0.19586406822E+04  0.41653399339E+04  0.36761098246E+04 0.  0.
        5    1    3    3  502    0 -0.81343101483E+03  0.98993548195E+03  0.51393667583E+03  0.13805054404E+04  0.46999998093E+01 0.  1.
       -5    1    3    3    0  502  0.81343101483E+03 -0.98993548195E+03 -0.24725773580E+04  0.27848344934E+04  0.46999998093E+01 0. -1.
</event>
<event>
 5   0  0.1051123E-06  0.3747343E+04  0.7818609E-02  0.8057550E-01
       -2   -1    0    0    0  501  0.00000000000E+00  0.00000000000E+00  0.21318147838E+04  0.21318147838E+04  0.25500000920E-02 0.  1.
        2   -1    0    0  501    0  0.00000000000E+00  0.00000000000E+00 -0.16467868894E+04  0.16467868894E+04  0.25500000920E-02 0. -1.
    10030    2    1    2    0    0  0.00000000000E+00  0.00000000000E+00  0.48502789438E+03  0.37786016732E+04  0.37473428648E+04 0.  0.
        2    1    3    3  502    0 -0.97674055279E+03  0.23215198995E+03 -0.13526837219E+04  0.16845384844E+04  0.25500000920E-02 0. -1.
       -2    1    3    3    0  502  0.97674055279E+03 -0.23215198995E+03  0.18377116163E+04  0.20940631888E+04  0.25500000920E-02 0.  1.
</event>
<event>
 5   0  0.1051123E-06  0.3622352E+04  0.7818609E-02  0.8085391E-01
        2   -1    0    0  501    0  0.00000000000E+00  0.00000000000E+00  0.25723889597E+04  0.25723889597E+04  0.25500000920E-02 0. -1.
       -2   -1    0    0    0  501  0.00000000000E+00  0.00000000000E+00 -0.12752183672E+04  0.12752183672E+04  0.25500000920E-02 0.  1.
    10030    2    1    2    0    0  0.00000000000E+00  0.00000000000E+00  0.12971705925E+04  0.38476073268E+04  0.36223515284E+04 0.  0.
        2    1    3    3  502    0  0.16876092216E+04 -0.64490964579E+03  0.51245845971E+03  0.18779102772E+04  0.25500000920E-02 0.  1.
       -2    1    3    3    0  502 -0.16876092216E+04  0.64490964579E+03  0.78471213282E+03  0.19696970497E+04  0.25500000920E-02 0. -1.
</event>
<event>
 5   0  0.3704306E-07  0.3723003E+04  0.7818609E-02  0.8062883E-01
       -1   -1    0    0    0  501  0.00000000000E+00  0.00000000000E+00  0.14012597696E+04  0.14012597696E+04  0.50400001928E-02 0. -1.
        1   -1    0    0  501    0  0.00000000000E+00  0.00000000000E+00 -0.24729090859E+04  0.24729090859E+04  0.50400001928E-02 0.  1.
    10030    2    1    2    0    0  0.00000000000E+00  0.00000000000E+00 -0.10716493163E+04  0.38741688556E+04  0.37230030975E+04 0.  0.
        3    1    3    3  502    0  0.16140451050E+03  0.12597800688E+04 -0.19519975647E+04  0.23288176701E+04  0.10100000352E+00 0.  1.
       -3    1    3    3    0  502 -0.16140451050E+03 -0.12597800688E+04  0.88034824844E+03  0.15453511855E+04  0.10100000352E+00 0. -1.
</event>
<event>
 5   0  0.1128166E-06  0.3791757E+04  0.7818609E-02  0.8047926E-01
        2   -1    0    0  501    0  0.00000000000E+00  0.00000000000E+00  0.22632056238E+04  0.22632056238E+04  0.25500000920E-02 0.  1.
       -2   -1    0    0    0  501  0.00000000000E+00  0.00000000000E+00 -0.15881699740E+04  0.15881699740E+04  0.25500000920E-02 0. -1.
    10030    2    1    2    0    0  0.00000000000E+00  0.00000000000E+00  0.67503564981E+03  0.38513755977E+04  0.37917569630E+04 0.  0.
        3    1    3    3  502    0 -0.36827582827E+02 -0.71263029495E+03 -0.14465609076E+04  0.16129899807E+04  0.10100000352E+00 0. -1.
       -3    1    3    3    0  502  0.36827582827E+02  0.71263029495E+03  0.21215965574E+04  0.22383856171E+04  0.10100000352E+00 0.  1.
</event>
<event>
 5   0  0.3764495E-07  0.3713775E+04  0.7818609E-02  0.8064916E-01
        1   -1    0    0  501    0  0.00000000000E+00  0.00000000000E+00  0.21236517798E+04  0.21236517798E+04  0.50400001928E-02 0.  1.
       -1   -1    0    0    0  501  0.00000000000E+00  0.00000000000E+00 -0.16236328628E+04  0.16236328628E+04  0.50400001928E-02 0. -1.
    10030    2    1    2    0    0  0.00000000000E+00  0.00000000000E+00  0.50001891701E+03  0.37472846427E+04  0.37137748014E+04 0.  0.
        4    1    3    3  502    0 -0.67499791669E+03 -0.12093935916E+04  0.14980100132E+04  0.20401692723E+04  0.12699999809E+01 0.  1.
       -4    1    3    3    0  502  0.67499791669E+03  0.12093935916E+04 -0.99799109623E+03  0.17071153704E+04  0.12699999809E+01 0. -1.
</event>
<event>
 5   0  0.3704306E-07  0.3652616E+04  0.7818609E-02  0.8078545E-01
       -1   -1    0    0    0  501  0.00000000000E+00  0.00000000000E+00  0.11946948066E+04  0.11946948066E+04  0.50400001928E-02 0.  1.
        1   -1    0    0  501    0  0.00000000000E+00  0.00000000000E+00 -0.27918439081E+04  0.27918439081E+04  0.50400001928E-02 0. -1.
    10030    2    1    2    0    0  0.00000000000E+00  0.00000000000E+00 -0.15971491014E+04  0.39865387147E+04  0.36526162776E+04 0.  0.
        3    1    3    3  502    0  0.68555844655E+02 -0.79268781839E+03  0.99559109025E+03  0.12744628321E+04  0.10100000352E+00 0.  1.
       -3    1    3    3    0  502 -0.68555844655E+02  0.79268781839E+03 -0.25927401917E+04  0.27120758826E+04  0.10100000352E+00 0. -1.
</event>
<event>
 5   0  0.1051123E-06  0.2274600E+04  0.7818609E-02  0.8488004E-01
       -2   -1    0    0    0  501  0.00000000000E+00  0.00000000000E+00  0.63911305728E+03  0.63911305728E+03  0.25500000920E-02 0.  1.
        2   -1    0    0  501    0  0.00000000000E+00  0.00000000000E+00 -0.20238226932E+04  0.20238226932E+04  0.25500000920E-02 0. -1.
    10030    2    1    2    0    0  0.00000000000E+00  0.00000000000E+00 -0.13847096359E+04  0.26629357505E+04  0.22746001924E+04 0.  0.
        2    1    3    3  502    0  0.10830230057E+04  0.27242734535E+03 -0.94425439774E+03  0.14624540529E+04  0.25500000920E-02 0. -1.
       -2    1    3    3    0  502 -0.10830230057E+04 -0.27242734535E+03 -0.44045523819E+03  0.12004816975E+04  0.25500000920E-02 0.  1.
</event>
<event>
 5   0  0.3675819E-07  0.2363148E+04  0.7818609E-02  0.8453430E-01
       -1   -1    0    0    0  501  0.00000000000E+00  0.00000000000E+00  0.76088297868E+03  0.76088297870E+03  0.50400001928E-02 0.  1.
        1   -1    0    0  501    0  0.00000000000E+00  0.00000000000E+00 -0.18348651299E+04  0.18348651299E+04  0.50400001928E-02 0. -1.
    10030    2    1    2    0    0  0.00000000000E+00  0.00000000000E+00 -0.10739821512E+04  0.25957481086E+04  0.23631484469E+04 0.  0.
        5    1    3    3  502    0  0.45496987259E+03 -0.99787667568E+03 -0.10199748310E+04  0.14977069776E+04  0.46999998093E+01 0. -1.
       -5    1    3    3    0  502 -0.45496987259E+03  0.99787667568E+03 -0.54007320253E+02  0.10980411310E+04  0.46999998093E+01 0.  1.
</event>
<event>
 5   0  0.1066907E-06  0.3467173E+04  0.7818609E-02  0.8121614E-01
        2   -1    0    0  501    0  0.00000000000E+00  0.00000000000E+00  0.23354271810E+04  0.23354271810E+04  0.25500000920E-02 0.  1.
       -2   -1    0    0    0  501  0.00000000000E+00  0.00000000000E+00 -0.12868404701E+04  0.12868404701E+04  0.25500000920E-02 0. -1.
    10030    2    1    2    0    0  0.00000000000E+00  0.00000000000E+00  0.10485867109E+04  0.36222676511E+04  0.34671730338E+04 0.  0.
        4    1    3    3  502    0  0.41515523692E+03  0.12299978963E+04 -0.67604536258E+03  0.14636555745E+04  0.12699999809E+01 0. -1.
       -4    1    3    3    0  502 -0.41515523692E+03 -0.12299978963E+04  0.17246320735E+04  0.21586120766E+04  0.12699999809E+01 0.  1.
</event>
<event>
 5   0  0.1128166E-06  0.3730831E+04  0.7818609E-02  0.8061163E-01
        2   -1    0    0  501    0  0.00000000000E+00  0.00000000000E+00  0.29822729544E+04  0.29822729544E+04  0.25500000920E-02 0.  1.
       -2   -1    0    0    0  501  0.00000000000E+00  0.00000000000E+00 -0.11668198802E+04  0.11668198802E+04  0.25500000920E-02 0. -1.
    10030    2    1    2    0    0  0.00000000000E+00  0.00000000000E+00  0.18154530742E+04  0.41490928346E+04  0.37308312057E+04 0.  0.
        3    1    3    3  502    0  0.17993554884E+04  0.43004360057E+03  0.64184701910E+03  0.19582097125E+04  0.10100000352E+00 0. -1.
       -3    1    3    3    0  502 -0.17993554884E+04 -0.43004360057E+03  0.11736060551E+04  0.21908831221E+04  0.10100000352E+00 0.  1.
</event>
<event>
 5   0  0.1128530E-06  0.3800233E+04  0.7818609E-02  0.8046105E-01
        2   -1    0    0  501    0  0.00000000000E+00  0.00000000000E+00  0.17983870677E+04  0.17983870677E+04  0.25500000920E-02 0.  1.
       -2   -1    0    0    0  501  0.00000000000E+00  0.00000000000E+00 -0.20076009226E+04  0.20076009226E+04  0.25500000920E-02 0. -1.
    10030    2    1    2    0    0  0.00000000000E+00  0.00000000000E+00 -0.20921385490E+03  0.38059879902E+04  0.38002334329E+04 0.  0.
        5    1    3    3  502    0  0.18736517927E+03  0.10677780965E+04  0.14582578218E+04  0.18170838557E+04  0.46999998093E+01 0.  1.
       -5    1    3    3    0  502 -0.18736517927E+03 -0.10677780965E+04 -0.16674716767E+04  0.19889041345E+04  0.46999998093E+01 0. -1.
</event>
<event>
 5   0  0.3682276E-07  0.3623961E+04  0.7818609E-02  0.8085025E-01
        1   -1    0    0  501    0  0.00000000000E+00  0.00000000000E+00  0.27091936802E+04  0.27091936802E+04  0.50400001928E-02 0. -1.
       -1   -1    0    0    0  501  0.00000000000E+00  0.00000000000E+00 -0.12119008580E+04  0.12119008580E+04  0.50400001928E-02 0.  1.
    10030    2    1    2    0    0  0.00000000000E+00  0.00000000000E+00  0.14972928222E+04  0.39210945382E+04  0.36239614488E+04 0.  0.
        1    1    3    3  502    0 -0.35087817224E+03  0.38413447301E+03 -0.11293485992E+04  0.12434239196E+04  0.50400001928E-02 0.  1.
       -1    1    3    3    0  502  0.35087817224E+03 -0.38413447301E+03  0.26266414215E+04  0.26776706187E+04  0.50400001928E-02 0. -1.
</event>
<event>
 5   0  0.3704306E-07  0.3708801E+04  0.7818609E-02  0.8066014E-01
       -1   -1    0    0    0  501  0.00000000000E+00  0.00000000000E+00  0.17707880169E+04  0.17707880169E+04  0.50400001928E-02 0.  1.
        1   -1    0    0  501    0  0.00000000000E+00  0.00000000000E+00 -0.19419611175E+04  0.19419611175E+04  0.50400001928E-02 0. -1.
    10030    2    1    2    0    0  0.00000000000E+00  0.00000000000E+00 -0.17117310059E+03  0.37127491344E+04  0.37088011411E+04 0.  0.
        3    1    3    3  502    0  0.17814503076E+04  0.60157766453E+02 -0.59761641910E+03  0.18799812632E+04  0.10100000352E+00 0. -1.
       -3    1    3    3    0  502 -0.17814503076E+04 -0.60157766453E+02  0.42644331852E+03  0.18327678711E+04  0.10100000352E+00 0.  1.
</event>
<event>
 5   0  0.3675819E-07  0.3699580E+04  0.7818609E-02  0.8068055E-01
        1   -1    0    0  501    0  0.00000000000E+00  0.00000000000E+00  0.20803572135E+04  0.20803572135E+04  0.50400001928E-02 0.  1.
       -1   -1    0    0    0  501  0.00000000000E+00  0.00000000000E+00 -0.16447770082E+04  0.16447770082E+04  0.50400001928E-02 0. -1.
    10030    2    1    2    0    0  0.00000000000E+00  0.00000000000E+00  0.43558020527E+03  0.37251342217E+04  0.36995803620E+04 0.  0.
        5    1    3    3  502    0  0.10684706717E+04  0.29782972377E+03 -0.12727623614E+04  0.16882767069E+04  0.46999998093E+01 0. -1.
       -5    1    3    3    0  502 -0.10684706717E+04 -0.29782972377E+03  0.17083425666E+04  0.20368575148E+04  0.46999998093E+01 0.  1.
</event>
<event>
 5   0  0.1051123E-06  0.2685061E+04  0.7818609E-02  0.8339868E-01
        2   -1    0    0  501    0  0.00000000000E+00  0.00000000000E+00  0.12562441147E+04  0.12562441147E+04  0.25500000920E-02 0.  1.
       -2   -1    0    0    0  501  0.00000000000E+00  0.00000000000E+00 -0.14347437916E+04  0.14347437916E+04  0.25500000920E-02 0. -1.
    10030    2    1    2    0    0  0.00000000000E+00  0.00000000000E+00 -0.17849967683E+03  0.26909879063E+04  0.26850612241E+04 0.  0.
        2    1    3    3  502    0 -0.49287665598E+03  0.99787903026E+03  0.66320595065E+03  0.12955817574E+04  0.25500000920E-02 0.  1.
       -2    1    3    3    0  502  0.49287665598E+03 -0.99787903026E+03 -0.84170562748E+03  0.13954061489E+04  0.25500000920E-02 0. -1.
</event>
<event>
 5   0  0.1066907E-06  0.2368083E+04  0.7818609E-02  0.8451550E-01
        2   -1    0    0  501    0  0.00000000000E+00  0.00000000000E+00  0.14222283114E+04  0.14222283114E+04  0.25500000920E-02 0. -1.
       -2   -1    0    0    0  501  0.00000000000E+00  0.00000000000E+00 -0.98574472435E+03  0.98574472436E+03  0.25500000920E-02 0.  1.
    10030    2    1    2    0    0  0.00000000000E+00  0.00000000000E+00  0.43648358709E+03  0.24079730358E+04  0.23680828151E+04 0.  0.
        4    1    3    3  502    0 -0.81172070411E+03 -0.68485332323E+03 -0.31406256447E+03  0.11074978479E+04  0.12699999809E+01 0.  1.
       -4    1    3    3    0  502  0.81172070411E+03  0.68485332323E+03  0.75054615156E+03  0.13004751879E+04  0.12699999809E+01 0. -1.
</event>
<event>
 5   0  0.1128530E-06  0.3794264E+04  0.7818609E-02  0.8047387E-01
       -2   -1    0    0    0  501  0.00000000000E+00  0.00000000000E+00  0.15855539351E+04  0.15855539351E+04  0.25500000920E-02 0.  1.
        2   -1    0    0  501    0  0.00000000000E+00  0.00000000000E+00 -0.22699383237E+04  0.22699383237E+04  0.25500000920E-02 0. -1.
    10030    2    1    2    0    0  0.00000000000E+00  0.00000000000E+00 -0.68438438864E+03  0.38554922588E+04  0.37942639031E+04 0.  0.
        5    1    3    3  502    0  0.11011651122E+04 -0.20607658894E+03  0.12135450038E+04  0.16515888505E+04  0.46999998093E+01 0.  1.
       -5    1    3    3    0  502 -0.11011651122E+04  0.20607658894E+03 -0.18979293924E+04  0.22039034084E+04  0.46999998093E+01 0. -1.
</event>
<event>
 5   0  0.1066907E-06  0.3652666E+04  0.7818609E-02  0.8078533E-01
       -2   -1    0    0    0  501  0.00000000000E+00  0.00000000000E+00  0.17887922737E+04  0.17887922737E+04  0.25500000920E-02 0. -1.
        2   -1    0    0  501    0  0.00000000000E+00  0.00000000000E+00 -0.18646620004E+04  0.18646620004E+04  0.25500000920E-02 0.  1.
    10030    2    1    2    0    0  0.00000000000E+00  0.00000000000E+00 -0.75869726738E+02  0.36534542741E+04  0.36526664120E+04 0.  0.
        4    1    3    3  502    0 -0.13286675978E+04 -0.55969584285E+03  0.10834110271E+04  0.18034406252E+04  0.12699999809E+01 0. -1.
       -4    1    3    3    0  502  0.13286675978E+04  0.55969584285E+03 -0.11592807539E+04  0.18500136489E+04  0.12699999809E+01 0.  1.
</event>
<event>
 5   0  0.1051123E-06  0.3619269E+04  0.7818609E-02  0.8086092E-01
       -2   -1    0    0    0  501  0.00000000000E+00  0.00000000000E+00  0.16333342999E+04  0.16333342999E+04  0.25500000920E-02 0. -1.
        2   -1    0    0  501    0  0.00000000000E+00  0.00000000000E+00 -0.20049641252E+04  0.20049641252E+04  0.25500000920E-02 0.  1.
    10030    2    1    2    0    0  0.00000000000E+00  0.00000000000E+00 -0.37162982531E+03  0.36382984251E+04  0.36192688078E+04 0.  0.
        2    1    3    3  502    0 -0.36398800462E+03  0.37702495591E+03  0.15553838679E+04  0.16412964575E+04  0.25500000920E-02 0. -1.
       -2    1    3    3    0  502  0.36398800462E+03 -0.37702495591E+03 -0.19270136932E+04  0.19970019676E+04  0.25500000920E-02 0.  1.
</event>
<event>
 5   0  0.1128530E-06  0.3685193E+04  0.7818609E-02  0.8071251E-01
        2   -1    0    0  501    0  0.00000000000E+00  0.00000000000E+00  0.22172252939E+04  0.22172252939E+04  0.25500000920E-02 0.  1.
       -2   -1    0    0    0  501  0.00000000000E+00  0.00000000000E+00 -0.15312662787E+04  0.15312662787E+04  0.25500000920E-02 0. -1.
    10030    2    1    2    0    0  0.00000000000E+00  0.00000000000E+00  0.68595901525E+03  0.37484915726E+04  0.36851932513E+04 0.  0.
        5    1    3    3  502    0  0.47731717068E+03 -0.12660325777E+04  0.16152513060E+04  0.21070664538E+04  0.46999998093E+01 0.  1.
       -5    1    3    3    0  502 -0.47731717068E+03  0.12660325777E+04 -0.92929229072E+03  0.16414251188E+04  0.46999998093E+01 0. -1.
</event>
<event>
 5   0  0.1128530E-06  0.3681416E+04  0.7818609E-02  0.8072093E-01
        2   -1    0    0  501    0  0.00000000000E+00  0.00000000000E+00  0.22027802855E+04  0.22027802855E+04  0.25500000920E-02 0. -1.
       -2   -1    0    0    0  501  0.00000000000E+00  0.00000000000E+00 -0.15381496397E+04  0.15381496397E+04  0.25500000920E-02 0.  1.
    10030    2    1    2    0    0  0.00000000000E+00  0.00000000000E+00  0.66463064587E+03  0.37409299252E+04  0.36814158703E+04 0.  0.
        5    1    3    3  502    0  0.14057822208E+04  0.51666374632E+03 -0.75503866360E+03  0.16772807018E+04  0.46999998093E+01 0.  1.
       -5    1    3    3    0  502 -0.14057822208E+04 -0.51666374632E+03  0.14196693095E+04  0.20636492234E+04  0.46999998093E+01 0. -1.
</event>
<event>
 5   0  0.3848431E-07  0.3762825E+04  0.7818609E-02  0.8054180E-01
       -1   -1    0    0    0  501  0.00000000000E+00  0.00000000000E+00  0.19694767372E+04  0.19694767372E+04  0.50400001928E-02 0.  1.
        1   -1    0    0  501    0  0.00000000000E+00  0.00000000000E+00 -0.17972857893E+04  0.17972857893E+04  0.50400001928E-02 0. -1.
    10030    2    1    2    0    0  0.00000000000E+00  0.00000000000E+00  0.17219094791E+03  0.37667625265E+04  0.37628247645E+04 0.  0.
        2    1    3    3  502    0  0.12715408871E+04  0.63614473491E+03 -0.11473531315E+04  0.18269963218E+04  0.25500000920E-02 0. -1.
       -2    1    3    3    0  502 -0.12715408871E+04 -0.63614473491E+03  0.13195440794E+04  0.19397662047E+04  0.25500000920E-02 0.  1.
</event>
<event>
 5   0  0.3848431E-07  0.3660851E+04  0.7818609E-02  0.8076693E-01
       -1   -1    0    0    0  501  0.00000000000E+00  0.00000000000E+00  0.16685678446E+04  0.16685678446E+04  0.50400001928E-02 0.  1.
        1   -1    0    0  501    0  0.00000000000E+00  0.00000000000E+00 -0.20079844001E+04  0.20079844001E+04  0.50400001928E-02 0. -1.
    10030    2    1    2    0    0  0.00000000000E+00  0.00000000000E+00 -0.33941655552E+03  0.36765522448E+04  0.36608513778E+04 0.  0.
        2    1    3    3  502    0 -0.18157299164E+04 -0.21066479997E+03 -0.26605415962E+03  0.18471707022E+04  0.25500000920E-02 0.  1.
       -2    1    3    3    0  502  0.18157299164E+04  0.21066479997E+03 -0.73362395908E+02  0.18293815426E+04  0.25500000920E-02 0. -1.
</event>
<event>
 5   0  0.3848431E-07  0.3716242E+04  0.7818609E-02  0.8064372E-01
        1   -1    0    0  501    0  0.00000000000E+00  0.00000000000E+00  0.23266260669E+04  0.23266260669E+04  0.50400001928E-02 0. -1.
       -1   -1    0    0    0  501  0.00000000000E+00  0.00000000000E+00 -0.14839569358E+04  0.14839569358E+04  0.50400001928E-02 0.  1.
    10030    2    1    2    0    0  0.00000000000E+00  0.00000000000E+00  0.84266913117E+03  0.38105830027E+04  0.37162415901E+04 0.  0.
        2    1    3    3  502    0 -0.51968585703E+03  0.16561625994E+04  0.11012398331E+04  0.20556451823E+04  0.25500000920E-02 0.  1.
       -2    1    3    3    0  502  0.51968585703E+03 -0.16561625994E+04 -0.25857070192E+03  0.17549378204E+04  0.25500000920E-02 0. -1.
</event>
<event>
 5   0  0.3675819E-07  0.3655364E+04  0.7818609E-02  0.8077926E-01
       -1   -1    0    0    0  501  0.00000000000E+00  0.00000000000E+00  0.30864856875E+04  0.30864856875E+04  0.50400001928E-02 0. -1.
        1   -1    0    0  501    0  0.00000000000E+00  0.00000000000E+00 -0.10822731542E+04  0.10822731542E+04  0.50400001928E-02 0.  1.
    10030    2    1    2    0    0  0.00000000000E+00  0.00000000000E+00  0.20042125333E+04  0.41687588417E+04  0.36553635115E+04 0.  0.
        5    1    3    3  502    0 -0.69156220027E+03 -0.85547911783E+03  0.26666535899E+04  0.28846431766E+04  0.46999998093E+01 0. -1.
       -5    1    3    3    0  502  0.69156220027E+03  0.85547911783E+03 -0.66244105656E+03  0.12841156651E+04  0.46999998093E+01 0.  1.
</event>
<event>
 5   0  0.1128166E-06  0.3662208E+04  0.7818609E-02  0.8076389E-01
        2   -1    0    0  501    0  0.00000000000E+00  0.00000000000E+00  0.18702323904E+04  0.18702323904E+04  0.25500000920E-02 0. -1.
       -2   -1    0    0    0  501  0.00000000000E+00  0.00000000000E+00 -0.17927946980E+04  0.17927946980E+04  0.25500000920E-02 0.  1.
    10030    2    1    2    0    0  0.00000000000E+00  0.00000000000E+00  0.77437692363E+02  0.36630270884E+04  0.36622084668E+04 0.  0.
        3    1    3    3  502    0  0.14053201954E+04  0.33659161581E+03  0.11635696862E+04  0.18552932901E+04  0.10100000352E+00 0. -1.
       -3    1    3    3    0  502 -0.14053201954E+04 -0.33659161581E+03 -0.10861319938E+04  0.18077337983E+04  0.10100000352E+00 0.  1.
</event>
<event>
 5   0  0.3704306E-07  0.3820066E+04  0.7818609E-02  0.8041862E-01
       -1   -1    0    0    0  501  0.00000000000E+00  0.00000000000E+00  0.13870053611E+04  0.13870053611E+04  0.50400001928E-02 0.  1.
        1   -1    0    0  501    0  0.00000000000E+00  0.00000000000E+00 -0.26302898648E+04  0.26302898648E+04  0.50400001928E-02 0. -1.
    10030    2    1    2    0    0  0.00000000000E+00  0.00000000000E+00 -0.12432845037E+04  0.40172952260E+04  0.38200660433E+04 0.  0.
        3    1    3    3  502    0  0.90243812610E+03 -0.12306943404E+03  0.11439328113E+04  0.14622321785E+04  0.10100000352E+00 0.  1.
       -3    1    3    3    0  502 -0.90243812610E+03  0.12306943404E+03 -0.23872173150E+04  0.25550630474E+04  0.10100000352E+00 0. -1.
</event>
<event>
 5   0  0.3848431E-07  0.3679744E+04  0.7818609E-02  0.8072466E-01
       -1   -1    0    0    0  501  0.00000000000E+00  0.00000000000E+00  0.29708123372E+04  0.29708123372E+04  0.50400001928E-02 0.  1.
        1   -1    0    0  501    0  0.00000000000E+00  0.00000000000E+00 -0.11394621928E+04  0.11394621928E+04  0.50400001928E-02 0. -1.
    10030    2    1    2    0    0  0.00000000000E+00  0.00000000000E+00  0.18313501444E+04  0.41102745300E+04  0.36797436542E+04 0.  0.
        2    1    3    3  502    0  0.11807812407E+04 -0.59926811778E+03  0.23425359675E+04  0.26908811521E+04  0.25500000920E-02 0.  1.
       -2    1    3    3    0  502 -0.11807812407E+04  0.59926811778E+03 -0.51118582314E+03  0.14193933779E+04  0.25500000920E-02 0. -1.
</event>
<event>
 5   0  0.3675819E-07  0.2640444E+04  0.7818609E-02  0.8354592E-01
       -1   -1    0    0    0  501  0.00000000000E+00  0.00000000000E+00  0.93820601687E+03  0.93820601688E+03  0.50400001928E-02 0. -1.
        1   -1    0    0  501    0  0.00000000000E+00  0.00000000000E+00 -0.18577866412E+04  0.18577866412E+04  0.50400001928E-02 0.  1.
    10030    2    1    2    0    0  0.00000000000E+00  0.00000000000E+00 -0.91958062434E+03  0.27959926581E+04  0.26404443602E+04 0.  0.
        5    1    3    3  502    0 -0.91676557966E+02 -0.12440436573E+04 -0.19843598073E+01  0.12474274489E+04  0.46999998093E+01 0.  1.
       -5    1    3    3    0  502  0.91676557966E+02  0.12440436573E+04 -0.91759626453E+03  0.15485652092E+04  0.46999998093E+01 0. -1.
</event>
<event>
 5   0  0.1051123E-06  0.2951126E+04  0.7818609E-02  0.8257826E-01
       -2   -1    0    0    0  501  0.00000000000E+00  0.00000000000E+00  0.12939230843E+04  0.12939230843E+04  0.25500000920E-02 0.  1.
        2   -1    0    0  501    0  0.00000000000E+00  0.00000000000E+00 -0.16827015378E+04  0.16827015378E+04  0.25500000920E-02 0. -1.
    10030    2    1    2    0    0  0.00000000000E+00  0.00000000000E+00 -0.38877845351E+03  0.29766246221E+04  0.29511261333E+04 0.  0.
        2    1    3    3  502    0 -0.70992488585E+03  0.11991826037E+04 -0.68361001301E+03  0.15522096864E+04  0.25500000920E-02 0. -1.
       -2    1    3    3    0  502  0.70992488585E+03 -0.11991826037E+04  0.29483155949E+03  0.14244149357E+04  0.25500000920E-02 0.  1.
</event>
<event>
 5   0  0.1066907E-06  0.3626286E+04  0.7818609E-02  0.8084497E-01
        2   -1    0    0  501    0  0.00000000000E+00  0.00000000000E+00  0.10929692275E+04  0.10929692275E+04  0.25500000920E-02 0. -1.
       -2   -1    0    0    0  501  0.00000000000E+00  0.00000000000E+00 -0.30078504633E+04  0.30078504633E+04  0.25500000920E-02 0.  1.
    10030    2    1    2    0    0  0.00000000000E+00  0.00000000000E+00 -0.19148812358E+04  0.41008196908E+04  0.36262862530E+04 0.  0.
        4    1    3    3  502    0 -0.51658377940E+03 -0.65300955427E+03 -0.27788636715E+04  0.29009248865E+04  0.12699999809E+01 0.  1.
       -4    1    3    3    0  502  0.51658377940E+03  0.65300955427E+03  0.86398243577E+03  0.11998948043E+04  0.12699999809E+01 0. -1.
</event>
<event>
 5   0  0.3704306E-07  0.3705577E+04  0.7818609E-02  0.8066727E-01
        1   -1    0    0  501    0  0.00000000000E+00  0.00000000000E+00  0.15685732029E+04  0.15685732029E+04  0.50400001928E-02 0. -1.
       -1   -1    0    0    0  501  0.00000000000E+00  0.00000000000E+00 -0.21885016654E+04  0.21885016654E+04  0.50400001928E-02 0.  1.
    10030    2    1    2    0    0  0.00000000000E+00  0.00000000000E+00 -0.61992846252E+03  0.37570748682E+04  0.37055769142E+04 0.  0.
        3    1    3    3  502    0 -0.11809578805E+04  0.11592859019E+04  0.53481357615E+03  0.17391465980E+04  0.10100000352E+00 0.  1.
       -3    1    3    3    0  502  0.11809578805E+04 -0.11592859019E+04 -0.11547420387E+04  0.20179282703E+04  0.10100000352E+00 0. -1.
</event>
<event>
 5   0  0.1051123E-06  0.3741538E+04  0.7818609E-02  0.8058818E-01
       -2   -1    0    0    0  501  0.00000000000E+00  0.00000000000E+00  0.28918944985E+04  0.28918944985E+04  0.25500000920E-02 0. -1.
        2   -1    0    0  501    0  0.00000000000E+00  0.00000000000E+00 -0.12102017623E+04  0.12102017623E+04  0.25500000920E-02 0.  1.
    10030    2    1    2    0    0  0.00000000000E+00  0.00000000000E+00  0.16816927362E+04  0.41020962608E+04  0.37415375548E+04 0.  0.
        2    1    3    3  502    0 -0.42093680722E+03  0.15653355304E+04  0.18648272221E+04  0.24708386606E+04  0.25500000920E-02 0. -1.
       -2    1    3    3    0  502  0.42093680722E+03 -0.15653355304E+04 -0.18313448590E+03  0.16312576002E+04  0.25500000920E-02 0.  1.
</event>
<event>
 5   0  0.3490375E-07  0.3619865E+04  0.7818609E-02  0.8085956E-01
       -3   -1    0    0    0  501  0.00000000000E+00  0.00000000000E+00  0.32217191734E+04  0.32217191750E+04  0.10100000352E+00 0.  1.
        3   -1    0    0  501    0  0.00000000000E+00  0.00000000000E+00 -0.10168036988E+04  0.10168037038E+04  0.10100000352E+00 0. -1.
    10030    2    1    2    0    0  0.00000000000E+00  0.00000000000E+00  0.22049154746E+04  0.42385228788E+04  0.36198651831E+04 0.  0.
        2    1    3    3  502    0 -0.23536467578E+03  0.17173055857E+04  0.49255044667E+03  0.18019825048E+04  0.25500000920E-02 0.  1.
       -2    1    3    3    0  502  0.23536467578E+03 -0.17173055857E+04  0.17123650279E+04  0.24365403740E+04  0.25500000920E-02 0. -1.
</event>
<event>
 5   0  0.3682276E-07  0.3618559E+04  0.7818609E-02  0.8086254E-01
       -1   -1    0    0    0  501  0.00000000000E+00  0.00000000000E+00  0.21805863885E+04  0.21805863885E+04  0.50400001928E-02 0.  1.
        1   -1    0    0  501    0  0.00000000000E+00  0.00000000000E+00 -0.15011978301E+04  0.15011978301E+04  0.50400001928E-02 0. -1.
    10030    2    1    2    0    0  0.00000000000E+00  0.00000000000E+00  0.67938855833E+03  0.36817842186E+04  0.36185585831E+04 0.  0.
        1    1    3    3  502    0 -0.85630294889E+03 -0.83850351020E+03  0.17187914771E+04  0.20953727636E+04  0.50400001928E-02 0.  1.
       -1    1    3    3    0  502  0.85630294889E+03  0.83850351020E+03 -0.10394029188E+04  0.15864114550E+04  0.50400001928E-02 0. -1.
</event>
<event>
 5   0  0.3764495E-07  0.3590931E+04  0.7818609E-02  0.8092572E-01
       -1   -1    0    0    0  501  0.00000000000E+00  0.00000000000E+00  0.26979781797E+04  0.26979781797E+04  0.50400001928E-02 0.  1.
        1   -1    0    0  501    0  0.00000000000E+00  0.00000000000E+00 -0.11948563520E+04  0.11948563520E+04  0.50400001928E-02 0. -1.
    10030    2    1    2    0    0  0.00000000000E+00  0.00000000000E+00  0.15031218277E+04  0.38928345317E+04  0.35909310022E+04 0.  0.
        4    1    3    3  502    0  0.78263954349E+03  0.77772707628E+03 -0.78396792525E+03  0.13535107613E+04  0.12699999809E+01 0. -1.
       -4    1    3    3    0  502 -0.78263954349E+03 -0.77772707628E+03  0.22870897529E+04  0.25393237704E+04  0.12699999809E+01 0.  1.
</event>
<event>
 5   0  0.3490375E-07  0.3679592E+04  0.7818609E-02  0.8072500E-01
        3   -1    0    0  501    0  0.00000000000E+00  0.00000000000E+00  0.22349101076E+04  0.22349101098E+04  0.10100000352E+00 0. -1.
       -3   -1    0    0    0  501  0.00000000000E+00  0.00000000000E+00 -0.15145345183E+04  0.15145345217E+04  0.10100000352E+00 0.  1.
    10030    2    1    2    0    0  0.00000000000E+00  0.00000000000E+00  0.72037558923E+03  0.37494446316E+04  0.36795915610E+04 0.  0.
        4    1    3    3  502    0 -0.18712702036E+03  0.43718288584E+03 -0.14508254402E+04  0.15267748584E+04  0.12699999809E+01 0.  1.
       -4    1    3    3    0  502  0.18712702036E+03 -0.43718288584E+03  0.21712010294E+04  0.22226697732E+04  0.12699999809E+01 0. -1.
</event>
<event>
 5   0  0.3704306E-07  0.3642536E+04  0.7818609E-02  0.8080817E-01
       -1   -1    0    0    0  501  0.00000000000E+00  0.00000000000E+00  0.11669879581E+04  0.11669879581E+04  0.50400001928E-02 0.  1.
        1   -1    0    0  501    0  0.00000000000E+00  0.00000000000E+00 -0.28423753669E+04  0.28423753669E+04  0.50400001928E-02 0. -1.
    10030    2    1    2    0    0  0.00000000000E+00  0.00000000000E+00 -0.16753874089E+04  0.40093633250E+04  0.36425363831E+04 0.  0.
        3    1    3    3  502    0  0.20514961241E+03 -0.11931666535E+04  0.65994871101E+03  0.13788637851E+04  0.10100000352E+00 0.  1.
       -3    1    3    3    0  502 -0.20514961241E+03  0.11931666535E+04 -0.23353361199E+04  0.26304995399E+04  0.10100000352E+00 0. -1.
</event>
<event>
 5   0  0.1128166E-06  0.3530132E+04  0.7818609E-02  0.8106686E-01
        2   -1    0    0  501    0  0.00000000000E+00  0.00000000000E+00  0.21032232345E+04  0.21032232345E+04  0.25500000920E-02 0.  1.
       -2   -1    0    0    0  501  0.00000000000E+00  0.00000000000E+00 -0.14812778759E+04  0.14812778759E+04  0.25500000920E-02 0. -1.
    10030    2    1    2    0    0  0.00000000000E+00  0.00000000000E+00  0.62194535855E+03  0.35845011104E+04  0.35301320345E+04 0.  0.
        3    1    3    3  502    0  0.14890634304E+04 -0.94650444975E+03  0.26251491775E+03  0.17838426683E+04  0.10100000352E+00 0. -1.
       -3    1    3    3    0  502 -0.14890634304E+04  0.94650444975E+03  0.35943044080E+03  0.18006584421E+04  0.10100000352E+00 0.  1.
</event>
<event>
 5   0  0.1128166E-06  0.2469605E+04  0.7818609E-02  0.8413895E-01
       -2   -1    0    0    0  501  0.00000000000E+00  0.00000000000E+00  0.13255432044E+04  0.13255432044E+04  0.25500000920E-02 0.  1.
        2   -1    0    0  501    0  0.00000000000E+00  0.00000000000E+00 -0.11502735225E+04  0.11502735225E+04  0.25500000920E-02 0. -1.
    10030    2    1    2    0    0  0.00000000000E+00  0.00000000000E+00  0.17526968195E+03  0.24758167269E+04  0.24696050300E+04 0.  0.
        3    1    3    3  502    0 -0.19412354736E+03 -0.82829158301E+03  0.98486434718E+03  0.13014256378E+04  0.10100000352E+00 0.  1.
       -3    1    3    3    0  502  0.19412354736E+03  0.82829158301E+03 -0.80959466524E+03  0.11743910892E+04  0.10100000352E+00 0. -1.
</event>
<event>
 5   0  0.3675819E-07  0.2938502E+04  0.7818609E-02  0.8261513E-01
        1   -1    0    0  501    0  0.00000000000E+00  0.00000000000E+00  0.14523428817E+04  0.14523428817E+04  0.50400001928E-02 0.  1.
       -1   -1    0    0    0  501  0.00000000000E+00  0.00000000000E+00 -0.14863560819E+04  0.14863560820E+04  0.50400001928E-02 0. -1.
    10030    2    1    2    0    0  0.00000000000E+00  0.00000000000E+00 -0.34013200276E+02  0.29386989636E+04  0.29385021186E+04 0.  0.
        5    1    3    3  502    0 -0.94139271476E+03 -0.10802253985E+04 -0.34194286258E+03  0.14731103714E+04  0.46999998093E+01 0.  1.
       -5    1    3    3    0  502  0.94139271476E+03  0.10802253985E+04  0.30792966231E+03  0.14655885923E+04  0.46999998093E+01 0. -1.
</event>
<event>
 5   0  0.3704306E-07  0.3409472E+04  0.7818609E-02  0.8135586E-01
       -1   -1    0    0    0  501  0.00000000000E+00  0.00000000000E+00  0.94952748999E+03  0.94952749000E+03  0.50400001928E-02 0.  1.
        1   -1    0    0  501    0  0.00000000000E+00  0.00000000000E+00 -0.30606003667E+04  0.30606003667E+04  0.50400001928E-02 0. -1.
    10030    2    1    2    0    0  0.00000000000E+00  0.00000000000E+00 -0.21110728767E+04  0.40101278567E+04  0.34094716213E+04 0.  0.
        3    1    3    3  502    0  0.13880623831E+04 -0.97680841231E+03 -0.86863106713E+03  0.19066703425E+04  0.10100000352E+00 0.  1.
       -3    1    3    3    0  502 -0.13880623831E+04  0.97680841231E+03 -0.12424418096E+04  0.21034575143E+04  0.10100000352E+00 0. -1.
</event>
<event>
 5   0  0.3704306E-07  0.3720517E+04  0.7818609E-02  0.8063430E-01
        1   -1    0    0  501    0  0.00000000000E+00  0.00000000000E+00  0.16734134934E+04  0.16734134934E+04  0.50400001928E-02 0.  1.
       -1   -1    0    0    0  501  0.00000000000E+00  0.00000000000E+00 -0.20679657938E+04  0.20679657938E+04  0.50400001928E-02 0. -1.
    10030    2    1    2    0    0  0.00000000000E+00  0.00000000000E+00 -0.39455230040E+03  0.37413792872E+04  0.37205170948E+04 0.  0.
        3    1    3    3  502    0  0.93734735685E+03  0.47644717009E+03  0.13459101011E+04  0.17079508142E+04  0.10100000352E+00 0.  1.
       -3    1    3    3    0  502 -0.93734735685E+03 -0.47644717009E+03 -0.17404624015E+04  0.20334284730E+04  0.10100000352E+00 0. -1.
</event>
<event>
 5   0  0.1051123E-06  0.3792042E+04  0.7818609E-02  0.8047865E-01
        2   -1    0    0  501    0  0.00000000000E+00  0.00000000000E+00  0.21257567909E+04  0.21257567909E+04  0.25500000920E-02 0. -1.
       -2   -1    0    0    0  501  0.00000000000E+00  0.00000000000E+00 -0.16911135533E+04  0.16911135533E+04  0.25500000920E-02 0.  1.
    10030    2    1    2    0    0  0.00000000000E+00  0.00000000000E+00  0.43464323758E+03  0.38168703442E+04  0.37920422572E+04 0.  0.
        2    1    3    3  502    0  0.77607026299E+03 -0.95219815555E+03  0.16710527046E+04  0.20739777053E+04  0.25500000920E-02 0. -1.
       -2    1    3    3    0  502 -0.77607026299E+03  0.95219815555E+03 -0.12364094670E+04  0.17428926389E+04  0.25500000920E-02 0.  1.
</event>
<event>
 5   0  0.1051123E-06  0.3706249E+04  0.7818609E-02  0.8066578E-01
        2   -1    0    0  501    0  0.00000000000E+00  0.00000000000E+00  0.12367875847E+04  0.12367875847E+04  0.25500000920E-02 0. -1.
       -2   -1    0    0    0  501  0.00000000000E+00  0.00000000000E+00 -0.27766046018E+04  0.27766046018E+04  0.25500000920E-02 0.  1.
    10030    2    1    2    0    0  0.00000000000E+00  0.00000000000E+00 -0.15398170170E+04  0.40133921865E+04  0.37062488310E+04 0.  0.
        2    1    3    3  502    0 -0.16844055475E+04  0.24260758904E+03 -0.15641708482E+04  0.23114304949E+04  0.25500000920E-02 0.  1.
       -2    1    3    3    0  502  0.16844055475E+04 -0.24260758904E+03  0.24353831155E+02  0.17019616916E+04  0.25500000920E-02 0. -1.
</event>
<event>
 5   0  0.3682276E-07  0.3717230E+04  0.7818609E-02  0.8064154E-01
       -1   -1    0    0    0  501  0.00000000000E+00  0.00000000000E+00  0.12438527613E+04  0.12438527613E+04  0.50400001928E-02 0. -1.
        1   -1    0    0  501    0  0.00000000000E+00  0.00000000000E+00 -0.27772175226E+04  0.27772175227E+04  0.50400001928E-02 0.  1.
    10030    2    1    2    0    0  0.00000000000E+00  0.00000000000E+00 -0.15333647613E+04  0.40210702840E+04  0.37172299818E+04 0.  0.
        1    1    3    3  502    0  0.89554154756E+03  0.88407343004E+03  0.71291633084E+03  0.14463160747E+04  0.50400001928E-02 0. -1.
       -1    1    3    3    0  502 -0.89554154756E+03 -0.88407343004E+03 -0.22462810922E+04  0.25747542093E+04  0.50400001928E-02 0.  1.
</event>
<event>
 5   0  0.1092116E-06  0.3430775E+04  0.7818609E-02  0.8130394E-01
       -2   -1    0    0    0  501  0.00000000000E+00  0.00000000000E+00  0.15371640973E+04  0.15371640973E+04  0.25500000920E-02 0. -1.
        2   -1    0    0  501    0  0.00000000000E+00  0.00000000000E+00 -0.19142749507E+04  0.19142749507E+04  0.25500000920E-02 0.  1.
    10030    2    1    2    0    0  0.00000000000E+00  0.00000000000E+00 -0.37711085344E+03  0.34514390480E+04  0.34307752631E+04 0.  0.
        1    1    3    3  502    0 -0.69645001715E+03 -0.87819715610E+03 -0.14949459509E+04  0.18684582595E+04  0.50400001928E-02 0.  1.
       -1    1    3    3    0  502  0.69645001715E+03  0.87819715610E+03  0.11178350975E+04  0.15829807885E+04  0.50400001928E-02 0. -1.
</event>
<event>
 5   0  0.1128530E-06  0.3594190E+04  0.7818609E-02  0.8091824E-01
       -2   -1    0    0    0  501  0.00000000000E+00  0.00000000000E+00  0.24688203647E+04  0.24688203647E+04  0.25500000920E-02 0.  1.
        2   -1    0    0  501    0  0.00000000000E+00  0.00000000000E+00 -0.13081351741E+04  0.13081351741E+04  0.25500000920E-02 0. -1.
    10030    2    1    2    0    0  0.00000000000E+00  0.00000000000E+00  0.11606851906E+04  0.37769555388E+04  0.35941901773E+04 0.  0.
        5    1    3    3  502    0 -0.67165710888E+03  0.24634328877E+02  0.23317661759E+04  0.24267026417E+04  0.46999998093E+01 0.  1.
       -5    1    3    3    0  502  0.67165710888E+03 -0.24634328877E+02 -0.11710809853E+04  0.13502528972E+04  0.46999998093E+01 0. -1.
</event>
<event>
 5   0  0.1128530E-06  0.3784401E+04  0.7818609E-02  0.8049511E-01
       -2   -1    0    0    0  501  0.00000000000E+00  0.00000000000E+00  0.13950446346E+04  0.13950446346E+04  0.25500000920E-02 0.  1.
        2   -1    0    0  501    0  0.00000000000E+00  0.00000000000E+00 -0.25665296808E+04  0.25665296808E+04  0.25500000920E-02 0. -1.
    10030    2    1    2    0    0  0.00000000000E+00  0.00000000000E+00 -0.11714850462E+04  0.39615743154E+04  0.37844013851E+04 0.  0.
        5    1    3    3  502    0  0.16610566679E+04 -0.79364847244E+03 -0.12775071245E+03  0.18453534855E+04  0.46999998093E+01 0.  1.
       -5    1    3    3    0  502 -0.16610566679E+04  0.79364847244E+03 -0.10437343337E+04  0.21162208300E+04  0.46999998093E+01 0. -1.
</event>
<event>
 5   0  0.1051123E-06  0.3588607E+04  0.7818609E-02  0.8093106E-01
        2   -1    0    0  501    0  0.00000000000E+00  0.00000000000E+00  0.19510092677E+04  0.19510092677E+04  0.25500000920E-02 0. -1.
       -2   -1    0    0    0  501  0.00000000000E+00  0.00000000000E+00 -0.16501839568E+04  0.16501839568E+04  0.25500000920E-02 0.  1.
    10030    2    1    2    0    0  0.00000000000E+00  0.00000000000E+00  0.30082531095E+03  0.36011932245E+04  0.35886065224E+04 0.  0.
        2    1    3    3  502    0 -0.93770829760E+03  0.15052247813E+04 -0.12353880047E+03  0.17777121052E+04  0.25500000920E-02 0.  1.
       -2    1    3    3    0  502  0.93770829760E+03 -0.15052247813E+04  0.42436411142E+03  0.18234811194E+04  0.25500000920E-02 0. -1.
</event>
<event>
 5   0  0.1128166E-06  0.3611325E+04  0.7818609E-02  0.8087902E-01
       -2   -1    0    0    0  501  0.00000000000E+00  0.00000000000E+00  0.15211175290E+04  0.15211175290E+04  0.25500000920E-02 0.  1.
        2   -1    0    0  501    0  0.00000000000E+00  0.00000000000E+00 -0.21434355511E+04  0.21434355511E+04  0.25500000920E-02 0. -1.
    10030    2    1    2    0    0  0.00000000000E+00  0.00000000000E+00 -0.62231802207E+03  0.36645530801E+04  0.36113251801E+04 0.  0.
        3    1    3    3  502    0 -0.17688267523E+04 -0.20711360139E+03 -0.61349893075E+03  0.18836202037E+04  0.10100000352E+00 0. -1.
       -3    1    3    3    0  502  0.17688267523E+04  0.20711360139E+03 -0.88190913216E+01  0.17809328764E+04  0.10100000352E+00 0.  1.
</event>
<event>
 5   0  0.3704306E-07  0.2281970E+04  0.7818609E-02  0.8485064E-01
       -1   -1    0    0    0  501  0.00000000000E+00  0.00000000000E+00  0.79928321059E+03  0.79928321060E+03  0.50400001928E-02 0. -1.
        1   -1    0    0  501    0  0.00000000000E+00  0.00000000000E+00 -0.16287678458E+04  0.16287678458E+04  0.50400001928E-02 0.  1.
    10030    2    1    2    0    0  0.00000000000E+00  0.00000000000E+00 -0.82948463521E+03  0.24280510564E+04  0.22819700201E+04 0.  0.
        3    1    3    3  502    0  0.60588709622E+03 -0.91712237946E+03 -0.74032778962E+03  0.13252538921E+04  0.10100000352E+00 0. -1.
       -3    1    3    3    0  502 -0.60588709622E+03  0.91712237946E+03 -0.89156845597E+02  0.11027971643E+04  0.10100000352E+00 0.  1.
</event>
<event>
 5   0  0.1066907E-06  0.3704313E+04  0.7818609E-02  0.8067007E-01
       -2   -1    0    0    0  501  0.00000000000E+00  0.00000000000E+00  0.12403403096E+04  0.12403403096E+04  0.25500000920E-02 0. -1.
        2   -1    0    0  501    0  0.00000000000E+00  0.00000000000E+00 -0.27657606374E+04  0.27657606374E+04  0.25500000920E-02 0.  1.
    10030    2    1    2    0    0  0.00000000000E+00  0.00000000000E+00 -0.15254203278E+04  0.40061009470E+04  0.37043133805E+04 0.  0.
        4    1    3    3  502    0  0.26114502804E+03  0.22516499547E+03  0.12053222138E+04  0.12536743009E+04  0.12699999809E+01 0. -1.
       -4    1    3    3    0  502 -0.26114502804E+03 -0.22516499547E+03 -0.27307425416E+04  0.27524266461E+04  0.12699999809E+01 0.  1.
</event>
<event>
 5   0  0.3764495E-07  0.3664853E+04  0.7818609E-02  0.8075796E-01
        1   -1    0    0  501    0  0.00000000000E+00  0.00000000000E+00  0.16527072858E+04  0.16527072858E+04  0.50400001928E-02 0.  1.
       -1   -1    0    0    0  501  0.00000000000E+00  0.00000000000E+00 -0.20316891880E+04  0.20316891880E+04  0.50400001928E-02 0. -1.
    10030    2    1    2    0    0  0.00000000000E+00  0.00000000000E+00 -0.37898190216E+03  0.36843964738E+04  0.36648533523E+04 0.  0.
        4    1    3    3  502    0  0.10368976355E+04 -0.91994849818E+02  0.13265846288E+04  0.16862526944E+04  0.12699999809E+01 0.  1.
       -4    1    3    3    0  502 -0.10368976355E+04  0.91994849818E+02 -0.17055665310E+04  0.19981437795E+04  0.12699999809E+01 0. -1.
</event>
<event>
 5   0  0.3682276E-07  0.3659308E+04  0.7818609E-02  0.8077040E-01
        1   -1    0    0  501    0  0.00000000000E+00  0.00000000000E+00  0.16742036350E+04  0.16742036350E+04  0.50400001928E-02 0.  1.
       -1   -1    0    0    0  501  0.00000000000E+00  0.00000000000E+00 -0.19995376145E+04  0.19995376145E+04  0.50400001928E-02 0. -1.
    10030    2    1    2    0    0  0.00000000000E+00  0.00000000000E+00 -0.32533397953E+03  0.36737412495E+04  0.36593076627E+04 0.  0.
        1    1    3    3  502    0 -0.12197252061E+04 -0.17795639394E+03 -0.15201226702E+04  0.19570822642E+04  0.50400001928E-02 0. -1.
       -1    1    3    3    0  502  0.12197252061E+04  0.17795639394E+03  0.11947886906E+04  0.17166589853E+04  0.50400001928E-02 0.  1.
</event>
<event>
 5   0  0.1128530E-06  0.3733500E+04  0.7818609E-02  0.8060578E-01
       -2   -1    0    0    0  501  0.00000000000E+00  0.00000000000E+00  0.14911482455E+04  0.14911482455E+04  0.25500000920E-02 0.  1.
        2   -1    0    0  501    0  0.00000000000E+00  0.00000000000E+00 -0.23369612117E+04  0.23369612117E+04  0.25500000920E-02 0. -1.
    10030    2    1    2    0    0  0.00000000000E+00  0.00000000000E+00 -0.84581296626E+03  0.38281094572E+04  0.37335000258E+04 0.  0.
        5    1    3    3  502    0  0.33290259223E+03 -0.10238654525E+04  0.11407326489E+04  0.15685718559E+04  0.46999998093E+01 0.  1.
       -5    1    3    3    0  502 -0.33290259223E+03  0.10238654525E+04 -0.19865456151E+04  0.22595376013E+04  0.46999998093E+01 0. -1.
</event>
<event>
 5   0  0.3675819E-07  0.2439134E+04  0.7818609E-02  0.8424996E-01
       -1   -1    0    0    0  501  0.00000000000E+00  0.00000000000E+00  0.10045496731E+04  0.10045496731E+04  0.50400001928E-02 0.  1.
        1   -1    0    0  501    0  0.00000000000E+00  0.00000000000E+00 -0.14806071299E+04  0.14806071299E+04  0.50400001928E-02 0. -1.
    10030    2    1    2    0    0  0.00000000000E+00  0.00000000000E+00 -0.47605745683E+03  0.24851568030E+04  0.24391337875E+04 0.  0.
        5    1    3    3  502    0 -0.32471451026E+03 -0.11426315635E+04 -0.51941897578E+03  0.12964816101E+04  0.46999998093E+01 0. -1.
       -5    1    3    3    0  502  0.32471451026E+03  0.11426315635E+04  0.43361518948E+02  0.11886751929E+04  0.46999998093E+01 0.  1.
</event>
<event>
 5   0  0.1128166E-06  0.3029040E+04  0.7818609E-02  0.8235487E-01
        2   -1    0    0  501    0  0.00000000000E+00  0.00000000000E+00  0.11651728842E+04  0.11651728842E+04  0.25500000920E-02 0. -1.
       -2   -1    0    0    0  501  0.00000000000E+00  0.00000000000E+00 -0.19686103372E+04  0.19686103372E+04  0.25500000920E-02 0.  1.
    10030    2    1    2    0    0  0.00000000000E+00  0.00000000000E+00 -0.80343745300E+03  0.31337832214E+04  0.30290403659E+04 0.  0.
        3    1    3    3  502    0  0.14650263656E+04  0.54242815525E+01 -0.44621381284E+01  0.14650432061E+04  0.10100000352E+00 0.  1.
       -3    1    3    3    0  502 -0.14650263656E+04 -0.54242815525E+01 -0.79897531487E+03  0.16687400154E+04  0.10100000352E+00 0. -1.
</event>
<event>
 5   0  0.1092116E-06  0.3691719E+04  0.7818609E-02  0.8069799E-01
        2   -1    0    0  501    0  0.00000000000E+00  0.00000000000E+00  0.20661037359E+04  0.20661037359E+04  0.25500000920E-02 0. -1.
       -2   -1    0    0    0  501  0.00000000000E+00  0.00000000000E+00 -0.16490934090E+04  0.16490934090E+04  0.25500000920E-02 0.  1.
    10030    2    1    2    0    0  0.00000000000E+00  0.00000000000E+00  0.41701032688E+03  0.37151971449E+04  0.36917194115E+04 0.  0.
        1    1    3    3  502    0 -0.18363341833E+04  0.18532824946E+03  0.23566308781E+03  0.18606468992E+04  0.50400001928E-02 0.  1.
       -1    1    3    3    0  502  0.18363341833E+04 -0.18532824946E+03  0.18134723907E+03  0.18545502457E+04  0.50400001928E-02 0. -1.
</event>
<event>
 5   0  0.3848431E-07  0.3741517E+04  0.7818609E-02  0.8058823E-01
       -1   -1    0    0    0  501  0.00000000000E+00  0.00000000000E+00  0.15085272453E+04  0.15085272453E+04  0.50400001928E-02 0. -1.
        1   -1    0    0  501    0  0.00000000000E+00  0.00000000000E+00 -0.23199698921E+04  0.23199698921E+04  0.50400001928E-02 0.  1.
    10030    2    1    2    0    0  0.00000000000E+00  0.00000000000E+00 -0.81144264675E+03  0.38284971374E+04  0.37415172273E+04 0.  0.
        2    1    3    3  502    0  0.41521966073E+03 -0.14242630326E+04 -0.15718664272E+04  0.21614107933E+04  0.25500000920E-02 0.  1.
       -2    1    3    3    0  502 -0.41521966073E+03  0.14242630326E+04  0.76042378040E+03  0.16670863441E+04  0.25500000920E-02 0. -1.
</event>
<event>
 5   0  0.3848431E-07  0.3769624E+04  0.7818609E-02  0.8052705E-01
        1   -1    0    0  501    0  0.00000000000E+00  0.00000000000E+00  0.12227693523E+04  0.12227693523E+04  0.50400001928E-02 0. -1.
       -1   -1    0    0    0  501  0.00000000000E+00  0.00000000000E+00 -0.29053032307E+04  0.29053032308E+04  0.50400001928E-02 0.  1.
    10030    2    1    2    0    0  0.00000000000E+00  0.00000000000E+00 -0.16825338784E+04  0.41280725831E+04  0.37696237212E+04 0.  0.
        2    1    3    3  502    0  0.51653953963E+03  0.24115296721E+02  0.11435708296E+04  0.12550493559E+04  0.25500000920E-02 0. -1.
       -2    1    3    3    0  502 -0.51653953963E+03 -0.24115296721E+02 -0.28261047080E+04  0.28730232272E+04  0.25500000920E-02 0.  1.
</event>
<event>
 5   0  0.1128166E-06  0.3286163E+04  0.7818609E-02  0.8166425E-01
        2   -1    0    0  501    0  0.00000000000E+00  0.00000000000E+00  0.17485744009E+04  0.17485744009E+04  0.25500000920E-02 0.  1.
       -2   -1    0    0    0  501  0.00000000000E+00  0.00000000000E+00 -0.15439530311E+04  0.15439530311E+04  0.25500000920E-02 0. -1.
    10030    2    1    2    0    0  0.00000000000E+00  0.00000000000E+00  0.20462136980E+03  0.32925274320E+04  0.32861629579E+04 0.  0.
        3    1    3    3  502    0 -0.17751710861E+03 -0.10871578731E+04 -0.11191863054E+04  0.15703510949E+04  0.10100000352E+00 0. -1.
       -3    1    3    3    0  502  0.17751710861E+03  0.10871578731E+04  0.13238076752E+04  0.17221763371E+04  0.10100000352E+00 0.  1.
</event>
<event>
 5   0  0.1128166E-06  0.3119326E+04  0.7818609E-02  0.8210454E-01
       -2   -1    0    0    0  501  0.00000000000E+00  0.00000000000E+00  0.10673719216E+04  0.10673719216E+04  0.25500000920E-02 0.  1.
        2   -1    0    0  501    0  0.00000000000E+00  0.00000000000E+00 -0.22790072552E+04  0.22790072552E+04  0.25500000920E-02 0. -1.
    10030    2    1    2    0    0  0.00000000000E+00  0.00000000000E+00 -0.12116353335E+04  0.33463791768E+04  0.31193257947E+04 0.  0.
        3    1    3    3  502    0  0.13561732813E+04  0.45251517736E+03  0.62911677992E+02  0.14310603915E+04  0.10100000352E+00 0.  1.
       -3    1    3    3    0  502 -0.13561732813E+04 -0.45251517736E+03 -0.12745470115E+04  0.19153187853E+04  0.10100000352E+00 0. -1.
</event>
<event>
 5   0  0.3764495E-07  0.3705132E+04  0.7818609E-02  0.8066825E-01
        1   -1    0    0  501    0  0.00000000000E+00  0.00000000000E+00  0.19067676435E+04  0.19067676435E+04  0.50400001928E-02 0.  1.
       -1   -1    0    0    0  501  0.00000000000E+00  0.00000000000E+00 -0.17999050220E+04  0.17999050220E+04  0.50400001928E-02 0. -1.
    10030    2    1    2    0    0  0.00000000000E+00  0.00000000000E+00  0.10686262148E+03  0.37066726656E+04  0.37051319315E+04 0.  0.
        4    1    3    3  502    0  0.50430972896E+03  0.17015970381E+04 -0.47805061878E+03  0.18380138165E+04  0.12699999809E+01 0. -1.
       -4    1    3    3    0  502 -0.50430972896E+03 -0.17015970381E+04  0.58491324025E+03  0.18686588491E+04  0.12699999809E+01 0.  1.
</event>
<event>
 5   0  0.3764495E-07  0.3706712E+04  0.7818609E-02  0.8066476E-01
        1   -1    0    0  501    0  0.00000000000E+00  0.00000000000E+00  0.17267293869E+04  0.17267293869E+04  0.50400001928E-02 0. -1.
       -1   -1    0    0    0  501  0.00000000000E+00  0.00000000000E+00 -0.19892681772E+04  0.19892681772E+04  0.50400001928E-02 0.  1.
    10030    2    1    2    0    0  0.00000000000E+00  0.00000000000E+00 -0.26253879033E+03  0.37159975641E+04  0.37067116532E+04 0.  0.
        4    1    3    3  502    0  0.54101137320E+03 -0.13992884387E+04 -0.12222164822E+04  0.19350752396E+04  0.12699999809E+01 0.  1.
       -4    1    3    3    0  502 -0.54101137320E+03  0.13992884387E+04  0.95967769191E+03  0.17809223245E+04  0.12699999809E+01 0. -1.
</event>
<event>
 5   0  0.3682276E-07  0.3553737E+04  0.7818609E-02  0.8101172E-01
        1   -1    0    0  501    0  0.00000000000E+00  0.00000000000E+00  0.18825807074E+04  0.18825807074E+04  0.50400001928E-02 0. -1.
       -1   -1    0    0    0  501  0.00000000000E+00  0.00000000000E+00 -0.16770923541E+04  0.16770923541E+04  0.50400001928E-02 0.  1.
    10030    2    1    2    0    0  0.00000000000E+00  0.00000000000E+00  0.20548835322E+03  0.35596730615E+04  0.35537370248E+04 0.  0.
        1    1    3    3  502    0 -0.16244483209E+04  0.33984681632E+03 -0.53308655591E+03  0.17431320897E+04  0.50400001928E-02 0.  1.
       -1    1    3    3    0  502  0.16244483209E+04 -0.33984681632E+03  0.73857490913E+03  0.18165409718E+04  0.50400001928E-02 0. -1.
</event>
<event>
 5   0  0.3682276E-07  0.3495619E+04  0.7818609E-02  0.8114829E-01
       -1   -1    0    0    0  501  0.00000000000E+00  0.00000000000E+00  0.13505813200E+04  0.13505813200E+04  0.50400001928E-02 0. -1.
        1   -1    0    0  501    0  0.00000000000E+00  0.00000000000E+00 -0.22618693205E+04  0.22618693205E+04  0.50400001928E-02 0.  1.
    10030    2    1    2    0    0  0.00000000000E+00  0.00000000000E+00 -0.91128800047E+03  0.36124506405E+04  0.34956192313E+04 0.  0.
        1    1    3    3  502    0  0.16048876766E+04 -0.36259121166E+03 -0.10650141179E+04  0.19599469157E+04  0.50400001928E-02 0.  1.
       -1    1    3    3    0  502 -0.16048876766E+04  0.36259121166E+03  0.15372611745E+03  0.16525037248E+04  0.50400001928E-02 0. -1.
</event>
<event>
 5   0  0.3848431E-07  0.3649061E+04  0.7818609E-02  0.8079345E-01
       -1   -1    0    0    0  501  0.00000000000E+00  0.00000000000E+00  0.12362286700E+04  0.12362286700E+04  0.50400001928E-02 0.  1.
        1   -1    0    0  501    0  0.00000000000E+00  0.00000000000E+00 -0.26927959475E+04  0.26927959475E+04  0.50400001928E-02 0. -1.
    10030    2    1    2    0    0  0.00000000000E+00  0.00000000000E+00 -0.14565672775E+04  0.39290246175E+04  0.36490610040E+04 0.  0.
        2    1    3    3  502    0 -0.71037410938E+03  0.13475802136E+04 -0.18094690517E+04  0.23653291645E+04  0.25500000920E-02 0. -1.
       -2    1    3    3    0  502  0.71037410938E+03 -0.13475802136E+04  0.35290177418E+03  0.15636954530E+04  0.25500000920E-02 0.  1.
</event>
<event>
 5   0  0.3675819E-07  0.3738665E+04  0.7818609E-02  0.8059447E-01
       -1   -1    0    0    0  501  0.00000000000E+00  0.00000000000E+00  0.18887947030E+04  0.18887947030E+04  0.50400001928E-02 0.  1.
        1   -1    0    0  501    0  0.00000000000E+00  0.00000000000E+00 -0.18500704696E+04  0.18500704696E+04  0.50400001928E-02 0. -1.
    10030    2    1    2    0    0  0.00000000000E+00  0.00000000000E+00  0.38724233431E+02  0.37388651726E+04  0.37386646296E+04 0.  0.
        5    1    3    3  502    0  0.10132518320E+04  0.23711726442E+03 -0.15336143971E+04  0.18533480734E+04  0.46999998093E+01 0. -1.
       -5    1    3    3    0  502 -0.10132518320E+04 -0.23711726442E+03  0.15723386306E+04  0.18855170992E+04  0.46999998093E+01 0.  1.
</event>
<event>
 5   0  0.3848431E-07  0.3677110E+04  0.7818609E-02  0.8073054E-01
        1   -1    0    0  501    0  0.00000000000E+00  0.00000000000E+00  0.22225347076E+04  0.22225347076E+04  0.50400001928E-02 0. -1.
       -1   -1    0    0    0  501  0.00000000000E+00  0.00000000000E+00 -0.15209138330E+04  0.15209138330E+04  0.50400001928E-02 0.  1.
    10030    2    1    2    0    0  0.00000000000E+00  0.00000000000E+00  0.70162087460E+03  0.37434485406E+04  0.36771096155E+04 0.  0.
        2    1    3    3  502    0 -0.18047381869E+04  0.42407013713E+02 -0.39085838237E+01  0.18052405810E+04  0.25500000920E-02 0. -1.
       -2    1    3    3    0  502  0.18047381869E+04 -0.42407013713E+02  0.70552945843E+03  0.19382079596E+04  0.25500000920E-02 0.  1.
</event>
<event>
 5   0  0.1092116E-06  0.3699108E+04  0.7818609E-02  0.8068159E-01
       -2   -1    0    0    0  501  0.00000000000E+00  0.00000000000E+00  0.17713148725E+04  0.17713148725E+04  0.25500000920E-02 0.  1.
        2   -1    0    0  501    0  0.00000000000E+00  0.00000000000E+00 -0.19312492551E+04  0.19312492551E+04  0.25500000920E-02 0. -1.
    10030    2    1    2    0    0  0.00000000000E+00  0.00000000000E+00 -0.15993438262E+03  0.37025641277E+04  0.36991082862E+04 0.  0.
        1    1    3    3  502    0  0.17232333029E+04 -0.66287448282E+03 -0.18922470851E+03  0.18560015050E+04  0.50400001928E-02 0. -1.
       -1    1    3    3    0  502 -0.17232333029E+04  0.66287448282E+03  0.29290325893E+02  0.18465626227E+04  0.50400001928E-02 0.  1.
</event>
<event>
 5   0  0.1092116E-06  0.4044235E+04  0.7818609E-02  0.7995682E-01
        2   -1    0    0  501    0  0.00000000000E+00  0.00000000000E+00  0.25490349408E+04  0.25490349408E+04  0.25500000920E-02 0.  1.
       -2   -1    0    0    0  501  0.00000000000E+00  0.00000000000E+00 -0.16041206799E+04  0.16041206799E+04  0.25500000920E-02 0. -1.
    10030    2    1    2    0    0  0.00000000000E+00  0.00000000000E+00  0.94491426086E+03  0.41531556207E+04  0.40442352367E+04 0.  0.
        1    1    3    3  502    0  0.65826640878E+03 -0.70026688781E+03 -0.13545795422E+04  0.16608955763E+04  0.50400001928E-02 0. -1.
       -1    1    3    3    0  502 -0.65826640878E+03  0.70026688781E+03  0.22994938030E+04  0.24922600445E+04  0.50400001928E-02 0.  1.
</event>
<event>
 5   0  0.1051123E-06  0.3614977E+04  0.7818609E-02  0.8087070E-01
        2   -1    0    0  501    0  0.00000000000E+00  0.00000000000E+00  0.25163598349E+04  0.25163598349E+04  0.25500000920E-02 0.  1.
       -2   -1    0    0    0  501  0.00000000000E+00  0.00000000000E+00 -0.12983095344E+04  0.12983095344E+04  0.25500000920E-02 0. -1.
    10030    2    1    2    0    0  0.00000000000E+00  0.00000000000E+00  0.12180503005E+04  0.38146693693E+04  0.36149766061E+04 0.  0.
        2    1    3    3  502    0  0.59610296393E+03  0.16074093097E+04  0.12132924525E+04  0.21002814115E+04  0.25500000920E-02 0.  1.
       -2    1    3    3    0  502 -0.59610296393E+03 -0.16074093097E+04  0.47578480209E+01  0.17143879577E+04  0.25500000920E-02 0. -1.
</event>
<event>
 5   0  0.3764495E-07  0.3714159E+04  0.7818609E-02  0.8064831E-01
       -1   -1    0    0    0  501  0.00000000000E+00  0.00000000000E+00  0.15184812144E+04  0.15184812144E+04  0.50400001928E-02 0. -1.
        1   -1    0    0  501    0  0.00000000000E+00  0.00000000000E+00 -0.22711795834E+04  0.22711795834E+04  0.50400001928E-02 0.  1.
    10030    2    1    2    0    0  0.00000000000E+00  0.00000000000E+00 -0.75269836901E+03  0.37896607977E+04  0.37141586029E+04 0.  0.
        4    1    3    3  502    0  0.62550665512E+03 -0.93001194308E+03 -0.18871797042E+04  0.21949099386E+04  0.12699999809E+01 0.  1.
       -4    1    3    3    0  502 -0.62550665512E+03  0.93001194308E+03  0.11344813352E+04  0.15947508591E+04  0.12699999809E+01 0. -1.
</event>
<event>
 5   0  0.3764495E-07  0.3287260E+04  0.7818609E-02  0.8166145E-01
       -1   -1    0    0    0  501  0.00000000000E+00  0.00000000000E+00  0.10732648648E+04  0.10732648648E+04  0.50400001928E-02 0. -1.
        1   -1    0    0  501    0  0.00000000000E+00  0.00000000000E+00 -0.25171043821E+04  0.25171043821E+04  0.50400001928E-02 0.  1.
    10030    2    1    2    0    0  0.00000000000E+00  0.00000000000E+00 -0.14438395173E+04  0.35903692469E+04  0.32872600714E+04 0.  0.
        4    1    3    3  502    0  0.14604660089E+04 -0.71096877875E+03 -0.99623672054E+03  0.19054990905E+04  0.12699999809E+01 0.  1.
       -4    1    3    3    0  502 -0.14604660089E+04  0.71096877875E+03 -0.44760279676E+03  0.16848701564E+04  0.12699999809E+01 0. -1.
</event>
<event>
 5   0  0.3682276E-07  0.3700297E+04  0.7818609E-02  0.8067896E-01
        1   -1    0    0  501    0  0.00000000000E+00  0.00000000000E+00  0.24322232764E+04  0.24322232764E+04  0.50400001928E-02 0.  1.
       -1   -1    0    0    0  501  0.00000000000E+00  0.00000000000E+00 -0.14073749723E+04  0.14073749723E+04  0.50400001928E-02 0. -1.
    10030    2    1    2    0    0  0.00000000000E+00  0.00000000000E+00  0.10248483042E+04  0.38395982487E+04  0.37002973752E+04 0.  0.
        1    1    3    3  502    0  0.68058012452E+03  0.15772900294E+04  0.12253231237E+04  0.21100829131E+04  0.50400001928E-02 0.  1.
       -1    1    3    3    0  502 -0.68058012452E+03 -0.15772900294E+04 -0.20047481950E+03  0.17295153356E+04  0.50400001928E-02 0. -1.
</event>
<event>
 5   0  0.3848431E-07  0.2565145E+04  0.7818609E-02  0.8380138E-01
        1   -1    0    0  501    0  0.00000000000E+00  0.00000000000E+00  0.10815714032E+04  0.10815714032E+04  0.50400001928E-02 0. -1.
       -1   -1    0    0    0  501  0.00000000000E+00  0.00000000000E+00 -0.15209281438E+04  0.15209281438E+04  0.50400001928E-02 0.  1.
    10030    2    1    2    0    0  0.00000000000E+00  0.00000000000E+00 -0.43935674055E+03  0.26024995470E+04  0.25651451317E+04 0.  0.
        2    1    3    3  502    0  0.10045393646E+04 -0.58378365217E+03 -0.77081051949E+03  0.13942924889E+04  0.25500000920E-02 0.  1.
       -2    1    3    3    0  502 -0.10045393646E+04  0.58378365217E+03  0.33145377894E+03  0.12082070581E+04  0.25500000920E-02 0. -1.
</event>
<event>
 5   0  0.3848431E-07  0.3814538E+04  0.7818609E-02  0.8043042E-01
       -1   -1    0    0    0  501  0.00000000000E+00  0.00000000000E+00  0.13842600896E+04  0.13842600896E+04  0.50400001928E-02 0.  1.
        1   -1    0    0  501    0  0.00000000000E+00  0.00000000000E+00 -0.26278847033E+04  0.26278847033E+04  0.50400001928E-02 0. -1.
    10030    2    1    2    0    0  0.00000000000E+00  0.00000000000E+00 -0.12436246137E+04  0.40121447929E+04  0.38145384596E+04 0.  0.
        2    1    3    3  502    0 -0.18982170019E+04  0.14335371698E+02 -0.81644604796E+03  0.20664020515E+04  0.25500000920E-02 0.  1.
       -2    1    3    3    0  502  0.18982170019E+04 -0.14335371698E+02 -0.42717856570E+03  0.19457427415E+04  0.25500000920E-02 0. -1.
</event>
<event>
 5   0  0.1128166E-06  0.3701510E+04  0.7818609E-02  0.8067627E-01
        2   -1    0    0  501    0  0.00000000000E+00  0.00000000000E+00  0.22839263659E+04  0.22839263659E+04  0.25500000920E-02 0. -1.
       -2   -1    0    0    0  501  0.00000000000E+00  0.00000000000E+00 -0.14997394457E+04  0.14997394458E+04  0.25500000920E-02 0.  1.
    10030    2    1    2    0    0  0.00000000000E+00  0.00000000000E+00  0.78418692018E+03  0.37836658117E+04  0.37015102119E+04 0.  0.
        3    1    3    3  502    0  0.19801929757E+03  0.15214733649E+04 -0.66586697677E+03  0.16725644033E+04  0.10100000352E+00 0.  1.
       -3    1    3    3    0  502 -0.19801929757E+03 -0.15214733649E+04  0.14500538969E+04  0.21111014084E+04  0.10100000352E+00 0. -1.
</event>
<event>
 5   0  0.1092116E-06  0.3697605E+04  0.7818609E-02  0.8068493E-01
       -2   -1    0    0    0  501  0.00000000000E+00  0.00000000000E+00  0.13845228447E+04  0.13845228447E+04  0.25500000920E-02 0.  1.
        2   -1    0    0  501    0  0.00000000000E+00  0.00000000000E+00 -0.24687712870E+04  0.24687712870E+04  0.25500000920E-02 0. -1.
    10030    2    1    2    0    0  0.00000000000E+00  0.00000000000E+00 -0.10842484424E+04  0.38532941317E+04  0.36976047626E+04 0.  0.
        1    1    3    3  502    0  0.11829673654E+04 -0.11460726438E+04  0.33298129318E+03  0.16804079368E+04  0.50400001928E-02 0.  1.
       -1    1    3    3    0  502 -0.11829673654E+04  0.11460726438E+04 -0.14172297356E+04  0.21728861949E+04  0.50400001928E-02 0. -1.
</event>
<event>
 5   0  0.1128166E-06  0.3586357E+04  0.7818609E-02  0.8093624E-01
       -2   -1    0    0    0  501  0.00000000000E+00  0.00000000000E+00  0.16870343422E+04  0.16870343422E+04  0.25500000920E-02 0. -1.
        2   -1    0    0  501    0  0.00000000000E+00  0.00000000000E+00 -0.19060007355E+04  0.19060007355E+04  0.25500000920E-02 0.  1.
    10030    2    1    2    0    0  0.00000000000E+00  0.00000000000E+00 -0.21896639331E+03  0.35930350777E+04  0.35863567569E+04 0.  0.
        3    1    3    3  502    0 -0.90172703941E+03  0.65324258765E+03  0.12987127799E+04  0.17106993970E+04  0.10100000352E+00 0. -1.
       -3    1    3    3    0  502  0.90172703941E+03 -0.65324258765E+03 -0.15176791732E+04  0.18823356807E+04  0.10100000352E+00 0.  1.
</event>
<event>
 5   0  0.3682276E-07  0.3685077E+04  0.7818609E-02  0.8071277E-01
        1   -1    0    0  501    0  0.00000000000E+00  0.00000000000E+00  0.98361933152E+03  0.98361933153E+03  0.50400001928E-02 0.  1.
       -1   -1    0    0    0  501  0.00000000000E+00  0.00000000000E+00 -0.34514850303E+04  0.34514850303E+04  0.50400001928E-02 0. -1.
    10030    2    1    2    0    0  0.00000000000E+00  0.00000000000E+00 -0.24678656988E+04  0.44351043618E+04  0.36850766061E+04 0.  0.
        1    1    3    3  502    0  0.14227333138E+04 -0.89078889718E+03 -0.21483571133E+04  0.27263736406E+04  0.50400001928E-02 0. -1.
       -1    1    3    3    0  502 -0.14227333138E+04  0.89078889718E+03 -0.31950858543E+03  0.17087307212E+04  0.50400001928E-02 0.  1.
</event>
<event>
 5   0  0.1051123E-06  0.2598897E+04  0.7818609E-02  0.8368576E-01
       -2   -1    0    0    0  501  0.00000000000E+00  0.00000000000E+00  0.12528915645E+04  0.12528915645E+04  0.25500000920E-02 0. -1.
        2   -1    0    0  501    0  0.00000000000E+00  0.00000000000E+00 -0.13477350676E+04  0.13477350676E+04  0.25500000920E-02 0.  1.
    10030    2    1    2    0    0  0.00000000000E+00  0.00000000000E+00 -0.94843503142E+02  0.26006266321E+04  0.25988966100E+04 0.  0.
        2    1    3    3  502    0 -0.38726247459E+02 -0.11051710878E+04 -0.73027108287E+03  0.13252164767E+04  0.25500000920E-02 0.  1.
       -2    1    3    3    0  502  0.38726247459E+02  0.11051710878E+04  0.63542757973E+03  0.12754101555E+04  0.25500000920E-02 0. -1.
</event>
<event>
 5   0  0.1051123E-06  0.3808750E+04  0.7818609E-02  0.8044280E-01
        2   -1    0    0  501    0  0.00000000000E+00  0.00000000000E+00  0.13986784445E+04  0.13986784445E+04  0.25500000920E-02 0. -1.
       -2   -1    0    0    0  501  0.00000000000E+00  0.00000000000E+00 -0.25929073804E+04  0.25929073804E+04  0.25500000920E-02 0.  1.
    10030    2    1    2    0    0  0.00000000000E+00  0.00000000000E+00 -0.11942289359E+04  0.39915858249E+04  0.38087497484E+04 0.  0.
        2    1    3    3  502    0  0.12145989957E+04  0.46804057317E+03 -0.20539274053E+04  0.24316518017E+04  0.25500000920E-02 0.  1.
       -2    1    3    3    0  502 -0.12145989957E+04 -0.46804057317E+03  0.85969846935E+03  0.15599340232E+04  0.25500000920E-02 0. -1.
</event>
<event>
 5   0  0.3682276E-07  0.3582479E+04  0.7818609E-02  0.8094517E-01
       -1   -1    0    0    0  501  0.00000000000E+00  0.00000000000E+00  0.15155989640E+04  0.15155989641E+04  0.50400001928E-02 0.  1.
        1   -1    0    0  501    0  0.00000000000E+00  0.00000000000E+00 -0.21170103932E+04  0.21170103932E+04  0.50400001928E-02 0. -1.
    10030    2    1    2    0    0  0.00000000000E+00  0.00000000000E+00 -0.60141142911E+03  0.36326093572E+04  0.35824788953E+04 0.  0.
        1    1    3    3  502    0 -0.99099279710E+03  0.43952480979E+03  0.11451824958E+04  0.15769247703E+04  0.50400001928E-02 0.  1.
       -1    1    3    3    0  502  0.99099279710E+03 -0.43952480979E+03 -0.17465939250E+04  0.20556845869E+04  0.50400001928E-02 0. -1.
</event>
<event>
 5   0  0.3764495E-07  0.3645928E+04  0.7818609E-02  0.8080052E-01
       -1   -1    0    0    0  501  0.00000000000E+00  0.00000000000E+00  0.28778046531E+04  0.28778046531E+04  0.50400001928E-02 0.  1.
        1   -1    0    0  501    0  0.00000000000E+00  0.00000000000E+00 -0.11547683644E+04  0.11547683645E+04  0.50400001928E-02 0. -1.
    10030    2    1    2    0    0  0.00000000000E+00  0.00000000000E+00  0.17230362886E+04  0.40325730175E+04  0.36459280149E+04 0.  0.
        4    1    3    3  502    0  0.13687863042E+04 -0.11363685557E+04  0.42147385640E+03  0.18282645502E+04  0.12699999809E+01 0. -1.
       -4    1    3    3    0  502 -0.13687863042E+04  0.11363685557E+04  0.13015624322E+04  0.22043084673E+04  0.12699999809E+01 0.  1.
</event>
<event>
 5   0  0.3490375E-07  0.3017187E+04  0.7818609E-02  0.8238840E-01
        3   -1    0    0  501    0  0.00000000000E+00  0.00000000000E+00  0.15905216302E+04  0.15905216334E+04  0.10100000352E+00 0.  1.
       -3   -1    0    0    0  501  0.00000000000E+00  0.00000000000E+00 -0.14308853301E+04  0.14308853337E+04  0.10100000352E+00 0. -1.
    10030    2    1    2    0    0  0.00000000000E+00  0.00000000000E+00  0.15963630008E+03  0.30214069671E+04  0.30171868210E+04 0.  0.
        4    1    3    3  502    0  0.10685132681E+03 -0.13509762877E+04  0.74354104689E+03  0.15457713406E+04  0.12699999809E+01 0.  1.
       -4    1    3    3    0  502 -0.10685132681E+03  0.13509762877E+04 -0.58390474681E+03  0.14756356265E+04  0.12699999809E+01 0. -1.
</event>
<event>
 5   0  0.1066907E-06  0.3715040E+04  0.7818609E-02  0.8064637E-01
       -2   -1    0    0    0  501  0.00000000000E+00  0.00000000000E+00  0.14370002574E+04  0.14370002574E+04  0.25500000920E-02 0.  1.
        2   -1    0    0  501    0  0.00000000000E+00  0.00000000000E+00 -0.24010994724E+04  0.24010994724E+04  0.25500000920E-02 0. -1.
    10030    2    1    2    0    0  0.00000000000E+00  0.00000000000E+00 -0.96409921496E+03  0.38380997298E+04  0.37150400051E+04 0.  0.
        4    1    3    3  502    0 -0.87270375340E+03 -0.15863807204E+04 -0.91071958634E+03  0.20267282524E+04  0.12699999809E+01 0. -1.
       -4    1    3    3    0  502  0.87270375340E+03  0.15863807204E+04 -0.53379628623E+02  0.18113714773E+04  0.12699999809E+01 0.  1.
</event>
<event>
 5   0  0.3675819E-07  0.3685773E+04  0.7818609E-02  0.8071122E-01
        1   -1    0    0  501    0  0.00000000000E+00  0.00000000000E+00  0.20601009209E+04  0.20601009209E+04  0.50400001928E-02 0. -1.
       -1   -1    0    0    0  501  0.00000000000E+00  0.00000000000E+00 -0.16485752522E+04  0.16485752522E+04  0.50400001928E-02 0.  1.
    10030    2    1    2    0    0  0.00000000000E+00  0.00000000000E+00  0.41152566876E+03  0.37086761731E+04  0.36857734034E+04 0.  0.
        5    1    3    3  502    0 -0.12527270951E+04 -0.11308245393E+04 -0.53918884499E+03  0.17716760466E+04  0.46999998093E+01 0.  1.
       -5    1    3    3    0  502  0.12527270951E+04  0.11308245393E+04  0.95071451374E+03  0.19370001265E+04  0.46999998093E+01 0. -1.
</event>
<event>
 5   0  0.1092116E-06  0.3633396E+04  0.7818609E-02  0.8082885E-01
       -2   -1    0    0    0  501  0.00000000000E+00  0.00000000000E+00  0.13167968430E+04  0.13167968430E+04  0.25500000920E-02 0. -1.
        2   -1    0    0  501    0  0.00000000000E+00  0.00000000000E+00 -0.25063781966E+04  0.25063781966E+04  0.25500000920E-02 0.  1.
    10030    2    1    2    0    0  0.00000000000E+00  0.00000000000E+00 -0.11895813536E+04  0.38231750397E+04  0.36333956001E+04 0.  0.
        1    1    3    3  502    0 -0.93822964702E+03  0.14733824199E+04 -0.11201277227E+04  0.20750462021E+04  0.50400001928E-02 0.  1.
       -1    1    3    3    0  502  0.93822964702E+03 -0.14733824199E+04 -0.69453630939E+02  0.17481288376E+04  0.50400001928E-02 0. -1.
</event>
<event>
 5   0  0.3675819E-07  0.3581254E+04  0.7818609E-02  0.8094799E-01
       -1   -1    0    0    0  501  0.00000000000E+00  0.00000000000E+00  0.11547058025E+04  0.11547058025E+04  0.50400001928E-02 0.  1.
        1   -1    0    0  501    0  0.00000000000E+00  0.00000000000E+00 -0.27767631268E+04  0.27767631268E+04  0.50400001928E-02 0. -1.
    10030    2    1    2    0    0  0.00000000000E+00  0.00000000000E+00 -0.16220573243E+04  0.39314689293E+04  0.35812536882E+04 0.  0.
        5    1    3    3  502    0  0.25172103448E+03  0.12678498054E+03  0.11301954658E+04  0.11648183513E+04  0.46999998093E+01 0.  1.
       -5    1    3    3    0  502 -0.25172103448E+03 -0.12678498054E+03 -0.27522527901E+04  0.27666505781E+04  0.46999998093E+01 0. -1.
</event>
<event>
 5   0  0.3704306E-07  0.3280760E+04  0.7818609E-02  0.8167808E-01
        1   -1    0    0  501    0  0.00000000000E+00  0.00000000000E+00  0.13353799932E+04  0.13353799932E+04  0.50400001928E-02 0.  1.
       -1   -1    0    0    0  501  0.00000000000E+00  0.00000000000E+00 -0.20150419310E+04  0.20150419310E+04  0.50400001928E-02 0. -1.
    10030    2    1    2    0    0  0.00000000000E+00  0.00000000000E+00 -0.67966193785E+03  0.33504219242E+04  0.32807600828E+04 0.  0.
        3    1    3    3  502    0  0.13165433136E+04  0.92202172190E+03 -0.50963834273E+01  0.16073071691E+04  0.10100000352E+00 0. -1.
       -3    1    3    3    0  502 -0.13165433136E+04 -0.92202172190E+03 -0.67456555442E+03  0.17431147552E+04  0.10100000352E+00 0.  1.
</event>
<event>
 5   0  0.3704306E-07  0.3662241E+04  0.7818609E-02  0.8076382E-01
        1   -1    0    0  501    0  0.00000000000E+00  0.00000000000E+00  0.23660756045E+04  0.23660756046E+04  0.50400001928E-02 0.  1.
       -1   -1    0    0    0  501  0.00000000000E+00  0.00000000000E+00 -0.14171152237E+04  0.14171152237E+04  0.50400001928E-02 0. -1.
    10030    2    1    2    0    0  0.00000000000E+00  0.00000000000E+00  0.94896038087E+03  0.37831908282E+04  0.36622407128E+04 0.  0.
        3    1    3    3  502    0  0.88251379238E+02 -0.32462048617E+03  0.23338801068E+04  0.23579998153E+04  0.10100000352E+00 0.  1.
       -3    1    3    3    0  502 -0.88251379238E+02  0.32462048617E+03 -0.13849197259E+04  0.14251910129E+04  0.10100000352E+00 0. -1.
</event>
<event>
 5   0  0.3490375E-07  0.3712039E+04  0.7818609E-02  0.8065299E-01
       -3   -1    0    0    0  501  0.00000000000E+00  0.00000000000E+00  0.16899117595E+04  0.16899117625E+04  0.10100000352E+00 0. -1.
        3   -1    0    0  501    0  0.00000000000E+00  0.00000000000E+00 -0.20384546768E+04  0.20384546793E+04  0.10100000352E+00 0.  1.
    10030    2    1    2    0    0  0.00000000000E+00  0.00000000000E+00 -0.34854291731E+03  0.37283664418E+04  0.37120390837E+04 0.  0.
        5    1    3    3  502    0 -0.41084638694E+03 -0.14173952105E+04 -0.13048255879E+04  0.19698720368E+04  0.46999998093E+01 0.  1.
       -5    1    3    3    0  502  0.41084638694E+03  0.14173952105E+04  0.95628267056E+03  0.17584944050E+04  0.46999998093E+01 0. -1.
</event>
<event>
 5   0  0.1066907E-06  0.3757010E+04  0.7818609E-02  0.8055444E-01
       -2   -1    0    0    0  501  0.00000000000E+00  0.00000000000E+00  0.28075353579E+04  0.28075353579E+04  0.25500000920E-02 0.  1.
        2   -1    0    0  501    0  0.00000000000E+00  0.00000000000E+00 -0.12568961697E+04  0.12568961697E+04  0.25500000920E-02 0. -1.
    10030    2    1    2    0    0  0.00000000000E+00  0.00000000000E+00  0.15506391881E+04  0.40644315276E+04  0.37570096820E+04 0.  0.
        4    1    3    3  502    0  0.21351996707E+03  0.66568076642E+02 -0.12424404954E+04  0.12624112178E+04  0.12699999809E+01 0. -1.
       -4    1    3    3    0  502 -0.21351996707E+03 -0.66568076642E+02  0.27930796836E+04  0.28020203098E+04  0.12699999809E+01 0.  1.
</event>
<event>
 5   0  0.1128166E-06  0.3652436E+04  0.7818609E-02  0.8078585E-01
        2   -1    0    0  501    0  0.00000000000E+00  0.00000000000E+00  0.24784620239E+04  0.24784620239E+04  0.25500000920E-02 0.  1.
       -2   -1    0    0    0  501  0.00000000000E+00  0.00000000000E+00 -0.13456218354E+04  0.13456218354E+04  0.25500000920E-02 0. -1.
    10030    2    1    2    0    0  0.00000000000E+00  0.00000000000E+00  0.11328401885E+04  0.38240838594E+04  0.36524362377E+04 0.  0.
        3    1    3    3  502    0  0.39001407304E+03 -0.26833533518E+03  0.24131008479E+04  0.24590995387E+04  0.10100000352E+00 0.  1.
       -3    1    3    3    0  502 -0.39001407304E+03  0.26833533518E+03 -0.12802606594E+04  0.13649843206E+04  0.10100000352E+00 0. -1.
</event>
<event>
 5   0  0.1051123E-06  0.3685792E+04  0.7818609E-02  0.8071118E-01
        2   -1    0    0  501    0  0.00000000000E+00  0.00000000000E+00  0.24486128657E+04  0.24486128657E+04  0.25500000920E-02 0. -1.
       -2   -1    0    0    0  501  0.00000000000E+00  0.00000000000E+00 -0.13870161012E+04  0.13870161012E+04  0.25500000920E-02 0.  1.
    10030    2    1    2    0    0  0.00000000000E+00  0.00000000000E+00  0.10615967645E+04  0.38356289669E+04  0.36857918934E+04 0.  0.
        2    1    3    3  502    0  0.63058356972E+03 -0.27810707829E+02  0.23326175059E+04  0.24165085356E+04  0.25500000920E-02 0. -1.
       -2    1    3    3    0  502 -0.63058356972E+03  0.27810707829E+02 -0.12710207413E+04  0.14191204314E+04  0.25500000920E-02 0.  1.
</event>
<event>
 5   0  0.1092116E-06  0.3682203E+04  0.7818609E-02  0.8071917E-01
       -2   -1    0    0    0  501  0.00000000000E+00  0.00000000000E+00  0.21796590164E+04  0.21796590164E+04  0.25500000920E-02 0.  1.
        2   -1    0    0  501    0  0.00000000000E+00  0.00000000000E+00 -0.15551309055E+04  0.15551309055E+04  0.25500000920E-02 0. -1.
    10030    2    1    2    0    0  0.00000000000E+00  0.00000000000E+00  0.62452811092E+03  0.37347899219E+04  0.36822031991E+04 0.  0.
        1    1    3    3  502    0  0.83895208352E+03 -0.55509155064E+02 -0.13490325283E+04  0.15895944852E+04  0.50400001928E-02 0. -1.
       -1    1    3    3    0  502 -0.83895208352E+03  0.55509155064E+02  0.19735606393E+04  0.21451954367E+04  0.50400001928E-02 0.  1.
</event>
<event>
 5   0  0.1128530E-06  0.3789929E+04  0.7818609E-02  0.8048319E-01
        2   -1    0    0  501    0  0.00000000000E+00  0.00000000000E+00  0.20667370768E+04  0.20667370768E+04  0.25500000920E-02 0. -1.
       -2   -1    0    0    0  501  0.00000000000E+00  0.00000000000E+00 -0.17374686561E+04  0.17374686561E+04  0.25500000920E-02 0.  1.
    10030    2    1    2    0    0  0.00000000000E+00  0.00000000000E+00  0.32926842066E+03  0.38042057330E+04  0.37899292297E+04 0.  0.
        5    1    3    3  502    0  0.13769769175E+04  0.81182998839E+03  0.11861787666E+04  0.19905214186E+04  0.46999998093E+01 0. -1.
       -5    1    3    3    0  502 -0.13769769175E+04 -0.81182998839E+03 -0.85691034598E+03  0.18136843144E+04  0.46999998093E+01 0.  1.
</event>
<event>
 5   0  0.1128166E-06  0.2582283E+04  0.7818609E-02  0.8374244E-01
        2   -1    0    0  501    0  0.00000000000E+00  0.00000000000E+00  0.12697157459E+04  0.12697157459E+04  0.25500000920E-02 0. -1.
       -2   -1    0    0    0  501  0.00000000000E+00  0.00000000000E+00 -0.13129286132E+04  0.13129286132E+04  0.25500000920E-02 0.  1.
    10030    2    1    2    0    0  0.00000000000E+00  0.00000000000E+00 -0.43212867262E+02  0.25826443591E+04  0.25822828144E+04 0.  0.
        3    1    3    3  502    0 -0.74610849454E+02  0.17333243355E+03  0.12558488796E+04  0.12699477667E+04  0.10100000352E+00 0. -1.
       -3    1    3    3    0  502  0.74610849454E+02 -0.17333243355E+03 -0.12990617469E+04  0.13126965924E+04  0.10100000352E+00 0.  1.
</event>
<event>
 5   0  0.3704306E-07  0.3442358E+04  0.7818609E-02  0.8127588E-01
       -1   -1    0    0    0  501  0.00000000000E+00  0.00000000000E+00  0.12418856036E+04  0.12418856036E+04  0.50400001928E-02 0.  1.
        1   -1    0    0  501    0  0.00000000000E+00  0.00000000000E+00 -0.23854515368E+04  0.23854515368E+04  0.50400001928E-02 0. -1.
    10030    2    1    2    0    0  0.00000000000E+00  0.00000000000E+00 -0.11435659332E+04  0.36273371404E+04  0.34423584483E+04 0.  0.
        3    1    3    3  502    0  0.87994697505E+03  0.68840019609E+03  0.80786956403E+03  0.13787148913E+04  0.10100000352E+00 0.  1.
       -3    1    3    3    0  502 -0.87994697505E+03 -0.68840019609E+03 -0.19514354972E+04  0.22486222490E+04  0.10100000352E+00 0. -1.
</event>
<event>
 5   0  0.3675819E-07  0.3504477E+04  0.7818609E-02  0.8112730E-01
        1   -1    0    0  501    0  0.00000000000E+00  0.00000000000E+00  0.13281346553E+04  0.13281346553E+04  0.50400001928E-02 0.  1.
       -1   -1    0    0    0  501  0.00000000000E+00  0.00000000000E+00 -0.23117678437E+04  0.23117678437E+04  0.50400001928E-02 0. -1.
    10030    2    1    2    0    0  0.00000000000E+00  0.00000000000E+00 -0.98363318834E+03  0.36399024990E+04  0.35044765591E+04 0.  0.
        5    1    3    3  502    0  0.13587539757E+04  0.10987114738E+04 -0.35664267550E+03  0.17834223720E+04  0.46999998093E+01 0.  1.
       -5    1    3    3    0  502 -0.13587539757E+04 -0.10987114738E+04 -0.62699051284E+03  0.18564801270E+04  0.46999998093E+01 0. -1.
</event>
<event>
 5   0  0.3675819E-07  0.3762098E+04  0.7818609E-02  0.8054338E-01
       -1   -1    0    0    0  501  0.00000000000E+00  0.00000000000E+00  0.20692690804E+04  0.20692690804E+04  0.50400001928E-02 0.  1.
        1   -1    0    0  501    0  0.00000000000E+00  0.00000000000E+00 -0.17099496679E+04  0.17099496679E+04  0.50400001928E-02 0. -1.
    10030    2    1    2    0    0  0.00000000000E+00  0.00000000000E+00  0.35931941250E+03  0.37792187483E+04  0.37620983384E+04 0.  0.
        5    1    3    3  502    0  0.23435064882E+02 -0.17532282489E+04  0.86390950817E+03  0.19546662690E+04  0.46999998093E+01 0.  1.
       -5    1    3    3    0  502 -0.23435064882E+02  0.17532282489E+04 -0.50459009567E+03  0.18245524793E+04  0.46999998093E+01 0. -1.
</event>
<event>
 5   0  0.3675819E-07  0.3813888E+04  0.7818609E-02  0.8043181E-01
        1   -1    0    0  501    0  0.00000000000E+00  0.00000000000E+00  0.14976060393E+04  0.14976060393E+04  0.50400001928E-02 0.  1.
       -1   -1    0    0    0  501  0.00000000000E+00  0.00000000000E+00 -0.24281660839E+04  0.24281660839E+04  0.50400001928E-02 0. -1.
    10030    2    1    2    0    0  0.00000000000E+00  0.00000000000E+00 -0.93056004454E+03  0.39257721232E+04  0.38138884052E+04 0.  0.
        5    1    3    3  502    0  0.17236106762E+04 -0.49270429803E+03 -0.11346038887E+04  0.21215417419E+04  0.46999998093E+01 0. -1.
       -5    1    3    3    0  502 -0.17236106762E+04  0.49270429803E+03  0.20404384419E+03  0.18042303813E+04  0.46999998093E+01 0.  1.
</event>
<event>
 5   0  0.1051123E-06  0.3632338E+04  0.7818609E-02  0.8083124E-01
       -2   -1    0    0    0  501  0.00000000000E+00  0.00000000000E+00  0.19485847467E+04  0.19485847467E+04  0.25500000920E-02 0. -1.
        2   -1    0    0  501    0  0.00000000000E+00  0.00000000000E+00 -0.16927519240E+04  0.16927519240E+04  0.25500000920E-02 0.  1.
    10030    2    1    2    0    0  0.00000000000E+00  0.00000000000E+00  0.25583282275E+03  0.36413366707E+04  0.36323384089E+04 0.  0.
        2    1    3    3  502    0 -0.60037387984E+03 -0.16133149574E+04 -0.45251414298E+03  0.17798884788E+04  0.25500000920E-02 0.  1.
       -2    1    3    3    0  502  0.60037387984E+03  0.16133149574E+04  0.70834696573E+03  0.18614481919E+04  0.25500000920E-02 0. -1.
</event>
<event>
 5   0  0.1128166E-06  0.3710546E+04  0.7818609E-02  0.8065629E-01
        2   -1    0    0  501    0  0.00000000000E+00  0.00000000000E+00  0.17488121704E+04  0.17488121704E+04  0.25500000920E-02 0. -1.
       -2   -1    0    0    0  501  0.00000000000E+00  0.00000000000E+00 -0.19682146858E+04  0.19682146858E+04  0.25500000920E-02 0.  1.
    10030    2    1    2    0    0  0.00000000000E+00  0.00000000000E+00 -0.21940251542E+03  0.37170268563E+04  0.37105459418E+04 0.  0.
        3    1    3    3  502    0  0.41954388874E+03 -0.17379003411E+04  0.38686921634E+03  0.18292026872E+04  0.10100000352E+00 0. -1.
       -3    1    3    3    0  502 -0.41954388874E+03  0.17379003411E+04 -0.60627173175E+03  0.18878241690E+04  0.10100000352E+00 0.  1.
</event>
<event>
 5   0  0.3704306E-07  0.3571638E+04  0.7818609E-02  0.8097019E-01
       -1   -1    0    0    0  501  0.00000000000E+00  0.00000000000E+00  0.13621727956E+04  0.13621727956E+04  0.50400001928E-02 0.  1.
        1   -1    0    0  501    0  0.00000000000E+00  0.00000000000E+00 -0.23412223921E+04  0.23412223921E+04  0.50400001928E-02 0. -1.
    10030    2    1    2    0    0  0.00000000000E+00  0.00000000000E+00 -0.97904959652E+03  0.37033951877E+04  0.35716379721E+04 0.  0.
        3    1    3    3  502    0 -0.94428195451E+03 -0.14925574840E+04 -0.21567359249E+03  0.17793008069E+04  0.10100000352E+00 0. -1.
       -3    1    3    3    0  502  0.94428195451E+03  0.14925574840E+04 -0.76337600403E+03  0.19240943808E+04  0.10100000352E+00 0.  1.
</event>
<event>
 5   0  0.3848431E-07  0.2889815E+04  0.7818609E-02  0.8275914E-01
       -1   -1    0    0    0  501  0.00000000000E+00  0.00000000000E+00  0.15268437380E+04  0.15268437380E+04  0.50400001928E-02 0.  1.
        1   -1    0    0  501    0  0.00000000000E+00  0.00000000000E+00 -0.13673680310E+04  0.13673680310E+04  0.50400001928E-02 0. -1.
    10030    2    1    2    0    0  0.00000000000E+00  0.00000000000E+00  0.15947570694E+03  0.28942117690E+04  0.28898147454E+04 0.  0.
        2    1    3    3  502    0  0.10683324837E+04 -0.41236918913E+03 -0.80272408272E+03  0.13984808175E+04  0.25500000920E-02 0. -1.
       -2    1    3    3    0  502 -0.10683324837E+04  0.41236918913E+03  0.96219978966E+03  0.14957309515E+04  0.25500000920E-02 0.  1.
</event>
<event>
 5   0  0.1051123E-06  0.3733431E+04  0.7818609E-02  0.8060593E-01
        2   -1    0    0  501    0  0.00000000000E+00  0.00000000000E+00  0.16206987435E+04  0.16206987436E+04  0.25500000920E-02 0.  1.
       -2   -1    0    0    0  501  0.00000000000E+00  0.00000000000E+00 -0.21500768391E+04  0.21500768391E+04  0.25500000920E-02 0. -1.
    10030    2    1    2    0    0  0.00000000000E+00  0.00000000000E+00 -0.52937809552E+03  0.37707755826E+04  0.37334310395E+04 0.  0.
        2    1    3    3  502    0 -0.11737629579E+04 -0.79133460868E+03  0.96432156764E+03  0.17128473458E+04  0.25500000920E-02 0.  1.
       -2    1    3    3    0  502  0.11737629579E+04  0.79133460868E+03 -0.14936996632E+04  0.20579282368E+04  0.25500000920E-02 0. -1.
</event>
<event>
 5   0  0.3764495E-07  0.3694244E+04  0.7818609E-02  0.8069239E-01
       -1   -1    0    0    0  501  0.00000000000E+00  0.00000000000E+00  0.12374465555E+04  0.12374465555E+04  0.50400001928E-02 0.  1.
        1   -1    0    0  501    0  0.00000000000E+00  0.00000000000E+00 -0.27571776799E+04  0.27571776799E+04  0.50400001928E-02 0. -1.
    10030    2    1    2    0    0  0.00000000000E+00  0.00000000000E+00 -0.15197311244E+04  0.39946242354E+04  0.36942441841E+04 0.  0.
        4    1    3    3  502    0 -0.11616732239E+03  0.18394354599E+04 -0.62813750429E+03  0.19471969585E+04  0.12699999809E+01 0.  1.
       -4    1    3    3    0  502  0.11616732239E+03 -0.18394354599E+04 -0.89159362011E+03  0.20474272769E+04  0.12699999809E+01 0. -1.
</event>
<event>
 5   0  0.1092116E-06  0.3695341E+04  0.7818609E-02  0.8068995E-01
        2   -1    0    0  501    0  0.00000000000E+00  0.00000000000E+00  0.13501676572E+04  0.13501676572E+04  0.25500000920E-02 0.  1.
       -2   -1    0    0    0  501  0.00000000000E+00  0.00000000000E+00 -0.25284907157E+04  0.25284907157E+04  0.25500000920E-02 0. -1.
    10030    2    1    2    0    0  0.00000000000E+00  0.00000000000E+00 -0.11783230585E+04  0.38786583729E+04  0.36953410592E+04 0.  0.
        1    1    3    3  502    0 -0.17226379613E+03  0.33690973321E+03  0.13090630083E+04  0.13626551080E+04  0.50400001928E-02 0.  1.
       -1    1    3    3    0  502  0.17226379613E+03 -0.33690973321E+03 -0.24873860667E+04  0.25160032649E+04  0.50400001928E-02 0. -1.
</event>
<event>
 5   0  0.3764495E-07  0.2713184E+04  0.7818609E-02  0.8330740E-01
       -1   -1    0    0    0  501  0.00000000000E+00  0.00000000000E+00  0.11300201391E+04  0.11300201391E+04  0.50400001928E-02 0. -1.
        1   -1    0    0  501    0  0.00000000000E+00  0.00000000000E+00 -0.16285923812E+04  0.16285923812E+04  0.50400001928E-02 0.  1.
    10030    2    1    2    0    0  0.00000000000E+00  0.00000000000E+00 -0.49857224211E+03  0.27586125203E+04  0.27131842467E+04 0.  0.
        4    1    3    3  502    0  0.31638352520E+02  0.53741228400E+03  0.10167647918E+04  0.11504891147E+04  0.12699999809E+01 0. -1.
       -4    1    3    3    0  502 -0.31638352520E+02 -0.53741228400E+03 -0.15153370339E+04  0.16081234056E+04  0.12699999809E+01 0.  1.
</event>
<event>
 5   0  0.3704306E-07  0.3623984E+04  0.7818609E-02  0.8085020E-01
        1   -1    0    0  501    0  0.00000000000E+00  0.00000000000E+00  0.13080175949E+04  0.13080175949E+04  0.50400001928E-02 0. -1.
       -1   -1    0    0    0  501  0.00000000000E+00  0.00000000000E+00 -0.25101462638E+04  0.25101462638E+04  0.50400001928E-02 0.  1.
    10030    2    1    2    0    0  0.00000000000E+00  0.00000000000E+00 -0.12021286689E+04  0.38181638587E+04  0.36239842598E+04 0.  0.
        3    1    3    3  502    0 -0.16445903867E+03 -0.63966717234E+03 -0.23788082818E+04  0.24687951958E+04  0.10100000352E+00 0.  1.
       -3    1    3    3    0  502  0.16445903867E+03  0.63966717234E+03  0.11766796130E+04  0.13493686630E+04  0.10100000352E+00 0. -1.
</event>
<event>
 5   0  0.3848431E-07  0.3789234E+04  0.7818609E-02  0.8048469E-01
       -1   -1    0    0    0  501  0.00000000000E+00  0.00000000000E+00  0.25046881212E+04  0.25046881212E+04  0.50400001928E-02 0. -1.
        1   -1    0    0  501    0  0.00000000000E+00  0.00000000000E+00 -0.14331415963E+04  0.14331415963E+04  0.50400001928E-02 0.  1.
    10030    2    1    2    0    0  0.00000000000E+00  0.00000000000E+00  0.10715465249E+04  0.39378297175E+04  0.37892335543E+04 0.  0.
        2    1    3    3  502    0  0.16481391495E+04 -0.90223442676E+02  0.15023384178E+04  0.22319327157E+04  0.25500000920E-02 0.  1.
       -2    1    3    3    0  502 -0.16481391495E+04  0.90223442676E+02 -0.43079189293E+03  0.17058970018E+04  0.25500000920E-02 0. -1.
</event>
<event>
 5   0  0.1092116E-06  0.3698501E+04  0.7818609E-02  0.8068294E-01
        2   -1    0    0  501    0  0.00000000000E+00  0.00000000000E+00  0.32070565308E+04  0.32070565308E+04  0.25500000920E-02 0.  1.
       -2   -1    0    0    0  501  0.00000000000E+00  0.00000000000E+00 -0.10663134979E+04  0.10663134979E+04  0.25500000920E-02 0. -1.
    10030    2    1    2    0    0  0.00000000000E+00  0.00000000000E+00  0.21407430328E+04  0.42733700287E+04  0.36985011382E+04 0.  0.
        1    1    3    3  502    0  0.11256591976E+04 -0.61054231345E+03  0.26118494545E+04  0.29088877803E+04  0.50400001928E-02 0.  1.
       -1    1    3    3    0  502 -0.11256591976E+04  0.61054231345E+03 -0.47110642164E+03  0.13644822484E+04  0.50400001928E-02 0. -1.
</event>
<event>
 5   0  0.1128530E-06  0.3441618E+04  0.7818609E-02  0.8127767E-01
        2   -1    0    0  501    0  0.00000000000E+00  0.00000000000E+00  0.12178756854E+04  0.12178756854E+04  0.25500000920E-02 0. -1.
       -2   -1    0    0    0  501  0.00000000000E+00  0.00000000000E+00 -0.24314338472E+04  0.24314338472E+04  0.25500000920E-02 0.  1.
    10030    2    1    2    0    0  0.00000000000E+00  0.00000000000E+00 -0.12135581618E+04  0.36493095327E+04  0.34416183189E+04 0.  0.
        5    1    3    3  502    0 -0.29107122409E+03 -0.32908300814E+02  0.11912381858E+04  0.12267338419E+04  0.46999998093E+01 0. -1.
       -5    1    3    3    0  502  0.29107122409E+03  0.32908300814E+02 -0.24047963476E+04  0.24225756907E+04  0.46999998093E+01 0.  1.
</event>
<event>
 5   0  0.3675819E-07  0.3651797E+04  0.7818609E-02  0.8078729E-01
       -1   -1    0    0    0  501  0.00000000000E+00  0.00000000000E+00  0.13179960924E+04  0.13179960925E+04  0.50400001928E-02 0.  1.
        1   -1    0    0  501    0  0.00000000000E+00  0.00000000000E+00 -0.25295259062E+04  0.25295259062E+04  0.50400001928E-02 0. -1.
    10030    2    1    2    0    0  0.00000000000E+00  0.00000000000E+00 -0.12115298138E+04  0.38475219987E+04  0.36517969605E+04 0.  0.
        5    1    3    3  502    0 -0.77824850879E+03 -0.14928816464E+04 -0.13504103678E+04  0.21582392368E+04  0.46999998093E+01 0. -1.
       -5    1    3    3    0  502  0.77824850879E+03  0.14928816464E+04  0.13888055401E+03  0.16892827620E+04  0.46999998093E+01 0.  1.
</event>
<event>
 5   0  0.1066907E-06  0.3641624E+04  0.7818609E-02  0.8081023E-01
        2   -1    0    0  501    0  0.00000000000E+00  0.00000000000E+00  0.11646406161E+04  0.11646406161E+04  0.25500000920E-02 0. -1.
       -2   -1    0    0    0  501  0.00000000000E+00  0.00000000000E+00 -0.28466774983E+04  0.28466774983E+04  0.25500000920E-02 0.  1.
    10030    2    1    2    0    0  0.00000000000E+00  0.00000000000E+00 -0.16820368822E+04  0.40113181144E+04  0.36416239429E+04 0.  0.
        4    1    3    3  502    0  0.65171938126E+03  0.11718941684E+04 -0.21978469221E+04  0.25746080866E+04  0.12699999809E+01 0.  1.
       -4    1    3    3    0  502 -0.65171938126E+03 -0.11718941684E+04  0.51581003990E+03  0.14367100278E+04  0.12699999809E+01 0. -1.
</event>
<event>
 5   0  0.3682276E-07  0.3415050E+04  0.7818609E-02  0.8134222E-01
        1   -1    0    0  501    0  0.00000000000E+00  0.00000000000E+00  0.22639521500E+04  0.22639521500E+04  0.50400001928E-02 0.  1.
       -1   -1    0    0    0  501  0.00000000000E+00  0.00000000000E+00 -0.12878550341E+04  0.12878550341E+04  0.50400001928E-02 0. -1.
    10030    2    1    2    0    0  0.00000000000E+00  0.00000000000E+00  0.97609711586E+03  0.35518071841E+04  0.34150503208E+04 0.  0.
        1    1    3    3  502    0 -0.41872431299E+03 -0.67764978759E+03 -0.10827652535E+04  0.13442171993E+04  0.50400001928E-02 0. -1.
       -1    1    3    3    0  502  0.41872431299E+03  0.67764978759E+03  0.20588623693E+04  0.22075899847E+04  0.50400001928E-02 0.  1.
</event>
<event>
 5   0  0.3490375E-07  0.3643565E+04  0.7818609E-02  0.8080585E-01
        3   -1    0    0  501    0  0.00000000000E+00  0.00000000000E+00  0.16041760222E+04  0.16041760254E+04  0.10100000352E+00 0. -1.
       -3   -1    0    0    0  501  0.00000000000E+00  0.00000000000E+00 -0.20689075501E+04  0.20689075526E+04  0.10100000352E+00 0.  1.
    10030    2    1    2    0    0  0.00000000000E+00  0.00000000000E+00 -0.46473152796E+03  0.36730835780E+04  0.36435652289E+04 0.  0.
        4    1    3    3  502    0  0.85840458067E+02 -0.18160876628E+04 -0.11589928558E+03  0.18218060381E+04  0.12699999809E+01 0. -1.
       -4    1    3    3    0  502 -0.85840458067E+02  0.18160876628E+04 -0.34883224238E+03  0.18512775398E+04  0.12699999809E+01 0.  1.
</event>
<event>
 5   0  0.3848431E-07  0.3805545E+04  0.7818609E-02  0.8044966E-01
       -1   -1    0    0    0  501  0.00000000000E+00  0.00000000000E+00  0.24286349839E+04  0.24286349839E+04  0.50400001928E-02 0.  1.
        1   -1    0    0  501    0  0.00000000000E+00  0.00000000000E+00 -0.14907728051E+04  0.14907728051E+04  0.50400001928E-02 0. -1.
    10030    2    1    2    0    0  0.00000000000E+00  0.00000000000E+00  0.93786217880E+03  0.39194077889E+04  0.38055448952E+04 0.  0.
        2    1    3    3  502    0 -0.17232062315E+04 -0.27961482364E+03  0.12484921655E+04  0.21462424964E+04  0.25500000920E-02 0.  1.
       -2    1    3    3    0  502  0.17232062315E+04  0.27961482364E+03 -0.31062998674E+03  0.17731652925E+04  0.25500000920E-02 0. -1.
</event>
<event>
 5   0  0.3848431E-07  0.3634618E+04  0.7818609E-02  0.8082608E-01
       -1   -1    0    0    0  501  0.00000000000E+00  0.00000000000E+00  0.15506953645E+04  0.15506953645E+04  0.50400001928E-02 0.  1.
        1   -1    0    0  501    0  0.00000000000E+00  0.00000000000E+00 -0.21297621581E+04  0.21297621582E+04  0.50400001928E-02 0. -1.
    10030    2    1    2    0    0  0.00000000000E+00  0.00000000000E+00 -0.57906679363E+03  0.36804575227E+04  0.36346181677E+04 0.  0.
        2    1    3    3  502    0 -0.25642436942E+03 -0.50658226814E+03  0.14585741386E+04  0.15651893079E+04  0.25500000920E-02 0.  1.
       -2    1    3    3    0  502  0.25642436942E+03  0.50658226814E+03 -0.20376409323E+04  0.21152682148E+04  0.25500000920E-02 0. -1.
</event>
<event>
 5   0  0.3490375E-07  0.3296709E+04  0.7818609E-02  0.8163733E-01
        3   -1    0    0  501    0  0.00000000000E+00  0.00000000000E+00  0.26991328915E+04  0.26991328934E+04  0.10100000352E+00 0. -1.
       -3   -1    0    0    0  501  0.00000000000E+00  0.00000000000E+00 -0.10066466611E+04  0.10066466661E+04  0.10100000352E+00 0.  1.
    10030    2    1    2    0    0  0.00000000000E+00  0.00000000000E+00  0.16924862305E+04  0.37057795595E+04  0.32967093447E+04 0.  0.
        5    1    3    3  502    0 -0.12355868591E+04 -0.23060854234E+03 -0.35247358371E+03  0.13054175207E+04  0.46999998093E+01 0.  1.
       -5    1    3    3    0  502  0.12355868591E+04  0.23060854234E+03  0.20449598142E+04  0.24003620389E+04  0.46999998093E+01 0. -1.
</event>
<event>
 5   0  0.3764495E-07  0.3698205E+04  0.7818609E-02  0.8068360E-01
        1   -1    0    0  501    0  0.00000000000E+00  0.00000000000E+00  0.14433456931E+04  0.14433456931E+04  0.50400001928E-02 0.  1.
       -1   -1    0    0    0  501  0.00000000000E+00  0.00000000000E+00 -0.23689265129E+04  0.23689265129E+04  0.50400001928E-02 0. -1.
    10030    2    1    2    0    0  0.00000000000E+00  0.00000000000E+00 -0.92558081982E+03  0.38122722060E+04  0.36982049049E+04 0.  0.
        4    1    3    3  502    0  0.48120623542E+03 -0.25856571706E+03 -0.22838463991E+04  0.23482699288E+04  0.12699999809E+01 0. -1.
       -4    1    3    3    0  502 -0.48120623542E+03  0.25856571706E+03  0.13582655793E+04  0.14640022772E+04  0.12699999809E+01 0.  1.
</event>
<event>
 5   0  0.3848431E-07  0.3514851E+04  0.7818609E-02  0.8110280E-01
        1   -1    0    0  501    0  0.00000000000E+00  0.00000000000E+00  0.21203568999E+04  0.21203568999E+04  0.50400001928E-02 0. -1.
       -1   -1    0    0    0  501  0.00000000000E+00  0.00000000000E+00 -0.14566151405E+04  0.14566151405E+04  0.50400001928E-02 0.  1.
    10030    2    1    2    0    0  0.00000000000E+00  0.00000000000E+00  0.66374175944E+03  0.35769720404E+04  0.35148507585E+04 0.  0.
        2    1    3    3  502    0  0.95029838803E+03 -0.17413851814E+02  0.18362303970E+04  0.20676344792E+04  0.25500000920E-02 0. -1.
       -2    1    3    3    0  502 -0.95029838803E+03  0.17413851814E+02 -0.11724886376E+04  0.15093375612E+04  0.25500000920E-02 0.  1.
</event>
<event>
 5   0  0.3848431E-07  0.3695646E+04  0.7818609E-02  0.8068927E-01
       -1   -1    0    0    0  501  0.00000000000E+00  0.00000000000E+00  0.19081510437E+04  0.19081510437E+04  0.50400001928E-02 0.  1.
        1   -1    0    0  501    0  0.00000000000E+00  0.00000000000E+00 -0.17894024475E+04  0.17894024475E+04  0.50400001928E-02 0. -1.
    10030    2    1    2    0    0  0.00000000000E+00  0.00000000000E+00  0.11874859625E+03  0.36975534912E+04  0.36956461670E+04 0.  0.
        2    1    3    3  502    0  0.10973780227E+04 -0.10891776984E+04  0.10717777311E+04  0.18812905380E+04  0.25500000920E-02 0.  1.
       -2    1    3    3    0  502 -0.10973780227E+04  0.10891776984E+04 -0.95302913485E+03  0.18162629532E+04  0.25500000920E-02 0. -1.
</event>
<event>
 5   0  0.1092116E-06  0.3522554E+04  0.7818609E-02  0.8108466E-01
        2   -1    0    0  501    0  0.00000000000E+00  0.00000000000E+00  0.22531646485E+04  0.22531646485E+04  0.25500000920E-02 0. -1.
       -2   -1    0    0    0  501  0.00000000000E+00  0.00000000000E+00 -0.13767728326E+04  0.13767728326E+04  0.25500000920E-02 0.  1.
    10030    2    1    2    0    0  0.00000000000E+00  0.00000000000E+00  0.87639181591E+03  0.36299374812E+04  0.35225535485E+04 0.  0.
        1    1    3    3  502    0  0.14415790720E+04  0.81006158442E+03  0.10631029976E+04  0.19658428154E+04  0.50400001928E-02 0.  1.
       -1    1    3    3    0  502 -0.14415790720E+04 -0.81006158442E+03 -0.18671118166E+03  0.16640946658E+04  0.50400001928E-02 0. -1.
</event>
<event>
 5   0  0.3490375E-07  0.3665049E+04  0.7818609E-02  0.8075752E-01
       -3   -1    0    0    0  501  0.00000000000E+00  0.00000000000E+00  0.16336350484E+04  0.16336350515E+04  0.10100000352E+00 0.  1.
        3   -1    0    0  501    0  0.00000000000E+00  0.00000000000E+00 -0.20556282259E+04  0.20556282284E+04  0.10100000352E+00 0. -1.
    10030    2    1    2    0    0  0.00000000000E+00  0.00000000000E+00 -0.42199317750E+03  0.36892632799E+04  0.36650491548E+04 0.  0.
        4    1    3    3  502    0  0.30912464467E+03  0.10819298375E+04 -0.16669322720E+04  0.20111675792E+04  0.12699999809E+01 0. -1.
       -4    1    3    3    0  502 -0.30912464467E+03 -0.10819298375E+04  0.12449390945E+04  0.16780957008E+04  0.12699999809E+01 0.  1.
</event>
<event>
 5   0  0.3848431E-07  0.3711344E+04  0.7818609E-02  0.8065452E-01
        1   -1    0    0  501    0  0.00000000000E+00  0.00000000000E+00  0.27501614932E+04  0.27501614932E+04  0.50400001928E-02 0.  1.
       -1   -1    0    0    0  501  0.00000000000E+00  0.00000000000E+00 -0.12521152521E+04  0.12521152521E+04  0.50400001928E-02 0. -1.
    10030    2    1    2    0    0  0.00000000000E+00  0.00000000000E+00  0.14980462410E+04  0.40022767453E+04  0.37113443125E+04 0.  0.
        2    1    3    3  502    0  0.55624906745E+03 -0.17618476520E+04  0.93580257197E+03  0.20710496439E+04  0.25500000920E-02 0.  1.
       -2    1    3    3    0  502 -0.55624906745E+03  0.17618476520E+04  0.56224366907E+03  0.19312271014E+04  0.25500000920E-02 0. -1.
</event>
<event>
 5   0  0.3682276E-07  0.3749786E+04  0.7818609E-02  0.8057017E-01
       -1   -1    0    0    0  501  0.00000000000E+00  0.00000000000E+00  0.14215646642E+04  0.14215646642E+04  0.50400001928E-02 0. -1.
        1   -1    0    0  501    0  0.00000000000E+00  0.00000000000E+00 -0.24727850531E+04  0.24727850531E+04  0.50400001928E-02 0.  1.
    10030    2    1    2    0    0  0.00000000000E+00  0.00000000000E+00 -0.10512203889E+04  0.38943497173E+04  0.37497860492E+04 0.  0.
        1    1    3    3  502    0 -0.82678870350E+03  0.11497510638E+04 -0.18016851989E+04  0.22916318694E+04  0.50400001928E-02 0.  1.
       -1    1    3    3    0  502  0.82678870350E+03 -0.11497510638E+04  0.75046481006E+03  0.16027178479E+04  0.50400001928E-02 0. -1.
</event>
<event>
 5   0  0.1128530E-06  0.3667981E+04  0.7818609E-02  0.8075095E-01
        2   -1    0    0  501    0  0.00000000000E+00  0.00000000000E+00  0.14375970805E+04  0.14375970805E+04  0.25500000920E-02 0. -1.
       -2   -1    0    0    0  501  0.00000000000E+00  0.00000000000E+00 -0.23396825723E+04  0.23396825723E+04  0.25500000920E-02 0.  1.
    10030    2    1    2    0    0  0.00000000000E+00  0.00000000000E+00 -0.90208549180E+03  0.37772796528E+04  0.36679808261E+04 0.  0.
        5    1    3    3  502    0  0.16301272509E+04  0.38299954153E+03  0.31924019770E+03  0.17046817582E+04  0.46999998093E+01 0. -1.
       -5    1    3    3    0  502 -0.16301272509E+04 -0.38299954153E+03 -0.12213256895E+04  0.20725978946E+04  0.46999998093E+01 0.  1.
</event>
<event>
 5   0  0.1128530E-06  0.3626634E+04  0.7818609E-02  0.8084418E-01
        2   -1    0    0  501    0  0.00000000000E+00  0.00000000000E+00  0.17061595817E+04  0.17061595817E+04  0.25500000920E-02 0.  1.
       -2   -1    0    0    0  501  0.00000000000E+00  0.00000000000E+00 -0.19272042042E+04  0.19272042042E+04  0.25500000920E-02 0. -1.
    10030    2    1    2    0    0  0.00000000000E+00  0.00000000000E+00 -0.22104462250E+03  0.36333637858E+04  0.36266336560E+04 0.  0.
        5    1    3    3  502    0  0.15111780340E+03  0.17477286984E+04 -0.57039880299E+03  0.18446596104E+04  0.46999998093E+01 0. -1.
       -5    1    3    3    0  502 -0.15111780340E+03 -0.17477286984E+04  0.34935418049E+03  0.17887041754E+04  0.46999998093E+01 0.  1.
</event>
<event>
 5   0  0.1066907E-06  0.2323268E+04  0.7818609E-02  0.8468803E-01
        2   -1    0    0  501    0  0.00000000000E+00  0.00000000000E+00  0.12186336520E+04  0.12186336520E+04  0.25500000920E-02 0. -1.
       -2   -1    0    0    0  501  0.00000000000E+00  0.00000000000E+00 -0.11073006105E+04  0.11073006105E+04  0.25500000920E-02 0.  1.
    10030    2    1    2    0    0  0.00000000000E+00  0.00000000000E+00  0.11133304151E+03  0.23259342625E+04  0.23232682039E+04 0.  0.
        4    1    3    3  502    0  0.19161786236E+02  0.10466403363E+03 -0.11024108508E+04  0.11075346635E+04  0.12699999809E+01 0.  1.
       -4    1    3    3    0  502 -0.19161786236E+02 -0.10466403363E+03  0.12137438923E+04  0.12183995990E+04  0.12699999809E+01 0. -1.
</event>
<event>
 5   0  0.3675819E-07  0.2509703E+04  0.7818609E-02  0.8399537E-01
       -1   -1    0    0    0  501  0.00000000000E+00  0.00000000000E+00  0.25547619257E+04  0.25547619257E+04  0.50400001928E-02 0. -1.
        1   -1    0    0  501    0  0.00000000000E+00  0.00000000000E+00 -0.61635960942E+03  0.61635960944E+03  0.50400001928E-02 0.  1.
    10030    2    1    2    0    0  0.00000000000E+00  0.00000000000E+00  0.19384023163E+04  0.31711215352E+04  0.25097028213E+04 0.  0.
        5    1    3    3  502    0 -0.75748123331E+03 -0.62096233347E+03  0.19603050913E+04  0.21913900108E+04  0.46999998093E+01 0. -1.
       -5    1    3    3    0  502  0.75748123331E+03  0.62096233347E+03 -0.21902774945E+02  0.97973152443E+03  0.46999998093E+01 0.  1.
</event>
<event>
 5   0  0.1051123E-06  0.3617115E+04  0.7818609E-02  0.8086583E-01
        2   -1    0    0  501    0  0.00000000000E+00  0.00000000000E+00  0.13097936074E+04  0.13097936074E+04  0.25500000920E-02 0.  1.
       -2   -1    0    0    0  501  0.00000000000E+00  0.00000000000E+00 -0.24972485745E+04  0.24972485745E+04  0.25500000920E-02 0. -1.
    10030    2    1    2    0    0  0.00000000000E+00  0.00000000000E+00 -0.11874549671E+04  0.38070421818E+04  0.36171149934E+04 0.  0.
        2    1    3    3  502    0 -0.13926699928E+04 -0.23169693869E+03 -0.17834185993E+04  0.22745977844E+04  0.25500000920E-02 0. -1.
       -2    1    3    3    0  502  0.13926699928E+04  0.23169693869E+03  0.59596363219E+03  0.15324443974E+04  0.25500000920E-02 0.  1.
</event>
<event>
 5   0  0.3848431E-07  0.3718412E+04  0.7818609E-02  0.8063894E-01
       -1   -1    0    0    0  501  0.00000000000E+00  0.00000000000E+00  0.31328596217E+04  0.31328596217E+04  0.50400001928E-02 0.  1.
        1   -1    0    0  501    0  0.00000000000E+00  0.00000000000E+00 -0.11033519468E+04  0.11033519468E+04  0.50400001928E-02 0. -1.
    10030    2    1    2    0    0  0.00000000000E+00  0.00000000000E+00  0.20295076749E+04  0.42362115684E+04  0.37184118989E+04 0.  0.
        2    1    3    3  502    0  0.12947065122E+04  0.28088797283E+02 -0.50502526787E+03  0.13900016023E+04  0.25500000920E-02 0. -1.
       -2    1    3    3    0  502 -0.12947065122E+04 -0.28088797283E+02  0.25345329428E+04  0.28462099661E+04  0.25500000920E-02 0.  1.
</event>
<event>
 5   0  0.1051123E-06  0.3683164E+04  0.7818609E-02  0.8071703E-01
        2   -1    0    0  501    0  0.00000000000E+00  0.00000000000E+00  0.18814803604E+04  0.18814803604E+04  0.25500000920E-02 0.  1.
       -2   -1    0    0    0  501  0.00000000000E+00  0.00000000000E+00 -0.18025295617E+04  0.18025295617E+04  0.25500000920E-02 0. -1.
    10030    2    1    2    0    0  0.00000000000E+00  0.00000000000E+00  0.78950798735E+02  0.36840099221E+04  0.36831638407E+04 0.  0.
        2    1    3    3  502    0 -0.45443504476E+03 -0.87134073647E+03 -0.15183412272E+04  0.18086199079E+04  0.25500000920E-02 0. -1.
       -2    1    3    3    0  502  0.45443504476E+03  0.87134073647E+03  0.15972920260E+04  0.18753900141E+04  0.25500000920E-02 0.  1.
</event>
<event>
 5   0  0.3675819E-07  0.3534955E+04  0.7818609E-02  0.8105556E-01
        1   -1    0    0  501    0  0.00000000000E+00  0.00000000000E+00  0.18349648573E+04  0.18349648573E+04  0.50400001928E-02 0.  1.
       -1   -1    0    0    0  501  0.00000000000E+00  0.00000000000E+00 -0.17024725979E+04  0.17024725980E+04  0.50400001928E-02 0. -1.
    10030    2    1    2    0    0  0.00000000000E+00  0.00000000000E+00  0.13249225935E+03  0.35374374553E+04  0.35349553818E+04 0.  0.
        5    1    3    3  502    0  0.12005616255E+04  0.84531548288E+03  0.10508316903E+04  0.18055956950E+04  0.46999998093E+01 0.  1.
       -5    1    3    3    0  502 -0.12005616255E+04 -0.84531548288E+03 -0.91833943094E+03  0.17318417603E+04  0.46999998093E+01 0. -1.
</event>
<event>
 5   0  0.1066907E-06  0.3898730E+04  0.7818609E-02  0.8025293E-01
       -2   -1    0    0    0  501  0.00000000000E+00  0.00000000000E+00  0.17301430787E+04  0.17301430787E+04  0.25500000920E-02 0. -1.
        2   -1    0    0  501    0  0.00000000000E+00  0.00000000000E+00 -0.21963639101E+04  0.21963639101E+04  0.25500000920E-02 0.  1.
    10030    2    1    2    0    0  0.00000000000E+00  0.00000000000E+00 -0.46622083137E+03  0.39265069888E+04  0.38987299559E+04 0.  0.
        4    1    3    3  502    0 -0.11835239593E+04  0.32479153000E+01  0.13268871853E+04  0.17780243886E+04  0.12699999809E+01 0. -1.
       -4    1    3    3    0  502  0.11835239593E+04 -0.32479153000E+01 -0.17931080166E+04  0.21484826002E+04  0.12699999809E+01 0.  1.
</event>
<event>
 5   0  0.3682276E-07  0.2951714E+04  0.7818609E-02  0.8257655E-01
        1   -1    0    0  501    0  0.00000000000E+00  0.00000000000E+00  0.15599402437E+04  0.15599402437E+04  0.50400001928E-02 0.  1.
       -1   -1    0    0    0  501  0.00000000000E+00  0.00000000000E+00 -0.13963063905E+04  0.13963063905E+04  0.50400001928E-02 0. -1.
    10030    2    1    2    0    0  0.00000000000E+00  0.00000000000E+00  0.16363385319E+03  0.29562466342E+04  0.29517144382E+04 0.  0.
        1    1    3    3  502    0  0.12800339879E+03  0.17042187920E+03  0.15444448494E+04  0.15590825443E+04  0.50400001928E-02 0.  1.
       -1    1    3    3    0  502 -0.12800339879E+03 -0.17042187920E+03 -0.13808109962E+04  0.13971640900E+04  0.50400001928E-02 0. -1.
</event>
<event>
 5   0  0.3675819E-07  0.2459302E+04  0.7818609E-02  0.8417630E-01
       -1   -1    0    0    0  501  0.00000000000E+00  0.00000000000E+00  0.14060241873E+04  0.14060241873E+04  0.50400001928E-02 0.  1.
        1   -1    0    0  501    0  0.00000000000E+00  0.00000000000E+00 -0.10754018953E+04  0.10754018953E+04  0.50400001928E-02 0. -1.
    10030    2    1    2    0    0  0.00000000000E+00  0.00000000000E+00  0.33062229200E+03  0.24814260825E+04  0.24593015885E+04 0.  0.
        5    1    3    3  502    0 -0.21963921737E+03 -0.50687234887E+03  0.12737650652E+04  0.13884021374E+04  0.46999998093E+01 0.  1.
       -5    1    3    3    0  502  0.21963921737E+03  0.50687234887E+03 -0.94314277323E+03  0.10930239451E+04  0.46999998093E+01 0. -1.
</event>
<event>
 5   0  0.3682276E-07  0.3621090E+04  0.7818609E-02  0.8085678E-01
       -1   -1    0    0    0  501  0.00000000000E+00  0.00000000000E+00  0.15047123076E+04  0.15047123076E+04  0.50400001928E-02 0.  1.
        1   -1    0    0  501    0  0.00000000000E+00  0.00000000000E+00 -0.21785380255E+04  0.21785380255E+04  0.50400001928E-02 0. -1.
    10030    2    1    2    0    0  0.00000000000E+00  0.00000000000E+00 -0.67382571791E+03  0.36832503332E+04  0.36210898800E+04 0.  0.
        1    1    3    3  502    0  0.10101836436E+04 -0.14014663390E+04  0.21413790618E+03  0.17408141590E+04  0.50400001928E-02 0.  1.
       -1    1    3    3    0  502 -0.10101836436E+04  0.14014663390E+04 -0.88796362409E+03  0.19424361742E+04  0.50400001928E-02 0. -1.
</event>
<event>
 5   0  0.1051123E-06  0.3702927E+04  0.7818609E-02  0.8067314E-01
       -2   -1    0    0    0  501  0.00000000000E+00  0.00000000000E+00  0.19891741576E+04  0.19891741576E+04  0.25500000920E-02 0. -1.
        2   -1    0    0  501    0  0.00000000000E+00  0.00000000000E+00 -0.17232861841E+04  0.17232861841E+04  0.25500000920E-02 0.  1.
    10030    2    1    2    0    0  0.00000000000E+00  0.00000000000E+00  0.26588797348E+03  0.37124603416E+04  0.37029265958E+04 0.  0.
        2    1    3    3  502    0 -0.16782292790E+04  0.37757629787E+03  0.81946899074E+03  0.19053993808E+04  0.25500000920E-02 0. -1.
       -2    1    3    3    0  502  0.16782292790E+04 -0.37757629787E+03 -0.55358101726E+03  0.18070609608E+04  0.25500000920E-02 0.  1.
</event>
<event>
 5   0  0.1128166E-06  0.3744961E+04  0.7818609E-02  0.8058070E-01
       -2   -1    0    0    0  501  0.00000000000E+00  0.00000000000E+00  0.22364271721E+04  0.22364271721E+04  0.25500000920E-02 0.  1.
        2   -1    0    0  501    0  0.00000000000E+00  0.00000000000E+00 -0.15677610053E+04  0.15677610053E+04  0.25500000920E-02 0. -1.
    10030    2    1    2    0    0  0.00000000000E+00  0.00000000000E+00  0.66866616685E+03  0.38041881774E+04  0.37449610474E+04 0.  0.
        3    1    3    3  502    0 -0.15123971182E+04 -0.69739124451E+03  0.12037211450E+04  0.20549073449E+04  0.10100000352E+00 0.  1.
       -3    1    3    3    0  502  0.15123971182E+04  0.69739124451E+03 -0.53505497811E+03  0.17492808325E+04  0.10100000352E+00 0. -1.
</event>
<event>
 5   0  0.3675819E-07  0.3162759E+04  0.7818609E-02  0.8198722E-01
       -1   -1    0    0    0  501  0.00000000000E+00  0.00000000000E+00  0.11758098259E+04  0.11758098260E+04  0.50400001928E-02 0. -1.
        1   -1    0    0  501    0  0.00000000000E+00  0.00000000000E+00 -0.21268421317E+04  0.21268421317E+04  0.50400001928E-02 0.  1.
    10030    2    1    2    0    0  0.00000000000E+00  0.00000000000E+00 -0.95103230575E+03  0.33026519577E+04  0.31627594766E+04 0.  0.
        5    1    3    3  502    0 -0.20335884469E+03  0.15094444430E+04 -0.31303560370E+02  0.15234104335E+04  0.46999998093E+01 0. -1.
       -5    1    3    3    0  502  0.20335884469E+03 -0.15094444430E+04 -0.91972874538E+03  0.17792415241E+04  0.46999998093E+01 0.  1.
</event>
<event>
 5   0  0.1128530E-06  0.3749785E+04  0.7818609E-02  0.8057018E-01
        2   -1    0    0  501    0  0.00000000000E+00  0.00000000000E+00  0.27191294422E+04  0.27191294422E+04  0.25500000920E-02 0.  1.
       -2   -1    0    0    0  501  0.00000000000E+00  0.00000000000E+00 -0.12927749321E+04  0.12927749321E+04  0.25500000920E-02 0. -1.
    10030    2    1    2    0    0  0.00000000000E+00  0.00000000000E+00  0.14263545102E+04  0.40119043743E+04  0.37497852632E+04 0.  0.
        5    1    3    3  502    0  0.27433910824E+03  0.16821017870E+04  0.15491209411E+04  0.23031556934E+04  0.46999998093E+01 0.  1.
       -5    1    3    3    0  502 -0.27433910824E+03 -0.16821017870E+04 -0.12276643093E+03  0.17087486809E+04  0.46999998093E+01 0. -1.
</event>
<event>
 5   0  0.1128530E-06  0.3565682E+04  0.7818609E-02  0.8098398E-01
       -2   -1    0    0    0  501  0.00000000000E+00  0.00000000000E+00  0.19417185597E+04  0.19417185597E+04  0.25500000920E-02 0.  1.
        2   -1    0    0  501    0  0.00000000000E+00  0.00000000000E+00 -0.16369634685E+04  0.16369634685E+04  0.25500000920E-02 0. -1.
    10030    2    1    2    0    0  0.00000000000E+00  0.00000000000E+00  0.30475509120E+03  0.35786820282E+04  0.35656821778E+04 0.  0.
        5    1    3    3  502    0 -0.70589525572E+03  0.15865249463E+04  0.55776939002E+03  0.18238635639E+04  0.46999998093E+01 0.  1.
       -5    1    3    3    0  502  0.70589525572E+03 -0.15865249463E+04 -0.25301429882E+03  0.17548184643E+04  0.46999998093E+01 0. -1.
</event>
<event>
 5   0  0.1128530E-06  0.3820076E+04  0.7818609E-02  0.8041860E-01
       -2   -1    0    0    0  501  0.00000000000E+00  0.00000000000E+00  0.25030116266E+04  0.25030116266E+04  0.25500000920E-02 0. -1.
        2   -1    0    0  501    0  0.00000000000E+00  0.00000000000E+00 -0.14575420816E+04  0.14575420816E+04  0.25500000920E-02 0.  1.
    10030    2    1    2    0    0  0.00000000000E+00  0.00000000000E+00  0.10454695450E+04  0.39605537082E+04  0.38200757985E+04 0.  0.
        5    1    3    3  502    0 -0.56775039794E+03  0.73235546422E+03  0.22543445928E+04  0.24373708526E+04  0.46999998093E+01 0. -1.
       -5    1    3    3    0  502  0.56775039794E+03 -0.73235546422E+03 -0.12088750478E+04  0.15231828555E+04  0.46999998093E+01 0.  1.
</event>
<event>
 5   0  0.3682276E-07  0.3467349E+04  0.7818609E-02  0.8121572E-01
       -1   -1    0    0    0  501  0.00000000000E+00  0.00000000000E+00  0.13255603230E+04  0.13255603230E+04  0.50400001928E-02 0. -1.
        1   -1    0    0  501    0  0.00000000000E+00  0.00000000000E+00 -0.22674394978E+04  0.22674394978E+04  0.50400001928E-02 0.  1.
    10030    2    1    2    0    0  0.00000000000E+00  0.00000000000E+00 -0.94187917477E+03  0.35929998209E+04  0.34673493237E+04 0.  0.
        1    1    3    3  502    0  0.16360711054E+04  0.55813920289E+03 -0.60754943412E+03  0.18323112035E+04  0.50400001928E-02 0. -1.
       -1    1    3    3    0  502 -0.16360711054E+04 -0.55813920289E+03 -0.33432974065E+03  0.17606886173E+04  0.50400001928E-02 0.  1.
</event>
<event>
 5   0  0.1066907E-06  0.3536727E+04  0.7818609E-02  0.8105141E-01
       -2   -1    0    0    0  501  0.00000000000E+00  0.00000000000E+00  0.20178420660E+04  0.20178420660E+04  0.25500000920E-02 0. -1.
        2   -1    0    0  501    0  0.00000000000E+00  0.00000000000E+00 -0.15497298900E+04  0.15497298900E+04  0.25500000920E-02 0.  1.
    10030    2    1    2    0    0  0.00000000000E+00  0.00000000000E+00  0.46811217600E+03  0.35675719561E+04  0.35367273930E+04 0.  0.
        4    1    3    3  502    0  0.38461082642E+03  0.60945656025E+02  0.19740544822E+04  0.20120965614E+04  0.12699999809E+01 0. -1.
       -4    1    3    3    0  502 -0.38461082642E+03 -0.60945656025E+02 -0.15059423062E+04  0.15554753946E+04  0.12699999809E+01 0.  1.
</event>
<event>
 5   0  0.3682276E-07  0.3005222E+04  0.7818609E-02  0.8242241E-01
       -1   -1    0    0    0  501  0.00000000000E+00  0.00000000000E+00  0.92284957552E+03  0.92284957554E+03  0.50400001928E-02 0.  1.
        1   -1    0    0  501    0  0.00000000000E+00  0.00000000000E+00 -0.24465949050E+04  0.24465949050E+04  0.50400001928E-02 0. -1.
    10030    2    1    2    0    0  0.00000000000E+00  0.00000000000E+00 -0.15237453294E+04  0.33694444805E+04  0.30052215024E+04 0.  0.
        1    1    3    3  502    0 -0.13471108384E+04 -0.67075084197E+02 -0.15044337181E+04  0.20205265378E+04  0.50400001928E-02 0. -1.
       -1    1    3    3    0  502  0.13471108384E+04  0.67075084197E+02 -0.19311611329E+02  0.13489179427E+04  0.50400001928E-02 0.  1.
</event>
<event>
 5   0  0.3704306E-07  0.3692129E+04  0.7818609E-02  0.8069708E-01
       -1   -1    0    0    0  501  0.00000000000E+00  0.00000000000E+00  0.18758573301E+04  0.18758573301E+04  0.50400001928E-02 0.  1.
        1   -1    0    0  501    0  0.00000000000E+00  0.00000000000E+00 -0.18167453254E+04  0.18167453254E+04  0.50400001928E-02 0. -1.
    10030    2    1    2    0    0  0.00000000000E+00  0.00000000000E+00  0.59112004681E+02  0.36926026554E+04  0.36921294861E+04 0.  0.
        3    1    3    3  502    0  0.99110086905E+03 -0.14922606432E+04  0.47551926536E+03  0.18534404068E+04  0.10100000352E+00 0.  1.
       -3    1    3    3    0  502 -0.99110086905E+03  0.14922606432E+04 -0.41640726068E+03  0.18391622486E+04  0.10100000352E+00 0. -1.
</event>
<event>
 5   0  0.3764495E-07  0.3033430E+04  0.7818609E-02  0.8234249E-01
       -1   -1    0    0    0  501  0.00000000000E+00  0.00000000000E+00  0.10133186862E+04  0.10133186862E+04  0.50400001928E-02 0.  1.
        1   -1    0    0  501    0  0.00000000000E+00  0.00000000000E+00 -0.22701883937E+04  0.22701883938E+04  0.50400001928E-02 0. -1.
    10030    2    1    2    0    0  0.00000000000E+00  0.00000000000E+00 -0.12568697075E+04  0.32835070800E+04  0.30334299535E+04 0.  0.
        4    1    3    3  502    0 -0.82487643499E+03  0.29479722277E+03  0.71182400304E+03  0.11287256353E+04  0.12699999809E+01 0.  1.
       -4    1    3    3    0  502  0.82487643499E+03 -0.29479722277E+03 -0.19686937106E+04  0.21547814447E+04  0.12699999809E+01 0. -1.
</event>
<event>
 5   0  0.1066907E-06  0.3669949E+04  0.7818609E-02  0.8074654E-01
       -2   -1    0    0    0  501  0.00000000000E+00  0.00000000000E+00  0.17723001456E+04  0.17723001456E+04  0.25500000920E-02 0. -1.
        2   -1    0    0  501    0  0.00000000000E+00  0.00000000000E+00 -0.18998653056E+04  0.18998653056E+04  0.25500000920E-02 0.  1.
    10030    2    1    2    0    0  0.00000000000E+00  0.00000000000E+00 -0.12756515995E+03  0.36721654512E+04  0.36699490774E+04 0.  0.
        4    1    3    3  502    0 -0.29875370023E+03  0.17830844582E+04 -0.37779687648E+03  0.18469910805E+04  0.12699999809E+01 0. -1.
       -4    1    3    3    0  502  0.29875370023E+03 -0.17830844582E+04  0.25023171653E+03  0.18251743707E+04  0.12699999809E+01 0.  1.
</event>
<event>
 5   0  0.3764495E-07  0.3640046E+04  0.7818609E-02  0.8081380E-01
       -1   -1    0    0    0  501  0.00000000000E+00  0.00000000000E+00  0.28568053643E+04  0.28568053643E+04  0.50400001928E-02 0.  1.
        1   -1    0    0  501    0  0.00000000000E+00  0.00000000000E+00 -0.11595064880E+04  0.11595064880E+04  0.50400001928E-02 0. -1.
    10030    2    1    2    0    0  0.00000000000E+00  0.00000000000E+00  0.16972988763E+04  0.40163118524E+04  0.36400463486E+04 0.  0.
        4    1    3    3  502    0 -0.13634890591E+04  0.11294009891E+04  0.13139435821E+04  0.22047898672E+04  0.12699999809E+01 0.  1.
       -4    1    3    3    0  502  0.13634890591E+04 -0.11294009891E+04  0.38335529415E+03  0.18115219852E+04  0.12699999809E+01 0. -1.
</event>
<event>
 5   0  0.3704306E-07  0.3579719E+04  0.7818609E-02  0.8095153E-01
        1   -1    0    0  501    0  0.00000000000E+00  0.00000000000E+00  0.17147347105E+04  0.17147347105E+04  0.50400001928E-02 0. -1.
       -1   -1    0    0    0  501  0.00000000000E+00  0.00000000000E+00 -0.18682751369E+04  0.18682751369E+04  0.50400001928E-02 0.  1.
    10030    2    1    2    0    0  0.00000000000E+00  0.00000000000E+00 -0.15354042634E+03  0.35830098474E+04  0.35797185509E+04 0.  0.
        3    1    3    3  502    0 -0.72346355902E+03 -0.10228046777E+02  0.15618336606E+04  0.17212868813E+04  0.10100000352E+00 0. -1.
       -3    1    3    3    0  502  0.72346355902E+03  0.10228046777E+02 -0.17153740869E+04  0.18617229661E+04  0.10100000352E+00 0.  1.
</event>
<event>
 5   0  0.1092116E-06  0.2407503E+04  0.7818609E-02  0.8436700E-01
        2   -1    0    0  501    0  0.00000000000E+00  0.00000000000E+00  0.11551455033E+04  0.11551455033E+04  0.25500000920E-02 0. -1.
       -2   -1    0    0    0  501  0.00000000000E+00  0.00000000000E+00 -0.12544028151E+04  0.12544028151E+04  0.25500000920E-02 0.  1.
    10030    2    1    2    0    0  0.00000000000E+00  0.00000000000E+00 -0.99257311764E+02  0.24095483184E+04  0.24075030809E+04 0.  0.
        1    1    3    3  502    0 -0.24247643446E+03 -0.90025747104E+03 -0.81169485776E+03  0.12361662014E+04  0.50400001928E-02 0.  1.
       -1    1    3    3    0  502  0.24247643446E+03  0.90025747104E+03  0.71243754600E+03  0.11733821170E+04  0.50400001928E-02 0. -1.
</event>
<event>
 5   0  0.1128530E-06  0.2450051E+04  0.7818609E-02  0.8420999E-01
       -2   -1    0    0    0  501  0.00000000000E+00  0.00000000000E+00  0.57581651384E+03  0.57581651384E+03  0.25500000920E-02 0. -1.
        2   -1    0    0  501    0  0.00000000000E+00  0.00000000000E+00 -0.26061896751E+04  0.26061896751E+04  0.25500000920E-02 0.  1.
    10030    2    1    2    0    0  0.00000000000E+00  0.00000000000E+00 -0.20303731612E+04  0.31820061889E+04  0.24500506551E+04 0.  0.
        5    1    3    3  502    0  0.79730492842E+03 -0.39808202856E+03  0.76460347860E+02  0.89444548472E+03  0.46999998093E+01 0. -1.
       -5    1    3    3    0  502 -0.79730492842E+03  0.39808202856E+03 -0.21068335091E+04  0.22875607042E+04  0.46999998093E+01 0.  1.
</event>
<event>
 5   0  0.3764495E-07  0.3587812E+04  0.7818609E-02  0.8093289E-01
        1   -1    0    0  501    0  0.00000000000E+00  0.00000000000E+00  0.24054916519E+04  0.24054916519E+04  0.50400001928E-02 0. -1.
       -1   -1    0    0    0  501  0.00000000000E+00  0.00000000000E+00 -0.13378136171E+04  0.13378136171E+04  0.50400001928E-02 0.  1.
    10030    2    1    2    0    0  0.00000000000E+00  0.00000000000E+00  0.10676780347E+04  0.37433052690E+04  0.35878124186E+04 0.  0.
        4    1    3    3  502    0  0.10569858609E+04  0.92070383737E+03 -0.63413397469E+03  0.15385194757E+04  0.12699999809E+01 0.  1.
       -4    1    3    3    0  502 -0.10569858609E+04 -0.92070383737E+03  0.17018120094E+04  0.22047857934E+04  0.12699999809E+01 0. -1.
</event>
<event>
 5   0  0.1066907E-06  0.3740733E+04  0.7818609E-02  0.8058994E-01
        2   -1    0    0  501    0  0.00000000000E+00  0.00000000000E+00  0.15072966249E+04  0.15072966249E+04  0.25500000920E-02 0.  1.
       -2   -1    0    0    0  501  0.00000000000E+00  0.00000000000E+00 -0.23208903334E+04  0.23208903334E+04  0.25500000920E-02 0. -1.
    10030    2    1    2    0    0  0.00000000000E+00  0.00000000000E+00 -0.81359370857E+03  0.38281869583E+04  0.37407326375E+04 0.  0.
        4    1    3    3  502    0 -0.10940336056E+04 -0.13075617511E+04  0.38036802354E+03  0.17467995619E+04  0.12699999809E+01 0.  1.
       -4    1    3    3    0  502  0.10940336056E+04  0.13075617511E+04 -0.11939617321E+04  0.20813873964E+04  0.12699999809E+01 0. -1.
</event>
<event>
 5   0  0.1051123E-06  0.3516050E+04  0.7818609E-02  0.8109997E-01
        2   -1    0    0  501    0  0.00000000000E+00  0.00000000000E+00  0.15586850986E+04  0.15586850986E+04  0.25500000920E-02 0. -1.
       -2   -1    0    0    0  501  0.00000000000E+00  0.00000000000E+00 -0.19828583340E+04  0.19828583340E+04  0.25500000920E-02 0.  1.
    10030    2    1    2    0    0  0.00000000000E+00  0.00000000000E+00 -0.42417323542E+03  0.35415434326E+04  0.35160499074E+04 0.  0.
        2    1    3    3  502    0  0.85981977155E+03 -0.33550353696E+03  0.12950239003E+04  0.15902639923E+04  0.25500000920E-02 0. -1.
       -2    1    3    3    0  502 -0.85981977155E+03  0.33550353696E+03 -0.17191971357E+04  0.19512794403E+04  0.25500000920E-02 0.  1.
</event>
<event>
 5   0  0.3704306E-07  0.3618014E+04  0.7818609E-02  0.8086378E-01
       -1   -1    0    0    0  501  0.00000000000E+00  0.00000000000E+00  0.14230618724E+04  0.14230618724E+04  0.50400001928E-02 0.  1.
        1   -1    0    0  501    0  0.00000000000E+00  0.00000000000E+00 -0.22996228986E+04  0.22996228986E+04  0.50400001928E-02 0. -1.
    10030    2    1    2    0    0  0.00000000000E+00  0.00000000000E+00 -0.87656102620E+03  0.37226847709E+04  0.36180136361E+04 0.  0.
        3    1    3    3  502    0 -0.16629290475E+04  0.44958143490E+03 -0.10065717901E+04  0.19951549470E+04  0.10100000352E+00 0. -1.
       -3    1    3    3    0  502  0.16629290475E+04 -0.44958143490E+03  0.13001076388E+03  0.17275298240E+04  0.10100000352E+00 0.  1.
</event>
<event>
 5   0  0.1051123E-06  0.3671885E+04  0.7818609E-02  0.8074221E-01
       -2   -1    0    0    0  501  0.00000000000E+00  0.00000000000E+00  0.21629960250E+04  0.21629960250E+04  0.25500000920E-02 0.  1.
        2   -1    0    0  501    0  0.00000000000E+00  0.00000000000E+00 -0.15583403661E+04  0.15583403661E+04  0.25500000920E-02 0. -1.
    10030    2    1    2    0    0  0.00000000000E+00  0.00000000000E+00  0.60465565894E+03  0.37213363911E+04  0.36718845393E+04 0.  0.
        2    1    3    3  502    0  0.16615130201E+04  0.67322891861E+03 -0.99012194564E+02  0.17954570748E+04  0.25500000920E-02 0. -1.
       -2    1    3    3    0  502 -0.16615130201E+04 -0.67322891861E+03  0.70366785350E+03  0.19258793163E+04  0.25500000920E-02 0.  1.
</event>
<event>
 5   0  0.3764495E-07  0.3772255E+04  0.7818609E-02  0.8052135E-01
       -1   -1    0    0    0  501  0.00000000000E+00  0.00000000000E+00  0.15251400083E+04  0.15251400083E+04  0.50400001928E-02 0.  1.
        1   -1    0    0  501    0  0.00000000000E+00  0.00000000000E+00 -0.23325578915E+04  0.23325578915E+04  0.50400001928E-02 0. -1.
    10030    2    1    2    0    0  0.00000000000E+00  0.00000000000E+00 -0.80741788317E+03  0.38576978998E+04  0.37722552204E+04 0.  0.
        4    1    3    3  502    0  0.11582033781E+03 -0.30155378989E+02  0.15212525299E+04  0.15259536593E+04  0.12699999809E+01 0.  1.
       -4    1    3    3    0  502 -0.11582033781E+03  0.30155378989E+02 -0.23286704131E+04  0.23317442405E+04  0.12699999809E+01 0. -1.
</event>
<event>
 5   0  0.3682276E-07  0.3644443E+04  0.7818609E-02  0.8080387E-01
        1   -1    0    0  501    0  0.00000000000E+00  0.00000000000E+00  0.26994623540E+04  0.26994623540E+04  0.50400001928E-02 0. -1.
       -1   -1    0    0    0  501  0.00000000000E+00  0.00000000000E+00 -0.12300564213E+04  0.12300564213E+04  0.50400001928E-02 0.  1.
    10030    2    1    2    0    0  0.00000000000E+00  0.00000000000E+00  0.14694059327E+04  0.39295187753E+04  0.36444428944E+04 0.  0.
        1    1    3    3  502    0  0.15437537994E+04 -0.87924971332E+03  0.11716625568E+04  0.21281562439E+04  0.50400001928E-02 0. -1.
       -1    1    3    3    0  502 -0.15437537994E+04  0.87924971332E+03  0.29774337586E+03  0.18013625314E+04  0.50400001928E-02 0.  1.
</event>
<event>
 5   0  0.1092116E-06  0.4115761E+04  0.7818609E-02  0.7981592E-01
       -2   -1    0    0    0  501  0.00000000000E+00  0.00000000000E+00  0.28201738689E+04  0.28201738689E+04  0.25500000920E-02 0.  1.
        2   -1    0    0  501    0  0.00000000000E+00  0.00000000000E+00 -0.15016354413E+04  0.15016354413E+04  0.25500000920E-02 0. -1.
    10030    2    1    2    0    0  0.00000000000E+00  0.00000000000E+00  0.13185384276E+04  0.43218093102E+04  0.41157614276E+04 0.  0.
        1    1    3    3  502    0  0.15945743252E+04 -0.71704647653E+03  0.17989869034E+04  0.25086204987E+04  0.50400001928E-02 0.  1.
       -1    1    3    3    0  502 -0.15945743252E+04  0.71704647653E+03 -0.48044847577E+03  0.18131888115E+04  0.50400001928E-02 0. -1.
</event>
<event>
 5   0  0.1051123E-06  0.3660031E+04  0.7818609E-02  0.8076878E-01
        2   -1    0    0  501    0  0.00000000000E+00  0.00000000000E+00  0.25193377270E+04  0.25193377270E+04  0.25500000920E-02 0.  1.
       -2   -1    0    0    0  501  0.00000000000E+00  0.00000000000E+00 -0.13293004289E+04  0.13293004289E+04  0.25500000920E-02 0. -1.
    10030    2    1    2    0    0  0.00000000000E+00  0.00000000000E+00  0.11900372982E+04  0.38486381559E+04  0.36600309949E+04 0.  0.
        2    1    3    3  502    0 -0.44350986783E+03  0.13990697448E+04  0.17444439451E+04  0.22797328421E+04  0.25500000920E-02 0.  1.
       -2    1    3    3    0  502  0.44350986783E+03 -0.13990697448E+04 -0.55440664695E+03  0.15689053138E+04  0.25500000920E-02 0. -1.
</event>
<event>
 5   0  0.3704306E-07  0.3642455E+04  0.7818609E-02  0.8080836E-01
        1   -1    0    0  501    0  0.00000000000E+00  0.00000000000E+00  0.18878254192E+04  0.18878254192E+04  0.50400001928E-02 0.  1.
       -1   -1    0    0    0  501  0.00000000000E+00  0.00000000000E+00 -0.17569788649E+04  0.17569788649E+04  0.50400001928E-02 0. -1.
    10030    2    1    2    0    0  0.00000000000E+00  0.00000000000E+00  0.13084655428E+03  0.36448042842E+04  0.36424548658E+04 0.  0.
        3    1    3    3  502    0  0.98415951631E+03  0.15319882276E+04  0.10166084581E+03  0.18237030517E+04  0.10100000352E+00 0.  1.
       -3    1    3    3    0  502 -0.98415951631E+03 -0.15319882276E+04  0.29185708467E+02  0.18211012325E+04  0.10100000352E+00 0. -1.
</event>
<event>
 5   0  0.3848431E-07  0.2456176E+04  0.7818609E-02  0.8418767E-01
        1   -1    0    0  501    0  0.00000000000E+00  0.00000000000E+00  0.21700698791E+04  0.21700698791E+04  0.50400001928E-02 0. -1.
       -1   -1    0    0    0  501  0.00000000000E+00  0.00000000000E+00 -0.69500058890E+03  0.69500058892E+03  0.50400001928E-02 0.  1.
    10030    2    1    2    0    0  0.00000000000E+00  0.00000000000E+00  0.14750692902E+04  0.28650704680E+04  0.24561757624E+04 0.  0.
        2    1    3    3  502    0  0.66167983969E+03  0.10345558247E+04  0.74756086278E+03  0.14376971893E+04  0.25500000920E-02 0.  1.
       -2    1    3    3    0  502 -0.66167983969E+03 -0.10345558247E+04  0.72750842739E+03  0.14273732786E+04  0.25500000920E-02 0. -1.
</event>
<event>
 5   0  0.1092116E-06  0.3690905E+04  0.7818609E-02  0.8069980E-01
       -2   -1    0    0    0  501  0.00000000000E+00  0.00000000000E+00  0.11197895437E+04  0.11197895437E+04  0.25500000920E-02 0.  1.
        2   -1    0    0  501    0  0.00000000000E+00  0.00000000000E+00 -0.30413700038E+04  0.30413700038E+04  0.25500000920E-02 0. -1.
    10030    2    1    2    0    0  0.00000000000E+00  0.00000000000E+00 -0.19215804601E+04  0.41611595476E+04  0.36909046744E+04 0.  0.
        1    1    3    3  502    0  0.58659352417E+03  0.27749072399E+03  0.98692158363E+03  0.11811465941E+04  0.50400001928E-02 0.  1.
       -1    1    3    3    0  502 -0.58659352417E+03 -0.27749072399E+03 -0.29085020437E+04  0.29800129535E+04  0.50400001928E-02 0. -1.
</event>
<event>
 5   0  0.3848431E-07  0.3752702E+04  0.7818609E-02  0.8056382E-01
        1   -1    0    0  501    0  0.00000000000E+00  0.00000000000E+00  0.12862979913E+04  0.12862979914E+04  0.50400001928E-02 0. -1.
       -1   -1    0    0    0  501  0.00000000000E+00  0.00000000000E+00 -0.27370740501E+04  0.27370740501E+04  0.50400001928E-02 0.  1.
    10030    2    1    2    0    0  0.00000000000E+00  0.00000000000E+00 -0.14507760587E+04  0.40233720414E+04  0.37527018815E+04 0.  0.
        2    1    3    3  502    0 -0.76445832277E+03  0.16611743266E+04 -0.11761866409E+04  0.21742381850E+04  0.25500000920E-02 0. -1.
       -2    1    3    3    0  502  0.76445832277E+03 -0.16611743266E+04 -0.27458941781E+03  0.18491338565E+04  0.25500000920E-02 0.  1.
</event>
<event>
 5   0  0.3704306E-07  0.3706119E+04  0.7818609E-02  0.8066607E-01
        1   -1    0    0  501    0  0.00000000000E+00  0.00000000000E+00  0.20395961549E+04  0.20395961549E+04  0.50400001928E-02 0.  1.
       -1   -1    0    0    0  501  0.00000000000E+00  0.00000000000E+00 -0.16835831314E+04  0.16835831314E+04  0.50400001928E-02 0. -1.
    10030    2    1    2    0    0  0.00000000000E+00  0.00000000000E+00  0.35601302354E+03  0.37231792863E+04  0.37061190921E+04 0.  0.
        3    1    3    3  502    0  0.14665988589E+04 -0.82683974324E+03 -0.59967158551E+03  0.17872275162E+04  0.10100000352E+00 0. -1.
       -3    1    3    3    0  502 -0.14665988589E+04  0.82683974324E+03  0.95568460905E+03  0.19359517701E+04  0.10100000352E+00 0.  1.
</event>
<event>
 5   0  0.1066907E-06  0.3692763E+04  0.7818609E-02  0.8069567E-01
       -2   -1    0    0    0  501  0.00000000000E+00  0.00000000000E+00  0.16559365172E+04  0.16559365172E+04  0.25500000920E-02 0. -1.
        2   -1    0    0  501    0  0.00000000000E+00  0.00000000000E+00 -0.20587295858E+04  0.20587295858E+04  0.25500000920E-02 0.  1.
    10030    2    1    2    0    0  0.00000000000E+00  0.00000000000E+00 -0.40279306864E+03  0.37146661030E+04  0.36927634640E+04 0.  0.
        4    1    3    3  502    0  0.43815943643E+03  0.17369158764E+04 -0.65155883500E+03  0.19061455826E+04  0.12699999809E+01 0.  1.
       -4    1    3    3    0  502 -0.43815943643E+03 -0.17369158764E+04  0.24876576636E+03  0.18085205205E+04  0.12699999809E+01 0. -1.
</event>
<event>
 5   0  0.1066907E-06  0.3675775E+04  0.7818609E-02  0.8073352E-01
        2   -1    0    0  501    0  0.00000000000E+00  0.00000000000E+00  0.16889775397E+04  0.16889775397E+04  0.25500000920E-02 0.  1.
       -2   -1    0    0    0  501  0.00000000000E+00  0.00000000000E+00 -0.19999261238E+04  0.19999261238E+04  0.25500000920E-02 0. -1.
    10030    2    1    2    0    0  0.00000000000E+00  0.00000000000E+00 -0.31094858408E+03  0.36889036636E+04  0.36757749138E+04 0.  0.
        4    1    3    3  502    0  0.48694609600E+03 -0.10073028941E+04  0.13078327237E+04  0.17211053619E+04  0.12699999809E+01 0.  1.
       -4    1    3    3    0  502 -0.48694609600E+03  0.10073028941E+04 -0.16187813077E+04  0.19677983017E+04  0.12699999809E+01 0. -1.
</event>
<event>
 5   0  0.1066907E-06  0.3676002E+04  0.7818609E-02  0.8073301E-01
       -2   -1    0    0    0  501  0.00000000000E+00  0.00000000000E+00  0.13904275706E+04  0.13904275706E+04  0.25500000920E-02 0.  1.
        2   -1    0    0  501    0  0.00000000000E+00  0.00000000000E+00 -0.24296472344E+04  0.24296472344E+04  0.25500000920E-02 0. -1.
    10030    2    1    2    0    0  0.00000000000E+00  0.00000000000E+00 -0.10392196638E+04  0.38200748050E+04  0.36760024491E+04 0.  0.
        4    1    3    3  502    0  0.27583375331E+03 -0.11679401443E+04 -0.19663207246E+04  0.23036031006E+04  0.12699999809E+01 0. -1.
       -4    1    3    3    0  502 -0.27583375331E+03  0.11679401443E+04  0.92710106083E+03  0.15164717044E+04  0.12699999809E+01 0.  1.
</event>
<event>
 5   0  0.1128166E-06  0.3547229E+04  0.7818609E-02  0.8102688E-01
       -2   -1    0    0    0  501  0.00000000000E+00  0.00000000000E+00  0.13217234380E+04  0.13217234380E+04  0.25500000920E-02 0.  1.
        2   -1    0    0  501    0  0.00000000000E+00  0.00000000000E+00 -0.23800053216E+04  0.23800053216E+04  0.25500000920E-02 0. -1.
    10030    2    1    2    0    0  0.00000000000E+00  0.00000000000E+00 -0.10582818837E+04  0.37017287596E+04  0.35472292376E+04 0.  0.
        3    1    3    3  502    0 -0.20755135755E+03 -0.70917989236E+03  0.11534422537E+04  0.13698331025E+04  0.10100000352E+00 0.  1.
       -3    1    3    3    0  502  0.20755135755E+03  0.70917989236E+03 -0.22117241374E+04  0.23318956571E+04  0.10100000352E+00 0. -1.
</event>
<event>
 5   0  0.3682276E-07  0.3676588E+04  0.7818609E-02  0.8073170E-01
       -1   -1    0    0    0  501  0.00000000000E+00  0.00000000000E+00  0.22643275588E+04  0.22643275588E+04  0.50400001928E-02 0. -1.
        1   -1    0    0  501    0  0.00000000000E+00  0.00000000000E+00 -0.14924187657E+04  0.14924187657E+04  0.50400001928E-02 0.  1.
    10030    2    1    2    0    0  0.00000000000E+00  0.00000000000E+00  0.77190879307E+03  0.37567463246E+04  0.36765880599E+04 0.  0.
        1    1    3    3  502    0 -0.78870671052E+03 -0.15523682847E+04 -0.21631932502E+03  0.17546223574E+04  0.50400001928E-02 0.  1.
       -1    1    3    3    0  502  0.78870671052E+03  0.15523682847E+04  0.98822811809E+03  0.20021239672E+04  0.50400001928E-02 0. -1.
</event>
<event>
 5   0  0.1051123E-06  0.2750518E+04  0.7818609E-02  0.8318797E-01
       -2   -1    0    0    0  501  0.00000000000E+00  0.00000000000E+00  0.99671736609E+03  0.99671736610E+03  0.25500000920E-02 0. -1.
        2   -1    0    0  501    0  0.00000000000E+00  0.00000000000E+00 -0.18975662664E+04  0.18975662664E+04  0.25500000920E-02 0.  1.
    10030    2    1    2    0    0  0.00000000000E+00  0.00000000000E+00 -0.90084890027E+03  0.28942836325E+04  0.27505179520E+04 0.  0.
        2    1    3    3  502    0 -0.55303693553E+02 -0.95799568330E+03  0.58621928163E+03  0.11244853373E+04  0.25500000920E-02 0. -1.
       -2    1    3    3    0  502  0.55303693553E+02  0.95799568330E+03 -0.14870681819E+04  0.17697982951E+04  0.25500000920E-02 0.  1.
</event>
<event>
 5   0  0.1092116E-06  0.2690839E+04  0.7818609E-02  0.8337984E-01
        2   -1    0    0  501    0  0.00000000000E+00  0.00000000000E+00  0.17440161641E+04  0.17440161641E+04  0.25500000920E-02 0. -1.
       -2   -1    0    0    0  501  0.00000000000E+00  0.00000000000E+00 -0.10379221380E+04  0.10379221381E+04  0.25500000920E-02 0.  1.
    10030    2    1    2    0    0  0.00000000000E+00  0.00000000000E+00  0.70609402603E+03  0.27819383021E+04  0.26908385205E+04 0.  0.
        1    1    3    3  502    0 -0.10624754578E+04 -0.55899464521E+03 -0.27482246314E+03  0.12316072824E+04  0.50400001928E-02 0. -1.
       -1    1    3    3    0  502  0.10624754578E+04  0.55899464521E+03  0.98091648917E+03  0.15503310197E+04  0.50400001928E-02 0.  1.
</event>
<event>
 5   0  0.3848431E-07  0.3642947E+04  0.7818609E-02  0.8080724E-01
        1   -1    0    0  501    0  0.00000000000E+00  0.00000000000E+00  0.13073250052E+04  0.13073250052E+04  0.50400001928E-02 0.  1.
       -1   -1    0    0    0  501  0.00000000000E+00  0.00000000000E+00 -0.25378279793E+04  0.25378279793E+04  0.50400001928E-02 0. -1.
    10030    2    1    2    0    0  0.00000000000E+00  0.00000000000E+00 -0.12305029741E+04  0.38451529845E+04  0.36429471455E+04 0.  0.
        2    1    3    3  502    0  0.22691439323E+03 -0.45975555069E+03  0.12295910341E+04  0.13322009681E+04  0.25500000920E-02 0.  1.
       -2    1    3    3    0  502 -0.22691439323E+03  0.45975555069E+03 -0.24600940081E+04  0.25129520165E+04  0.25500000920E-02 0. -1.
</event>
<event>
 5   0  0.3848431E-07  0.3785320E+04  0.7818609E-02  0.8049313E-01
       -1   -1    0    0    0  501  0.00000000000E+00  0.00000000000E+00  0.22591845410E+04  0.22591845410E+04  0.50400001928E-02 0. -1.
        1   -1    0    0  501    0  0.00000000000E+00  0.00000000000E+00 -0.15855995239E+04  0.15855995240E+04  0.50400001928E-02 0.  1.
    10030    2    1    2    0    0  0.00000000000E+00  0.00000000000E+00  0.67358501704E+03  0.38447840649E+04  0.37853200302E+04 0.  0.
        2    1    3    3  502    0 -0.15502016698E+04  0.94751525633E+03  0.87545510055E+03  0.20167627553E+04  0.25500000920E-02 0.  1.
       -2    1    3    3    0  502  0.15502016698E+04 -0.94751525633E+03 -0.20187008351E+03  0.18280213097E+04  0.25500000920E-02 0. -1.
</event>
<event>
 5   0  0.1066907E-06  0.2769841E+04  0.7818609E-02  0.8312693E-01
       -2   -1    0    0    0  501  0.00000000000E+00  0.00000000000E+00  0.14458361941E+04  0.14458361941E+04  0.25500000920E-02 0.  1.
        2   -1    0    0  501    0  0.00000000000E+00  0.00000000000E+00 -0.13265710387E+04  0.13265710387E+04  0.25500000920E-02 0. -1.
    10030    2    1    2    0    0  0.00000000000E+00  0.00000000000E+00  0.11926515547E+03  0.27724072328E+04  0.27698407332E+04 0.  0.
        4    1    3    3  502    0 -0.11640039204E+04 -0.69941940863E+03 -0.21248358296E+03  0.13744975525E+04  0.12699999809E+01 0. -1.
       -4    1    3    3    0  502  0.11640039204E+04  0.69941940863E+03  0.33174873842E+03  0.13979096803E+04  0.12699999809E+01 0.  1.
</event>
<event>
 5   0  0.1066907E-06  0.2543917E+04  0.7818609E-02  0.8387505E-01
        2   -1    0    0  501    0  0.00000000000E+00  0.00000000000E+00  0.16242345111E+04  0.16242345111E+04  0.25500000920E-02 0. -1.
       -2   -1    0    0    0  501  0.00000000000E+00  0.00000000000E+00 -0.99608685753E+03  0.99608685753E+03  0.25500000920E-02 0.  1.
    10030    2    1    2    0    0  0.00000000000E+00  0.00000000000E+00  0.62814765355E+03  0.26203213686E+04  0.25439171764E+04 0.  0.
        4    1    3    3  502    0 -0.82339923081E+03 -0.51062257737E+03  0.11629339782E+04  0.15136508053E+04  0.12699999809E+01 0. -1.
       -4    1    3    3    0  502  0.82339923081E+03  0.51062257737E+03 -0.53478632463E+03  0.11066705633E+04  0.12699999809E+01 0.  1.
</event>
<event>
 5   0  0.1066907E-06  0.3462218E+04  0.7818609E-02  0.8122803E-01
       -2   -1    0    0    0  501  0.00000000000E+00  0.00000000000E+00  0.12783156702E+04  0.12783156702E+04  0.25500000920E-02 0.  1.
        2   -1    0    0  501    0  0.00000000000E+00  0.00000000000E+00 -0.23442869650E+04  0.23442869650E+04  0.25500000920E-02 0. -1.
    10030    2    1    2    0    0  0.00000000000E+00  0.00000000000E+00 -0.10659712948E+04  0.36226026352E+04  0.34622182269E+04 0.  0.
        4    1    3    3  502    0 -0.11867377276E+03  0.98143658410E+03  0.95391276718E+03  0.13737730574E+04  0.12699999809E+01 0.  1.
       -4    1    3    3    0  502  0.11867377276E+03 -0.98143658410E+03 -0.20198840620E+04  0.22488295778E+04  0.12699999809E+01 0. -1.
</event>
<event>
 5   0  0.3675819E-07  0.2807952E+04  0.7818609E-02  0.8300804E-01
       -1   -1    0    0    0  501  0.00000000000E+00  0.00000000000E+00  0.10688781072E+04  0.10688781073E+04  0.50400001928E-02 0.  1.
        1   -1    0    0  501    0  0.00000000000E+00  0.00000000000E+00 -0.18441287384E+04  0.18441287384E+04  0.50400001928E-02 0. -1.
    10030    2    1    2    0    0  0.00000000000E+00  0.00000000000E+00 -0.77525063116E+03  0.29130068457E+04  0.28079521616E+04 0.  0.
        5    1    3    3  502    0 -0.33677210608E+03  0.76033923009E+03  0.78588837639E+03  0.11441913417E+04  0.46999998093E+01 0.  1.
       -5    1    3    3    0  502  0.33677210608E+03 -0.76033923009E+03 -0.15611390076E+04  0.17688155040E+04  0.46999998093E+01 0. -1.
</event>
<event>
 5   0  0.3675819E-07  0.3670169E+04  0.7818609E-02  0.8074605E-01
       -1   -1    0    0    0  501  0.00000000000E+00  0.00000000000E+00  0.15115460690E+04  0.15115460690E+04  0.50400001928E-02 0.  1.
        1   -1    0    0  501    0  0.00000000000E+00  0.00000000000E+00 -0.22278745147E+04  0.22278745147E+04  0.50400001928E-02 0. -1.
    10030    2    1    2    0    0  0.00000000000E+00  0.00000000000E+00 -0.71632844567E+03  0.37394205837E+04  0.36701689144E+04 0.  0.
        5    1    3    3  502    0  0.11666876513E+04 -0.39059633092E+03  0.10290649515E+04  0.16039708020E+04  0.46999998093E+01 0.  1.
       -5    1    3    3    0  502 -0.11666876513E+04  0.39059633092E+03 -0.17453933972E+04  0.21354497817E+04  0.46999998093E+01 0. -1.
</event>
<event>
 5   0  0.1051123E-06  0.2404956E+04  0.7818609E-02  0.8437651E-01
       -2   -1    0    0    0  501  0.00000000000E+00  0.00000000000E+00  0.81356898687E+03  0.81356898687E+03  0.25500000920E-02 0.  1.
        2   -1    0    0  501    0  0.00000000000E+00  0.00000000000E+00 -0.17772960278E+04  0.17772960278E+04  0.25500000920E-02 0. -1.
    10030    2    1    2    0    0  0.00000000000E+00  0.00000000000E+00 -0.96372704098E+03  0.25908650147E+04  0.24049556576E+04 0.  0.
        2    1    3    3  502    0  0.69803584143E+03  0.17464703298E+03 -0.15197691446E+04  0.16815034568E+04  0.25500000920E-02 0. -1.
       -2    1    3    3    0  502 -0.69803584143E+03 -0.17464703298E+03  0.55604210367E+03  0.90936155796E+03  0.25500000920E-02 0.  1.
</event>
<event>
 5   0  0.3848431E-07  0.3196120E+04  0.7818609E-02  0.8189843E-01
       -1   -1    0    0    0  501  0.00000000000E+00  0.00000000000E+00  0.15325803950E+04  0.15325803950E+04  0.50400001928E-02 0.  1.
        1   -1    0    0  501    0  0.00000000000E+00  0.00000000000E+00 -0.16663376912E+04  0.16663376912E+04  0.50400001928E-02 0. -1.
    10030    2    1    2    0    0  0.00000000000E+00  0.00000000000E+00 -0.13375729620E+03  0.31989180861E+04  0.31961204463E+04 0.  0.
        2    1    3    3  502    0 -0.97448796208E+03 -0.43573416828E+03 -0.12571653601E+04  0.16492288490E+04  0.25500000920E-02 0. -1.
       -2    1    3    3    0  502  0.97448796208E+03  0.43573416828E+03  0.11234080639E+04  0.15496892371E+04  0.25500000920E-02 0.  1.
</event>
<event>
 5   0  0.3764495E-07  0.3567853E+04  0.7818609E-02  0.8097895E-01
        1   -1    0    0  501    0  0.00000000000E+00  0.00000000000E+00  0.15566070494E+04  0.15566070494E+04  0.50400001928E-02 0.  1.
       -1   -1    0    0    0  501  0.00000000000E+00  0.00000000000E+00 -0.20444425403E+04  0.20444425403E+04  0.50400001928E-02 0. -1.
    10030    2    1    2    0    0  0.00000000000E+00  0.00000000000E+00 -0.48783549095E+03  0.36010495897E+04  0.35678529512E+04 0.  0.
        4    1    3    3  502    0 -0.32465193990E+03 -0.49148458319E+02  0.15258443332E+04  0.15607744856E+04  0.12699999809E+01 0.  1.
       -4    1    3    3    0  502  0.32465193990E+03  0.49148458319E+02 -0.20136798241E+04  0.20402751040E+04  0.12699999809E+01 0. -1.
</event>
<event>
 5   0  0.3682276E-07  0.3768781E+04  0.7818609E-02  0.8052888E-01
        1   -1    0    0  501    0  0.00000000000E+00  0.00000000000E+00  0.20736971382E+04  0.20736971382E+04  0.50400001928E-02 0.  1.
       -1   -1    0    0    0  501  0.00000000000E+00  0.00000000000E+00 -0.17123659818E+04  0.17123659818E+04  0.50400001928E-02 0. -1.
    10030    2    1    2    0    0  0.00000000000E+00  0.00000000000E+00  0.36133115637E+03  0.37860631200E+04  0.37687814668E+04 0.  0.
        1    1    3    3  502    0  0.10944237244E+04 -0.11218943367E+04 -0.87032397020E+03  0.17927280899E+04  0.50400001928E-02 0. -1.
       -1    1    3    3    0  502 -0.10944237244E+04  0.11218943367E+04  0.12316551266E+04  0.19933350301E+04  0.50400001928E-02 0.  1.
</event>
<event>
 5   0  0.1051123E-06  0.3841817E+04  0.7818609E-02  0.8037240E-01
        2   -1    0    0  501    0  0.00000000000E+00  0.00000000000E+00  0.12977124808E+04  0.12977124808E+04  0.25500000920E-02 0. -1.
       -2   -1    0    0    0  501  0.00000000000E+00  0.00000000000E+00 -0.28433797494E+04  0.28433797494E+04  0.25500000920E-02 0.  1.
    10030    2    1    2    0    0  0.00000000000E+00  0.00000000000E+00 -0.15456672686E+04  0.41410922303E+04  0.38418169600E+04 0.  0.
        2    1    3    3  502    0 -0.58549959710E+03 -0.71989813063E+02  0.11976587876E+04  0.13350576328E+04  0.25500000920E-02 0. -1.
       -2    1    3    3    0  502  0.58549959710E+03  0.71989813063E+02 -0.27433260562E+04  0.28060345975E+04  0.25500000920E-02 0.  1.
</event>
<event>
 5   0  0.1066907E-06  0.3649357E+04  0.7818609E-02  0.8079279E-01
       -2   -1    0    0    0  501  0.00000000000E+00  0.00000000000E+00  0.13558944226E+04  0.13558944226E+04  0.25500000920E-02 0.  1.
        2   -1    0    0  501    0  0.00000000000E+00  0.00000000000E+00 -0.24555385385E+04  0.24555385385E+04  0.25500000920E-02 0. -1.
    10030    2    1    2    0    0  0.00000000000E+00  0.00000000000E+00 -0.10996441159E+04  0.38114329611E+04  0.36493566605E+04 0.  0.
        4    1    3    3  502    0 -0.66597623132E+03 -0.37349729115E+03 -0.22806577154E+04  0.24050833239E+04  0.12699999809E+01 0. -1.
       -4    1    3    3    0  502  0.66597623132E+03  0.37349729115E+03  0.11810135994E+04  0.14063496372E+04  0.12699999809E+01 0.  1.
</event>
<event>
 5   0  0.3704306E-07  0.2861826E+04  0.7818609E-02  0.8284327E-01
        1   -1    0    0  501    0  0.00000000000E+00  0.00000000000E+00  0.79209229101E+03  0.79209229103E+03  0.50400001928E-02 0.  1.
       -1   -1    0    0    0  501  0.00000000000E+00  0.00000000000E+00 -0.25849412257E+04  0.25849412257E+04  0.50400001928E-02 0. -1.
    10030    2    1    2    0    0  0.00000000000E+00  0.00000000000E+00 -0.17928489347E+04  0.33770335167E+04  0.28618260028E+04 0.  0.
        3    1    3    3  502    0 -0.12400381023E+04 -0.20387773971E+03 -0.88944645845E+02  0.12598300632E+04  0.10100000352E+00 0.  1.
       -3    1    3    3    0  502  0.12400381023E+04  0.20387773971E+03 -0.17039042888E+04  0.21172034535E+04  0.10100000352E+00 0. -1.
</event>
<event>
 5   0  0.1092116E-06  0.3802230E+04  0.7818609E-02  0.8045677E-01
       -2   -1    0    0    0  501  0.00000000000E+00  0.00000000000E+00  0.19437788273E+04  0.19437788273E+04  0.25500000920E-02 0. -1.
        2   -1    0    0  501    0  0.00000000000E+00  0.00000000000E+00 -0.18593872669E+04  0.18593872669E+04  0.25500000920E-02 0.  1.
    10030    2    1    2    0    0  0.00000000000E+00  0.00000000000E+00  0.84391560376E+02  0.38031660942E+04  0.38022296623E+04 0.  0.
        1    1    3    3  502    0  0.15334107296E+04 -0.10817410317E+04  0.34677935722E+03  0.19083417010E+04  0.50400001928E-02 0.  1.
       -1    1    3    3    0  502 -0.15334107296E+04  0.10817410317E+04 -0.26238779684E+03  0.18948243932E+04  0.50400001928E-02 0. -1.
</event>
<event>
 5   0  0.3848431E-07  0.2884377E+04  0.7818609E-02  0.8277541E-01
        1   -1    0    0  501    0  0.00000000000E+00  0.00000000000E+00  0.16796435846E+04  0.16796435846E+04  0.50400001928E-02 0. -1.
       -1   -1    0    0    0  501  0.00000000000E+00  0.00000000000E+00 -0.12383029642E+04  0.12383029642E+04  0.50400001928E-02 0.  1.
    10030    2    1    2    0    0  0.00000000000E+00  0.00000000000E+00  0.44134062043E+03  0.29179465488E+04  0.28843769724E+04 0.  0.
        2    1    3    3  502    0  0.79983013606E+03  0.54955498627E+02 -0.99209778625E+03  0.12755415990E+04  0.25500000920E-02 0.  1.
       -2    1    3    3    0  502 -0.79983013606E+03 -0.54955498627E+02  0.14334384067E+04  0.16424049498E+04  0.25500000920E-02 0. -1.
</event>
<event>
 5   0  0.3682276E-07  0.2949983E+04  0.7818609E-02  0.8258159E-01
       -1   -1    0    0    0  501  0.00000000000E+00  0.00000000000E+00  0.15766042727E+04  0.15766042727E+04  0.50400001928E-02 0.  1.
        1   -1    0    0  501    0  0.00000000000E+00  0.00000000000E+00 -0.13799280622E+04  0.13799280622E+04  0.50400001928E-02 0. -1.
    10030    2    1    2    0    0  0.00000000000E+00  0.00000000000E+00  0.19667621052E+03  0.29565323349E+04  0.29499833755E+04 0.  0.
        1    1    3    3  502    0 -0.29793998551E+03  0.11616323471E+04 -0.76231305021E+03  0.14210134170E+04  0.50400001928E-02 0. -1.
       -1    1    3    3    0  502  0.29793998551E+03 -0.11616323471E+04  0.95898926073E+03  0.15355189179E+04  0.50400001928E-02 0.  1.
</event>
<event>
 5   0  0.3704306E-07  0.3671333E+04  0.7818609E-02  0.8074345E-01
        1   -1    0    0  501    0  0.00000000000E+00  0.00000000000E+00  0.17952610103E+04  0.17952610103E+04  0.50400001928E-02 0. -1.
       -1   -1    0    0    0  501  0.00000000000E+00  0.00000000000E+00 -0.18769815338E+04  0.18769815338E+04  0.50400001928E-02 0.  1.
    10030    2    1    2    0    0  0.00000000000E+00  0.00000000000E+00 -0.81720523444E+02  0.36722425441E+04  0.36713331446E+04 0.  0.
        3    1    3    3  502    0 -0.59568298358E+03  0.17301198986E+04  0.10586852158E+03  0.18328560321E+04  0.10100000352E+00 0. -1.
       -3    1    3    3    0  502  0.59568298358E+03 -0.17301198986E+04 -0.18758904502E+03  0.18393865120E+04  0.10100000352E+00 0.  1.
</event>
<event>
 5   0  0.3682276E-07  0.3730822E+04  0.7818609E-02  0.8061166E-01
        1   -1    0    0  501    0  0.00000000000E+00  0.00000000000E+00  0.20845609583E+04  0.20845609583E+04  0.50400001928E-02 0. -1.
       -1   -1    0    0    0  501  0.00000000000E+00  0.00000000000E+00 -0.16692998928E+04  0.16692998928E+04  0.50400001928E-02 0.  1.
    10030    2    1    2    0    0  0.00000000000E+00  0.00000000000E+00  0.41526106555E+03  0.37538608511E+04  0.37308215633E+04 0.  0.
        1    1    3    3  502    0 -0.14975273394E+04 -0.10464220137E+04  0.58701365934E+03  0.19188986944E+04  0.50400001928E-02 0. -1.
       -1    1    3    3    0  502  0.14975273394E+04  0.10464220137E+04 -0.17175259379E+03  0.18349621567E+04  0.50400001928E-02 0.  1.
</event>
<event>
 5   0  0.3682276E-07  0.2282187E+04  0.7818609E-02  0.8484978E-01
       -1   -1    0    0    0  501  0.00000000000E+00  0.00000000000E+00  0.53035432686E+03  0.53035432688E+03  0.50400001928E-02 0. -1.
        1   -1    0    0  501    0  0.00000000000E+00  0.00000000000E+00 -0.24551413983E+04  0.24551413983E+04  0.50400001928E-02 0.  1.
    10030    2    1    2    0    0  0.00000000000E+00  0.00000000000E+00 -0.19247870714E+04  0.29854957252E+04  0.22821874276E+04 0.  0.
        1    1    3    3  502    0  0.26171360387E+02  0.10164201187E+04 -0.16399968705E+04  0.19296073521E+04  0.50400001928E-02 0. -1.
       -1    1    3    3    0  502 -0.26171360387E+02 -0.10164201187E+04 -0.28479020090E+03  0.10558883731E+04  0.50400001928E-02 0.  1.
</event>
<event>
 5   0  0.3848431E-07  0.3724874E+04  0.7818609E-02  0.8062472E-01
       -1   -1    0    0    0  501  0.00000000000E+00  0.00000000000E+00  0.15152760819E+04  0.15152760819E+04  0.50400001928E-02 0. -1.
        1   -1    0    0  501    0  0.00000000000E+00  0.00000000000E+00 -0.22891344903E+04  0.22891344904E+04  0.50400001928E-02 0.  1.
    10030    2    1    2    0    0  0.00000000000E+00  0.00000000000E+00 -0.77385840850E+03  0.38044105722E+04  0.37248735503E+04 0.  0.
        2    1    3    3  502    0  0.38025259427E+03 -0.84382697372E+03  0.12637600361E+04  0.15664371759E+04  0.25500000920E-02 0. -1.
       -2    1    3    3    0  502 -0.38025259427E+03  0.84382697372E+03 -0.20376184446E+04  0.22379733964E+04  0.25500000920E-02 0.  1.
</event>
<event>
 5   0  0.3682276E-07  0.3750510E+04  0.7818609E-02  0.8056860E-01
       -1   -1    0    0    0  501  0.00000000000E+00  0.00000000000E+00  0.16152824893E+04  0.16152824893E+04  0.50400001928E-02 0.  1.
        1   -1    0    0  501    0  0.00000000000E+00  0.00000000000E+00 -0.21770683603E+04  0.21770683603E+04  0.50400001928E-02 0. -1.
    10030    2    1    2    0    0  0.00000000000E+00  0.00000000000E+00 -0.56178587095E+03  0.37923508496E+04  0.37505095123E+04 0.  0.
        1    1    3    3  502    0 -0.13324632238E+04 -0.11678571781E+04 -0.90193693250E+03  0.19881747562E+04  0.50400001928E-02 0. -1.
       -1    1    3    3    0  502  0.13324632238E+04  0.11678571781E+04  0.34015106155E+03  0.18041760934E+04  0.50400001928E-02 0.  1.
</event>
<event>
 5   0  0.1051123E-06  0.3785550E+04  0.7818609E-02  0.8049263E-01
        2   -1    0    0  501    0  0.00000000000E+00  0.00000000000E+00  0.25101321231E+04  0.25101321231E+04  0.25500000920E-02 0. -1.
       -2   -1    0    0    0  501  0.00000000000E+00  0.00000000000E+00 -0.14272542539E+04  0.14272542539E+04  0.25500000920E-02 0.  1.
    10030    2    1    2    0    0  0.00000000000E+00  0.00000000000E+00  0.10828778691E+04  0.39373863770E+04  0.37855497622E+04 0.  0.
        2    1    3    3  502    0 -0.81881393361E+02  0.17484760411E+04  0.12905515820E+04  0.21747175483E+04  0.25500000920E-02 0. -1.
       -2    1    3    3    0  502  0.81881393361E+02 -0.17484760411E+04 -0.20767371290E+03  0.17626688287E+04  0.25500000920E-02 0.  1.
</event>
<event>
 5   0  0.3848431E-07  0.3501073E+04  0.7818609E-02  0.8113536E-01
        1   -1    0    0  501    0  0.00000000000E+00  0.00000000000E+00  0.19569538313E+04  0.19569538313E+04  0.50400001928E-02 0.  1.
       -1   -1    0    0    0  501  0.00000000000E+00  0.00000000000E+00 -0.15658919538E+04  0.15658919538E+04  0.50400001928E-02 0. -1.
    10030    2    1    2    0    0  0.00000000000E+00  0.00000000000E+00  0.39106187751E+03  0.35228457852E+04  0.35010731261E+04 0.  0.
        2    1    3    3  502    0  0.32448942782E+03 -0.15698741188E+04 -0.51210646166E+03  0.16828699194E+04  0.25500000920E-02 0. -1.
       -2    1    3    3    0  502 -0.32448942782E+03  0.15698741188E+04  0.90316833917E+03  0.18399758657E+04  0.25500000920E-02 0.  1.
</event>
<event>
 5   0  0.3675819E-07  0.3596677E+04  0.7818609E-02  0.8091253E-01
       -1   -1    0    0    0  501  0.00000000000E+00  0.00000000000E+00  0.13969380616E+04  0.13969380616E+04  0.50400001928E-02 0.  1.
        1   -1    0    0  501    0  0.00000000000E+00  0.00000000000E+00 -0.23150782218E+04  0.23150782218E+04  0.50400001928E-02 0. -1.
    10030    2    1    2    0    0  0.00000000000E+00  0.00000000000E+00 -0.91814016024E+03  0.37120162835E+04  0.35966767348E+04 0.  0.
        5    1    3    3  502    0  0.17391761046E+04 -0.45378411650E+03 -0.51876296005E+03  0.18707727403E+04  0.46999998093E+01 0. -1.
       -5    1    3    3    0  502 -0.17391761046E+04  0.45378411650E+03 -0.39937720019E+03  0.18412435431E+04  0.46999998093E+01 0.  1.
</event>
<event>
 5   0  0.1092116E-06  0.3711408E+04  0.7818609E-02  0.8065438E-01
        2   -1    0    0  501    0  0.00000000000E+00  0.00000000000E+00  0.25675472134E+04  0.25675472134E+04  0.25500000920E-02 0.  1.
       -2   -1    0    0    0  501  0.00000000000E+00  0.00000000000E+00 -0.13412164061E+04  0.13412164062E+04  0.25500000920E-02 0. -1.
    10030    2    1    2    0    0  0.00000000000E+00  0.00000000000E+00  0.12263308072E+04  0.39087636195E+04  0.37114075207E+04 0.  0.
        1    1    3    3  502    0 -0.11868834816E+04 -0.24943602451E+03 -0.86605918433E+03  0.14902916627E+04  0.50400001928E-02 0. -1.
       -1    1    3    3    0  502  0.11868834816E+04  0.24943602451E+03  0.20923899915E+04  0.24184719568E+04  0.50400001928E-02 0.  1.
</event>
<event>
 5   0  0.1092116E-06  0.3676363E+04  0.7818609E-02  0.8073220E-01
        2   -1    0    0  501    0  0.00000000000E+00  0.00000000000E+00  0.18960806765E+04  0.18960806765E+04  0.25500000920E-02 0.  1.
       -2   -1    0    0    0  501  0.00000000000E+00  0.00000000000E+00 -0.17820503649E+04  0.17820503649E+04  0.25500000920E-02 0. -1.
    10030    2    1    2    0    0  0.00000000000E+00  0.00000000000E+00  0.11403031166E+03  0.36781310414E+04  0.36763630188E+04 0.  0.
        1    1    3    3  502    0  0.75714648681E+03  0.16413488548E+04 -0.27723291954E+03  0.18287030807E+04  0.50400001928E-02 0. -1.
       -1    1    3    3    0  502 -0.75714648681E+03 -0.16413488548E+04  0.39126323119E+03  0.18494279607E+04  0.50400001928E-02 0.  1.
</event>
<event>
 5   0  0.1051123E-06  0.3668394E+04  0.7818609E-02  0.8075002E-01
        2   -1    0    0  501    0  0.00000000000E+00  0.00000000000E+00  0.35048011911E+04  0.35048011911E+04  0.25500000920E-02 0.  1.
       -2   -1    0    0    0  501  0.00000000000E+00  0.00000000000E+00 -0.95990560456E+03  0.95990560457E+03  0.25500000920E-02 0. -1.
    10030    2    1    2    0    0  0.00000000000E+00  0.00000000000E+00  0.25448955866E+04  0.44647067957E+04  0.36683938209E+04 0.  0.
        2    1    3    3  502    0 -0.12353427496E+04  0.47285980435E+03 -0.27405545432E+03  0.13508421431E+04  0.25500000920E-02 0. -1.
       -2    1    3    3    0  502  0.12353427496E+04 -0.47285980435E+03  0.28189510409E+04  0.31138646526E+04  0.25500000920E-02 0.  1.
</event>
<event>
 5   0  0.1128530E-06  0.3737025E+04  0.7818609E-02  0.8059806E-01
       -2   -1    0    0    0  501  0.00000000000E+00  0.00000000000E+00  0.16553931054E+04  0.16553931054E+04  0.25500000920E-02 0. -1.
        2   -1    0    0  501    0  0.00000000000E+00  0.00000000000E+00 -0.21090689055E+04  0.21090689055E+04  0.25500000920E-02 0.  1.
    10030    2    1    2    0    0  0.00000000000E+00  0.00000000000E+00 -0.45367580014E+03  0.37644620109E+04  0.37370245517E+04 0.  0.
        5    1    3    3  502    0  0.16818209680E+04 -0.22382732221E+02  0.59295120429E+03  0.17834337599E+04  0.46999998093E+01 0. -1.
       -5    1    3    3    0  502 -0.16818209680E+04  0.22382732221E+02 -0.10466270044E+04  0.19810282511E+04  0.46999998093E+01 0.  1.
</event>
<event>
 5   0  0.3764495E-07  0.2261207E+04  0.7818609E-02  0.8493376E-01
       -1   -1    0    0    0  501  0.00000000000E+00  0.00000000000E+00  0.42750739866E+03  0.42750739869E+03  0.50400001928E-02 0. -1.
        1   -1    0    0  501    0  0.00000000000E+00  0.00000000000E+00 -0.29900397515E+04  0.29900397515E+04  0.50400001928E-02 0.  1.
    10030    2    1    2    0    0  0.00000000000E+00  0.00000000000E+00 -0.25625323529E+04  0.34175471502E+04  0.22612068602E+04 0.  0.
        4    1    3    3  502    0  0.36403839508E+03 -0.69350637385E+03 -0.25135638536E+04  0.26327703855E+04  0.12699999809E+01 0.  1.
       -4    1    3    3    0  502 -0.36403839508E+03  0.69350637385E+03 -0.48968499285E+02  0.78477676475E+03  0.12699999809E+01 0. -1.
</event>
<event>
 5   0  0.1092116E-06  0.3607820E+04  0.7818609E-02  0.8088703E-01
        2   -1    0    0  501    0  0.00000000000E+00  0.00000000000E+00  0.31618942944E+04  0.31618942944E+04  0.25500000920E-02 0. -1.
       -2   -1    0    0    0  501  0.00000000000E+00  0.00000000000E+00 -0.10291587271E+04  0.10291587271E+04  0.25500000920E-02 0.  1.
    10030    2    1    2    0    0  0.00000000000E+00  0.00000000000E+00  0.21327355673E+04  0.41910530215E+04  0.36078198997E+04 0.  0.
        1    1    3    3  502    0  0.13229027533E+04 -0.68902854683E+03 -0.11216225876E+03  0.14957982502E+04  0.50400001928E-02 0.  1.
       -1    1    3    3    0  502 -0.13229027533E+04  0.68902854683E+03  0.22448978260E+04  0.26952547713E+04  0.50400001928E-02 0. -1.
</event>
<event>
 5   0  0.3682276E-07  0.3698312E+04  0.7818609E-02  0.8068336E-01
       -1   -1    0    0    0  501  0.00000000000E+00  0.00000000000E+00  0.16199361646E+04  0.16199361646E+04  0.50400001928E-02 0. -1.
        1   -1    0    0  501    0  0.00000000000E+00  0.00000000000E+00 -0.21108104211E+04  0.21108104211E+04  0.50400001928E-02 0.  1.
    10030    2    1    2    0    0  0.00000000000E+00  0.00000000000E+00 -0.49087425650E+03  0.37307465857E+04  0.36983121219E+04 0.  0.
        1    1    3    3  502    0 -0.17850811378E+04 -0.29550456259E+03  0.13940637047E+03  0.18147373781E+04  0.50400001928E-02 0. -1.
       -1    1    3    3    0  502  0.17850811378E+04  0.29550456259E+03 -0.63028062697E+03  0.19160092077E+04  0.50400001928E-02 0.  1.
</event>
<event>
 5   0  0.3848431E-07  0.2539595E+04  0.7818609E-02  0.8389014E-01
       -1   -1    0    0    0  501  0.00000000000E+00  0.00000000000E+00  0.12793171667E+04  0.12793171667E+04  0.50400001928E-02 0.  1.
        1   -1    0    0  501    0  0.00000000000E+00  0.00000000000E+00 -0.12603491145E+04  0.12603491145E+04  0.50400001928E-02 0. -1.
    10030    2    1    2    0    0  0.00000000000E+00  0.00000000000E+00  0.18968052161E+02  0.25396662812E+04  0.25395954467E+04 0.  0.
        2    1    3    3  502    0  0.40293284246E+03  0.98277206492E+03 -0.68637333116E+03  0.12646359780E+04  0.25500000920E-02 0. -1.
       -2    1    3    3    0  502 -0.40293284246E+03 -0.98277206492E+03  0.70534138332E+03  0.12750303032E+04  0.25500000920E-02 0.  1.
</event>
<event>
 5   0  0.3704306E-07  0.3716745E+04  0.7818609E-02  0.8064261E-01
        1   -1    0    0  501    0  0.00000000000E+00  0.00000000000E+00  0.16818374446E+04  0.16818374446E+04  0.50400001928E-02 0. -1.
       -1   -1    0    0    0  501  0.00000000000E+00  0.00000000000E+00 -0.20534375547E+04  0.20534375547E+04  0.50400001928E-02 0.  1.
    10030    2    1    2    0    0  0.00000000000E+00  0.00000000000E+00 -0.37160011009E+03  0.37352749993E+04  0.37167449036E+04 0.  0.
        3    1    3    3  502    0  0.13564291387E+04  0.12153269016E+04  0.18567593787E+03  0.18306815808E+04  0.10100000352E+00 0. -1.
       -3    1    3    3    0  502 -0.13564291387E+04 -0.12153269016E+04 -0.55727604796E+03  0.19045934185E+04  0.10100000352E+00 0.  1.
</event>
<event>
 5   0  0.3675819E-07  0.3314298E+04  0.7818609E-02  0.8159267E-01
       -1   -1    0    0    0  501  0.00000000000E+00  0.00000000000E+00  0.15878575904E+04  0.15878575904E+04  0.50400001928E-02 0. -1.
        1   -1    0    0  501    0  0.00000000000E+00  0.00000000000E+00 -0.17294636516E+04  0.17294636516E+04  0.50400001928E-02 0.  1.
    10030    2    1    2    0    0  0.00000000000E+00  0.00000000000E+00 -0.14160606122E+03  0.33173212420E+04  0.33142975042E+04 0.  0.
        5    1    3    3  502    0 -0.10737984142E+04 -0.11221881491E+03 -0.13291229285E+04  0.17123743592E+04  0.46999998093E+01 0.  1.
       -5    1    3    3    0  502  0.10737984142E+04  0.11221881491E+03  0.11875168673E+04  0.16049468829E+04  0.46999998093E+01 0. -1.
</event>
<event>
 5   0  0.3848431E-07  0.3086938E+04  0.7818609E-02  0.8219332E-01
        1   -1    0    0  501    0  0.00000000000E+00  0.00000000000E+00  0.16187163900E+04  0.16187163900E+04  0.50400001928E-02 0.  1.
       -1   -1    0    0    0  501  0.00000000000E+00  0.00000000000E+00 -0.14717192651E+04  0.14717192651E+04  0.50400001928E-02 0. -1.
    10030    2    1    2    0    0  0.00000000000E+00  0.00000000000E+00  0.14699712495E+03  0.30904356551E+04  0.30869377032E+04 0.  0.
        2    1    3    3  502    0 -0.33206397537E+03  0.11399366682E+04 -0.91381060415E+03  0.14982562904E+04  0.25500000920E-02 0.  1.
       -2    1    3    3    0  502  0.33206397537E+03 -0.11399366682E+04  0.10608077291E+04  0.15921793647E+04  0.25500000920E-02 0. -1.
</event>
<event>
 5   0  0.1092116E-06  0.3711948E+04  0.7818609E-02  0.8065319E-01
       -2   -1    0    0    0  501  0.00000000000E+00  0.00000000000E+00  0.13444360239E+04  0.13444360239E+04  0.25500000920E-02 0.  1.
        2   -1    0    0  501    0  0.00000000000E+00  0.00000000000E+00 -0.25621446359E+04  0.25621446359E+04  0.25500000920E-02 0. -1.
    10030    2    1    2    0    0  0.00000000000E+00  0.00000000000E+00 -0.12177086120E+04  0.39065806597E+04  0.37119480313E+04 0.  0.
        1    1    3    3  502    0  0.14208514602E+04 -0.11852135506E+04 -0.45601741405E+03  0.19056499979E+04  0.50400001928E-02 0.  1.
       -1    1    3    3    0  502 -0.14208514602E+04  0.11852135506E+04 -0.76169119796E+03  0.20009306619E+04  0.50400001928E-02 0. -1.
</event>
<event>
 5   0  0.1128166E-06  0.2610666E+04  0.7818609E-02  0.8364587E-01
        2   -1    0    0  501    0  0.00000000000E+00  0.00000000000E+00  0.16130690718E+04  0.16130690718E+04  0.25500000920E-02 0. -1.
       -2   -1    0    0    0  501  0.00000000000E+00  0.00000000000E+00 -0.10563061444E+04  0.10563061444E+04  0.25500000920E-02 0.  1.
    10030    2    1    2    0    0  0.00000000000E+00  0.00000000000E+00  0.55676292746E+03  0.26693752162E+04  0.26106664067E+04 0.  0.
        3    1    3    3  502    0 -0.10197463760E+04 -0.31845816540E+03  0.10453132733E+04  0.14946498333E+04  0.10100000352E+00 0. -1.
       -3    1    3    3    0  502  0.10197463760E+04  0.31845816540E+03 -0.48855034586E+03  0.11747253829E+04  0.10100000352E+00 0.  1.
</event>
<event>
 5   0  0.3682276E-07  0.2898821E+04  0.7818609E-02  0.8273228E-01
        1   -1    0    0  501    0  0.00000000000E+00  0.00000000000E+00  0.19530277615E+04  0.19530277615E+04  0.50400001928E-02 0.  1.
       -1   -1    0    0    0  501  0.00000000000E+00  0.00000000000E+00 -0.10756582603E+04  0.10756582603E+04  0.50400001928E-02 0. -1.
    10030    2    1    2    0    0  0.00000000000E+00  0.00000000000E+00  0.87736950117E+03  0.30286860219E+04  0.28988207563E+04 0.  0.
        1    1    3    3  502    0  0.16435333677E+03  0.19334327985E+03 -0.10522687326E+04  0.10824338912E+04  0.50400001928E-02 0. -1.
       -1    1    3    3    0  502 -0.16435333677E+03 -0.19334327985E+03  0.19296382337E+04  0.19462521307E+04  0.50400001928E-02 0.  1.
</event>
<event>
 5   0  0.3848431E-07  0.2894954E+04  0.7818609E-02  0.8274380E-01
        1   -1    0    0  501    0  0.00000000000E+00  0.00000000000E+00  0.17162982102E+04  0.17162982103E+04  0.50400001928E-02 0. -1.
       -1   -1    0    0    0  501  0.00000000000E+00  0.00000000000E+00 -0.12207609473E+04  0.12207609473E+04  0.50400001928E-02 0.  1.
    10030    2    1    2    0    0  0.00000000000E+00  0.00000000000E+00  0.49553726295E+03  0.29370591576E+04  0.28949541129E+04 0.  0.
        2    1    3    3  502    0 -0.96785346728E+03 -0.83205711082E+03  0.94043603611E+03  0.15853956313E+04  0.25500000920E-02 0. -1.
       -2    1    3    3    0  502  0.96785346728E+03  0.83205711082E+03 -0.44489877316E+03  0.13516635262E+04  0.25500000920E-02 0.  1.
</event>
<event>
 5   0  0.3682276E-07  0.3698142E+04  0.7818609E-02  0.8068374E-01
       -1   -1    0    0    0  501  0.00000000000E+00  0.00000000000E+00  0.13753370306E+04  0.13753370306E+04  0.50400001928E-02 0.  1.
        1   -1    0    0  501    0  0.00000000000E+00  0.00000000000E+00 -0.24859821778E+04  0.24859821778E+04  0.50400001928E-02 0. -1.
    10030    2    1    2    0    0  0.00000000000E+00  0.00000000000E+00 -0.11106451473E+04  0.38613192084E+04  0.36981418829E+04 0.  0.
        1    1    3    3  502    0 -0.67497870674E+03  0.79955143298E+03  0.10364735604E+04  0.14728055506E+04  0.50400001928E-02 0.  1.
       -1    1    3    3    0  502  0.67497870674E+03 -0.79955143298E+03 -0.21471187077E+04  0.23885136578E+04  0.50400001928E-02 0. -1.
</event>
<event>
 5   0  0.3764495E-07  0.3553281E+04  0.7818609E-02  0.8101278E-01
        1   -1    0    0  501    0  0.00000000000E+00  0.00000000000E+00  0.28538926158E+04  0.28538926158E+04  0.50400001928E-02 0.  1.
       -1   -1    0    0    0  501  0.00000000000E+00  0.00000000000E+00 -0.11060161407E+04  0.11060161407E+04  0.50400001928E-02 0. -1.
    10030    2    1    2    0    0  0.00000000000E+00  0.00000000000E+00  0.17478764751E+04  0.39599087566E+04  0.35532809047E+04 0.  0.
        4    1    3    3  502    0 -0.10718705084E+04  0.13566157337E+04  0.13295469300E+04  0.21810569199E+04  0.12699999809E+01 0.  1.
       -4    1    3    3    0  502  0.10718705084E+04 -0.13566157337E+04  0.41832954513E+03  0.17788518367E+04  0.12699999809E+01 0. -1.
</event>
<event>
 5   0  0.3675819E-07  0.3688249E+04  0.7818609E-02  0.8070571E-01
        1   -1    0    0  501    0  0.00000000000E+00  0.00000000000E+00  0.10017959887E+04  0.10017959887E+04  0.50400001928E-02 0.  1.
       -1   -1    0    0    0  501  0.00000000000E+00  0.00000000000E+00 -0.33946980569E+04  0.33946980569E+04  0.50400001928E-02 0. -1.
    10030    2    1    2    0    0  0.00000000000E+00  0.00000000000E+00 -0.23929020682E+04  0.43964940456E+04  0.36882488507E+04 0.  0.
        5    1    3    3  502    0  0.21940816190E+03 -0.11762747130E+04  0.47621911984E+03  0.12878543714E+04  0.46999998093E+01 0.  1.
       -5    1    3    3    0  502 -0.21940816190E+03  0.11762747130E+04 -0.28691211881E+04  0.31086396742E+04  0.46999998093E+01 0. -1.
</event>
<event>
 5   0  0.1092116E-06  0.3695942E+04  0.7818609E-02  0.8068862E-01
       -2   -1    0    0    0  501  0.00000000000E+00  0.00000000000E+00  0.28428698463E+04  0.28428698463E+04  0.25500000920E-02 0. -1.
        2   -1    0    0  501    0  0.00000000000E+00  0.00000000000E+00 -0.12012497399E+04  0.12012497399E+04  0.25500000920E-02 0.  1.
    10030    2    1    2    0    0  0.00000000000E+00  0.00000000000E+00  0.16416201065E+04  0.40441195862E+04  0.36959419169E+04 0.  0.
        1    1    3    3  502    0 -0.31816083159E+03  0.14062403266E+04 -0.44405470103E+03  0.15086161700E+04  0.50400001928E-02 0.  1.
       -1    1    3    3    0  502  0.31816083159E+03 -0.14062403266E+04  0.20856748075E+04  0.25355034162E+04  0.50400001928E-02 0. -1.
</event>
<event>
 5   0  0.3675819E-07  0.3688380E+04  0.7818609E-02  0.8070542E-01
        1   -1    0    0  501    0  0.00000000000E+00  0.00000000000E+00  0.16512980265E+04  0.16512980265E+04  0.50400001928E-02 0.  1.
       -1   -1    0    0    0  501  0.00000000000E+00  0.00000000000E+00 -0.20596137817E+04  0.20596137817E+04  0.50400001928E-02 0. -1.
    10030    2    1    2    0    0  0.00000000000E+00  0.00000000000E+00 -0.40831575518E+03  0.37109118082E+04  0.36883796839E+04 0.  0.
        5    1    3    3  502    0  0.46928643911E+03 -0.73521338121E+03 -0.18389674659E+04  0.20353358221E+04  0.46999998093E+01 0. -1.
       -5    1    3    3    0  502 -0.46928643911E+03  0.73521338121E+03  0.14306517108E+04  0.16755759861E+04  0.46999998093E+01 0.  1.
</event>
<event>
 5   0  0.1051123E-06  0.3953295E+04  0.7818609E-02  0.8014035E-01
       -2   -1    0    0    0  501  0.00000000000E+00  0.00000000000E+00  0.14872710283E+04  0.14872710283E+04  0.25500000920E-02 0. -1.
        2   -1    0    0  501    0  0.00000000000E+00  0.00000000000E+00 -0.26270501303E+04  0.26270501303E+04  0.25500000920E-02 0.  1.
    10030    2    1    2    0    0  0.00000000000E+00  0.00000000000E+00 -0.11397791019E+04  0.41143211586E+04  0.39532951060E+04 0.  0.
        2    1    3    3  502    0 -0.29333994722E+03 -0.10076153576E+04  0.11733906384E+04  0.15742244515E+04  0.25500000920E-02 0. -1.
       -2    1    3    3    0  502  0.29333994722E+03  0.10076153576E+04 -0.23131697404E+04  0.25400967071E+04  0.25500000920E-02 0.  1.
</event>
<event>
 5   0  0.3764495E-07  0.3771529E+04  0.7818609E-02  0.8052292E-01
        1   -1    0    0  501    0  0.00000000000E+00  0.00000000000E+00  0.22684158366E+04  0.22684158366E+04  0.50400001928E-02 0. -1.
       -1   -1    0    0    0  501  0.00000000000E+00  0.00000000000E+00 -0.15676612432E+04  0.15676612432E+04  0.50400001928E-02 0.  1.
    10030    2    1    2    0    0  0.00000000000E+00  0.00000000000E+00  0.70075459334E+03  0.38360770798E+04  0.37715289157E+04 0.  0.
        4    1    3    3  502    0  0.17693030375E+04  0.24282812140E+03  0.96630484205E+03  0.20305529779E+04  0.12699999809E+01 0. -1.
       -4    1    3    3    0  502 -0.17693030375E+04 -0.24282812140E+03 -0.26555024871E+03  0.18055241019E+04  0.12699999809E+01 0.  1.
</event>
<event>
 5   0  0.1128166E-06  0.3587564E+04  0.7818609E-02  0.8093346E-01
       -2   -1    0    0    0  501  0.00000000000E+00  0.00000000000E+00  0.12122252299E+04  0.12122252299E+04  0.25500000920E-02 0.  1.
        2   -1    0    0  501    0  0.00000000000E+00  0.00000000000E+00 -0.26543371199E+04  0.26543371199E+04  0.25500000920E-02 0. -1.
    10030    2    1    2    0    0  0.00000000000E+00  0.00000000000E+00 -0.14421118900E+04  0.38665623498E+04  0.35875643133E+04 0.  0.
        3    1    3    3  502    0 -0.58116137626E+03  0.47198103859E+03  0.10357853141E+04  0.12780320313E+04  0.10100000352E+00 0.  1.
       -3    1    3    3    0  502  0.58116137626E+03 -0.47198103859E+03 -0.24778972040E+04  0.25885303185E+04  0.10100000352E+00 0. -1.
</event>
<event>
 5   0  0.3682276E-07  0.3642307E+04  0.7818609E-02  0.8080869E-01
       -1   -1    0    0    0  501  0.00000000000E+00  0.00000000000E+00  0.27285871498E+04  0.27285871498E+04  0.50400001928E-02 0.  1.
        1   -1    0    0  501    0  0.00000000000E+00  0.00000000000E+00 -0.12155006428E+04  0.12155006429E+04  0.50400001928E-02 0. -1.
    10030    2    1    2    0    0  0.00000000000E+00  0.00000000000E+00  0.15130865069E+04  0.39440877926E+04  0.36423066508E+04 0.  0.
        1    1    3    3  502    0  0.16934037242E+04  0.39665553378E+03  0.17175410316E+03  0.17476988464E+04  0.50400001928E-02 0.  1.
       -1    1    3    3    0  502 -0.16934037242E+04 -0.39665553378E+03  0.13413324037E+04  0.21963889462E+04  0.50400001928E-02 0. -1.
</event>
<event>
 5   0  0.1128166E-06  0.3750678E+04  0.7818609E-02  0.8056823E-01
        2   -1    0    0  501    0  0.00000000000E+00  0.00000000000E+00  0.21197546086E+04  0.21197546086E+04  0.25500000920E-02 0. -1.
       -2   -1    0    0    0  501  0.00000000000E+00  0.00000000000E+00 -0.16591053948E+04  0.16591053948E+04  0.25500000920E-02 0.  1.
    10030    2    1    2    0    0  0.00000000000E+00  0.00000000000E+00  0.46064921372E+03  0.37788600034E+04  0.37506779690E+04 0.  0.
        3    1    3    3  502    0 -0.16431222635E+04  0.75369925989E+03 -0.27240658178E+03  0.18281462477E+04  0.10100000352E+00 0. -1.
       -3    1    3    3    0  502  0.16431222635E+04 -0.75369925989E+03  0.73305579550E+03  0.19507137557E+04  0.10100000352E+00 0.  1.
</event>
<event>
 5   0  0.3675819E-07  0.3909284E+04  0.7818609E-02  0.8023101E-01
        1   -1    0    0  501    0  0.00000000000E+00  0.00000000000E+00  0.22039356292E+04  0.22039356292E+04  0.50400001928E-02 0. -1.
       -1   -1    0    0    0  501  0.00000000000E+00  0.00000000000E+00 -0.17335468376E+04  0.17335468376E+04  0.50400001928E-02 0.  1.
    10030    2    1    2    0    0  0.00000000000E+00  0.00000000000E+00  0.47038879162E+03  0.39374824668E+04  0.39092841494E+04 0.  0.
        5    1    3    3  502    0 -0.30491458873E+03  0.18864731345E+04  0.64907170199E+03  0.20181848176E+04  0.46999998093E+01 0.  1.
       -5    1    3    3    0  502  0.30491458873E+03 -0.18864731345E+04 -0.17868291037E+03  0.19192976492E+04  0.46999998093E+01 0. -1.
</event>
<event>
 5   0  0.3675819E-07  0.3510844E+04  0.7818609E-02  0.8111225E-01
        1   -1    0    0  501    0  0.00000000000E+00  0.00000000000E+00  0.19514718153E+04  0.19514718153E+04  0.50400001928E-02 0.  1.
       -1   -1    0    0    0  501  0.00000000000E+00  0.00000000000E+00 -0.15790674335E+04  0.15790674335E+04  0.50400001928E-02 0. -1.
    10030    2    1    2    0    0  0.00000000000E+00  0.00000000000E+00  0.37240438175E+03  0.35305392488E+04  0.35108435402E+04 0.  0.
        5    1    3    3  502    0  0.57119360851E+03 -0.62088703588E+03 -0.13618234320E+04  0.16019825217E+04  0.46999998093E+01 0. -1.
       -5    1    3    3    0  502 -0.57119360851E+03  0.62088703588E+03  0.17342278138E+04  0.19285567271E+04  0.46999998093E+01 0.  1.
</event>
<event>
 5   0  0.3704306E-07  0.3675150E+04  0.7818609E-02  0.8073491E-01
        1   -1    0    0  501    0  0.00000000000E+00  0.00000000000E+00  0.18089121782E+04  0.18089121782E+04  0.50400001928E-02 0.  1.
       -1   -1    0    0    0  501  0.00000000000E+00  0.00000000000E+00 -0.18666916469E+04  0.18666916469E+04  0.50400001928E-02 0. -1.
    10030    2    1    2    0    0  0.00000000000E+00  0.00000000000E+00 -0.57779468727E+02  0.36756038251E+04  0.36751496584E+04 0.  0.
        3    1    3    3  502    0  0.32019196180E+03  0.63941543238E+03  0.16640410011E+04  0.18111895127E+04  0.10100000352E+00 0.  1.
       -3    1    3    3    0  502 -0.32019196180E+03 -0.63941543238E+03 -0.17218204698E+04  0.18644143123E+04  0.10100000352E+00 0. -1.
</event>
<event>
 5   0  0.1128530E-06  0.3781161E+04  0.7818609E-02  0.8050210E-01
       -2   -1    0    0    0  501  0.00000000000E+00  0.00000000000E+00  0.18159413300E+04  0.18159413300E+04  0.25500000920E-02 0. -1.
        2   -1    0    0  501    0  0.00000000000E+00  0.00000000000E+00 -0.19682879760E+04  0.19682879760E+04  0.25500000920E-02 0.  1.
    10030    2    1    2    0    0  0.00000000000E+00  0.00000000000E+00 -0.15234664597E+03  0.37842293061E+04  0.37811614539E+04 0.  0.
        5    1    3    3  502    0  0.92311139845E+03  0.16127461544E+04  0.27223063156E+03  0.18780885014E+04  0.46999998093E+01 0.  1.
       -5    1    3    3    0  502 -0.92311139845E+03 -0.16127461544E+04 -0.42457727754E+03  0.19061408046E+04  0.46999998093E+01 0. -1.
</event>
<event>
 5   0  0.1092116E-06  0.3670112E+04  0.7818609E-02  0.8074618E-01
       -2   -1    0    0    0  501  0.00000000000E+00  0.00000000000E+00  0.13107837090E+04  0.13107837090E+04  0.25500000920E-02 0. -1.
        2   -1    0    0  501    0  0.00000000000E+00  0.00000000000E+00 -0.25690205147E+04  0.25690205147E+04  0.25500000920E-02 0.  1.
    10030    2    1    2    0    0  0.00000000000E+00  0.00000000000E+00 -0.12582368056E+04  0.38798042237E+04  0.36701118450E+04 0.  0.
        1    1    3    3  502    0  0.45555808909E+03 -0.17058779298E+04 -0.10068028647E+03  0.17685274112E+04  0.50400001928E-02 0. -1.
       -1    1    3    3    0  502 -0.45555808909E+03  0.17058779298E+04 -0.11575565192E+04  0.21112768125E+04  0.50400001928E-02 0.  1.
</event>
<event>
 5   0  0.1092116E-06  0.3677496E+04  0.7818609E-02  0.8072967E-01
       -2   -1    0    0    0  501  0.00000000000E+00  0.00000000000E+00  0.25649509993E+04  0.25649509993E+04  0.25500000920E-02 0. -1.
        2   -1    0    0  501    0  0.00000000000E+00  0.00000000000E+00 -0.13181516425E+04  0.13181516425E+04  0.25500000920E-02 0.  1.
    10030    2    1    2    0    0  0.00000000000E+00  0.00000000000E+00  0.12467993568E+04  0.38831026418E+04  0.36774960898E+04 0.  0.
        1    1    3    3  502    0 -0.55793491296E+03  0.16132522724E+04 -0.98274113095E+02  0.17098339284E+04  0.50400001928E-02 0.  1.
       -1    1    3    3    0  502  0.55793491296E+03 -0.16132522724E+04  0.13450734699E+04  0.21732687134E+04  0.50400001928E-02 0. -1.
</event>
<event>
 5   0  0.3848431E-07  0.3673500E+04  0.7818609E-02  0.8073860E-01
        1   -1    0    0  501    0  0.00000000000E+00  0.00000000000E+00  0.24320569126E+04  0.24320569126E+04  0.50400001928E-02 0.  1.
       -1   -1    0    0    0  501  0.00000000000E+00  0.00000000000E+00 -0.13871596000E+04  0.13871596000E+04  0.50400001928E-02 0. -1.
    10030    2    1    2    0    0  0.00000000000E+00  0.00000000000E+00  0.10448973126E+04  0.38192165126E+04  0.36735002894E+04 0.  0.
        2    1    3    3  502    0  0.31610918806E+02 -0.10875783936E+04 -0.10160563502E+04  0.14886895308E+04  0.25500000920E-02 0. -1.
       -2    1    3    3    0  502 -0.31610918806E+02  0.10875783936E+04  0.20609536628E+04  0.23305269817E+04  0.25500000920E-02 0.  1.
</event>
<event>
 5   0  0.3848431E-07  0.3466431E+04  0.7818609E-02  0.8121792E-01
       -1   -1    0    0    0  501  0.00000000000E+00  0.00000000000E+00  0.18850542993E+04  0.18850542993E+04  0.50400001928E-02 0.  1.
        1   -1    0    0  501    0  0.00000000000E+00  0.00000000000E+00 -0.15936070342E+04  0.15936070343E+04  0.50400001928E-02 0. -1.
    10030    2    1    2    0    0  0.00000000000E+00  0.00000000000E+00  0.29144726508E+03  0.34786613336E+04  0.34664308973E+04 0.  0.
        2    1    3    3  502    0  0.15471042788E+04 -0.47289266250E+03 -0.47846502751E+03  0.16870352404E+04  0.25500000920E-02 0. -1.
       -2    1    3    3    0  502 -0.15471042788E+04  0.47289266250E+03  0.76991229260E+03  0.17916260932E+04  0.25500000920E-02 0.  1.
</event>
<event>
 5   0  0.1051123E-06  0.2442811E+04  0.7818609E-02  0.8423647E-01
        2   -1    0    0  501    0  0.00000000000E+00  0.00000000000E+00  0.18596208386E+04  0.18596208386E+04  0.25500000920E-02 0. -1.
       -2   -1    0    0    0  501  0.00000000000E+00  0.00000000000E+00 -0.80222367537E+03  0.80222367537E+03  0.25500000920E-02 0.  1.
    10030    2    1    2    0    0  0.00000000000E+00  0.00000000000E+00  0.10573971633E+04  0.26618445140E+04  0.24428113836E+04 0.  0.
        2    1    3    3  502    0 -0.65187307460E+03 -0.95781838557E+03  0.94998782342E+03  0.14982761527E+04  0.25500000920E-02 0. -1.
       -2    1    3    3    0  502  0.65187307460E+03  0.95781838557E+03  0.10740933985E+03  0.11635683613E+04  0.25500000920E-02 0.  1.
</event>
<event>
 5   0  0.3675819E-07  0.3283389E+04  0.7818609E-02  0.8167135E-01
        1   -1    0    0  501    0  0.00000000000E+00  0.00000000000E+00  0.21841366564E+04  0.21841366564E+04  0.50400001928E-02 0.  1.
       -1   -1    0    0    0  501  0.00000000000E+00  0.00000000000E+00 -0.12339710383E+04  0.12339710384E+04  0.50400001928E-02 0. -1.
    10030    2    1    2    0    0  0.00000000000E+00  0.00000000000E+00  0.95016561800E+03  0.34181076947E+04  0.32833893328E+04 0.  0.
        5    1    3    3  502    0  0.12577684503E+04  0.68946905717E+03 -0.35630239467E+03  0.14779453785E+04  0.46999998093E+01 0. -1.
       -5    1    3    3    0  502 -0.12577684503E+04 -0.68946905717E+03  0.13064680127E+04  0.19401623163E+04  0.46999998093E+01 0.  1.
</event>
<event>
 5   0  0.3764495E-07  0.3694629E+04  0.7818609E-02  0.8069153E-01
        1   -1    0    0  501    0  0.00000000000E+00  0.00000000000E+00  0.12657468951E+04  0.12657468951E+04  0.50400001928E-02 0. -1.
       -1   -1    0    0    0  501  0.00000000000E+00  0.00000000000E+00 -0.26960928009E+04  0.26960928009E+04  0.50400001928E-02 0.  1.
    10030    2    1    2    0    0  0.00000000000E+00  0.00000000000E+00 -0.14303459059E+04  0.39618396960E+04  0.36946291243E+04 0.  0.
        4    1    3    3  502    0 -0.18482921398E+03  0.14726298224E+03 -0.26798161510E+04  0.26902164300E+04  0.12699999809E+01 0.  1.
       -4    1    3    3    0  502  0.18482921398E+03 -0.14726298224E+03  0.12494702451E+04  0.12716232660E+04  0.12699999809E+01 0. -1.
</event>
<event>
 5   0  0.3704306E-07  0.3625582E+04  0.7818609E-02  0.8084657E-01
       -1   -1    0    0    0  501  0.00000000000E+00  0.00000000000E+00  0.22611890282E+04  0.22611890282E+04  0.50400001928E-02 0. -1.
        1   -1    0    0  501    0  0.00000000000E+00  0.00000000000E+00 -0.14533111456E+04  0.14533111456E+04  0.50400001928E-02 0.  1.
    10030    2    1    2    0    0  0.00000000000E+00  0.00000000000E+00  0.80787788265E+03  0.37145001738E+04  0.36255820040E+04 0.  0.
        3    1    3    3  502    0 -0.12891919102E+04  0.11561727055E+04  0.95324126604E+03  0.19767195116E+04  0.10100000352E+00 0.  1.
       -3    1    3    3    0  502  0.12891919102E+04 -0.11561727055E+04 -0.14536338338E+03  0.17377806621E+04  0.10100000352E+00 0. -1.
</event>
<event>
 5   0  0.3675819E-07  0.3679834E+04  0.7818609E-02  0.8072446E-01
       -1   -1    0    0    0  501  0.00000000000E+00  0.00000000000E+00  0.17335429610E+04  0.17335429610E+04  0.50400001928E-02 0.  1.
        1   -1    0    0  501    0  0.00000000000E+00  0.00000000000E+00 -0.19528186402E+04  0.19528186402E+04  0.50400001928E-02 0. -1.
    10030    2    1    2    0    0  0.00000000000E+00  0.00000000000E+00 -0.21927567922E+03  0.36863616012E+04  0.36798342396E+04 0.  0.
        5    1    3    3  502    0  0.18206688388E+04 -0.23158977781E+03  0.20222622046E+02  0.18354563167E+04  0.46999998093E+01 0.  1.
       -5    1    3    3    0  502 -0.18206688388E+04  0.23158977781E+03 -0.23949830127E+03  0.18509052845E+04  0.46999998093E+01 0. -1.
</event>
<event>
 5   0  0.1051123E-06  0.2496896E+04  0.7818609E-02  0.8404092E-01
       -2   -1    0    0    0  501  0.00000000000E+00  0.00000000000E+00  0.10371814271E+04  0.10371814271E+04  0.25500000920E-02 0.  1.
        2   -1    0    0  501    0  0.00000000000E+00  0.00000000000E+00 -0.15027477176E+04  0.15027477176E+04  0.25500000920E-02 0. -1.
    10030    2    1    2    0    0  0.00000000000E+00  0.00000000000E+00 -0.46556629051E+03  0.25399291447E+04  0.24968956905E+04 0.  0.
        2    1    3    3  502    0  0.59618006902E+03 -0.34908978325E+03 -0.12905741267E+04  0.14638565257E+04  0.25500000920E-02 0. -1.
       -2    1    3    3    0  502 -0.59618006902E+03  0.34908978325E+03  0.82500783616E+03  0.10760726189E+04  0.25500000920E-02 0.  1.
</event>
<event>
 5   0  0.1051123E-06  0.3767801E+04  0.7818609E-02  0.8053100E-01
       -2   -1    0    0    0  501  0.00000000000E+00  0.00000000000E+00  0.14317933180E+04  0.14317933180E+04  0.25500000920E-02 0. -1.
        2   -1    0    0  501    0  0.00000000000E+00  0.00000000000E+00 -0.24787663903E+04  0.24787663903E+04  0.25500000920E-02 0.  1.
    10030    2    1    2    0    0  0.00000000000E+00  0.00000000000E+00 -0.10469730723E+04  0.39105597082E+04  0.37678010321E+04 0.  0.
        2    1    3    3  502    0 -0.52053488669E+03 -0.17774261743E+04 -0.88134128564E+03  0.20510882075E+04  0.25500000920E-02 0. -1.
       -2    1    3    3    0  502  0.52053488669E+03  0.17774261743E+04 -0.16563178665E+03  0.18594715007E+04  0.25500000920E-02 0.  1.
</event>
<event>
 5   0  0.3682276E-07  0.3659006E+04  0.7818609E-02  0.8077108E-01
        1   -1    0    0  501    0  0.00000000000E+00  0.00000000000E+00  0.20807974467E+04  0.20807974467E+04  0.50400001928E-02 0.  1.
       -1   -1    0    0    0  501  0.00000000000E+00  0.00000000000E+00 -0.16085570438E+04  0.16085570438E+04  0.50400001928E-02 0. -1.
    10030    2    1    2    0    0  0.00000000000E+00  0.00000000000E+00  0.47224040291E+03  0.36893544905E+04  0.36590060889E+04 0.  0.
        1    1    3    3  502    0 -0.15379247101E+04  0.91896385759E+03  0.60983488741E+03  0.18925130318E+04  0.50400001928E-02 0.  1.
       -1    1    3    3    0  502  0.15379247101E+04 -0.91896385759E+03 -0.13759448449E+03  0.17968414587E+04  0.50400001928E-02 0. -1.
</event>
<event>
 5   0  0.3704306E-07  0.3694728E+04  0.7818609E-02  0.8069131E-01
        1   -1    0    0  501    0  0.00000000000E+00  0.00000000000E+00  0.23012864307E+04  0.23012864307E+04  0.50400001928E-02 0.  1.
       -1   -1    0    0    0  501  0.00000000000E+00  0.00000000000E+00 -0.14829766641E+04  0.14829766641E+04  0.50400001928E-02 0. -1.
    10030    2    1    2    0    0  0.00000000000E+00  0.00000000000E+00  0.81830976656E+03  0.37842630948E+04  0.36947281763E+04 0.  0.
        3    1    3    3  502    0  0.10080444959E+03  0.12769283467E+03 -0.14756253385E+04  0.14845663161E+04  0.10100000352E+00 0. -1.
       -3    1    3    3    0  502 -0.10080444959E+03 -0.12769283467E+03  0.22939351051E+04  0.22996967786E+04  0.10100000352E+00 0.  1.
</event>
<event>
 5   0  0.3682276E-07  0.3659477E+04  0.7818609E-02  0.8077002E-01
       -1   -1    0    0    0  501  0.00000000000E+00  0.00000000000E+00  0.22095932742E+04  0.22095932742E+04  0.50400001928E-02 0.  1.
        1   -1    0    0  501    0  0.00000000000E+00  0.00000000000E+00 -0.15151849745E+04  0.15151849745E+04  0.50400001928E-02 0. -1.
    10030    2    1    2    0    0  0.00000000000E+00  0.00000000000E+00  0.69440829970E+03  0.37247782486E+04  0.36594767542E+04 0.  0.
        1    1    3    3  502    0  0.12591499087E+04 -0.55695304002E+03 -0.87940925524E+03  0.16337122818E+04  0.50400001928E-02 0. -1.
       -1    1    3    3    0  502 -0.12591499087E+04  0.55695304002E+03  0.15738175549E+04  0.20910659668E+04  0.50400001928E-02 0.  1.
</event>
<event>
 5   0  0.3675819E-07  0.3679805E+04  0.7818609E-02  0.8072452E-01
        1   -1    0    0  501    0  0.00000000000E+00  0.00000000000E+00  0.12333866868E+04  0.12333866868E+04  0.50400001928E-02 0. -1.
       -1   -1    0    0    0  501  0.00000000000E+00  0.00000000000E+00 -0.27446707781E+04  0.27446707781E+04  0.50400001928E-02 0.  1.
    10030    2    1    2    0    0  0.00000000000E+00  0.00000000000E+00 -0.15112840913E+04  0.39780574649E+04  0.36798045586E+04 0.  0.
        5    1    3    3  502    0 -0.20020685049E+02 -0.16105950627E+04 -0.17169884597E+04  0.23542490830E+04  0.46999998093E+01 0.  1.
       -5    1    3    3    0  502  0.20020685049E+02  0.16105950627E+04  0.20570436848E+03  0.16238083819E+04  0.46999998093E+01 0. -1.
</event>
<event>
 5   0  0.1066907E-06  0.3742479E+04  0.7818609E-02  0.8058613E-01
       -2   -1    0    0    0  501  0.00000000000E+00  0.00000000000E+00  0.19277794680E+04  0.19277794680E+04  0.25500000920E-02 0.  1.
        2   -1    0    0  501    0  0.00000000000E+00  0.00000000000E+00 -0.18163573287E+04  0.18163573287E+04  0.25500000920E-02 0. -1.
    10030    2    1    2    0    0  0.00000000000E+00  0.00000000000E+00  0.11142213926E+03  0.37441367967E+04  0.37424785183E+04 0.  0.
        4    1    3    3  502    0 -0.18299084643E+04  0.39031767574E+03  0.80659563751E+02  0.18728108431E+04  0.12699999809E+01 0.  1.
       -4    1    3    3    0  502  0.18299084643E+04 -0.39031767574E+03  0.30762575505E+02  0.18713259537E+04  0.12699999809E+01 0. -1.
</event>
<event>
 5   0  0.1128166E-06  0.3504170E+04  0.7818609E-02  0.8112802E-01
        2   -1    0    0  501    0  0.00000000000E+00  0.00000000000E+00  0.20766364852E+04  0.20766364852E+04  0.25500000920E-02 0.  1.
       -2   -1    0    0    0  501  0.00000000000E+00  0.00000000000E+00 -0.14782565409E+04  0.14782565409E+04  0.25500000920E-02 0. -1.
    10030    2    1    2    0    0  0.00000000000E+00  0.00000000000E+00  0.59837994431E+03  0.35548930260E+04  0.35041697831E+04 0.  0.
        3    1    3    3  502    0 -0.92836305932E+03 -0.14569748160E+04  0.59524967271E+03  0.18272809766E+04  0.10100000352E+00 0.  1.
       -3    1    3    3    0  502  0.92836305932E+03  0.14569748160E+04  0.31302716028E+01  0.17276120494E+04  0.10100000352E+00 0. -1.
</event>
<event>
 5   0  0.1092116E-06  0.3574833E+04  0.7818609E-02  0.8096281E-01
       -2   -1    0    0    0  501  0.00000000000E+00  0.00000000000E+00  0.16791305474E+04  0.16791305474E+04  0.25500000920E-02 0. -1.
        2   -1    0    0  501    0  0.00000000000E+00  0.00000000000E+00 -0.19026856020E+04  0.19026856020E+04  0.25500000920E-02 0.  1.
    10030    2    1    2    0    0  0.00000000000E+00  0.00000000000E+00 -0.22355505459E+03  0.35818161495E+04  0.35748328725E+04 0.  0.
        1    1    3    3  502    0  0.61157277565E+03 -0.16792641326E+04 -0.81581810036E+02  0.17890234428E+04  0.50400001928E-02 0.  1.
       -1    1    3    3    0  502 -0.61157277565E+03  0.16792641326E+04 -0.14197324455E+03  0.17927927067E+04  0.50400001928E-02 0. -1.
</event>
<event>
 5   0  0.1128166E-06  0.3753331E+04  0.7818609E-02  0.8056245E-01
       -2   -1    0    0    0  501  0.00000000000E+00  0.00000000000E+00  0.22371474546E+04  0.22371474546E+04  0.25500000920E-02 0. -1.
        2   -1    0    0  501    0  0.00000000000E+00  0.00000000000E+00 -0.15742699750E+04  0.15742699750E+04  0.25500000920E-02 0.  1.
    10030    2    1    2    0    0  0.00000000000E+00  0.00000000000E+00  0.66287747958E+03  0.38114174297E+04  0.37533313563E+04 0.  0.
        3    1    3    3  502    0  0.10541531790E+04 -0.15292921193E+04  0.60373163416E+03  0.19530655921E+04  0.10100000352E+00 0.  1.
       -3    1    3    3    0  502 -0.10541531790E+04  0.15292921193E+04  0.59145845419E+02  0.18583518375E+04  0.10100000352E+00 0. -1.
</event>
<event>
 5   0  0.1128530E-06  0.3723059E+04  0.7818609E-02  0.8062871E-01
        2   -1    0    0  501    0  0.00000000000E+00  0.00000000000E+00  0.13713609141E+04  0.13713609141E+04  0.25500000920E-02 0.  1.
       -2   -1    0    0    0  501  0.00000000000E+00  0.00000000000E+00 -0.25269007741E+04  0.25269007741E+04  0.25500000920E-02 0. -1.
    10030    2    1    2    0    0  0.00000000000E+00  0.00000000000E+00 -0.11555398600E+04  0.38982616882E+04  0.37230594706E+04 0.  0.
        5    1    3    3  502    0  0.10460259423E+04 -0.40594655030E+03  0.97749394772E+03  0.14881126911E+04  0.46999998093E+01 0.  1.
       -5    1    3    3    0  502 -0.10460259423E+04  0.40594655030E+03 -0.21330338077E+04  0.24101489971E+04  0.46999998093E+01 0. -1.
</event>
<event>
 5   0  0.3490375E-07  0.3804480E+04  0.7818609E-02  0.8045194E-01
       -4   -1    0    0    0  501  0.00000000000E+00  0.00000000000E+00  0.21684639325E+04  0.21684643044E+04  0.12699999809E+01 0.  1.
        4   -1    0    0  501    0  0.00000000000E+00  0.00000000000E+00 -0.16686994278E+04  0.16686999111E+04  0.12699999809E+01 0. -1.
    10030    2    1    2    0    0  0.00000000000E+00  0.00000000000E+00  0.49976450472E+03  0.38371642155E+04  0.38044795513E+04 0.  0.
        5    1    3    3  502    0  0.15837722700E+04 -0.91254980946E+03  0.78110663509E+03  0.19877704655E+04  0.46999998093E+01 0.  1.
       -5    1    3    3    0  502 -0.15837722700E+04  0.91254980946E+03 -0.28134213037E+03  0.18493937500E+04  0.46999998093E+01 0. -1.
</event>
<event>
 5   0  0.3704306E-07  0.3789385E+04  0.7818609E-02  0.8048437E-01
       -1   -1    0    0    0  501  0.00000000000E+00  0.00000000000E+00  0.13897316303E+04  0.13897316303E+04  0.50400001928E-02 0.  1.
        1   -1    0    0  501    0  0.00000000000E+00  0.00000000000E+00 -0.25831319612E+04  0.25831319612E+04  0.50400001928E-02 0. -1.
    10030    2    1    2    0    0  0.00000000000E+00  0.00000000000E+00 -0.11934003309E+04  0.39728635915E+04  0.37893852756E+04 0.  0.
        3    1    3    3  502    0  0.17011622880E+04 -0.74043617701E+03 -0.19382707256E+03  0.18654135752E+04  0.10100000352E+00 0.  1.
       -3    1    3    3    0  502 -0.17011622880E+04  0.74043617701E+03 -0.99957325838E+03  0.21074500163E+04  0.10100000352E+00 0. -1.
</event>
<event>
 5   0  0.1066907E-06  0.3700865E+04  0.7818609E-02  0.8067770E-01
        2   -1    0    0  501    0  0.00000000000E+00  0.00000000000E+00  0.95914628167E+03  0.95914628168E+03  0.25500000920E-02 0. -1.
       -2   -1    0    0    0  501  0.00000000000E+00  0.00000000000E+00 -0.35699458003E+04  0.35699458003E+04  0.25500000920E-02 0.  1.
    10030    2    1    2    0    0  0.00000000000E+00  0.00000000000E+00 -0.26107995186E+04  0.45290920820E+04  0.37008648936E+04 0.  0.
        4    1    3    3  502    0  0.17665086920E+04 -0.13368257677E+03 -0.65130034269E+03  0.18874897986E+04  0.12699999809E+01 0. -1.
       -4    1    3    3    0  502 -0.17665086920E+04  0.13368257677E+03 -0.19594991759E+04  0.26416022834E+04  0.12699999809E+01 0.  1.
</event>
<event>
 5   0  0.3675819E-07  0.3450150E+04  0.7818609E-02  0.8125706E-01
       -1   -1    0    0    0  501  0.00000000000E+00  0.00000000000E+00  0.12243212108E+04  0.12243212108E+04  0.50400001928E-02 0.  1.
        1   -1    0    0  501    0  0.00000000000E+00  0.00000000000E+00 -0.24306401543E+04  0.24306401543E+04  0.50400001928E-02 0. -1.
    10030    2    1    2    0    0  0.00000000000E+00  0.00000000000E+00 -0.12063189435E+04  0.36549613652E+04  0.34501503137E+04 0.  0.
        5    1    3    3  502    0 -0.11001152902E+04 -0.12938764257E+04 -0.92359241992E+03  0.19332394846E+04  0.46999998093E+01 0.  1.
       -5    1    3    3    0  502  0.11001152902E+04  0.12938764257E+04 -0.28272652359E+03  0.17217218805E+04  0.46999998093E+01 0. -1.
</event>
<event>
 5   0  0.3848431E-07  0.3254496E+04  0.7818609E-02  0.8174571E-01
       -1   -1    0    0    0  501  0.00000000000E+00  0.00000000000E+00  0.16543319346E+04  0.16543319346E+04  0.50400001928E-02 0. -1.
        1   -1    0    0  501    0  0.00000000000E+00  0.00000000000E+00 -0.16006076072E+04  0.16006076072E+04  0.50400001928E-02 0.  1.
    10030    2    1    2    0    0  0.00000000000E+00  0.00000000000E+00  0.53724327414E+02  0.32549395418E+04  0.32544961388E+04 0.  0.
        2    1    3    3  502    0 -0.10485237644E+04 -0.43206926583E+03 -0.11402802678E+04  0.16082055292E+04  0.25500000920E-02 0.  1.
       -2    1    3    3    0  502  0.10485237644E+04  0.43206926583E+03  0.11940045952E+04  0.16467340126E+04  0.25500000920E-02 0. -1.
</event>
<event>
 5   0  0.3764495E-07  0.3678493E+04  0.7818609E-02  0.8072745E-01
       -1   -1    0    0    0  501  0.00000000000E+00  0.00000000000E+00  0.19172603165E+04  0.19172603165E+04  0.50400001928E-02 0. -1.
        1   -1    0    0  501    0  0.00000000000E+00  0.00000000000E+00 -0.17644072342E+04  0.17644072342E+04  0.50400001928E-02 0.  1.
    10030    2    1    2    0    0  0.00000000000E+00  0.00000000000E+00  0.15285308224E+03  0.36816675507E+04  0.36784931547E+04 0.  0.
        4    1    3    3  502    0  0.41174761690E+03 -0.13918965342E+04  0.12069650748E+04  0.18877707399E+04  0.12699999809E+01 0. -1.
       -4    1    3    3    0  502 -0.41174761690E+03  0.13918965342E+04 -0.10541119926E+04  0.17938968108E+04  0.12699999809E+01 0.  1.
</event>
<event>
 5   0  0.1066907E-06  0.4099693E+04  0.7818609E-02  0.7984732E-01
        2   -1    0    0  501    0  0.00000000000E+00  0.00000000000E+00  0.22512100732E+04  0.22512100732E+04  0.25500000920E-02 0.  1.
       -2   -1    0    0    0  501  0.00000000000E+00  0.00000000000E+00 -0.18664943748E+04  0.18664943748E+04  0.25500000920E-02 0. -1.
    10030    2    1    2    0    0  0.00000000000E+00  0.00000000000E+00  0.38471569841E+03  0.41177044480E+04  0.40996931291E+04 0.  0.
        4    1    3    3  502    0 -0.17432666309E+04 -0.87627236836E+02  0.12718878435E+04  0.21597123370E+04  0.12699999809E+01 0.  1.
       -4    1    3    3    0  502  0.17432666309E+04  0.87627236836E+02 -0.88717214509E+03  0.19579921111E+04  0.12699999809E+01 0. -1.
</event>
<event>
 5   0  0.3675819E-07  0.3370864E+04  0.7818609E-02  0.8145094E-01
       -1   -1    0    0    0  501  0.00000000000E+00  0.00000000000E+00  0.32268684262E+04  0.32268684262E+04  0.50400001928E-02 0. -1.
        1   -1    0    0  501    0  0.00000000000E+00  0.00000000000E+00 -0.88032137663E+03  0.88032137664E+03  0.50400001928E-02 0.  1.
    10030    2    1    2    0    0  0.00000000000E+00  0.00000000000E+00  0.23465470496E+04  0.41071898029E+04  0.33708641356E+04 0.  0.
        5    1    3    3  502    0  0.60341532996E+03  0.75102208852E+03  0.28582969447E+04  0.30162937111E+04  0.46999998093E+01 0. -1.
       -5    1    3    3    0  502 -0.60341532996E+03 -0.75102208852E+03 -0.51174989507E+03  0.10908960917E+04  0.46999998093E+01 0.  1.
</event>
<event>
 5   0  0.3490375E-07  0.3656397E+04  0.7818609E-02  0.8077694E-01
        3   -1    0    0  501    0  0.00000000000E+00  0.00000000000E+00  0.24961994501E+04  0.24961994522E+04  0.10100000352E+00 0.  1.
       -3   -1    0    0    0  501  0.00000000000E+00  0.00000000000E+00 -0.13389593363E+04  0.13389593401E+04  0.10100000352E+00 0. -1.
    10030    2    1    2    0    0  0.00000000000E+00  0.00000000000E+00  0.11572401139E+04  0.38351587922E+04  0.36563968987E+04 0.  0.
        2    1    3    3  502    0  0.80986214249E+03  0.82472563998E+03  0.20642945927E+04  0.23658743070E+04  0.25500000920E-02 0.  1.
       -2    1    3    3    0  502 -0.80986214249E+03 -0.82472563998E+03 -0.90705447880E+03  0.14692844853E+04  0.25500000920E-02 0. -1.
</event>
<event>
 5   0  0.1128530E-06  0.3714566E+04  0.7818609E-02  0.8064742E-01
        2   -1    0    0  501    0  0.00000000000E+00  0.00000000000E+00  0.25570634756E+04  0.25570634756E+04  0.25500000920E-02 0. -1.
       -2   -1    0    0    0  501  0.00000000000E+00  0.00000000000E+00 -0.13490080666E+04  0.13490080666E+04  0.25500000920E-02 0.  1.
    10030    2    1    2    0    0  0.00000000000E+00  0.00000000000E+00  0.12080554091E+04  0.39060715422E+04  0.37145655226E+04 0.  0.
        5    1    3    3  502    0  0.27957040992E+03  0.65180153737E+03  0.24090532467E+04  0.25112874176E+04  0.46999998093E+01 0. -1.
       -5    1    3    3    0  502 -0.27957040992E+03 -0.65180153737E+03 -0.12009978377E+04  0.13947841246E+04  0.46999998093E+01 0.  1.
</event>
<event>
 5   0  0.1092116E-06  0.2930080E+04  0.7818609E-02  0.8263984E-01
       -2   -1    0    0    0  501  0.00000000000E+00  0.00000000000E+00  0.13271643796E+04  0.13271643796E+04  0.25500000920E-02 0.  1.
        2   -1    0    0  501    0  0.00000000000E+00  0.00000000000E+00 -0.16172395228E+04  0.16172395228E+04  0.25500000920E-02 0. -1.
    10030    2    1    2    0    0  0.00000000000E+00  0.00000000000E+00 -0.29007514324E+03  0.29444039025E+04  0.29300803320E+04 0.  0.
        1    1    3    3  502    0  0.88009069012E+03  0.11668624884E+04 -0.43474223870E+02  0.14621961899E+04  0.50400001928E-02 0. -1.
       -1    1    3    3    0  502 -0.88009069012E+03 -0.11668624884E+04 -0.24660091937E+03  0.14822077125E+04  0.50400001928E-02 0.  1.
</event>
<event>
 5   0  0.6421595E-07  0.2324917E+04  0.7818609E-02  0.8468161E-01
        1   -1    0    0  501    0  0.00000000000E+00  0.00000000000E+00  0.11049213972E+04  0.11049213972E+04  0.50400001928E-02 0. -1.
       -1   -1    0    0    0  501  0.00000000000E+00  0.00000000000E+00 -0.12229918849E+04  0.12229918849E+04  0.50400001928E-02 0.  1.
    10030    2    1    2    0    0  0.00000000000E+00  0.00000000000E+00 -0.11807048774E+03  0.23279132821E+04  0.23249171188E+04 0.  0.
        2    1    3    3  502    0 -0.57286302444E+03 -0.45492208658E+03  0.84555790785E+03  0.11180761714E+04  0.25500000920E-02 0. -1.
       -2    1    3    3    0  502  0.57286302444E+03  0.45492208658E+03 -0.96362839559E+03  0.12098371107E+04  0.25500000920E-02 0.  1.
</event>
<event>
 5   0  0.3490375E-07  0.3453698E+04  0.7818609E-02  0.8124851E-01
       -4   -1    0    0    0  501  0.00000000000E+00  0.00000000000E+00  0.21358810994E+04  0.21358814770E+04  0.12699999809E+01 0. -1.
        4   -1    0    0  501    0  0.00000000000E+00  0.00000000000E+00 -0.13961477400E+04  0.13961483177E+04  0.12699999809E+01 0.  1.
    10030    2    1    2    0    0  0.00000000000E+00  0.00000000000E+00  0.73973335936E+03  0.35320297946E+04  0.34536978772E+04 0.  0.
        2    1    3    3  502    0 -0.39679323189E+03 -0.11453459471E+04  0.16276993913E+04  0.20294500526E+04  0.25500000920E-02 0. -1.
       -2    1    3    3    0  502  0.39679323189E+03  0.11453459471E+04 -0.88796603197E+03  0.15025797421E+04  0.25500000920E-02 0.  1.
</event>
<event>
 5   0  0.1092116E-06  0.3704333E+04  0.7818609E-02  0.8067002E-01
       -2   -1    0    0    0  501  0.00000000000E+00  0.00000000000E+00  0.24223399911E+04  0.24223399911E+04  0.25500000920E-02 0.  1.
        2   -1    0    0  501    0  0.00000000000E+00  0.00000000000E+00 -0.14162014559E+04  0.14162014559E+04  0.25500000920E-02 0. -1.
    10030    2    1    2    0    0  0.00000000000E+00  0.00000000000E+00  0.10061385353E+04  0.38385414470E+04  0.37043333662E+04 0.  0.
        1    1    3    3  502    0  0.38426339894E+02  0.70763103949E+03 -0.12701571310E+04  0.14544818353E+04  0.50400001928E-02 0. -1.
       -1    1    3    3    0  502 -0.38426339894E+02 -0.70763103949E+03  0.22762956663E+04  0.23840596117E+04  0.50400001928E-02 0.  1.
</event>
<event>
 5   0  0.1092116E-06  0.3387700E+04  0.7818609E-02  0.8140932E-01
        2   -1    0    0  501    0  0.00000000000E+00  0.00000000000E+00  0.25275167796E+04  0.25275167796E+04  0.25500000920E-02 0.  1.
       -2   -1    0    0    0  501  0.00000000000E+00  0.00000000000E+00 -0.11351565834E+04  0.11351565834E+04  0.25500000920E-02 0. -1.
    10030    2    1    2    0    0  0.00000000000E+00  0.00000000000E+00  0.13923601963E+04  0.36626733630E+04  0.33876996986E+04 0.  0.
        1    1    3    3  502    0  0.52214316853E+03 -0.12679093320E+04 -0.37897078980E+03  0.14226195634E+04  0.50400001928E-02 0. -1.
       -1    1    3    3    0  502 -0.52214316853E+03  0.12679093320E+04  0.17713309861E+04  0.22400537996E+04  0.50400001928E-02 0.  1.
</event>
<event>
 5   0  0.1128166E-06  0.3678380E+04  0.7818609E-02  0.8072770E-01
       -2   -1    0    0    0  501  0.00000000000E+00  0.00000000000E+00  0.21758658033E+04  0.21758658033E+04  0.25500000920E-02 0.  1.
        2   -1    0    0  501    0  0.00000000000E+00  0.00000000000E+00 -0.15546090178E+04  0.15546090178E+04  0.25500000920E-02 0. -1.
    10030    2    1    2    0    0  0.00000000000E+00  0.00000000000E+00  0.62125678553E+03  0.37304748211E+04  0.36783804041E+04 0.  0.
        3    1    3    3  502    0 -0.90906948259E+03  0.15895981038E+04  0.13676200215E+03  0.18362824705E+04  0.10100000352E+00 0. -1.
       -3    1    3    3    0  502  0.90906948259E+03 -0.15895981038E+04  0.48449478338E+03  0.18941923506E+04  0.10100000352E+00 0.  1.
</event>
<event>
 5   0  0.3682276E-07  0.3681969E+04  0.7818609E-02  0.8071969E-01
       -1   -1    0    0    0  501  0.00000000000E+00  0.00000000000E+00  0.12812275038E+04  0.12812275038E+04  0.50400001928E-02 0.  1.
        1   -1    0    0  501    0  0.00000000000E+00  0.00000000000E+00 -0.26452949063E+04  0.26452949064E+04  0.50400001928E-02 0. -1.
    10030    2    1    2    0    0  0.00000000000E+00  0.00000000000E+00 -0.13640674026E+04  0.39265224101E+04  0.36819693587E+04 0.  0.
        1    1    3    3  502    0 -0.10020329800E+04 -0.13152794921E+04  0.18116938363E+03  0.16633858785E+04  0.50400001928E-02 0.  1.
       -1    1    3    3    0  502  0.10020329800E+04  0.13152794921E+04 -0.15452367862E+04  0.22631365316E+04  0.50400001928E-02 0. -1.
</event>
<event>
 5   0  0.3764495E-07  0.3582058E+04  0.7818609E-02  0.8094614E-01
       -1   -1    0    0    0  501  0.00000000000E+00  0.00000000000E+00  0.15992866528E+04  0.15992866529E+04  0.50400001928E-02 0.  1.
        1   -1    0    0  501    0  0.00000000000E+00  0.00000000000E+00 -0.20057597475E+04  0.20057597475E+04  0.50400001928E-02 0. -1.
    10030    2    1    2    0    0  0.00000000000E+00  0.00000000000E+00 -0.40647309462E+03  0.36050464003E+04  0.35820579520E+04 0.  0.
        4    1    3    3  502    0  0.46483963667E+02 -0.56517683810E+03 -0.19130206663E+04  0.19953033103E+04  0.12699999809E+01 0. -1.
       -4    1    3    3    0  502 -0.46483963667E+02  0.56517683810E+03  0.15065475717E+04  0.16097430901E+04  0.12699999809E+01 0.  1.
</event>
<event>
 5   0  0.3704306E-07  0.3734618E+04  0.7818609E-02  0.8060333E-01
       -1   -1    0    0    0  501  0.00000000000E+00  0.00000000000E+00  0.12517338774E+04  0.12517338774E+04  0.50400001928E-02 0.  1.
        1   -1    0    0  501    0  0.00000000000E+00  0.00000000000E+00 -0.27856098833E+04  0.27856098834E+04  0.50400001928E-02 0. -1.
    10030    2    1    2    0    0  0.00000000000E+00  0.00000000000E+00 -0.15338760060E+04  0.40373437607E+04  0.37346176566E+04 0.  0.
        3    1    3    3  502    0 -0.10721336203E+04 -0.10099022020E+04  0.47391356468E+03  0.15472449820E+04  0.10100000352E+00 0.  1.
       -3    1    3    3    0  502  0.10721336203E+04  0.10099022020E+04 -0.20077895706E+04  0.24900987787E+04  0.10100000352E+00 0. -1.
</event>
<event>
 5   0  0.1128530E-06  0.3620262E+04  0.7818609E-02  0.8085866E-01
        2   -1    0    0  501    0  0.00000000000E+00  0.00000000000E+00  0.19168890832E+04  0.19168890832E+04  0.25500000920E-02 0.  1.
       -2   -1    0    0    0  501  0.00000000000E+00  0.00000000000E+00 -0.17093187725E+04  0.17093187725E+04  0.25500000920E-02 0. -1.
    10030    2    1    2    0    0  0.00000000000E+00  0.00000000000E+00  0.20757031066E+03  0.36262078557E+04  0.36202621422E+04 0.  0.
        5    1    3    3  502    0 -0.97853514310E+03  0.14259535500E+04  0.63915137065E+03  0.18437492014E+04  0.46999998093E+01 0.  1.
       -5    1    3    3    0  502  0.97853514310E+03 -0.14259535500E+04 -0.43158105999E+03  0.17824586543E+04  0.46999998093E+01 0. -1.
</event>
<event>
 5   0  0.3704306E-07  0.3402625E+04  0.7818609E-02  0.8137262E-01
        1   -1    0    0  501    0  0.00000000000E+00  0.00000000000E+00  0.11141106218E+04  0.11141106218E+04  0.50400001928E-02 0.  1.
       -1   -1    0    0    0  501  0.00000000000E+00  0.00000000000E+00 -0.25980049247E+04  0.25980049247E+04  0.50400001928E-02 0. -1.
    10030    2    1    2    0    0  0.00000000000E+00  0.00000000000E+00 -0.14838943029E+04  0.37121155465E+04  0.34026253876E+04 0.  0.
        3    1    3    3  502    0 -0.31151077422E+03 -0.16661349379E+04 -0.58227841057E+03  0.17922312215E+04  0.10100000352E+00 0.  1.
       -3    1    3    3    0  502  0.31151077422E+03  0.16661349379E+04 -0.90161589233E+03  0.19198843250E+04  0.10100000352E+00 0. -1.
</event>
<event>
 5   0  0.1128530E-06  0.3631067E+04  0.7818609E-02  0.8083412E-01
        2   -1    0    0  501    0  0.00000000000E+00  0.00000000000E+00  0.23206492924E+04  0.23206492924E+04  0.25500000920E-02 0.  1.
       -2   -1    0    0    0  501  0.00000000000E+00  0.00000000000E+00 -0.14203617537E+04  0.14203617537E+04  0.25500000920E-02 0. -1.
    10030    2    1    2    0    0  0.00000000000E+00  0.00000000000E+00  0.90028753867E+03  0.37410110461E+04  0.36310667847E+04 0.  0.
        5    1    3    3  502    0  0.11835688142E+04  0.86228329947E+03 -0.65555791446E+03  0.16044145024E+04  0.46999998093E+01 0. -1.
       -5    1    3    3    0  502 -0.11835688142E+04 -0.86228329947E+03  0.15558454531E+04  0.21365965437E+04  0.46999998093E+01 0.  1.
</event>
<event>
 5   0  0.1092116E-06  0.3702946E+04  0.7818609E-02  0.8067309E-01
        2   -1    0    0  501    0  0.00000000000E+00  0.00000000000E+00  0.19904866235E+04  0.19904866235E+04  0.25500000920E-02 0.  1.
       -2   -1    0    0    0  501  0.00000000000E+00  0.00000000000E+00 -0.17221679708E+04  0.17221679708E+04  0.25500000920E-02 0. -1.
    10030    2    1    2    0    0  0.00000000000E+00  0.00000000000E+00  0.26831865276E+03  0.37126545943E+04  0.37029460214E+04 0.  0.
        1    1    3    3  502    0  0.52315760901E+03  0.15890839595E+04  0.92937852767E+03  0.19137988823E+04  0.50400001928E-02 0.  1.
       -1    1    3    3    0  502 -0.52315760901E+03 -0.15890839595E+04 -0.66105987492E+03  0.17988557120E+04  0.50400001928E-02 0. -1.
</event>
<event>
 5   0  0.1066907E-06  0.3779728E+04  0.7818609E-02  0.8050519E-01
        2   -1    0    0  501    0  0.00000000000E+00  0.00000000000E+00  0.20597168444E+04  0.20597168444E+04  0.25500000920E-02 0.  1.
       -2   -1    0    0    0  501  0.00000000000E+00  0.00000000000E+00 -0.17340179415E+04  0.17340179415E+04  0.25500000920E-02 0. -1.
    10030    2    1    2    0    0  0.00000000000E+00  0.00000000000E+00  0.32569890291E+03  0.37937347858E+04  0.37797280127E+04 0.  0.
        4    1    3    3  502    0  0.15319743499E+03 -0.53266636621E+03  0.19763048022E+04  0.20525557717E+04  0.12699999809E+01 0.  1.
       -4    1    3    3    0  502 -0.15319743499E+03  0.53266636621E+03 -0.16506058993E+04  0.17411790142E+04  0.12699999809E+01 0. -1.
</event>
<event>
 5   0  0.1128530E-06  0.3687156E+04  0.7818609E-02  0.8070814E-01
       -2   -1    0    0    0  501  0.00000000000E+00  0.00000000000E+00  0.25405498282E+04  0.25405498282E+04  0.25500000920E-02 0. -1.
        2   -1    0    0  501    0  0.00000000000E+00  0.00000000000E+00 -0.13378125695E+04  0.13378125695E+04  0.25500000920E-02 0.  1.
    10030    2    1    2    0    0  0.00000000000E+00  0.00000000000E+00  0.12027372587E+04  0.38783623977E+04  0.36871558110E+04 0.  0.
        5    1    3    3  502    0  0.26661334948E+03 -0.10157823280E+04  0.21951534688E+04  0.24334373338E+04  0.46999998093E+01 0. -1.
       -5    1    3    3    0  502 -0.26661334948E+03  0.10157823280E+04 -0.99241621018E+03  0.14449250639E+04  0.46999998093E+01 0.  1.
</event>
<event>
 5   0  0.3764495E-07  0.2939610E+04  0.7818609E-02  0.8261189E-01
       -1   -1    0    0    0  501  0.00000000000E+00  0.00000000000E+00  0.16128295835E+04  0.16128295835E+04  0.50400001928E-02 0.  1.
        1   -1    0    0  501    0  0.00000000000E+00  0.00000000000E+00 -0.13394641526E+04  0.13394641526E+04  0.50400001928E-02 0. -1.
    10030    2    1    2    0    0  0.00000000000E+00  0.00000000000E+00  0.27336543084E+03  0.29522937361E+04  0.29396104581E+04 0.  0.
        4    1    3    3  502    0  0.97708334809E+03  0.78143223474E+03  0.91137170819E+03  0.15478786160E+04  0.12699999809E+01 0.  1.
       -4    1    3    3    0  502 -0.97708334809E+03 -0.78143223474E+03 -0.63800627735E+03  0.14044151201E+04  0.12699999809E+01 0. -1.
</event>
<event>
 5   0  0.1092116E-06  0.3758039E+04  0.7818609E-02  0.8055220E-01
        2   -1    0    0  501    0  0.00000000000E+00  0.00000000000E+00  0.24038013519E+04  0.24038013519E+04  0.25500000920E-02 0. -1.
       -2   -1    0    0    0  501  0.00000000000E+00  0.00000000000E+00 -0.14688044782E+04  0.14688044782E+04  0.25500000920E-02 0.  1.
    10030    2    1    2    0    0  0.00000000000E+00  0.00000000000E+00  0.93499687363E+03  0.38726058301E+04  0.37580389516E+04 0.  0.
        1    1    3    3  502    0  0.10878702968E+04  0.15315529894E+04  0.42630673014E+03  0.19263576434E+04  0.50400001928E-02 0.  1.
       -1    1    3    3    0  502 -0.10878702968E+04 -0.15315529894E+04  0.50869014349E+03  0.19462481867E+04  0.50400001928E-02 0. -1.
</event>
<event>
 5   0  0.3682276E-07  0.3789408E+04  0.7818609E-02  0.8048432E-01
       -1   -1    0    0    0  501  0.00000000000E+00  0.00000000000E+00  0.12844369832E+04  0.12844369832E+04  0.50400001928E-02 0. -1.
        1   -1    0    0  501    0  0.00000000000E+00  0.00000000000E+00 -0.27949236298E+04  0.27949236298E+04  0.50400001928E-02 0.  1.
    10030    2    1    2    0    0  0.00000000000E+00  0.00000000000E+00 -0.15104866467E+04  0.40793606130E+04  0.37894080146E+04 0.  0.
        1    1    3    3  502    0 -0.71318071914E+03 -0.16121540909E+04 -0.15028108348E+04  0.23164861226E+04  0.50400001928E-02 0.  1.
       -1    1    3    3    0  502  0.71318071914E+03  0.16121540909E+04 -0.76758118059E+01  0.17628744904E+04  0.50400001928E-02 0. -1.
</event>
<event>
 5   0  0.3764495E-07  0.3791840E+04  0.7818609E-02  0.8047908E-01
        1   -1    0    0  501    0  0.00000000000E+00  0.00000000000E+00  0.28974618659E+04  0.28974618659E+04  0.50400001928E-02 0.  1.
       -1   -1    0    0    0  501  0.00000000000E+00  0.00000000000E+00 -0.12405731518E+04  0.12405731518E+04  0.50400001928E-02 0. -1.
    10030    2    1    2    0    0  0.00000000000E+00  0.00000000000E+00  0.16568887141E+04  0.41380350178E+04  0.37918403971E+04 0.  0.
        4    1    3    3  502    0  0.68335070151E+03  0.17559162094E+04  0.10581412627E+04  0.21609892319E+04  0.12699999809E+01 0.  1.
       -4    1    3    3    0  502 -0.68335070151E+03 -0.17559162094E+04  0.59874745141E+03  0.19770457858E+04  0.12699999809E+01 0. -1.
</event>
<event>
 5   0  0.3848431E-07  0.3492002E+04  0.7818609E-02  0.8115688E-01
        1   -1    0    0  501    0  0.00000000000E+00  0.00000000000E+00  0.30061734823E+04  0.30061734823E+04  0.50400001928E-02 0.  1.
       -1   -1    0    0    0  501  0.00000000000E+00  0.00000000000E+00 -0.10140864524E+04  0.10140864525E+04  0.50400001928E-02 0. -1.
    10030    2    1    2    0    0  0.00000000000E+00  0.00000000000E+00  0.19920870298E+04  0.40202599347E+04  0.34920021776E+04 0.  0.
        2    1    3    3  502    0 -0.83772674538E+03 -0.75224199601E+03 -0.54032433455E+03  0.12488412657E+04  0.25500000920E-02 0. -1.
       -2    1    3    3    0  502  0.83772674538E+03  0.75224199601E+03  0.25324113644E+04  0.27714186690E+04  0.25500000920E-02 0.  1.
</event>
<event>
 5   0  0.3682276E-07  0.2302777E+04  0.7818609E-02  0.8476827E-01
       -1   -1    0    0    0  501  0.00000000000E+00  0.00000000000E+00  0.13077390763E+04  0.13077390763E+04  0.50400001928E-02 0.  1.
        1   -1    0    0  501    0  0.00000000000E+00  0.00000000000E+00 -0.10137305898E+04  0.10137305898E+04  0.50400001928E-02 0. -1.
    10030    2    1    2    0    0  0.00000000000E+00  0.00000000000E+00  0.29400848648E+03  0.23214696661E+04  0.23027766762E+04 0.  0.
        1    1    3    3  502    0  0.57587772388E+03  0.98175669921E+03 -0.28227751538E+02  0.11385421271E+04  0.50400001928E-02 0. -1.
       -1    1    3    3    0  502 -0.57587772388E+03 -0.98175669921E+03  0.32223623802E+03  0.11829275390E+04  0.50400001928E-02 0.  1.
</event>
<event>
 5   0  0.3682276E-07  0.3766002E+04  0.7818609E-02  0.8053490E-01
       -1   -1    0    0    0  501  0.00000000000E+00  0.00000000000E+00  0.15053912605E+04  0.15053912605E+04  0.50400001928E-02 0.  1.
        1   -1    0    0  501    0  0.00000000000E+00  0.00000000000E+00 -0.23553303340E+04  0.23553303340E+04  0.50400001928E-02 0. -1.
    10030    2    1    2    0    0  0.00000000000E+00  0.00000000000E+00 -0.84993907351E+03  0.38607215945E+04  0.37660024962E+04 0.  0.
        1    1    3    3  502    0 -0.59396317720E+03  0.25298020416E+03  0.13883898872E+04  0.15311491496E+04  0.50400001928E-02 0.  1.
       -1    1    3    3    0  502  0.59396317720E+03 -0.25298020416E+03 -0.22383289607E+04  0.23295724449E+04  0.50400001928E-02 0. -1.
</event>
<event>
 5   0  0.1066907E-06  0.3671702E+04  0.7818609E-02  0.8074262E-01
       -2   -1    0    0    0  501  0.00000000000E+00  0.00000000000E+00  0.15150321215E+04  0.15150321216E+04  0.25500000920E-02 0. -1.
        2   -1    0    0  501    0  0.00000000000E+00  0.00000000000E+00 -0.22246051385E+04  0.22246051385E+04  0.25500000920E-02 0.  1.
    10030    2    1    2    0    0  0.00000000000E+00  0.00000000000E+00 -0.70957301693E+03  0.37396372600E+04  0.36717016451E+04 0.  0.
        4    1    3    3  502    0  0.11332386981E+03 -0.63465483893E+03  0.13959471495E+04  0.15376277577E+04  0.12699999809E+01 0. -1.
       -4    1    3    3    0  502 -0.11332386981E+03  0.63465483893E+03 -0.21055201665E+04  0.22020095023E+04  0.12699999809E+01 0.  1.
</event>
<event>
 5   0  0.1051123E-06  0.3890130E+04  0.7818609E-02  0.8027085E-01
        2   -1    0    0  501    0  0.00000000000E+00  0.00000000000E+00  0.22886756636E+04  0.22886756636E+04  0.25500000920E-02 0. -1.
       -2   -1    0    0    0  501  0.00000000000E+00  0.00000000000E+00 -0.16530422943E+04  0.16530422943E+04  0.25500000920E-02 0.  1.
    10030    2    1    2    0    0  0.00000000000E+00  0.00000000000E+00  0.63563336930E+03  0.39417179579E+04  0.38901299052E+04 0.  0.
        2    1    3    3  502    0 -0.45110908130E+03 -0.17786149148E+04 -0.33595849622E+03  0.18654325315E+04  0.25500000920E-02 0.  1.
       -2    1    3    3    0  502  0.45110908130E+03  0.17786149148E+04  0.97159186552E+03  0.20762854263E+04  0.25500000920E-02 0. -1.
</event>
<event>
 5   0  0.3675819E-07  0.3715739E+04  0.7818609E-02  0.8064483E-01
       -1   -1    0    0    0  501  0.00000000000E+00  0.00000000000E+00  0.12309430869E+04  0.12309430869E+04  0.50400001928E-02 0.  1.
        1   -1    0    0  501    0  0.00000000000E+00  0.00000000000E+00 -0.28040932426E+04  0.28040932426E+04  0.50400001928E-02 0. -1.
    10030    2    1    2    0    0  0.00000000000E+00  0.00000000000E+00 -0.15731501558E+04  0.40350363295E+04  0.37157390608E+04 0.  0.
        5    1    3    3  502    0  0.15363619818E+04 -0.84834939189E+03 -0.14485052874E+04  0.22755866249E+04  0.46999998093E+01 0. -1.
       -5    1    3    3    0  502 -0.15363619818E+04  0.84834939189E+03 -0.12464486840E+03  0.17594497046E+04  0.46999998093E+01 0.  1.
</event>
<event>
 5   0  0.1051123E-06  0.3678636E+04  0.7818609E-02  0.8072713E-01
        2   -1    0    0  501    0  0.00000000000E+00  0.00000000000E+00  0.20269173317E+04  0.20269173317E+04  0.25500000920E-02 0.  1.
       -2   -1    0    0    0  501  0.00000000000E+00  0.00000000000E+00 -0.16690813094E+04  0.16690813094E+04  0.25500000920E-02 0. -1.
    10030    2    1    2    0    0  0.00000000000E+00  0.00000000000E+00  0.35783602232E+03  0.36959986410E+04  0.36786355263E+04 0.  0.
        2    1    3    3  502    0 -0.48424698077E+03  0.69956994929E+03  0.18173192363E+04  0.20066246433E+04  0.25500000920E-02 0.  1.
       -2    1    3    3    0  502  0.48424698077E+03 -0.69956994929E+03 -0.14594832140E+04  0.16893739977E+04  0.25500000920E-02 0. -1.
</event>
<event>
 5   0  0.3490375E-07  0.3606934E+04  0.7818609E-02  0.8088905E-01
       -3   -1    0    0    0  501  0.00000000000E+00  0.00000000000E+00  0.18110722006E+04  0.18110722034E+04  0.10100000352E+00 0. -1.
        3   -1    0    0  501    0  0.00000000000E+00  0.00000000000E+00 -0.17958937609E+04  0.17958937637E+04  0.10100000352E+00 0.  1.
    10030    2    1    2    0    0  0.00000000000E+00  0.00000000000E+00  0.15178439673E+02  0.36069659671E+04  0.36069340308E+04 0.  0.
        5    1    3    3  502    0 -0.25234745424E+03 -0.16332670705E+04  0.72955864766E+03  0.18065210963E+04  0.46999998093E+01 0. -1.
       -5    1    3    3    0  502  0.25234745424E+03  0.16332670705E+04 -0.71438020799E+03  0.18004448708E+04  0.46999998093E+01 0.  1.
</event>
<event>
 5   0  0.1092116E-06  0.3654851E+04  0.7818609E-02  0.8078042E-01
       -2   -1    0    0    0  501  0.00000000000E+00  0.00000000000E+00  0.17473830727E+04  0.17473830727E+04  0.25500000920E-02 0. -1.
        2   -1    0    0  501    0  0.00000000000E+00  0.00000000000E+00 -0.19111341483E+04  0.19111341483E+04  0.25500000920E-02 0.  1.
    10030    2    1    2    0    0  0.00000000000E+00  0.00000000000E+00 -0.16375107556E+03  0.36585172210E+04  0.36548507277E+04 0.  0.
        1    1    3    3  502    0  0.15360720951E+04 -0.84305771854E+03  0.43750879759E+03  0.18060115576E+04  0.50400001928E-02 0. -1.
       -1    1    3    3    0  502 -0.15360720951E+04  0.84305771854E+03 -0.60125987315E+03  0.18525056635E+04  0.50400001928E-02 0.  1.
</event>
<event>
 5   0  0.1066907E-06  0.3488256E+04  0.7818609E-02  0.8116579E-01
       -2   -1    0    0    0  501  0.00000000000E+00  0.00000000000E+00  0.12164751355E+04  0.12164751355E+04  0.25500000920E-02 0.  1.
        2   -1    0    0  501    0  0.00000000000E+00  0.00000000000E+00 -0.25006535347E+04  0.25006535347E+04  0.25500000920E-02 0. -1.
    10030    2    1    2    0    0  0.00000000000E+00  0.00000000000E+00 -0.12841783992E+04  0.37171286701E+04  0.34882562104E+04 0.  0.
        4    1    3    3  502    0 -0.89589220705E+03 -0.11386811676E+04 -0.16767562489E+04  0.22160168725E+04  0.12699999809E+01 0. -1.
       -4    1    3    3    0  502  0.89589220705E+03  0.11386811676E+04  0.39257784965E+03  0.15011117977E+04  0.12699999809E+01 0.  1.
</event>
<event>
 5   0  0.3675819E-07  0.3649598E+04  0.7818609E-02  0.8079224E-01
        1   -1    0    0  501    0  0.00000000000E+00  0.00000000000E+00  0.13498224302E+04  0.13498224302E+04  0.50400001928E-02 0. -1.
       -1   -1    0    0    0  501  0.00000000000E+00  0.00000000000E+00 -0.24669111546E+04  0.24669111546E+04  0.50400001928E-02 0.  1.
    10030    2    1    2    0    0  0.00000000000E+00  0.00000000000E+00 -0.11170887244E+04  0.38167335847E+04  0.36495983394E+04 0.  0.
        5    1    3    3  502    0  0.12221046318E+04 -0.26885131161E+01  0.85862354331E+03  0.14935874391E+04  0.46999998093E+01 0. -1.
       -5    1    3    3    0  502 -0.12221046318E+04  0.26885131161E+01 -0.19757122677E+04  0.23231461456E+04  0.46999998093E+01 0.  1.
</event>
<event>
 5   0  0.1066907E-06  0.3480206E+04  0.7818609E-02  0.8118497E-01
       -2   -1    0    0    0  501  0.00000000000E+00  0.00000000000E+00  0.16014544134E+04  0.16014544134E+04  0.25500000920E-02 0.  1.
        2   -1    0    0  501    0  0.00000000000E+00  0.00000000000E+00 -0.18907552519E+04  0.18907552519E+04  0.25500000920E-02 0. -1.
    10030    2    1    2    0    0  0.00000000000E+00  0.00000000000E+00 -0.28930083849E+03  0.34922096652E+04  0.34802059380E+04 0.  0.
        4    1    3    3  502    0  0.40622063022E+03  0.90392972419E+03 -0.15799168743E+04  0.18650048497E+04  0.12699999809E+01 0. -1.
       -4    1    3    3    0  502 -0.40622063022E+03 -0.90392972419E+03  0.12906160359E+04  0.16272048155E+04  0.12699999809E+01 0.  1.
</event>
<event>
 5   0  0.1128530E-06  0.3052488E+04  0.7818609E-02  0.8228900E-01
        2   -1    0    0  501    0  0.00000000000E+00  0.00000000000E+00  0.18513957855E+04  0.18513957855E+04  0.25500000920E-02 0.  1.
       -2   -1    0    0    0  501  0.00000000000E+00  0.00000000000E+00 -0.12581968089E+04  0.12581968089E+04  0.25500000920E-02 0. -1.
    10030    2    1    2    0    0  0.00000000000E+00  0.00000000000E+00  0.59319897652E+03  0.31095925944E+04  0.30524876867E+04 0.  0.
        5    1    3    3  502    0  0.87571024620E+03  0.58600929573E+03 -0.82819533307E+03  0.13402257010E+04  0.46999998093E+01 0. -1.
       -5    1    3    3    0  502 -0.87571024620E+03 -0.58600929573E+03  0.14213943096E+04  0.17693668934E+04  0.46999998093E+01 0.  1.
</event>
<event>
 5   0  0.1092116E-06  0.3654589E+04  0.7818609E-02  0.8078101E-01
        2   -1    0    0  501    0  0.00000000000E+00  0.00000000000E+00  0.19900307306E+04  0.19900307306E+04  0.25500000920E-02 0. -1.
       -2   -1    0    0    0  501  0.00000000000E+00  0.00000000000E+00 -0.16778665530E+04  0.16778665530E+04  0.25500000920E-02 0.  1.
    10030    2    1    2    0    0  0.00000000000E+00  0.00000000000E+00  0.31216417758E+03  0.36678972837E+04  0.36545894448E+04 0.  0.
        1    1    3    3  502    0 -0.17813006964E+04  0.97499718404E+02  0.55308238483E+03  0.18677361940E+04  0.50400001928E-02 0. -1.
       -1    1    3    3    0  502  0.17813006964E+04 -0.97499718404E+02 -0.24091820725E+03  0.18001610896E+04  0.50400001928E-02 0.  1.
</event>
<event>
 5   0  0.3764495E-07  0.3757548E+04  0.7818609E-02  0.8055327E-01
       -1   -1    0    0    0  501  0.00000000000E+00  0.00000000000E+00  0.13632461033E+04  0.13632461033E+04  0.50400001928E-02 0.  1.
        1   -1    0    0  501    0  0.00000000000E+00  0.00000000000E+00 -0.25892542976E+04  0.25892542976E+04  0.50400001928E-02 0. -1.
    10030    2    1    2    0    0  0.00000000000E+00  0.00000000000E+00 -0.12260081943E+04  0.39525004009E+04  0.37575475149E+04 0.  0.
        4    1    3    3  502    0 -0.43951224725E+03  0.36550804627E+03  0.12695497500E+04  0.13923093507E+04  0.12699999809E+01 0.  1.
       -4    1    3    3    0  502  0.43951224725E+03 -0.36550804627E+03 -0.24955579443E+04  0.25601910502E+04  0.12699999809E+01 0. -1.
</event>
<event>
 5   0  0.1092116E-06  0.3675908E+04  0.7818609E-02  0.8073322E-01
        2   -1    0    0  501    0  0.00000000000E+00  0.00000000000E+00  0.24752845310E+04  0.24752845310E+04  0.25500000920E-02 0.  1.
       -2   -1    0    0    0  501  0.00000000000E+00  0.00000000000E+00 -0.13647222153E+04  0.13647222153E+04  0.25500000920E-02 0. -1.
    10030    2    1    2    0    0  0.00000000000E+00  0.00000000000E+00  0.11105623157E+04  0.38400067463E+04  0.36759084801E+04 0.  0.
        1    1    3    3  502    0  0.51536336358E+03 -0.26282770236E+03  0.23776936009E+04  0.24470604115E+04  0.50400001928E-02 0.  1.
       -1    1    3    3    0  502 -0.51536336358E+03  0.26282770236E+03 -0.12671312852E+04  0.13929463348E+04  0.50400001928E-02 0. -1.
</event>
<event>
 5   0  0.3764495E-07  0.3813359E+04  0.7818609E-02  0.8043294E-01
       -1   -1    0    0    0  501  0.00000000000E+00  0.00000000000E+00  0.12605371393E+04  0.12605371393E+04  0.50400001928E-02 0.  1.
        1   -1    0    0  501    0  0.00000000000E+00  0.00000000000E+00 -0.28840296310E+04  0.28840296310E+04  0.50400001928E-02 0. -1.
    10030    2    1    2    0    0  0.00000000000E+00  0.00000000000E+00 -0.16234924917E+04  0.41445667704E+04  0.38133588663E+04 0.  0.
        4    1    3    3  502    0 -0.43882492873E+03 -0.90561831747E+03  0.94839227203E+03  0.13828092311E+04  0.12699999809E+01 0.  1.
       -4    1    3    3    0  502  0.43882492873E+03  0.90561831747E+03 -0.25718847637E+04  0.27617575393E+04  0.12699999809E+01 0. -1.
</event>
<event>
 5   0  0.1128166E-06  0.2644951E+04  0.7818609E-02  0.8353091E-01
        2   -1    0    0  501    0  0.00000000000E+00  0.00000000000E+00  0.14880153527E+04  0.14880153527E+04  0.25500000920E-02 0.  1.
       -2   -1    0    0    0  501  0.00000000000E+00  0.00000000000E+00 -0.11753518673E+04  0.11753518673E+04  0.25500000920E-02 0. -1.
    10030    2    1    2    0    0  0.00000000000E+00  0.00000000000E+00  0.31266348541E+03  0.26633672199E+04  0.26449511325E+04 0.  0.
        3    1    3    3  502    0  0.57235933553E+03 -0.11384424752E+04  0.51276687295E+03  0.13735269763E+04  0.10100000352E+00 0.  1.
       -3    1    3    3    0  502 -0.57235933553E+03  0.11384424752E+04 -0.20010338754E+03  0.12898402437E+04  0.10100000352E+00 0. -1.
</event>
<event>
 5   0  0.3764495E-07  0.2535381E+04  0.7818609E-02  0.8390488E-01
        1   -1    0    0  501    0  0.00000000000E+00  0.00000000000E+00  0.18801434681E+04  0.18801434681E+04  0.50400001928E-02 0.  1.
       -1   -1    0    0    0  501  0.00000000000E+00  0.00000000000E+00 -0.85474295266E+03  0.85474295267E+03  0.50400001928E-02 0. -1.
    10030    2    1    2    0    0  0.00000000000E+00  0.00000000000E+00  0.10254005154E+04  0.27348864208E+04  0.25353811385E+04 0.  0.
        4    1    3    3  502    0  0.10320958770E+04 -0.59028484815E+03  0.38347486899E+02  0.11895924697E+04  0.12699999809E+01 0. -1.
       -4    1    3    3    0  502 -0.10320958770E+04  0.59028484815E+03  0.98705302852E+03  0.15452939511E+04  0.12699999809E+01 0.  1.
</event>
<event>
 5   0  0.3682276E-07  0.3749424E+04  0.7818609E-02  0.8057096E-01
        1   -1    0    0  501    0  0.00000000000E+00  0.00000000000E+00  0.16522858178E+04  0.16522858178E+04  0.50400001928E-02 0. -1.
       -1   -1    0    0    0  501  0.00000000000E+00  0.00000000000E+00 -0.21270810607E+04  0.21270810607E+04  0.50400001928E-02 0.  1.
    10030    2    1    2    0    0  0.00000000000E+00  0.00000000000E+00 -0.47479524286E+03  0.37793668785E+04  0.37494244198E+04 0.  0.
        1    1    3    3  502    0  0.10652475663E+04  0.83953337799E+03  0.10671468809E+04  0.17257957978E+04  0.50400001928E-02 0. -1.
       -1    1    3    3    0  502 -0.10652475663E+04 -0.83953337799E+03 -0.15419421238E+04  0.20535710807E+04  0.50400001928E-02 0.  1.
</event>
<event>
 5   0  0.1092116E-06  0.3854703E+04  0.7818609E-02  0.8034517E-01
       -2   -1    0    0    0  501  0.00000000000E+00  0.00000000000E+00  0.24565318438E+04  0.24565318438E+04  0.25500000920E-02 0.  1.
        2   -1    0    0  501    0  0.00000000000E+00  0.00000000000E+00 -0.15121661777E+04  0.15121661777E+04  0.25500000920E-02 0. -1.
    10030    2    1    2    0    0  0.00000000000E+00  0.00000000000E+00  0.94436566609E+03  0.39686980215E+04  0.38547032927E+04 0.  0.
        1    1    3    3  502    0 -0.57327739092E+02  0.17799644617E+04  0.12309469119E+04  0.21648995946E+04  0.50400001928E-02 0.  1.
       -1    1    3    3    0  502  0.57327739092E+02 -0.17799644617E+04 -0.28658124583E+03  0.18037984269E+04  0.50400001928E-02 0. -1.
</event>
<event>
 5   0  0.1066907E-06  0.3648825E+04  0.7818609E-02  0.8079398E-01
       -2   -1    0    0    0  501  0.00000000000E+00  0.00000000000E+00  0.17999570748E+04  0.17999570748E+04  0.25500000920E-02 0. -1.
        2   -1    0    0  501    0  0.00000000000E+00  0.00000000000E+00 -0.18492005801E+04  0.18492005801E+04  0.25500000920E-02 0.  1.
    10030    2    1    2    0    0  0.00000000000E+00  0.00000000000E+00 -0.49243505328E+02  0.36491576548E+04  0.36488253818E+04 0.  0.
        4    1    3    3  502    0 -0.55836052266E+03  0.13017588168E+04  0.11253253635E+04  0.18090608826E+04  0.12699999809E+01 0. -1.
       -4    1    3    3    0  502  0.55836052266E+03 -0.13017588168E+04 -0.11745688688E+04  0.18400967722E+04  0.12699999809E+01 0.  1.
</event>
<event>
 5   0  0.1092116E-06  0.3739374E+04  0.7818609E-02  0.8059292E-01
        2   -1    0    0  501    0  0.00000000000E+00  0.00000000000E+00  0.27603819190E+04  0.27603819190E+04  0.25500000920E-02 0.  1.
       -2   -1    0    0    0  501  0.00000000000E+00  0.00000000000E+00 -0.12663931094E+04  0.12663931094E+04  0.25500000920E-02 0. -1.
    10030    2    1    2    0    0  0.00000000000E+00  0.00000000000E+00  0.14939888096E+04  0.40267750284E+04  0.37393735526E+04 0.  0.
        1    1    3    3  502    0 -0.18482710535E+03 -0.74196038176E+03  0.25843121525E+04  0.26950576188E+04  0.50400001928E-02 0.  1.
       -1    1    3    3    0  502  0.18482710535E+03  0.74196038176E+03 -0.10903233429E+04  0.13317174096E+04  0.50400001928E-02 0. -1.
</event>
<event>
 5   0  0.1128166E-06  0.3768151E+04  0.7818609E-02  0.8053024E-01
       -2   -1    0    0    0  501  0.00000000000E+00  0.00000000000E+00  0.17732113776E+04  0.17732113776E+04  0.25500000920E-02 0. -1.
        2   -1    0    0  501    0  0.00000000000E+00  0.00000000000E+00 -0.20018709449E+04  0.20018709449E+04  0.25500000920E-02 0.  1.
    10030    2    1    2    0    0  0.00000000000E+00  0.00000000000E+00 -0.22865956730E+03  0.37750823226E+04  0.37681509185E+04 0.  0.
        3    1    3    3  502    0 -0.21053348908E+03  0.18638476413E+04 -0.29210462639E+03  0.18983091168E+04  0.10100000352E+00 0.  1.
       -3    1    3    3    0  502  0.21053348908E+03 -0.18638476413E+04  0.63445059090E+02  0.18767732057E+04  0.10100000352E+00 0. -1.
</event>
<event>
 5   0  0.3682276E-07  0.3735056E+04  0.7818609E-02  0.8060237E-01
        1   -1    0    0  501    0  0.00000000000E+00  0.00000000000E+00  0.23104003545E+04  0.23104003545E+04  0.50400001928E-02 0.  1.
       -1   -1    0    0    0  501  0.00000000000E+00  0.00000000000E+00 -0.15095482316E+04  0.15095482316E+04  0.50400001928E-02 0. -1.
    10030    2    1    2    0    0  0.00000000000E+00  0.00000000000E+00  0.80085212291E+03  0.38199485861E+04  0.37350559671E+04 0.  0.
        1    1    3    3  502    0 -0.56061742686E+03 -0.22668587881E+03 -0.14066466506E+04  0.15311215454E+04  0.50400001928E-02 0. -1.
       -1    1    3    3    0  502  0.56061742686E+03  0.22668587881E+03  0.22074987736E+04  0.22888270407E+04  0.50400001928E-02 0.  1.
</event>
<event>
 5   0  0.3682276E-07  0.3673759E+04  0.7818609E-02  0.8073802E-01
       -1   -1    0    0    0  501  0.00000000000E+00  0.00000000000E+00  0.18445993321E+04  0.18445993321E+04  0.50400001928E-02 0. -1.
        1   -1    0    0  501    0  0.00000000000E+00  0.00000000000E+00 -0.18291922398E+04  0.18291922398E+04  0.50400001928E-02 0.  1.
    10030    2    1    2    0    0  0.00000000000E+00  0.00000000000E+00  0.15407092290E+02  0.36737915720E+04  0.36737592648E+04 0.  0.
        1    1    3    3  502    0  0.49482061933E+03  0.17639113731E+04  0.14148067832E+03  0.18374568185E+04  0.50400001928E-02 0. -1.
       -1    1    3    3    0  502 -0.49482061933E+03 -0.17639113731E+04 -0.12607358603E+03  0.18363347534E+04  0.50400001928E-02 0.  1.
</event>
<event>
 5   0  0.3704306E-07  0.3435434E+04  0.7818609E-02  0.8129264E-01
        1   -1    0    0  501    0  0.00000000000E+00  0.00000000000E+00  0.26288564569E+04  0.26288564569E+04  0.50400001928E-02 0. -1.
       -1   -1    0    0    0  501  0.00000000000E+00  0.00000000000E+00 -0.11223705463E+04  0.11223705463E+04  0.50400001928E-02 0.  1.
    10030    2    1    2    0    0  0.00000000000E+00  0.00000000000E+00  0.15064859107E+04  0.37512270032E+04  0.34354336306E+04 0.  0.
        3    1    3    3  502    0 -0.30795352046E+03  0.27777815519E+03 -0.10668823177E+04  0.11446545175E+04  0.10100000352E+00 0.  1.
       -3    1    3    3    0  502  0.30795352046E+03 -0.27777815519E+03  0.25733682284E+04  0.26065724857E+04  0.10100000352E+00 0. -1.
</event>
<event>
 5   0  0.3675819E-07  0.3673689E+04  0.7818609E-02  0.8073818E-01
       -1   -1    0    0    0  501  0.00000000000E+00  0.00000000000E+00  0.15316456176E+04  0.15316456176E+04  0.50400001928E-02 0.  1.
        1   -1    0    0  501    0  0.00000000000E+00  0.00000000000E+00 -0.22028576138E+04  0.22028576138E+04  0.50400001928E-02 0. -1.
    10030    2    1    2    0    0  0.00000000000E+00  0.00000000000E+00 -0.67121199618E+03  0.37345032314E+04  0.36736887241E+04 0.  0.
        5    1    3    3  502    0  0.15347363314E+04 -0.73241332353E+03  0.37024440811E+03  0.17403872831E+04  0.46999998093E+01 0.  1.
       -5    1    3    3    0  502 -0.15347363314E+04  0.73241332353E+03 -0.10414564043E+04  0.19941159483E+04  0.46999998093E+01 0. -1.
</event>
<event>
 5   0  0.3675819E-07  0.3426880E+04  0.7818609E-02  0.8131340E-01
        1   -1    0    0  501    0  0.00000000000E+00  0.00000000000E+00  0.20270385685E+04  0.20270385685E+04  0.50400001928E-02 0. -1.
       -1   -1    0    0    0  501  0.00000000000E+00  0.00000000000E+00 -0.14483577021E+04  0.14483577021E+04  0.50400001928E-02 0.  1.
    10030    2    1    2    0    0  0.00000000000E+00  0.00000000000E+00  0.57868086638E+03  0.34753962706E+04  0.34268801690E+04 0.  0.
        5    1    3    3  502    0 -0.11776190802E+04 -0.10691093437E+04 -0.35692012985E+03  0.16300906588E+04  0.46999998093E+01 0. -1.
       -5    1    3    3    0  502  0.11776190802E+04  0.10691093437E+04  0.93560099623E+03  0.18453056118E+04  0.46999998093E+01 0.  1.
</event>
<event>
 5   0  0.1066907E-06  0.3606607E+04  0.7818609E-02  0.8088980E-01
       -2   -1    0    0    0  501  0.00000000000E+00  0.00000000000E+00  0.31109554380E+04  0.31109554380E+04  0.25500000920E-02 0. -1.
        2   -1    0    0  501    0  0.00000000000E+00  0.00000000000E+00 -0.10453072555E+04  0.10453072555E+04  0.25500000920E-02 0.  1.
    10030    2    1    2    0    0  0.00000000000E+00  0.00000000000E+00  0.20656481825E+04  0.41562626936E+04  0.36066074314E+04 0.  0.
        4    1    3    3  502    0  0.31549696919E+03 -0.17090115252E+04  0.47817974019E+03  0.18024750228E+04  0.12699999809E+01 0.  1.
       -4    1    3    3    0  502 -0.31549696919E+03  0.17090115252E+04  0.15874684423E+04  0.23537876708E+04  0.12699999809E+01 0. -1.
</event>
<event>
 5   0  0.1092116E-06  0.3724548E+04  0.7818609E-02  0.8062543E-01
        2   -1    0    0  501    0  0.00000000000E+00  0.00000000000E+00  0.33817007055E+04  0.33817007055E+04  0.25500000920E-02 0. -1.
       -2   -1    0    0    0  501  0.00000000000E+00  0.00000000000E+00 -0.10255384192E+04  0.10255384192E+04  0.25500000920E-02 0.  1.
    10030    2    1    2    0    0  0.00000000000E+00  0.00000000000E+00  0.23561622863E+04  0.44072391247E+04  0.37245477554E+04 0.  0.
        1    1    3    3  502    0  0.17557692488E+03 -0.51573200171E+02 -0.10148737198E+04  0.10312398939E+04  0.50400001928E-02 0.  1.
       -1    1    3    3    0  502 -0.17557692488E+03  0.51573200171E+02  0.33710360062E+04  0.33759992308E+04  0.50400001928E-02 0. -1.
</event>
<event>
 5   0  0.3764495E-07  0.3776289E+04  0.7818609E-02  0.8051262E-01
       -1   -1    0    0    0  501  0.00000000000E+00  0.00000000000E+00  0.31472467386E+04  0.31472467386E+04  0.50400001928E-02 0.  1.
        1   -1    0    0  501    0  0.00000000000E+00  0.00000000000E+00 -0.11327647757E+04  0.11327647757E+04  0.50400001928E-02 0. -1.
    10030    2    1    2    0    0  0.00000000000E+00  0.00000000000E+00  0.20144819629E+04  0.42800115143E+04  0.37762893141E+04 0.  0.
        4    1    3    3  502    0 -0.16413002090E+04  0.44404926112E+03  0.76726103417E+02  0.17020383751E+04  0.12699999809E+01 0. -1.
       -4    1    3    3    0  502  0.16413002090E+04 -0.44404926112E+03  0.19377558595E+04  0.25779731392E+04  0.12699999809E+01 0.  1.
</event>
<event>
 5   0  0.1128530E-06  0.3696229E+04  0.7818609E-02  0.8068798E-01
        2   -1    0    0  501    0  0.00000000000E+00  0.00000000000E+00  0.17616539247E+04  0.17616539247E+04  0.25500000920E-02 0.  1.
       -2   -1    0    0    0  501  0.00000000000E+00  0.00000000000E+00 -0.19388182883E+04  0.19388182883E+04  0.25500000920E-02 0. -1.
    10030    2    1    2    0    0  0.00000000000E+00  0.00000000000E+00 -0.17716436361E+03  0.37004722129E+04  0.36962288061E+04 0.  0.
        5    1    3    3  502    0 -0.13966778355E+03  0.37495724865E+03  0.17177632083E+04  0.17637552432E+04  0.46999998093E+01 0.  1.
       -5    1    3    3    0  502  0.13966778355E+03 -0.37495724865E+03 -0.18949275719E+04  0.19367169697E+04  0.46999998093E+01 0. -1.
</event>
<event>
 5   0  0.3848431E-07  0.3324780E+04  0.7818609E-02  0.8156619E-01
       -1   -1    0    0    0  501  0.00000000000E+00  0.00000000000E+00  0.18664569653E+04  0.18664569653E+04  0.50400001928E-02 0. -1.
        1   -1    0    0  501    0  0.00000000000E+00  0.00000000000E+00 -0.14806340439E+04  0.14806340439E+04  0.50400001928E-02 0.  1.
    10030    2    1    2    0    0  0.00000000000E+00  0.00000000000E+00  0.38582292139E+03  0.33470910093E+04  0.33247795262E+04 0.  0.
        2    1    3    3  502    0 -0.97184370505E+03  0.19069382350E+03 -0.11512246292E+04  0.15186054353E+04  0.25500000920E-02 0.  1.
       -2    1    3    3    0  502  0.97184370505E+03 -0.19069382350E+03  0.15370475506E+04  0.18284855739E+04  0.25500000920E-02 0. -1.
</event>
<event>
 5   0  0.1051123E-06  0.3725779E+04  0.7818609E-02  0.8062273E-01
        2   -1    0    0  501    0  0.00000000000E+00  0.00000000000E+00  0.24766480234E+04  0.24766480234E+04  0.25500000920E-02 0. -1.
       -2   -1    0    0    0  501  0.00000000000E+00  0.00000000000E+00 -0.14012317167E+04  0.14012317167E+04  0.25500000920E-02 0.  1.
    10030    2    1    2    0    0  0.00000000000E+00  0.00000000000E+00  0.10754163066E+04  0.38778797401E+04  0.37257792535E+04 0.  0.
        2    1    3    3  502    0  0.78875557379E+03 -0.15956979111E+04  0.11096600905E+04  0.20975539791E+04  0.25500000920E-02 0. -1.
       -2    1    3    3    0  502 -0.78875557379E+03  0.15956979111E+04 -0.34243783871E+02  0.17803257610E+04  0.25500000920E-02 0.  1.
</event>
<event>
 5   0  0.1128166E-06  0.2300692E+04  0.7818609E-02  0.8477648E-01
        2   -1    0    0  501    0  0.00000000000E+00  0.00000000000E+00  0.17785830082E+04  0.17785830082E+04  0.25500000920E-02 0.  1.
       -2   -1    0    0    0  501  0.00000000000E+00  0.00000000000E+00 -0.74401687881E+03  0.74401687881E+03  0.25500000920E-02 0. -1.
    10030    2    1    2    0    0  0.00000000000E+00  0.00000000000E+00  0.10345661293E+04  0.25225998870E+04  0.23006918772E+04 0.  0.
        3    1    3    3  502    0 -0.10114665906E+04 -0.24207625389E+03  0.10562542060E+04  0.14823422461E+04  0.10100000352E+00 0. -1.
       -3    1    3    3    0  502  0.10114665906E+04  0.24207625389E+03 -0.21688076702E+02  0.10402576409E+04  0.10100000352E+00 0.  1.
</event>
<event>
 5   0  0.1092116E-06  0.3690656E+04  0.7818609E-02  0.8070036E-01
       -2   -1    0    0    0  501  0.00000000000E+00  0.00000000000E+00  0.14568287415E+04  0.14568287415E+04  0.25500000920E-02 0. -1.
        2   -1    0    0  501    0  0.00000000000E+00  0.00000000000E+00 -0.23374305211E+04  0.23374305211E+04  0.25500000920E-02 0.  1.
    10030    2    1    2    0    0  0.00000000000E+00  0.00000000000E+00 -0.88060177962E+03  0.37942592626E+04  0.36906562909E+04 0.  0.
        1    1    3    3  502    0 -0.11992341898E+04  0.50408581986E+03 -0.17858463726E+04  0.22094144976E+04  0.50400001928E-02 0.  1.
       -1    1    3    3    0  502  0.11992341898E+04 -0.50408581986E+03  0.90524459300E+03  0.15848447649E+04  0.50400001928E-02 0. -1.
</event>
<event>
 5   0  0.1066907E-06  0.3625404E+04  0.7818609E-02  0.8084697E-01
        2   -1    0    0  501    0  0.00000000000E+00  0.00000000000E+00  0.20396507319E+04  0.20396507319E+04  0.25500000920E-02 0.  1.
       -2   -1    0    0    0  501  0.00000000000E+00  0.00000000000E+00 -0.16110054300E+04  0.16110054300E+04  0.25500000920E-02 0. -1.
    10030    2    1    2    0    0  0.00000000000E+00  0.00000000000E+00  0.42864530190E+03  0.36506561619E+04  0.36254039248E+04 0.  0.
        4    1    3    3  502    0  0.62216387604E+03 -0.68305745160E+03 -0.13561015433E+04  0.16409352149E+04  0.12699999809E+01 0. -1.
       -4    1    3    3    0  502 -0.62216387604E+03  0.68305745160E+03  0.17847468452E+04  0.20097209471E+04  0.12699999809E+01 0.  1.
</event>
<event>
 5   0  0.3675819E-07  0.3741222E+04  0.7818609E-02  0.8058887E-01
        1   -1    0    0  501    0  0.00000000000E+00  0.00000000000E+00  0.14762276303E+04  0.14762276303E+04  0.50400001928E-02 0.  1.
       -1   -1    0    0    0  501  0.00000000000E+00  0.00000000000E+00 -0.23703561226E+04  0.23703561226E+04  0.50400001928E-02 0. -1.
    10030    2    1    2    0    0  0.00000000000E+00  0.00000000000E+00 -0.89412849235E+03  0.38465837529E+04  0.37412218335E+04 0.  0.
        5    1    3    3  502    0  0.12603129438E+03 -0.80775975975E+03  0.12828181797E+04  0.15211851593E+04  0.46999998093E+01 0.  1.
       -5    1    3    3    0  502 -0.12603129438E+03  0.80775975975E+03 -0.21769466720E+04  0.23253985937E+04  0.46999998093E+01 0. -1.
</event>
<event>
 5   0  0.3764495E-07  0.3735570E+04  0.7818609E-02  0.8060124E-01
       -1   -1    0    0    0  501  0.00000000000E+00  0.00000000000E+00  0.15839428493E+04  0.15839428493E+04  0.50400001928E-02 0.  1.
        1   -1    0    0  501    0  0.00000000000E+00  0.00000000000E+00 -0.22024918083E+04  0.22024918083E+04  0.50400001928E-02 0. -1.
    10030    2    1    2    0    0  0.00000000000E+00  0.00000000000E+00 -0.61854895896E+03  0.37864346575E+04  0.37355701842E+04 0.  0.
        4    1    3    3  502    0  0.11269690616E+04  0.55321356475E+03  0.10924930440E+04  0.16642256992E+04  0.12699999809E+01 0.  1.
       -4    1    3    3    0  502 -0.11269690616E+04 -0.55321356475E+03 -0.17110420029E+04  0.21222089583E+04  0.12699999809E+01 0. -1.
</event>
<event>
 5   0  0.1128166E-06  0.3668447E+04  0.7818609E-02  0.8074991E-01
        2   -1    0    0  501    0  0.00000000000E+00  0.00000000000E+00  0.22702633285E+04  0.22702633285E+04  0.25500000920E-02 0. -1.
       -2   -1    0    0    0  501  0.00000000000E+00  0.00000000000E+00 -0.14819319431E+04  0.14819319431E+04  0.25500000920E-02 0.  1.
    10030    2    1    2    0    0  0.00000000000E+00  0.00000000000E+00  0.78833138547E+03  0.37521952716E+04  0.36684469443E+04 0.  0.
        3    1    3    3  502    0 -0.31189442204E+03  0.65831832876E+03  0.21159598987E+04  0.22378443770E+04  0.10100000352E+00 0. -1.
       -3    1    3    3    0  502  0.31189442204E+03 -0.65831832876E+03 -0.13276285133E+04  0.15143508946E+04  0.10100000352E+00 0.  1.
</event>
<event>
 5   0  0.1051123E-06  0.3813914E+04  0.7818609E-02  0.8043176E-01
       -2   -1    0    0    0  501  0.00000000000E+00  0.00000000000E+00  0.19584006140E+04  0.19584006140E+04  0.25500000920E-02 0.  1.
        2   -1    0    0  501    0  0.00000000000E+00  0.00000000000E+00 -0.18568648343E+04  0.18568648343E+04  0.25500000920E-02 0. -1.
    10030    2    1    2    0    0  0.00000000000E+00  0.00000000000E+00  0.10153577970E+03  0.38152654483E+04  0.38139141215E+04 0.  0.
        2    1    3    3  502    0  0.68794024835E+03 -0.98394221743E+03 -0.14313376849E+04  0.18681894017E+04  0.25500000920E-02 0. -1.
       -2    1    3    3    0  502 -0.68794024835E+03  0.98394221743E+03  0.15328734646E+04  0.19470760466E+04  0.25500000920E-02 0.  1.
</event>
<event>
 5   0  0.1128530E-06  0.3684311E+04  0.7818609E-02  0.8071448E-01
       -2   -1    0    0    0  501  0.00000000000E+00  0.00000000000E+00  0.19127241044E+04  0.19127241044E+04  0.25500000920E-02 0. -1.
        2   -1    0    0  501    0  0.00000000000E+00  0.00000000000E+00 -0.17741904956E+04  0.17741904956E+04  0.25500000920E-02 0.  1.
    10030    2    1    2    0    0  0.00000000000E+00  0.00000000000E+00  0.13853360875E+03  0.36869146000E+04  0.36843110220E+04 0.  0.
        5    1    3    3  502    0 -0.12240327193E+04 -0.13066100043E+01  0.14469230046E+04  0.18952219069E+04  0.46999998093E+01 0. -1.
       -5    1    3    3    0  502  0.12240327193E+04  0.13066100043E+01 -0.13083893959E+04  0.17916926931E+04  0.46999998093E+01 0.  1.
</event>
<event>
 5   0  0.3764495E-07  0.2956181E+04  0.7818609E-02  0.8256356E-01
       -1   -1    0    0    0  501  0.00000000000E+00  0.00000000000E+00  0.16112065830E+04  0.16112065830E+04  0.50400001928E-02 0.  1.
        1   -1    0    0  501    0  0.00000000000E+00  0.00000000000E+00 -0.13559718807E+04  0.13559718807E+04  0.50400001928E-02 0. -1.
    10030    2    1    2    0    0  0.00000000000E+00  0.00000000000E+00  0.25523470230E+03  0.29671784637E+04  0.29561805226E+04 0.  0.
        4    1    3    3  502    0 -0.25279617129E+03 -0.41812193698E+03 -0.12725697446E+04  0.13631460766E+04  0.12699999809E+01 0. -1.
       -4    1    3    3    0  502  0.25279617129E+03  0.41812193698E+03  0.15278044468E+04  0.16040323872E+04  0.12699999809E+01 0.  1.
</event>
<event>
 5   0  0.3704306E-07  0.3640979E+04  0.7818609E-02  0.8081169E-01
       -1   -1    0    0    0  501  0.00000000000E+00  0.00000000000E+00  0.15952633400E+04  0.15952633400E+04  0.50400001928E-02 0.  1.
        1   -1    0    0  501    0  0.00000000000E+00  0.00000000000E+00 -0.20775143521E+04  0.20775143521E+04  0.50400001928E-02 0. -1.
    10030    2    1    2    0    0  0.00000000000E+00  0.00000000000E+00 -0.48225101212E+03  0.36727776922E+04  0.36409792553E+04 0.  0.
        3    1    3    3  502    0  0.70268099252E+03 -0.81765454726E+03 -0.17208598043E+04  0.20306841241E+04  0.10100000352E+00 0. -1.
       -3    1    3    3    0  502 -0.70268099252E+03  0.81765454726E+03  0.12386087921E+04  0.16420935680E+04  0.10100000352E+00 0.  1.
</event>
<event>
 5   0  0.1051123E-06  0.3127115E+04  0.7818609E-02  0.8208336E-01
       -2   -1    0    0    0  501  0.00000000000E+00  0.00000000000E+00  0.17581166366E+04  0.17581166366E+04  0.25500000920E-02 0. -1.
        2   -1    0    0  501    0  0.00000000000E+00  0.00000000000E+00 -0.13905288890E+04  0.13905288890E+04  0.25500000920E-02 0.  1.
    10030    2    1    2    0    0  0.00000000000E+00  0.00000000000E+00  0.36758774763E+03  0.31486455256E+04  0.31271149474E+04 0.  0.
        2    1    3    3  502    0 -0.99707582277E+03  0.38092935222E+01  0.13964687234E+04  0.17158961514E+04  0.25500000920E-02 0. -1.
       -2    1    3    3    0  502  0.99707582277E+03 -0.38092935222E+01 -0.10288809758E+04  0.14327493742E+04  0.25500000920E-02 0.  1.
</event>
<event>
 5   0  0.3682276E-07  0.3267090E+04  0.7818609E-02  0.8171320E-01
        1   -1    0    0  501    0  0.00000000000E+00  0.00000000000E+00  0.22822118634E+04  0.22822118634E+04  0.50400001928E-02 0.  1.
       -1   -1    0    0    0  501  0.00000000000E+00  0.00000000000E+00 -0.11692468700E+04  0.11692468700E+04  0.50400001928E-02 0. -1.
    10030    2    1    2    0    0  0.00000000000E+00  0.00000000000E+00  0.11129649934E+04  0.34514587334E+04  0.32670898842E+04 0.  0.
        1    1    3    3  502    0 -0.12854340329E+04 -0.33043701309E+03 -0.44959360735E+03  0.14013078478E+04  0.50400001928E-02 0. -1.
       -1    1    3    3    0  502  0.12854340329E+04  0.33043701309E+03  0.15625586008E+04  0.20501508855E+04  0.50400001928E-02 0.  1.
</event>
<event>
 5   0  0.1066907E-06  0.3721330E+04  0.7818609E-02  0.8063251E-01
        2   -1    0    0  501    0  0.00000000000E+00  0.00000000000E+00  0.24739924259E+04  0.24739924259E+04  0.25500000920E-02 0.  1.
       -2   -1    0    0    0  501  0.00000000000E+00  0.00000000000E+00 -0.13993877152E+04  0.13993877152E+04  0.25500000920E-02 0. -1.
    10030    2    1    2    0    0  0.00000000000E+00  0.00000000000E+00  0.10746047107E+04  0.38733801411E+04  0.37213301967E+04 0.  0.
        4    1    3    3  502    0  0.23801361324E+03 -0.17660789384E+04 -0.19715471140E+02  0.17821547658E+04  0.12699999809E+01 0. -1.
       -4    1    3    3    0  502 -0.23801361324E+03  0.17660789384E+04  0.10943201818E+04  0.20912253752E+04  0.12699999809E+01 0.  1.
</event>
<event>
 5   0  0.3675819E-07  0.2585157E+04  0.7818609E-02  0.8373261E-01
       -1   -1    0    0    0  501  0.00000000000E+00  0.00000000000E+00  0.11828701894E+04  0.11828701894E+04  0.50400001928E-02 0. -1.
        1   -1    0    0  501    0  0.00000000000E+00  0.00000000000E+00 -0.14124620889E+04  0.14124620889E+04  0.50400001928E-02 0.  1.
    10030    2    1    2    0    0  0.00000000000E+00  0.00000000000E+00 -0.22959189942E+03  0.25953322783E+04  0.25851570928E+04 0.  0.
        5    1    3    3  502    0 -0.15847964514E+03 -0.64244758433E+03 -0.12295187269E+04  0.13962782983E+04  0.46999998093E+01 0.  1.
       -5    1    3    3    0  502  0.15847964514E+03  0.64244758433E+03  0.99992682750E+03  0.11990539800E+04  0.46999998093E+01 0. -1.
</event>
<event>
 5   0  0.1128166E-06  0.3103757E+04  0.7818609E-02  0.8214708E-01
       -2   -1    0    0    0  501  0.00000000000E+00  0.00000000000E+00  0.10527915846E+04  0.10527915846E+04  0.25500000920E-02 0. -1.
        2   -1    0    0  501    0  0.00000000000E+00  0.00000000000E+00 -0.22875633166E+04  0.22875633166E+04  0.25500000920E-02 0.  1.
    10030    2    1    2    0    0  0.00000000000E+00  0.00000000000E+00 -0.12347717320E+04  0.33403549011E+04  0.31037573416E+04 0.  0.
        3    1    3    3  502    0 -0.88422737709E+02 -0.11095483350E+04 -0.17812130492E+04  0.21003894937E+04  0.10100000352E+00 0.  1.
       -3    1    3    3    0  502  0.88422737709E+02  0.11095483350E+04  0.54644131722E+03  0.12399654074E+04  0.10100000352E+00 0. -1.
</event>
<event>
 5   0  0.1092116E-06  0.2685686E+04  0.7818609E-02  0.8339664E-01
        2   -1    0    0  501    0  0.00000000000E+00  0.00000000000E+00  0.26181723655E+04  0.26181723655E+04  0.25500000920E-02 0.  1.
       -2   -1    0    0    0  501  0.00000000000E+00  0.00000000000E+00 -0.68873526535E+03  0.68873526536E+03  0.25500000920E-02 0. -1.
    10030    2    1    2    0    0  0.00000000000E+00  0.00000000000E+00  0.19294371002E+04  0.33069076309E+04  0.26856862355E+04 0.  0.
        1    1    3    3  502    0 -0.20411858474E+03 -0.52442941203E+03  0.24659742093E+04  0.25293713460E+04  0.50400001928E-02 0.  1.
       -1    1    3    3    0  502  0.20411858474E+03  0.52442941203E+03 -0.53653710914E+03  0.77753628490E+03  0.50400001928E-02 0. -1.
</event>
<event>
 5   0  0.3704306E-07  0.3726859E+04  0.7818609E-02  0.8062036E-01
        1   -1    0    0  501    0  0.00000000000E+00  0.00000000000E+00  0.21946274750E+04  0.21946274750E+04  0.50400001928E-02 0. -1.
       -1   -1    0    0    0  501  0.00000000000E+00  0.00000000000E+00 -0.15822134547E+04  0.15822134547E+04  0.50400001928E-02 0.  1.
    10030    2    1    2    0    0  0.00000000000E+00  0.00000000000E+00  0.61241402025E+03  0.37768409297E+04  0.37268587947E+04 0.  0.
        3    1    3    3  502    0  0.16730338174E+04 -0.80652169238E+03  0.45939550265E+03  0.19132599490E+04  0.10100000352E+00 0.  1.
       -3    1    3    3    0  502 -0.16730338174E+04  0.80652169238E+03  0.15301851760E+03  0.18635809806E+04  0.10100000352E+00 0. -1.
</event>
<event>
 5   0  0.3764495E-07  0.5128949E+04  0.7818609E-02  0.7808918E-01
       -1   -1    0    0    0  501  0.00000000000E+00  0.00000000000E+00  0.32880591144E+04  0.32880591144E+04  0.50400001928E-02 0.  1.
        1   -1    0    0  501    0  0.00000000000E+00  0.00000000000E+00 -0.20001253798E+04  0.20001253798E+04  0.50400001928E-02 0. -1.
    10030    2    1    2    0    0  0.00000000000E+00  0.00000000000E+00  0.12879337345E+04  0.52881844942E+04  0.51289493993E+04 0.  0.
        4    1    3    3  502    0  0.19129786424E+04 -0.12622959200E+04 -0.54225209944E+03  0.23551894251E+04  0.12699999809E+01 0. -1.
       -4    1    3    3    0  502 -0.19129786424E+04  0.12622959200E+04  0.18301858340E+04  0.29329950691E+04  0.12699999809E+01 0.  1.
</event>
<event>
 5   0  0.3764495E-07  0.3512357E+04  0.7818609E-02  0.8110868E-01
        1   -1    0    0  501    0  0.00000000000E+00  0.00000000000E+00  0.19699187335E+04  0.19699187335E+04  0.50400001928E-02 0.  1.
       -1   -1    0    0    0  501  0.00000000000E+00  0.00000000000E+00 -0.15656290843E+04  0.15656290843E+04  0.50400001928E-02 0. -1.
    10030    2    1    2    0    0  0.00000000000E+00  0.00000000000E+00  0.40428964912E+03  0.35355478178E+04  0.35123565098E+04 0.  0.
        4    1    3    3  502    0  0.23572861724E+03  0.80585321924E+03  0.17547926749E+04  0.19453190835E+04  0.12699999809E+01 0.  1.
       -4    1    3    3    0  502 -0.23572861724E+03 -0.80585321924E+03 -0.13505030258E+04  0.15902287343E+04  0.12699999809E+01 0. -1.
</event>
<event>
 5   0  0.3764495E-07  0.3487371E+04  0.7818609E-02  0.8116789E-01
       -1   -1    0    0    0  501  0.00000000000E+00  0.00000000000E+00  0.20933465454E+04  0.20933465454E+04  0.50400001928E-02 0. -1.
        1   -1    0    0  501    0  0.00000000000E+00  0.00000000000E+00 -0.14524296970E+04  0.14524296971E+04  0.50400001928E-02 0.  1.
    10030    2    1    2    0    0  0.00000000000E+00  0.00000000000E+00  0.64091684834E+03  0.35457762424E+04  0.34873707510E+04 0.  0.
        4    1    3    3  502    0 -0.30482009929E+02  0.14278633558E+04 -0.69665228640E+03  0.15890402565E+04  0.12699999809E+01 0.  1.
       -4    1    3    3    0  502  0.30482009929E+02 -0.14278633558E+04  0.13375691347E+04  0.19567359860E+04  0.12699999809E+01 0. -1.
</event>
<event>
 5   0  0.3704306E-07  0.3682104E+04  0.7818609E-02  0.8071939E-01
        1   -1    0    0  501    0  0.00000000000E+00  0.00000000000E+00  0.19272645624E+04  0.19272645624E+04  0.50400001928E-02 0.  1.
       -1   -1    0    0    0  501  0.00000000000E+00  0.00000000000E+00 -0.17586964446E+04  0.17586964446E+04  0.50400001928E-02 0. -1.
    10030    2    1    2    0    0  0.00000000000E+00  0.00000000000E+00  0.16856811784E+03  0.36859610070E+04  0.36821044710E+04 0.  0.
        3    1    3    3  502    0  0.79632175880E+03 -0.13452271701E+04 -0.88921011037E+03  0.17984602062E+04  0.10100000352E+00 0. -1.
       -3    1    3    3    0  502 -0.79632175880E+03  0.13452271701E+04  0.10577782282E+04  0.18875008008E+04  0.10100000352E+00 0.  1.
</event>
<event>
 5   0  0.1128530E-06  0.3809235E+04  0.7818609E-02  0.8044176E-01
        2   -1    0    0  501    0  0.00000000000E+00  0.00000000000E+00  0.13338936133E+04  0.13338936133E+04  0.25500000920E-02 0. -1.
       -2   -1    0    0    0  501  0.00000000000E+00  0.00000000000E+00 -0.27195336592E+04  0.27195336592E+04  0.25500000920E-02 0.  1.
    10030    2    1    2    0    0  0.00000000000E+00  0.00000000000E+00 -0.13856400459E+04  0.40534272725E+04  0.38092353980E+04 0.  0.
        5    1    3    3  502    0  0.15197483132E+04  0.54853581223E+03  0.38030253476E+03  0.16598730616E+04  0.46999998093E+01 0. -1.
       -5    1    3    3    0  502 -0.15197483132E+04 -0.54853581223E+03 -0.17659425806E+04  0.23935542110E+04  0.46999998093E+01 0.  1.
</event>
<event>
 5   0  0.1051123E-06  0.3715683E+04  0.7818609E-02  0.8064495E-01
        2   -1    0    0  501    0  0.00000000000E+00  0.00000000000E+00  0.23867824900E+04  0.23867824900E+04  0.25500000920E-02 0. -1.
       -2   -1    0    0    0  501  0.00000000000E+00  0.00000000000E+00 -0.14461201736E+04  0.14461201736E+04  0.25500000920E-02 0.  1.
    10030    2    1    2    0    0  0.00000000000E+00  0.00000000000E+00  0.94066231633E+03  0.38329026636E+04  0.37156826069E+04 0.  0.
        2    1    3    3  502    0  0.98745512355E+03 -0.15689799197E+04  0.59586119011E+03  0.19472586288E+04  0.25500000920E-02 0. -1.
       -2    1    3    3    0  502 -0.98745512355E+03  0.15689799197E+04  0.34480112622E+03  0.18856440348E+04  0.25500000920E-02 0.  1.
</event>
<event>
 5   0  0.3848431E-07  0.3688270E+04  0.7818609E-02  0.8070566E-01
        1   -1    0    0  501    0  0.00000000000E+00  0.00000000000E+00  0.13010896368E+04  0.13010896368E+04  0.50400001928E-02 0.  1.
       -1   -1    0    0    0  501  0.00000000000E+00  0.00000000000E+00 -0.26138354238E+04  0.26138354238E+04  0.50400001928E-02 0. -1.
    10030    2    1    2    0    0  0.00000000000E+00  0.00000000000E+00 -0.13127457871E+04  0.39149250606E+04  0.36882701539E+04 0.  0.
        2    1    3    3  502    0 -0.98123264413E+03 -0.12096551837E+04  0.39159403479E+03  0.16060601027E+04  0.25500000920E-02 0.  1.
       -2    1    3    3    0  502  0.98123264413E+03  0.12096551837E+04 -0.17043398218E+04  0.23088649579E+04  0.25500000920E-02 0. -1.
</event>
<event>
 5   0  0.3682276E-07  0.3694295E+04  0.7818609E-02  0.8069227E-01
        1   -1    0    0  501    0  0.00000000000E+00  0.00000000000E+00  0.14966677691E+04  0.14966677691E+04  0.50400001928E-02 0.  1.
       -1   -1    0    0    0  501  0.00000000000E+00  0.00000000000E+00 -0.22797001903E+04  0.22797001903E+04  0.50400001928E-02 0. -1.
    10030    2    1    2    0    0  0.00000000000E+00  0.00000000000E+00 -0.78303242122E+03  0.37763679594E+04  0.36942949520E+04 0.  0.
        1    1    3    3  502    0 -0.13308875908E+04  0.42043978134E+03  0.84529031249E+03  0.16317313202E+04  0.50400001928E-02 0.  1.
       -1    1    3    3    0  502  0.13308875908E+04 -0.42043978134E+03 -0.16283227337E+04  0.21446366392E+04  0.50400001928E-02 0. -1.
</event>
<event>
 5   0  0.3704306E-07  0.3799919E+04  0.7818609E-02  0.8046172E-01
       -1   -1    0    0    0  501  0.00000000000E+00  0.00000000000E+00  0.23318316878E+04  0.23318316878E+04  0.50400001928E-02 0. -1.
        1   -1    0    0  501    0  0.00000000000E+00  0.00000000000E+00 -0.15480734927E+04  0.15480734927E+04  0.50400001928E-02 0.  1.
    10030    2    1    2    0    0  0.00000000000E+00  0.00000000000E+00  0.78375819509E+03  0.38799051806E+04  0.37999193810E+04 0.  0.
        3    1    3    3  502    0  0.10765222846E+04  0.10559640658E+04  0.15720135966E+04  0.21783450359E+04  0.10100000352E+00 0. -1.
       -3    1    3    3    0  502 -0.10765222846E+04 -0.10559640658E+04 -0.78825540152E+03  0.17015601446E+04  0.10100000352E+00 0.  1.
</event>
<event>
 5   0  0.3682276E-07  0.3824430E+04  0.7818609E-02  0.8040932E-01
       -1   -1    0    0    0  501  0.00000000000E+00  0.00000000000E+00  0.26484452118E+04  0.26484452118E+04  0.50400001928E-02 0.  1.
        1   -1    0    0  501    0  0.00000000000E+00  0.00000000000E+00 -0.13806465846E+04  0.13806465846E+04  0.50400001928E-02 0. -1.
    10030    2    1    2    0    0  0.00000000000E+00  0.00000000000E+00  0.12677986272E+04  0.40290917964E+04  0.38244303294E+04 0.  0.
        1    1    3    3  502    0  0.54467171810E+03  0.32517408867E+03 -0.12665660155E+04  0.14165433068E+04  0.50400001928E-02 0. -1.
       -1    1    3    3    0  502 -0.54467171810E+03 -0.32517408867E+03  0.25343646427E+04  0.26125484896E+04  0.50400001928E-02 0.  1.
</event>
<event>
 5   0  0.3764495E-07  0.3094378E+04  0.7818609E-02  0.8217283E-01
        1   -1    0    0  501    0  0.00000000000E+00  0.00000000000E+00  0.22033055557E+04  0.22033055557E+04  0.50400001928E-02 0. -1.
       -1   -1    0    0    0  501  0.00000000000E+00  0.00000000000E+00 -0.10864554906E+04  0.10864554906E+04  0.50400001928E-02 0.  1.
    10030    2    1    2    0    0  0.00000000000E+00  0.00000000000E+00  0.11168500651E+04  0.32897610463E+04  0.30943777523E+04 0.  0.
        4    1    3    3  502    0  0.10953540629E+04 -0.42749284417E+03 -0.51067511867E+03  0.12819287596E+04  0.12699999809E+01 0.  1.
       -4    1    3    3    0  502 -0.10953540629E+04  0.42749284417E+03  0.16275251837E+04  0.20078322867E+04  0.12699999809E+01 0. -1.
</event>
<event>
 5   0  0.3682276E-07  0.3572897E+04  0.7818609E-02  0.8096728E-01
       -1   -1    0    0    0  501  0.00000000000E+00  0.00000000000E+00  0.20019142856E+04  0.20019142856E+04  0.50400001928E-02 0.  1.
        1   -1    0    0  501    0  0.00000000000E+00  0.00000000000E+00 -0.15941735549E+04  0.15941735549E+04  0.50400001928E-02 0. -1.
    10030    2    1    2    0    0  0.00000000000E+00  0.00000000000E+00  0.40774073068E+03  0.35960878406E+04  0.35728973192E+04 0.  0.
        1    1    3    3  502    0 -0.10785146900E+04  0.36939363561E+03 -0.11804671777E+04  0.16410814582E+04  0.50400001928E-02 0. -1.
       -1    1    3    3    0  502  0.10785146900E+04 -0.36939363561E+03  0.15882079084E+04  0.19550063824E+04  0.50400001928E-02 0.  1.
</event>
<event>
 5   0  0.3704306E-07  0.3212191E+04  0.7818609E-02  0.8185605E-01
        1   -1    0    0  501    0  0.00000000000E+00  0.00000000000E+00  0.24053162228E+04  0.24053162228E+04  0.50400001928E-02 0.  1.
       -1   -1    0    0    0  501  0.00000000000E+00  0.00000000000E+00 -0.10724340447E+04  0.10724340448E+04  0.50400001928E-02 0. -1.
    10030    2    1    2    0    0  0.00000000000E+00  0.00000000000E+00  0.13328821780E+04  0.34777502675E+04  0.32121911560E+04 0.  0.
        3    1    3    3  502    0  0.44813550285E+03 -0.12423090428E+04  0.16559975013E+04  0.21181324135E+04  0.10100000352E+00 0.  1.
       -3    1    3    3    0  502 -0.44813550285E+03  0.12423090428E+04 -0.32311532327E+03  0.13596178540E+04  0.10100000352E+00 0. -1.
</event>
<event>
 5   0  0.1051123E-06  0.2767420E+04  0.7818609E-02  0.8313455E-01
       -2   -1    0    0    0  501  0.00000000000E+00  0.00000000000E+00  0.13649047020E+04  0.13649047020E+04  0.25500000920E-02 0. -1.
        2   -1    0    0  501    0  0.00000000000E+00  0.00000000000E+00 -0.14027739873E+04  0.14027739873E+04  0.25500000920E-02 0.  1.
    10030    2    1    2    0    0  0.00000000000E+00  0.00000000000E+00 -0.37869285300E+02  0.27676786893E+04  0.27674196003E+04 0.  0.
        2    1    3    3  502    0  0.72279803759E+03  0.80267697387E+03 -0.88384246050E+03  0.13956736089E+04  0.25500000920E-02 0.  1.
       -2    1    3    3    0  502 -0.72279803759E+03 -0.80267697387E+03  0.84597317520E+03  0.13720050804E+04  0.25500000920E-02 0. -1.
</event>
<event>
 5   0  0.1092116E-06  0.3625095E+04  0.7818609E-02  0.8084767E-01
        2   -1    0    0  501    0  0.00000000000E+00  0.00000000000E+00  0.22287268293E+04  0.22287268293E+04  0.25500000920E-02 0. -1.
       -2   -1    0    0    0  501  0.00000000000E+00  0.00000000000E+00 -0.14740833462E+04  0.14740833462E+04  0.25500000920E-02 0.  1.
    10030    2    1    2    0    0  0.00000000000E+00  0.00000000000E+00  0.75464348307E+03  0.37028101755E+04  0.36250953656E+04 0.  0.
        1    1    3    3  502    0 -0.32979205206E+03 -0.45859425544E+03 -0.13818832371E+04  0.14928739966E+04  0.50400001928E-02 0.  1.
       -1    1    3    3    0  502  0.32979205206E+03  0.45859425544E+03  0.21365267202E+04  0.22099361789E+04  0.50400001928E-02 0. -1.
</event>
<event>
 5   0  0.3704306E-07  0.2554780E+04  0.7818609E-02  0.8383726E-01
       -1   -1    0    0    0  501  0.00000000000E+00  0.00000000000E+00  0.78194269536E+03  0.78194269538E+03  0.50400001928E-02 0. -1.
        1   -1    0    0  501    0  0.00000000000E+00  0.00000000000E+00 -0.20867572525E+04  0.20867572525E+04  0.50400001928E-02 0.  1.
    10030    2    1    2    0    0  0.00000000000E+00  0.00000000000E+00 -0.13048145571E+04  0.28686999479E+04  0.25547795135E+04 0.  0.
        3    1    3    3  502    0  0.12331187332E+04 -0.85093986908E+02 -0.29046176126E+03  0.12697207731E+04  0.10100000352E+00 0. -1.
       -3    1    3    3    0  502 -0.12331187332E+04  0.85093986908E+02 -0.10143527959E+04  0.15989791748E+04  0.10100000352E+00 0.  1.
</event>
<event>
 5   0  0.1092116E-06  0.3622663E+04  0.7818609E-02  0.8085320E-01
       -2   -1    0    0    0  501  0.00000000000E+00  0.00000000000E+00  0.12642447222E+04  0.12642447222E+04  0.25500000920E-02 0.  1.
        2   -1    0    0  501    0  0.00000000000E+00  0.00000000000E+00 -0.25951633402E+04  0.25951633402E+04  0.25500000920E-02 0. -1.
    10030    2    1    2    0    0  0.00000000000E+00  0.00000000000E+00 -0.13309186180E+04  0.38594080624E+04  0.36226628637E+04 0.  0.
        1    1    3    3  502    0 -0.69267825239E+03  0.14428707562E+04  0.23804538673E+03  0.16181300277E+04  0.50400001928E-02 0.  1.
       -1    1    3    3    0  502  0.69267825239E+03 -0.14428707562E+04 -0.15689640047E+04  0.22412780347E+04  0.50400001928E-02 0. -1.
</event>
<event>
 5   0  0.3704306E-07  0.2957884E+04  0.7818609E-02  0.8255861E-01
       -1   -1    0    0    0  501  0.00000000000E+00  0.00000000000E+00  0.14719412851E+04  0.14719412852E+04  0.50400001928E-02 0.  1.
        1   -1    0    0  501    0  0.00000000000E+00  0.00000000000E+00 -0.14859757965E+04  0.14859757966E+04  0.50400001928E-02 0. -1.
    10030    2    1    2    0    0  0.00000000000E+00  0.00000000000E+00 -0.14034511402E+02  0.29579170817E+04  0.29578837866E+04 0.  0.
        3    1    3    3  502    0 -0.61958393793E+03 -0.12931201488E+04 -0.36927143765E+03  0.14806773383E+04  0.10100000352E+00 0. -1.
       -3    1    3    3    0  502  0.61958393793E+03  0.12931201488E+04  0.35523692625E+03  0.14772397434E+04  0.10100000352E+00 0.  1.
</event>
<event>
 5   0  0.1128530E-06  0.3640591E+04  0.7818609E-02  0.8081257E-01
       -2   -1    0    0    0  501  0.00000000000E+00  0.00000000000E+00  0.14899940021E+04  0.14899940021E+04  0.25500000920E-02 0.  1.
        2   -1    0    0  501    0  0.00000000000E+00  0.00000000000E+00 -0.22238179684E+04  0.22238179684E+04  0.25500000920E-02 0. -1.
    10030    2    1    2    0    0  0.00000000000E+00  0.00000000000E+00 -0.73382396623E+03  0.37138119705E+04  0.36405908502E+04 0.  0.
        5    1    3    3  502    0  0.12504679504E+04  0.12373549527E+04  0.11018661716E+03  0.17626345493E+04  0.46999998093E+01 0.  1.
       -5    1    3    3    0  502 -0.12504679504E+04 -0.12373549527E+04 -0.84401058340E+03  0.19511774212E+04  0.46999998093E+01 0. -1.
</event>
<event>
 5   0  0.3848431E-07  0.3709299E+04  0.7818609E-02  0.8065904E-01
        1   -1    0    0  501    0  0.00000000000E+00  0.00000000000E+00  0.18343654518E+04  0.18343654518E+04  0.50400001928E-02 0.  1.
       -1   -1    0    0    0  501  0.00000000000E+00  0.00000000000E+00 -0.18751575448E+04  0.18751575448E+04  0.50400001928E-02 0. -1.
    10030    2    1    2    0    0  0.00000000000E+00  0.00000000000E+00 -0.40792093005E+02  0.37095229966E+04  0.37092987029E+04 0.  0.
        2    1    3    3  502    0  0.83256497951E+03 -0.16358235706E+04  0.24540380477E+03  0.18518386070E+04  0.25500000920E-02 0. -1.
       -2    1    3    3    0  502 -0.83256497951E+03  0.16358235706E+04 -0.28619589778E+03  0.18576843895E+04  0.25500000920E-02 0.  1.
</event>
<event>
 5   0  0.1128166E-06  0.2399893E+04  0.7818609E-02  0.8439544E-01
        2   -1    0    0  501    0  0.00000000000E+00  0.00000000000E+00  0.21559875739E+04  0.21559875739E+04  0.25500000920E-02 0.  1.
       -2   -1    0    0    0  501  0.00000000000E+00  0.00000000000E+00 -0.66784771085E+03  0.66784771086E+03  0.25500000920E-02 0. -1.
    10030    2    1    2    0    0  0.00000000000E+00  0.00000000000E+00  0.14881398631E+04  0.28238352848E+04  0.23998928025E+04 0.  0.
        3    1    3    3  502    0 -0.73669831518E+03  0.10722623069E+03 -0.36326360780E+03  0.82836123225E+03  0.10100000352E+00 0.  1.
       -3    1    3    3    0  502  0.73669831518E+03 -0.10722623069E+03  0.18514034709E+04  0.19954740525E+04  0.10100000352E+00 0. -1.
</event>
<event>
 5   0  0.1051123E-06  0.3703025E+04  0.7818609E-02  0.8067292E-01
        2   -1    0    0  501    0  0.00000000000E+00  0.00000000000E+00  0.13581007046E+04  0.13581007046E+04  0.25500000920E-02 0. -1.
       -2   -1    0    0    0  501  0.00000000000E+00  0.00000000000E+00 -0.25241852936E+04  0.25241852936E+04  0.25500000920E-02 0.  1.
    10030    2    1    2    0    0  0.00000000000E+00  0.00000000000E+00 -0.11660845890E+04  0.38822859981E+04  0.37030246154E+04 0.  0.
        2    1    3    3  502    0  0.11760029319E+04  0.24696287922E+03 -0.20598207944E+04  0.23847086331E+04  0.25500000920E-02 0.  1.
       -2    1    3    3    0  502 -0.11760029319E+04 -0.24696287922E+03  0.89373620540E+03  0.14975773651E+04  0.25500000920E-02 0. -1.
</event>
<event>
 5   0  0.3848431E-07  0.3677618E+04  0.7818609E-02  0.8072940E-01
        1   -1    0    0  501    0  0.00000000000E+00  0.00000000000E+00  0.21063967280E+04  0.21063967280E+04  0.50400001928E-02 0.  1.
       -1   -1    0    0    0  501  0.00000000000E+00  0.00000000000E+00 -0.16052143722E+04  0.16052143723E+04  0.50400001928E-02 0. -1.
    10030    2    1    2    0    0  0.00000000000E+00  0.00000000000E+00  0.50118235571E+03  0.37116111002E+04  0.36776178711E+04 0.  0.
        2    1    3    3  502    0 -0.15500827086E+04 -0.97576965774E+03  0.41437327353E+03  0.18779212013E+04  0.25500000920E-02 0.  1.
       -2    1    3    3    0  502  0.15500827086E+04  0.97576965774E+03  0.86809082183E+02  0.18336898989E+04  0.25500000920E-02 0. -1.
</event>
<event>
 5   0  0.1128530E-06  0.3554841E+04  0.7818609E-02  0.8100915E-01
        2   -1    0    0  501    0  0.00000000000E+00  0.00000000000E+00  0.23071344785E+04  0.23071344785E+04  0.25500000920E-02 0.  1.
       -2   -1    0    0    0  501  0.00000000000E+00  0.00000000000E+00 -0.13693278692E+04  0.13693278692E+04  0.25500000920E-02 0. -1.
    10030    2    1    2    0    0  0.00000000000E+00  0.00000000000E+00  0.93780660932E+03  0.36764623477E+04  0.35548409469E+04 0.  0.
        5    1    3    3  502    0  0.54959671279E+03 -0.31016621653E+03  0.21873599352E+04  0.22765819125E+04  0.46999998093E+01 0.  1.
       -5    1    3    3    0  502 -0.54959671279E+03  0.31016621653E+03 -0.12495533258E+04  0.13998804351E+04  0.46999998093E+01 0. -1.
</event>
<event>
 5   0  0.1128530E-06  0.3536166E+04  0.7818609E-02  0.8105272E-01
       -2   -1    0    0    0  501  0.00000000000E+00  0.00000000000E+00  0.16324720208E+04  0.16324720208E+04  0.25500000920E-02 0.  1.
        2   -1    0    0  501    0  0.00000000000E+00  0.00000000000E+00 -0.19149594658E+04  0.19149594658E+04  0.25500000920E-02 0. -1.
    10030    2    1    2    0    0  0.00000000000E+00  0.00000000000E+00 -0.28248744506E+03  0.35474314866E+04  0.35361661436E+04 0.  0.
        5    1    3    3  502    0  0.11937093736E+04  0.11781780681E+04 -0.70253491762E+03  0.18184122276E+04  0.46999998093E+01 0. -1.
       -5    1    3    3    0  502 -0.11937093736E+04 -0.11781780681E+04  0.42004747256E+03  0.17290192590E+04  0.46999998093E+01 0.  1.
</event>
<event>
 5   0  0.1128166E-06  0.2489965E+04  0.7818609E-02  0.8406569E-01
        2   -1    0    0  501    0  0.00000000000E+00  0.00000000000E+00  0.65051457189E+03  0.65051457189E+03  0.25500000920E-02 0.  1.
       -2   -1    0    0    0  501  0.00000000000E+00  0.00000000000E+00 -0.23827007195E+04  0.23827007195E+04  0.25500000920E-02 0. -1.
    10030    2    1    2    0    0  0.00000000000E+00  0.00000000000E+00 -0.17321861477E+04  0.30332152914E+04  0.24899650909E+04 0.  0.
        3    1    3    3  502    0  0.22360625274E+03  0.55251141429E+03  0.46540872210E+03  0.75622345110E+03  0.10100000352E+00 0.  1.
       -3    1    3    3    0  502 -0.22360625274E+03 -0.55251141429E+03 -0.21975948698E+04  0.22769918403E+04  0.10100000352E+00 0. -1.
</event>
<event>
 5   0  0.1092116E-06  0.3634624E+04  0.7818609E-02  0.8082606E-01
        2   -1    0    0  501    0  0.00000000000E+00  0.00000000000E+00  0.20504761843E+04  0.20504761843E+04  0.25500000920E-02 0.  1.
       -2   -1    0    0    0  501  0.00000000000E+00  0.00000000000E+00 -0.16106612712E+04  0.16106612712E+04  0.25500000920E-02 0. -1.
    10030    2    1    2    0    0  0.00000000000E+00  0.00000000000E+00  0.43981491305E+03  0.36611374555E+04  0.36346238197E+04 0.  0.
        1    1    3    3  502    0  0.17912244544E+04  0.24306607262E+03  0.31308049859E+02  0.18079121538E+04  0.50400001928E-02 0.  1.
       -1    1    3    3    0  502 -0.17912244544E+04 -0.24306607262E+03  0.40850686319E+03  0.18532253018E+04  0.50400001928E-02 0. -1.
</event>
<event>
 5   0  0.3675819E-07  0.3705736E+04  0.7818609E-02  0.8066692E-01
       -1   -1    0    0    0  501  0.00000000000E+00  0.00000000000E+00  0.13994247507E+04  0.13994247507E+04  0.50400001928E-02 0.  1.
        1   -1    0    0  501    0  0.00000000000E+00  0.00000000000E+00 -0.24532364306E+04  0.24532364306E+04  0.50400001928E-02 0. -1.
    10030    2    1    2    0    0  0.00000000000E+00  0.00000000000E+00 -0.10538116798E+04  0.38526611813E+04  0.37057359757E+04 0.  0.
        5    1    3    3  502    0 -0.16642289672E+04 -0.66120269475E+02 -0.13709231859E+04  0.21571931803E+04  0.46999998093E+01 0. -1.
       -5    1    3    3    0  502  0.16642289672E+04  0.66120269475E+02  0.31711150609E+03  0.16954680010E+04  0.46999998093E+01 0.  1.
</event>
<event>
 5   0  0.3704306E-07  0.3657096E+04  0.7818609E-02  0.8077537E-01
        1   -1    0    0  501    0  0.00000000000E+00  0.00000000000E+00  0.22905219875E+04  0.22905219875E+04  0.50400001928E-02 0.  1.
       -1   -1    0    0    0  501  0.00000000000E+00  0.00000000000E+00 -0.14597493108E+04  0.14597493108E+04  0.50400001928E-02 0. -1.
    10030    2    1    2    0    0  0.00000000000E+00  0.00000000000E+00  0.83077267668E+03  0.37502712983E+04  0.36570960570E+04 0.  0.
        3    1    3    3  502    0  0.12232507261E+04 -0.90592851891E+02  0.18060487832E+04  0.21831998583E+04  0.10100000352E+00 0.  1.
       -3    1    3    3    0  502 -0.12232507261E+04  0.90592851891E+02 -0.97527610656E+03  0.15670714400E+04  0.10100000352E+00 0. -1.
</event>
<event>
 5   0  0.1051123E-06  0.3732405E+04  0.7818609E-02  0.8060818E-01
       -2   -1    0    0    0  501  0.00000000000E+00  0.00000000000E+00  0.14118909503E+04  0.14118909503E+04  0.25500000920E-02 0. -1.
        2   -1    0    0  501    0  0.00000000000E+00  0.00000000000E+00 -0.24667007819E+04  0.24667007819E+04  0.25500000920E-02 0.  1.
    10030    2    1    2    0    0  0.00000000000E+00  0.00000000000E+00 -0.10548098316E+04  0.38785917322E+04  0.37324053965E+04 0.  0.
        2    1    3    3  502    0 -0.60810716389E+03  0.19056790375E+03 -0.23501289580E+04  0.24349982686E+04  0.25500000920E-02 0.  1.
       -2    1    3    3    0  502  0.60810716389E+03 -0.19056790375E+03  0.12953191265E+04  0.14435934636E+04  0.25500000920E-02 0. -1.
</event>
<event>
 5   0  0.3848431E-07  0.3684350E+04  0.7818609E-02  0.8071439E-01
        1   -1    0    0  501    0  0.00000000000E+00  0.00000000000E+00  0.20779208652E+04  0.20779208652E+04  0.50400001928E-02 0.  1.
       -1   -1    0    0    0  501  0.00000000000E+00  0.00000000000E+00 -0.16331749927E+04  0.16331749927E+04  0.50400001928E-02 0. -1.
    10030    2    1    2    0    0  0.00000000000E+00  0.00000000000E+00  0.44474587251E+03  0.37110958579E+04  0.36843498172E+04 0.  0.
        2    1    3    3  502    0 -0.12572175805E+04 -0.62275667969E+03 -0.98010511757E+03  0.17114403199E+04  0.25500000920E-02 0. -1.
       -2    1    3    3    0  502  0.12572175805E+04  0.62275667969E+03  0.14248509901E+04  0.19996555381E+04  0.25500000920E-02 0.  1.
</event>
<event>
 5   0  0.1092116E-06  0.3802629E+04  0.7818609E-02  0.8045591E-01
        2   -1    0    0  501    0  0.00000000000E+00  0.00000000000E+00  0.25677743256E+04  0.25677743256E+04  0.25500000920E-02 0.  1.
       -2   -1    0    0    0  501  0.00000000000E+00  0.00000000000E+00 -0.14078327680E+04  0.14078327680E+04  0.25500000920E-02 0. -1.
    10030    2    1    2    0    0  0.00000000000E+00  0.00000000000E+00  0.11599415576E+04  0.39756070936E+04  0.38026290045E+04 0.  0.
        1    1    3    3  502    0  0.75244464240E+03  0.50456485359E+03 -0.11676661520E+04  0.14779048934E+04  0.50400001928E-02 0. -1.
       -1    1    3    3    0  502 -0.75244464240E+03 -0.50456485359E+03  0.23276077096E+04  0.24977022002E+04  0.50400001928E-02 0.  1.
</event>
<event>
 5   0  0.1128530E-06  0.3772656E+04  0.7818609E-02  0.8052048E-01
       -2   -1    0    0    0  501  0.00000000000E+00  0.00000000000E+00  0.23001430506E+04  0.23001430506E+04  0.25500000920E-02 0.  1.
        2   -1    0    0  501    0  0.00000000000E+00  0.00000000000E+00 -0.15469618016E+04  0.15469618016E+04  0.25500000920E-02 0. -1.
    10030    2    1    2    0    0  0.00000000000E+00  0.00000000000E+00  0.75318124898E+03  0.38471048522E+04  0.37726560604E+04 0.  0.
        5    1    3    3  502    0 -0.36655914043E+02  0.13185204820E+04 -0.99848982929E+03  0.16543409402E+04  0.46999998093E+01 0. -1.
       -5    1    3    3    0  502  0.36655914043E+02 -0.13185204820E+04  0.17516710783E+04  0.21927639120E+04  0.46999998093E+01 0.  1.
</event>
<event>
 5   0  0.3675819E-07  0.3400356E+04  0.7818609E-02  0.8137819E-01
       -1   -1    0    0    0  501  0.00000000000E+00  0.00000000000E+00  0.99803163340E+03  0.99803163341E+03  0.50400001928E-02 0. -1.
        1   -1    0    0  501    0  0.00000000000E+00  0.00000000000E+00 -0.28963060749E+04  0.28963060749E+04  0.50400001928E-02 0.  1.
    10030    2    1    2    0    0  0.00000000000E+00  0.00000000000E+00 -0.18982744415E+04  0.38943377084E+04  0.34003559124E+04 0.  0.
        5    1    3    3  502    0  0.16084243657E+04 -0.51632705647E+03 -0.72895730501E+03  0.18398433118E+04  0.46999998093E+01 0. -1.
       -5    1    3    3    0  502 -0.16084243657E+04  0.51632705647E+03 -0.11693171365E+04  0.20544943965E+04  0.46999998093E+01 0.  1.
</event>
<event>
 5   0  0.3675819E-07  0.3710653E+04  0.7818609E-02  0.8065605E-01
       -1   -1    0    0    0  501  0.00000000000E+00  0.00000000000E+00  0.10895631257E+04  0.10895631257E+04  0.50400001928E-02 0.  1.
        1   -1    0    0  501    0  0.00000000000E+00  0.00000000000E+00 -0.31592805353E+04  0.31592805353E+04  0.50400001928E-02 0. -1.
    10030    2    1    2    0    0  0.00000000000E+00  0.00000000000E+00 -0.20697174096E+04  0.42488436611E+04  0.37106525438E+04 0.  0.
        5    1    3    3  502    0  0.14597587987E+04 -0.10886325320E+04 -0.62809248239E+03  0.19262758879E+04  0.46999998093E+01 0.  1.
       -5    1    3    3    0  502 -0.14597587987E+04  0.10886325320E+04 -0.14416249272E+04  0.23225677731E+04  0.46999998093E+01 0. -1.
</event>
<event>
 5   0  0.1092116E-06  0.3714391E+04  0.7818609E-02  0.8064780E-01
        2   -1    0    0  501    0  0.00000000000E+00  0.00000000000E+00  0.25811358391E+04  0.25811358391E+04  0.25500000920E-02 0. -1.
       -2   -1    0    0    0  501  0.00000000000E+00  0.00000000000E+00 -0.13363014765E+04  0.13363014765E+04  0.25500000920E-02 0.  1.
    10030    2    1    2    0    0  0.00000000000E+00  0.00000000000E+00  0.12448343627E+04  0.39174373156E+04  0.37143912733E+04 0.  0.
        1    1    3    3  502    0  0.12652382082E+04 -0.10859374053E+04  0.14851095991E+04  0.22328542928E+04  0.50400001928E-02 0. -1.
       -1    1    3    3    0  502 -0.12652382082E+04  0.10859374053E+04 -0.24027523641E+03  0.16845830228E+04  0.50400001928E-02 0.  1.
</event>
<event>
 5   0  0.1066907E-06  0.3559136E+04  0.7818609E-02  0.8099917E-01
        2   -1    0    0  501    0  0.00000000000E+00  0.00000000000E+00  0.26002882854E+04  0.26002882854E+04  0.25500000920E-02 0. -1.
       -2   -1    0    0    0  501  0.00000000000E+00  0.00000000000E+00 -0.12178889454E+04  0.12178889454E+04  0.25500000920E-02 0.  1.
    10030    2    1    2    0    0  0.00000000000E+00  0.00000000000E+00  0.13823993400E+04  0.38181772308E+04  0.35591360511E+04 0.  0.
        4    1    3    3  502    0  0.37946483207E+03 -0.10647881198E+03 -0.11704804065E+04  0.12350535579E+04  0.12699999809E+01 0.  1.
       -4    1    3    3    0  502 -0.37946483207E+03  0.10647881198E+03  0.25528797465E+04  0.25831236728E+04  0.12699999809E+01 0. -1.
</event>
<event>
 5   0  0.3848431E-07  0.2587673E+04  0.7818609E-02  0.8372400E-01
       -1   -1    0    0    0  501  0.00000000000E+00  0.00000000000E+00  0.15296452675E+04  0.15296452675E+04  0.50400001928E-02 0.  1.
        1   -1    0    0  501    0  0.00000000000E+00  0.00000000000E+00 -0.10943799797E+04  0.10943799797E+04  0.50400001928E-02 0. -1.
    10030    2    1    2    0    0  0.00000000000E+00  0.00000000000E+00  0.43526528782E+03  0.26240252472E+04  0.25876732072E+04 0.  0.
        2    1    3    3  502    0 -0.11358055469E+04 -0.47167543360E+03  0.62512509407E+03  0.13796062258E+04  0.25500000920E-02 0.  1.
       -2    1    3    3    0  502  0.11358055469E+04  0.47167543360E+03 -0.18985980625E+03  0.12444190215E+04  0.25500000920E-02 0. -1.
</event>
<event>
 5   0  0.3764495E-07  0.3574464E+04  0.7818609E-02  0.8096366E-01
        1   -1    0    0  501    0  0.00000000000E+00  0.00000000000E+00  0.26442837304E+04  0.26442837304E+04  0.50400001928E-02 0.  1.
       -1   -1    0    0    0  501  0.00000000000E+00  0.00000000000E+00 -0.12079634174E+04  0.12079634174E+04  0.50400001928E-02 0. -1.
    10030    2    1    2    0    0  0.00000000000E+00  0.00000000000E+00  0.14363203130E+04  0.38522471478E+04  0.35744638823E+04 0.  0.
        4    1    3    3  502    0 -0.95093814631E+03 -0.79662564411E+03  0.21047297381E+04  0.24431096288E+04  0.12699999809E+01 0.  1.
       -4    1    3    3    0  502  0.95093814631E+03  0.79662564411E+03 -0.66840942509E+03  0.14091375190E+04  0.12699999809E+01 0. -1.
</event>
<event>
 5   0  0.1128166E-06  0.3789803E+04  0.7818609E-02  0.8048347E-01
       -2   -1    0    0    0  501  0.00000000000E+00  0.00000000000E+00  0.15382067875E+04  0.15382067875E+04  0.25500000920E-02 0.  1.
        2   -1    0    0  501    0  0.00000000000E+00  0.00000000000E+00 -0.23343103699E+04  0.23343103699E+04  0.25500000920E-02 0. -1.
    10030    2    1    2    0    0  0.00000000000E+00  0.00000000000E+00 -0.79610358242E+03  0.38725171574E+04  0.37898031902E+04 0.  0.
        3    1    3    3  502    0  0.24124027891E+03 -0.21666983856E+03 -0.23057506497E+04  0.23284391253E+04  0.10100000352E+00 0. -1.
       -3    1    3    3    0  502 -0.24124027891E+03  0.21666983856E+03  0.15096470673E+04  0.15440780321E+04  0.10100000352E+00 0.  1.
</event>
<event>
 5   0  0.3682276E-07  0.3752483E+04  0.7818609E-02  0.8056429E-01
        1   -1    0    0  501    0  0.00000000000E+00  0.00000000000E+00  0.29741111840E+04  0.29741111840E+04  0.50400001928E-02 0. -1.
       -1   -1    0    0    0  501  0.00000000000E+00  0.00000000000E+00 -0.11836418277E+04  0.11836418277E+04  0.50400001928E-02 0.  1.
    10030    2    1    2    0    0  0.00000000000E+00  0.00000000000E+00  0.17904693564E+04  0.41577530117E+04  0.37524831233E+04 0.  0.
        1    1    3    3  502    0  0.49455078093E+03 -0.16620602655E+04  0.10144100683E+03  0.17370420487E+04  0.50400001928E-02 0. -1.
       -1    1    3    3    0  502 -0.49455078093E+03  0.16620602655E+04  0.16890283495E+04  0.24207109630E+04  0.50400001928E-02 0.  1.
</event>
<event>
 5   0  0.1128166E-06  0.3648318E+04  0.7818609E-02  0.8079513E-01
       -2   -1    0    0    0  501  0.00000000000E+00  0.00000000000E+00  0.15403227702E+04  0.15403227702E+04  0.25500000920E-02 0.  1.
        2   -1    0    0  501    0  0.00000000000E+00  0.00000000000E+00 -0.21602977075E+04  0.21602977075E+04  0.25500000920E-02 0. -1.
    10030    2    1    2    0    0  0.00000000000E+00  0.00000000000E+00 -0.61997493735E+03  0.37006204777E+04  0.36483178311E+04 0.  0.
        3    1    3    3  502    0 -0.10184930947E+04 -0.14789067724E+04  0.15648091782E+02  0.17957556344E+04  0.10100000352E+00 0.  1.
       -3    1    3    3    0  502  0.10184930947E+04  0.14789067724E+04 -0.63562302913E+03  0.19048648432E+04  0.10100000352E+00 0. -1.
</event>
<event>
 5   0  0.3848431E-07  0.3604571E+04  0.7818609E-02  0.8089445E-01
       -1   -1    0    0    0  501  0.00000000000E+00  0.00000000000E+00  0.11171741302E+04  0.11171741302E+04  0.50400001928E-02 0. -1.
        1   -1    0    0  501    0  0.00000000000E+00  0.00000000000E+00 -0.29075439021E+04  0.29075439021E+04  0.50400001928E-02 0.  1.
    10030    2    1    2    0    0  0.00000000000E+00  0.00000000000E+00 -0.17903697719E+04  0.40247180322E+04  0.36045708925E+04 0.  0.
        2    1    3    3  502    0  0.11387756697E+04 -0.80975649982E+03 -0.21661598697E+04  0.25777440129E+04  0.25500000920E-02 0.  1.
       -2    1    3    3    0  502 -0.11387756697E+04  0.80975649982E+03  0.37579009780E+03  0.14469740193E+04  0.25500000920E-02 0. -1.
</event>
<event>
 5   0  0.1092116E-06  0.3666081E+04  0.7818609E-02  0.8075521E-01
        2   -1    0    0  501    0  0.00000000000E+00  0.00000000000E+00  0.28466467605E+04  0.28466467605E+04  0.25500000920E-02 0. -1.
       -2   -1    0    0    0  501  0.00000000000E+00  0.00000000000E+00 -0.11803492437E+04  0.11803492437E+04  0.25500000920E-02 0.  1.
    10030    2    1    2    0    0  0.00000000000E+00  0.00000000000E+00  0.16662975169E+04  0.40269960042E+04  0.36660809324E+04 0.  0.
        1    1    3    3  502    0  0.12205546295E+04  0.11310376819E+04  0.16776235155E+04  0.23629262581E+04  0.50400001928E-02 0.  1.
       -1    1    3    3    0  502 -0.12205546295E+04 -0.11310376819E+04 -0.11325998588E+02  0.16640697461E+04  0.50400001928E-02 0. -1.
</event>
<event>
 5   0  0.1051123E-06  0.3673710E+04  0.7818609E-02  0.8073813E-01
       -2   -1    0    0    0  501  0.00000000000E+00  0.00000000000E+00  0.18148571030E+04  0.18148571030E+04  0.25500000920E-02 0.  1.
        2   -1    0    0  501    0  0.00000000000E+00  0.00000000000E+00 -0.18591193313E+04  0.18591193313E+04  0.25500000920E-02 0. -1.
    10030    2    1    2    0    0  0.00000000000E+00  0.00000000000E+00 -0.44262228371E+02  0.36739764343E+04  0.36737098000E+04 0.  0.
        2    1    3    3  502    0 -0.22031002315E+03  0.17248824466E+04  0.56975638398E+03  0.18298574530E+04  0.25500000920E-02 0.  1.
       -2    1    3    3    0  502  0.22031002315E+03 -0.17248824466E+04 -0.61401861235E+03  0.18441189813E+04  0.25500000920E-02 0. -1.
</event>
<event>
 5   0  0.3764495E-07  0.2491044E+04  0.7818609E-02  0.8406183E-01
        1   -1    0    0  501    0  0.00000000000E+00  0.00000000000E+00  0.16160666815E+04  0.16160666815E+04  0.50400001928E-02 0. -1.
       -1   -1    0    0    0  501  0.00000000000E+00  0.00000000000E+00 -0.95993868296E+03  0.95993868298E+03  0.50400001928E-02 0.  1.
    10030    2    1    2    0    0  0.00000000000E+00  0.00000000000E+00  0.65612799857E+03  0.25760053645E+04  0.24910438951E+04 0.  0.
        4    1    3    3  502    0  0.15049534193E+03  0.10403663875E+04 -0.36278762304E+03  0.11120375626E+04  0.12699999809E+01 0.  1.
       -4    1    3    3    0  502 -0.15049534193E+03 -0.10403663875E+04  0.10189156216E+04  0.14639678019E+04  0.12699999809E+01 0. -1.
</event>
<event>
 5   0  0.1066907E-06  0.2600747E+04  0.7818609E-02  0.8367948E-01
        2   -1    0    0  501    0  0.00000000000E+00  0.00000000000E+00  0.13973366585E+04  0.13973366585E+04  0.25500000920E-02 0.  1.
       -2   -1    0    0    0  501  0.00000000000E+00  0.00000000000E+00 -0.12101384946E+04  0.12101384946E+04  0.25500000920E-02 0. -1.
    10030    2    1    2    0    0  0.00000000000E+00  0.00000000000E+00  0.18719816390E+03  0.26074751531E+04  0.26007467238E+04 0.  0.
        4    1    3    3  502    0  0.12877802499E+03  0.11309990371E+04 -0.53669791495E+03  0.12584867367E+04  0.12699999809E+01 0. -1.
       -4    1    3    3    0  502 -0.12877802499E+03 -0.11309990371E+04  0.72389607885E+03  0.13489884164E+04  0.12699999809E+01 0.  1.
</event>
<event>
 5   0  0.1128530E-06  0.2683032E+04  0.7818609E-02  0.8340531E-01
       -2   -1    0    0    0  501  0.00000000000E+00  0.00000000000E+00  0.94038613289E+03  0.94038613290E+03  0.25500000920E-02 0. -1.
        2   -1    0    0  501    0  0.00000000000E+00  0.00000000000E+00 -0.19137518828E+04  0.19137518828E+04  0.25500000920E-02 0.  1.
    10030    2    1    2    0    0  0.00000000000E+00  0.00000000000E+00 -0.97336574992E+03  0.28541380157E+04  0.26830324131E+04 0.  0.
        5    1    3    3  502    0 -0.61636109726E+03 -0.51902330410E+03 -0.16276298351E+04  0.18161737699E+04  0.46999998093E+01 0.  1.
       -5    1    3    3    0  502  0.61636109726E+03  0.51902330410E+03  0.65426408518E+03  0.10379642458E+04  0.46999998093E+01 0. -1.
</event>
<event>
 5   0  0.3682276E-07  0.3710789E+04  0.7818609E-02  0.8065575E-01
        1   -1    0    0  501    0  0.00000000000E+00  0.00000000000E+00  0.19742877001E+04  0.19742877001E+04  0.50400001928E-02 0.  1.
       -1   -1    0    0    0  501  0.00000000000E+00  0.00000000000E+00 -0.17436612407E+04  0.17436612407E+04  0.50400001928E-02 0. -1.
    10030    2    1    2    0    0  0.00000000000E+00  0.00000000000E+00  0.23062645940E+03  0.37179489408E+04  0.37107891024E+04 0.  0.
        1    1    3    3  502    0 -0.13799939706E+04  0.93979451539E+03 -0.69550208260E+03  0.18086791415E+04  0.50400001928E-02 0. -1.
       -1    1    3    3    0  502  0.13799939706E+04 -0.93979451539E+03  0.92612854200E+03  0.19092697993E+04  0.50400001928E-02 0.  1.
</event>
<event>
 5   0  0.1066907E-06  0.3854034E+04  0.7818609E-02  0.8034658E-01
        2   -1    0    0  501    0  0.00000000000E+00  0.00000000000E+00  0.30336856122E+04  0.30336856122E+04  0.25500000920E-02 0. -1.
       -2   -1    0    0    0  501  0.00000000000E+00  0.00000000000E+00 -0.12240538723E+04  0.12240538723E+04  0.25500000920E-02 0.  1.
    10030    2    1    2    0    0  0.00000000000E+00  0.00000000000E+00  0.18096317399E+04  0.42577394845E+04  0.38540340532E+04 0.  0.
        4    1    3    3  502    0 -0.10460429954E+04  0.14402161643E+04  0.17203603032E+04  0.24754938363E+04  0.12699999809E+01 0.  1.
       -4    1    3    3    0  502  0.10460429954E+04 -0.14402161643E+04  0.89271436754E+02  0.17822456482E+04  0.12699999809E+01 0. -1.
</event>
<event>
 5   0  0.3675819E-07  0.2473778E+04  0.7818609E-02  0.8412387E-01
        1   -1    0    0  501    0  0.00000000000E+00  0.00000000000E+00  0.10319947882E+04  0.10319947882E+04  0.50400001928E-02 0.  1.
       -1   -1    0    0    0  501  0.00000000000E+00  0.00000000000E+00 -0.14824629314E+04  0.14824629314E+04  0.50400001928E-02 0. -1.
    10030    2    1    2    0    0  0.00000000000E+00  0.00000000000E+00 -0.45046814325E+03  0.25144577196E+04  0.24737776933E+04 0.  0.
        5    1    3    3  502    0  0.75539238935E+03 -0.13019097629E+03  0.76145272924E+03  0.10804627254E+04  0.46999998093E+01 0.  1.
       -5    1    3    3    0  502 -0.75539238935E+03  0.13019097629E+03 -0.12119208725E+04  0.14339949942E+04  0.46999998093E+01 0. -1.
</event>
<event>
 5   0  0.3848431E-07  0.3286072E+04  0.7818609E-02  0.8166448E-01
        1   -1    0    0  501    0  0.00000000000E+00  0.00000000000E+00  0.16558548292E+04  0.16558548292E+04  0.50400001928E-02 0.  1.
       -1   -1    0    0    0  501  0.00000000000E+00  0.00000000000E+00 -0.16303165647E+04  0.16303165647E+04  0.50400001928E-02 0. -1.
    10030    2    1    2    0    0  0.00000000000E+00  0.00000000000E+00  0.25538264480E+02  0.32861713940E+04  0.32860721580E+04 0.  0.
        2    1    3    3  502    0  0.24679175387E+03 -0.82623711248E+03  0.14113797860E+04  0.16539549075E+04  0.25500000920E-02 0.  1.
       -2    1    3    3    0  502 -0.24679175387E+03  0.82623711248E+03 -0.13858415215E+04  0.16322164864E+04  0.25500000920E-02 0. -1.
</event>
<event>
 5   0  0.3848431E-07  0.3675993E+04  0.7818609E-02  0.8073303E-01
       -1   -1    0    0    0  501  0.00000000000E+00  0.00000000000E+00  0.19961563923E+04  0.19961563923E+04  0.50400001928E-02 0. -1.
        1   -1    0    0  501    0  0.00000000000E+00  0.00000000000E+00 -0.16923677385E+04  0.16923677386E+04  0.50400001928E-02 0.  1.
    10030    2    1    2    0    0  0.00000000000E+00  0.00000000000E+00  0.30378865376E+03  0.36885241309E+04  0.36759927527E+04 0.  0.
        2    1    3    3  502    0 -0.24247261220E+03 -0.11241056309E+04  0.15905967465E+04  0.19627543013E+04  0.25500000920E-02 0. -1.
       -2    1    3    3    0  502  0.24247261220E+03  0.11241056309E+04 -0.12868080928E+04  0.17257698296E+04  0.25500000920E-02 0.  1.
</event>
<event>
 5   0  0.3704306E-07  0.3767474E+04  0.7818609E-02  0.8053171E-01
       -1   -1    0    0    0  501  0.00000000000E+00  0.00000000000E+00  0.20655568659E+04  0.20655568659E+04  0.50400001928E-02 0.  1.
        1   -1    0    0  501    0  0.00000000000E+00  0.00000000000E+00 -0.17179213696E+04  0.17179213696E+04  0.50400001928E-02 0. -1.
    10030    2    1    2    0    0  0.00000000000E+00  0.00000000000E+00  0.34763549632E+03  0.37834782356E+04  0.37674735727E+04 0.  0.
        3    1    3    3  502    0 -0.13782897882E+03 -0.15230100687E+04 -0.93081307875E+03  0.17902428591E+04  0.10100000352E+00 0.  1.
       -3    1    3    3    0  502  0.13782897882E+03  0.15230100687E+04  0.12784485751E+04  0.19932353765E+04  0.10100000352E+00 0. -1.
</event>
<event>
 5   0  0.3490375E-07  0.3672215E+04  0.7818609E-02  0.8074147E-01
       -3   -1    0    0    0  501  0.00000000000E+00  0.00000000000E+00  0.12999648396E+04  0.12999648435E+04  0.10100000352E+00 0. -1.
        3   -1    0    0  501    0  0.00000000000E+00  0.00000000000E+00 -0.25933709543E+04  0.25933709562E+04  0.10100000352E+00 0.  1.
    10030    2    1    2    0    0  0.00000000000E+00  0.00000000000E+00 -0.12934061147E+04  0.38933357998E+04  0.36722151724E+04 0.  0.
        4    1    3    3  502    0  0.34255775889E+03 -0.13719422155E+04 -0.18884302506E+04  0.23591824188E+04  0.12699999809E+01 0.  1.
       -4    1    3    3    0  502 -0.34255775889E+03  0.13719422155E+04  0.59502413598E+03  0.15341533809E+04  0.12699999809E+01 0. -1.
</event>
<event>
 5   0  0.3848431E-07  0.3574345E+04  0.7818609E-02  0.8096394E-01
        1   -1    0    0  501    0  0.00000000000E+00  0.00000000000E+00  0.22112671157E+04  0.22112671157E+04  0.50400001928E-02 0. -1.
       -1   -1    0    0    0  501  0.00000000000E+00  0.00000000000E+00 -0.14444139819E+04  0.14444139819E+04  0.50400001928E-02 0.  1.
    10030    2    1    2    0    0  0.00000000000E+00  0.00000000000E+00  0.76685313385E+03  0.36556810976E+04  0.35743447733E+04 0.  0.
        2    1    3    3  502    0 -0.10453089041E+04  0.10665755531E+04  0.13874637160E+04  0.20384576715E+04  0.25500000920E-02 0. -1.
       -2    1    3    3    0  502  0.10453089041E+04 -0.10665755531E+04 -0.62061058215E+03  0.16172234261E+04  0.25500000920E-02 0.  1.
</event>
<event>
 5   0  0.1066907E-06  0.3727607E+04  0.7818609E-02  0.8061871E-01
       -2   -1    0    0    0  501  0.00000000000E+00  0.00000000000E+00  0.14135323041E+04  0.14135323041E+04  0.25500000920E-02 0.  1.
        2   -1    0    0  501    0  0.00000000000E+00  0.00000000000E+00 -0.24575057936E+04  0.24575057936E+04  0.25500000920E-02 0. -1.
    10030    2    1    2    0    0  0.00000000000E+00  0.00000000000E+00 -0.10439734895E+04  0.38710380978E+04  0.37276071826E+04 0.  0.
        4    1    3    3  502    0 -0.47515680241E+03  0.13896772406E+04 -0.17136534515E+04  0.22568975574E+04  0.12699999809E+01 0. -1.
       -4    1    3    3    0  502  0.47515680241E+03 -0.13896772406E+04  0.66967996198E+03  0.16141405404E+04  0.12699999809E+01 0.  1.
</event>
<event>
 5   0  0.1066907E-06  0.3634353E+04  0.7818609E-02  0.8082668E-01
       -2   -1    0    0    0  501  0.00000000000E+00  0.00000000000E+00  0.14086649942E+04  0.14086649942E+04  0.25500000920E-02 0.  1.
        2   -1    0    0  501    0  0.00000000000E+00  0.00000000000E+00 -0.23441555875E+04  0.23441555875E+04  0.25500000920E-02 0. -1.
    10030    2    1    2    0    0  0.00000000000E+00  0.00000000000E+00 -0.93549059326E+03  0.37528205818E+04  0.36343527166E+04 0.  0.
        4    1    3    3  502    0 -0.27652262556E+03  0.15153479892E+04 -0.14632156419E+04  0.21245578171E+04  0.12699999809E+01 0. -1.
       -4    1    3    3    0  502  0.27652262556E+03 -0.15153479892E+04  0.52772504860E+03  0.16282627646E+04  0.12699999809E+01 0.  1.
</event>
<event>
 5   0  0.1066907E-06  0.2470773E+04  0.7818609E-02  0.8413473E-01
        2   -1    0    0  501    0  0.00000000000E+00  0.00000000000E+00  0.12527541076E+04  0.12527541076E+04  0.25500000920E-02 0.  1.
       -2   -1    0    0    0  501  0.00000000000E+00  0.00000000000E+00 -0.12182593123E+04  0.12182593123E+04  0.25500000920E-02 0. -1.
    10030    2    1    2    0    0  0.00000000000E+00  0.00000000000E+00  0.34494795297E+02  0.24710134200E+04  0.24707726384E+04 0.  0.
        4    1    3    3  502    0 -0.83793345102E+03 -0.23325325197E+03 -0.86012835403E+03  0.12232587405E+04  0.12699999809E+01 0. -1.
       -4    1    3    3    0  502  0.83793345102E+03  0.23325325197E+03  0.89462314933E+03  0.12477546795E+04  0.12699999809E+01 0.  1.
</event>
<event>
 5   0  0.3764495E-07  0.3681263E+04  0.7818609E-02  0.8072127E-01
        1   -1    0    0  501    0  0.00000000000E+00  0.00000000000E+00  0.15837788014E+04  0.15837788014E+04  0.50400001928E-02 0.  1.
       -1   -1    0    0    0  501  0.00000000000E+00  0.00000000000E+00 -0.21391394595E+04  0.21391394595E+04  0.50400001928E-02 0. -1.
    10030    2    1    2    0    0  0.00000000000E+00  0.00000000000E+00 -0.55536065811E+03  0.37229182610E+04  0.36812626797E+04 0.  0.
        4    1    3    3  502    0  0.15139324613E+04 -0.10410702528E+04 -0.38894043004E+03  0.18780561865E+04  0.12699999809E+01 0. -1.
       -4    1    3    3    0  502 -0.15139324613E+04  0.10410702528E+04 -0.16642022807E+03  0.18448620745E+04  0.12699999809E+01 0.  1.
</event>
<event>
 5   0  0.3764495E-07  0.3715375E+04  0.7818609E-02  0.8064563E-01
       -1   -1    0    0    0  501  0.00000000000E+00  0.00000000000E+00  0.15594033134E+04  0.15594033134E+04  0.50400001928E-02 0.  1.
        1   -1    0    0  501    0  0.00000000000E+00  0.00000000000E+00 -0.22130279810E+04  0.22130279810E+04  0.50400001928E-02 0. -1.
    10030    2    1    2    0    0  0.00000000000E+00  0.00000000000E+00 -0.65362466762E+03  0.37724312944E+04  0.37153751715E+04 0.  0.
        4    1    3    3  502    0 -0.33882137263E+03 -0.80505153637E+03  0.13379063822E+04  0.15977806480E+04  0.12699999809E+01 0.  1.
       -4    1    3    3    0  502  0.33882137263E+03  0.80505153637E+03 -0.19915310498E+04  0.21746506464E+04  0.12699999809E+01 0. -1.
</event>
<event>
 5   0  0.1128530E-06  0.3744598E+04  0.7818609E-02  0.8058150E-01
       -2   -1    0    0    0  501  0.00000000000E+00  0.00000000000E+00  0.11232193972E+04  0.11232193972E+04  0.25500000920E-02 0. -1.
        2   -1    0    0  501    0  0.00000000000E+00  0.00000000000E+00 -0.31209435375E+04  0.31209435375E+04  0.25500000920E-02 0.  1.
    10030    2    1    2    0    0  0.00000000000E+00  0.00000000000E+00 -0.19977241404E+04  0.42441629347E+04  0.37445984131E+04 0.  0.
        5    1    3    3  502    0 -0.95193915983E+03  0.65337997270E+03  0.67167287342E+03  0.13357619891E+04  0.46999998093E+01 0. -1.
       -5    1    3    3    0  502  0.95193915983E+03 -0.65337997270E+03 -0.26693970138E+04  0.29084009455E+04  0.46999998093E+01 0.  1.
</event>
<event>
 5   0  0.3490375E-07  0.3669374E+04  0.7818609E-02  0.8074783E-01
        3   -1    0    0  501    0  0.00000000000E+00  0.00000000000E+00  0.17520115176E+04  0.17520115205E+04  0.10100000352E+00 0.  1.
       -3   -1    0    0    0  501  0.00000000000E+00  0.00000000000E+00 -0.19212641409E+04  0.19212641435E+04  0.10100000352E+00 0. -1.
    10030    2    1    2    0    0  0.00000000000E+00  0.00000000000E+00 -0.16925262327E+03  0.36732756640E+04  0.36693742863E+04 0.  0.
        2    1    3    3  502    0 -0.13763444928E+03 -0.12183636162E+04  0.12816411850E+04  0.17736846591E+04  0.25500000920E-02 0.  1.
       -2    1    3    3    0  502  0.13763444928E+03  0.12183636162E+04 -0.14508938083E+04  0.18995910049E+04  0.25500000920E-02 0. -1.
</event>
<event>
 5   0  0.1051123E-06  0.3561242E+04  0.7818609E-02  0.8099428E-01
       -2   -1    0    0    0  501  0.00000000000E+00  0.00000000000E+00  0.13477547664E+04  0.13477547664E+04  0.25500000920E-02 0. -1.
        2   -1    0    0  501    0  0.00000000000E+00  0.00000000000E+00 -0.23525128808E+04  0.23525128808E+04  0.25500000920E-02 0.  1.
    10030    2    1    2    0    0  0.00000000000E+00  0.00000000000E+00 -0.10047581144E+04  0.37002676473E+04  0.35612416083E+04 0.  0.
        2    1    3    3  502    0  0.15479380230E+04 -0.35954180050E+03  0.33224002276E+03  0.16235041922E+04  0.25500000920E-02 0. -1.
       -2    1    3    3    0  502 -0.15479380230E+04  0.35954180050E+03 -0.13369981372E+04  0.20767634550E+04  0.25500000920E-02 0.  1.
</event>
<event>
 5   0  0.3704306E-07  0.3646015E+04  0.7818609E-02  0.8080032E-01
        1   -1    0    0  501    0  0.00000000000E+00  0.00000000000E+00  0.20555986290E+04  0.20555986290E+04  0.50400001928E-02 0.  1.
       -1   -1    0    0    0  501  0.00000000000E+00  0.00000000000E+00 -0.16167339899E+04  0.16167339900E+04  0.50400001928E-02 0. -1.
    10030    2    1    2    0    0  0.00000000000E+00  0.00000000000E+00  0.43886463902E+03  0.36723326189E+04  0.36460149057E+04 0.  0.
        3    1    3    3  502    0 -0.22419431479E+03  0.20991485778E+03  0.20293529539E+04  0.20524621215E+04  0.10100000352E+00 0.  1.
       -3    1    3    3    0  502  0.22419431479E+03 -0.20991485778E+03 -0.15904883149E+04  0.16198704974E+04  0.10100000352E+00 0. -1.
</event>
<event>
 5   0  0.1128166E-06  0.3728348E+04  0.7818609E-02  0.8061709E-01
       -2   -1    0    0    0  501  0.00000000000E+00  0.00000000000E+00  0.14630015993E+04  0.14630015993E+04  0.25500000920E-02 0.  1.
        2   -1    0    0  501    0  0.00000000000E+00  0.00000000000E+00 -0.23753520129E+04  0.23753520129E+04  0.25500000920E-02 0. -1.
    10030    2    1    2    0    0  0.00000000000E+00  0.00000000000E+00 -0.91235041356E+03  0.38383536122E+04  0.37283475127E+04 0.  0.
        3    1    3    3  502    0  0.10655325732E+04  0.14932854818E+04 -0.79744121938E+03  0.20002934043E+04  0.10100000352E+00 0. -1.
       -3    1    3    3    0  502 -0.10655325732E+04 -0.14932854818E+04 -0.11490919418E+03  0.18380602079E+04  0.10100000352E+00 0.  1.
</event>
<event>
 5   0  0.1066907E-06  0.2826597E+04  0.7818609E-02  0.8295058E-01
       -2   -1    0    0    0  501  0.00000000000E+00  0.00000000000E+00  0.15029605238E+04  0.15029605238E+04  0.25500000920E-02 0. -1.
        2   -1    0    0  501    0  0.00000000000E+00  0.00000000000E+00 -0.13289858522E+04  0.13289858522E+04  0.25500000920E-02 0.  1.
    10030    2    1    2    0    0  0.00000000000E+00  0.00000000000E+00  0.17397467153E+03  0.28319463760E+04  0.28265974404E+04 0.  0.
        4    1    3    3  502    0  0.56722823583E+03  0.73195037062E+03  0.11566745662E+04  0.14816871740E+04  0.12699999809E+01 0. -1.
       -4    1    3    3    0  502 -0.56722823583E+03 -0.73195037062E+03 -0.98269989471E+03  0.13502592020E+04  0.12699999809E+01 0.  1.
</event>
<event>
 5   0  0.1066907E-06  0.3025113E+04  0.7818609E-02  0.8236596E-01
       -2   -1    0    0    0  501  0.00000000000E+00  0.00000000000E+00  0.88305753734E+03  0.88305753734E+03  0.25500000920E-02 0. -1.
        2   -1    0    0  501    0  0.00000000000E+00  0.00000000000E+00 -0.25908017905E+04  0.25908017905E+04  0.25500000920E-02 0.  1.
    10030    2    1    2    0    0  0.00000000000E+00  0.00000000000E+00 -0.17077442532E+04  0.34738593279E+04  0.30251129228E+04 0.  0.
        4    1    3    3  502    0 -0.12971505042E+04  0.23859058801E+03 -0.35568675024E+01  0.13189159046E+04  0.12699999809E+01 0. -1.
       -4    1    3    3    0  502  0.12971505042E+04 -0.23859058801E+03 -0.17041873857E+04  0.21549434233E+04  0.12699999809E+01 0.  1.
</event>
<event>
 5   0  0.3764495E-07  0.3636105E+04  0.7818609E-02  0.8082271E-01
       -1   -1    0    0    0  501  0.00000000000E+00  0.00000000000E+00  0.13783640447E+04  0.13783640447E+04  0.50400001928E-02 0. -1.
        1   -1    0    0  501    0  0.00000000000E+00  0.00000000000E+00 -0.23979986960E+04  0.23979986960E+04  0.50400001928E-02 0.  1.
    10030    2    1    2    0    0  0.00000000000E+00  0.00000000000E+00 -0.10196346513E+04  0.37763627408E+04  0.36361051591E+04 0.  0.
        4    1    3    3  502    0  0.57074738538E+03 -0.15958850211E+04 -0.11929998270E+04  0.20726436690E+04  0.12699999809E+01 0.  1.
       -4    1    3    3    0  502 -0.57074738538E+03  0.15958850211E+04  0.17336517565E+03  0.17037190718E+04  0.12699999809E+01 0. -1.
</event>
<event>
 5   0  0.1092116E-06  0.3402115E+04  0.7818609E-02  0.8137387E-01
        2   -1    0    0  501    0  0.00000000000E+00  0.00000000000E+00  0.17620683264E+04  0.17620683264E+04  0.25500000920E-02 0.  1.
       -2   -1    0    0    0  501  0.00000000000E+00  0.00000000000E+00 -0.16421590567E+04  0.16421590567E+04  0.25500000920E-02 0. -1.
    10030    2    1    2    0    0  0.00000000000E+00  0.00000000000E+00  0.11990926978E+03  0.34042273831E+04  0.34021149074E+04 0.  0.
        1    1    3    3  502    0  0.71491024087E+03 -0.10722343264E+04  0.11709653526E+04  0.17412475298E+04  0.50400001928E-02 0.  1.
       -1    1    3    3    0  502 -0.71491024087E+03  0.10722343264E+04 -0.10510560828E+04  0.16629798533E+04  0.50400001928E-02 0. -1.
</event>
<event>
 5   0  0.3704306E-07  0.3678835E+04  0.7818609E-02  0.8072668E-01
        1   -1    0    0  501    0  0.00000000000E+00  0.00000000000E+00  0.15765997820E+04  0.15765997821E+04  0.50400001928E-02 0. -1.
       -1   -1    0    0    0  501  0.00000000000E+00  0.00000000000E+00 -0.21460468187E+04  0.21460468187E+04  0.50400001928E-02 0.  1.
    10030    2    1    2    0    0  0.00000000000E+00  0.00000000000E+00 -0.56944703663E+03  0.37226466007E+04  0.36788351127E+04 0.  0.
        3    1    3    3  502    0  0.11726432324E+04  0.22310665146E+03 -0.17008859019E+04  0.20779512963E+04  0.10100000352E+00 0.  1.
       -3    1    3    3    0  502 -0.11726432324E+04 -0.22310665146E+03  0.11314388652E+04  0.16446953044E+04  0.10100000352E+00 0. -1.
</event>
<event>
 5   0  0.3490375E-07  0.2491710E+04  0.7818609E-02  0.8405945E-01
       -3   -1    0    0    0  501  0.00000000000E+00  0.00000000000E+00  0.20852776116E+04  0.20852776140E+04  0.10100000352E+00 0.  1.
        3   -1    0    0  501    0  0.00000000000E+00  0.00000000000E+00 -0.74433961097E+03  0.74433961783E+03  0.10100000352E+00 0. -1.
    10030    2    1    2    0    0  0.00000000000E+00  0.00000000000E+00  0.13409380006E+04  0.28296172318E+04  0.24917100468E+04 0.  0.
        3    1    3    3  502    0  0.78929799263E+03 -0.56307074707E+03 -0.21800885484E+03  0.99376448839E+03  0.10100000352E+00 0. -1.
       -3    1    3    3    0  502 -0.78929799263E+03  0.56307074707E+03  0.15589468554E+04  0.18358527435E+04  0.10100000352E+00 0.  1.
</event>
<event>
 5   0  0.1092116E-06  0.3608255E+04  0.7818609E-02  0.8088603E-01
        2   -1    0    0  501    0  0.00000000000E+00  0.00000000000E+00  0.17699807894E+04  0.17699807894E+04  0.25500000920E-02 0.  1.
       -2   -1    0    0    0  501  0.00000000000E+00  0.00000000000E+00 -0.18389328155E+04  0.18389328155E+04  0.25500000920E-02 0. -1.
    10030    2    1    2    0    0  0.00000000000E+00  0.00000000000E+00 -0.68952026067E+02  0.36089136049E+04  0.36082548449E+04 0.  0.
        1    1    3    3  502    0  0.82550669484E+03  0.94573314071E+03 -0.13304761703E+04  0.18292182255E+04  0.50400001928E-02 0. -1.
       -1    1    3    3    0  502 -0.82550669484E+03 -0.94573314071E+03  0.12615241443E+04  0.17796953793E+04  0.50400001928E-02 0.  1.
</event>
<event>
 5   0  0.3675819E-07  0.3684422E+04  0.7818609E-02  0.8071423E-01
        1   -1    0    0  501    0  0.00000000000E+00  0.00000000000E+00  0.21853777335E+04  0.21853777335E+04  0.50400001928E-02 0.  1.
       -1   -1    0    0    0  501  0.00000000000E+00  0.00000000000E+00 -0.15529316122E+04  0.15529316122E+04  0.50400001928E-02 0. -1.
    10030    2    1    2    0    0  0.00000000000E+00  0.00000000000E+00  0.63244612138E+03  0.37383093457E+04  0.36844224334E+04 0.  0.
        5    1    3    3  502    0  0.13719470648E+04 -0.19247573430E+03 -0.91579918293E+03  0.16607214970E+04  0.46999998093E+01 0. -1.
       -5    1    3    3    0  502 -0.13719470648E+04  0.19247573430E+03  0.15482453043E+04  0.20775878488E+04  0.46999998093E+01 0.  1.
</event>
<event>
 5   0  0.3675819E-07  0.3588687E+04  0.7818609E-02  0.8093088E-01
        1   -1    0    0  501    0  0.00000000000E+00  0.00000000000E+00  0.23103148169E+04  0.23103148170E+04  0.50400001928E-02 0. -1.
       -1   -1    0    0    0  501  0.00000000000E+00  0.00000000000E+00 -0.13936060347E+04  0.13936060347E+04  0.50400001928E-02 0.  1.
    10030    2    1    2    0    0  0.00000000000E+00  0.00000000000E+00  0.91670878227E+03  0.37039208516E+04  0.35886870418E+04 0.  0.
        5    1    3    3  502    0 -0.83865903610E+03 -0.66575903806E+03 -0.10276918025E+04  0.14841686584E+04  0.46999998093E+01 0.  1.
       -5    1    3    3    0  502  0.83865903610E+03  0.66575903806E+03  0.19444005847E+04  0.22197521933E+04  0.46999998093E+01 0. -1.
</event>
<event>
 5   0  0.3682276E-07  0.3589290E+04  0.7818609E-02  0.8092949E-01
        1   -1    0    0  501    0  0.00000000000E+00  0.00000000000E+00  0.17896354450E+04  0.17896354450E+04  0.50400001928E-02 0. -1.
       -1   -1    0    0    0  501  0.00000000000E+00  0.00000000000E+00 -0.17996681966E+04  0.17996681966E+04  0.50400001928E-02 0.  1.
    10030    2    1    2    0    0  0.00000000000E+00  0.00000000000E+00 -0.10032751602E+02  0.35893036416E+04  0.35892896199E+04 0.  0.
        1    1    3    3  502    0  0.13831249801E+04  0.11428507893E+04  0.35075635195E+02  0.17945397564E+04  0.50400001928E-02 0.  1.
       -1    1    3    3    0  502 -0.13831249801E+04 -0.11428507893E+04 -0.45108386797E+02  0.17947638852E+04  0.50400001928E-02 0. -1.
</event>
<event>
 5   0  0.1128530E-06  0.3617837E+04  0.7818609E-02  0.8086418E-01
        2   -1    0    0  501    0  0.00000000000E+00  0.00000000000E+00  0.19346891199E+04  0.19346891199E+04  0.25500000920E-02 0. -1.
       -2   -1    0    0    0  501  0.00000000000E+00  0.00000000000E+00 -0.16913237072E+04  0.16913237072E+04  0.25500000920E-02 0.  1.
    10030    2    1    2    0    0  0.00000000000E+00  0.00000000000E+00  0.24336541270E+03  0.36260128271E+04  0.36178366877E+04 0.  0.
        5    1    3    3  502    0 -0.78667288939E+03 -0.16052243169E+04  0.39901030323E+03  0.18316196806E+04  0.46999998093E+01 0. -1.
       -5    1    3    3    0  502  0.78667288939E+03  0.16052243169E+04 -0.15564489053E+03  0.17943931465E+04  0.46999998093E+01 0.  1.
</event>
<event>
 5   0  0.1092116E-06  0.2983458E+04  0.7818609E-02  0.8248470E-01
        2   -1    0    0  501    0  0.00000000000E+00  0.00000000000E+00  0.17565509251E+04  0.17565509251E+04  0.25500000920E-02 0.  1.
       -2   -1    0    0    0  501  0.00000000000E+00  0.00000000000E+00 -0.12668323477E+04  0.12668323477E+04  0.25500000920E-02 0. -1.
    10030    2    1    2    0    0  0.00000000000E+00  0.00000000000E+00  0.48971857735E+03  0.30233832728E+04  0.29834580824E+04 0.  0.
        1    1    3    3  502    0 -0.10058608936E+03  0.78718549747E+03 -0.10351659550E+04  0.13043569769E+04  0.50400001928E-02 0. -1.
       -1    1    3    3    0  502  0.10058608936E+03 -0.78718549747E+03  0.15248845324E+04  0.17190262959E+04  0.50400001928E-02 0.  1.
</event>
<event>
 5   0  0.3848431E-07  0.3667168E+04  0.7818609E-02  0.8075277E-01
       -1   -1    0    0    0  501  0.00000000000E+00  0.00000000000E+00  0.24747797666E+04  0.24747797666E+04  0.50400001928E-02 0.  1.
        1   -1    0    0  501    0  0.00000000000E+00  0.00000000000E+00 -0.13585171060E+04  0.13585171060E+04  0.50400001928E-02 0. -1.
    10030    2    1    2    0    0  0.00000000000E+00  0.00000000000E+00  0.11162626606E+04  0.38332968725E+04  0.36671681971E+04 0.  0.
        2    1    3    3  502    0 -0.22610612599E+03 -0.15891022881E+04 -0.36839786350E+03  0.16468415370E+04  0.25500000920E-02 0. -1.
       -2    1    3    3    0  502  0.22610612599E+03  0.15891022881E+04  0.14846605241E+04  0.21864553355E+04  0.25500000920E-02 0.  1.
</event>
<event>
 5   0  0.3675819E-07  0.3667250E+04  0.7818609E-02  0.8075259E-01
        1   -1    0    0  501    0  0.00000000000E+00  0.00000000000E+00  0.18953176951E+04  0.18953176951E+04  0.50400001928E-02 0. -1.
       -1   -1    0    0    0  501  0.00000000000E+00  0.00000000000E+00 -0.17739408836E+04  0.17739408836E+04  0.50400001928E-02 0.  1.
    10030    2    1    2    0    0  0.00000000000E+00  0.00000000000E+00  0.12137681153E+03  0.36692585787E+04  0.36672504942E+04 0.  0.
        5    1    3    3  502    0  0.30971871064E+02 -0.14292471006E+04 -0.10881793922E+04  0.17966254509E+04  0.46999998093E+01 0.  1.
       -5    1    3    3    0  502 -0.30971871064E+02  0.14292471006E+04  0.12095562037E+04  0.18726331278E+04  0.46999998093E+01 0. -1.
</event>
<event>
 5   0  0.1128166E-06  0.3273064E+04  0.7818609E-02  0.8169783E-01
        2   -1    0    0  501    0  0.00000000000E+00  0.00000000000E+00  0.16011574973E+04  0.16011574973E+04  0.25500000920E-02 0. -1.
       -2   -1    0    0    0  501  0.00000000000E+00  0.00000000000E+00 -0.16726876403E+04  0.16726876403E+04  0.25500000920E-02 0.  1.
    10030    2    1    2    0    0  0.00000000000E+00  0.00000000000E+00 -0.71530143039E+02  0.32738451376E+04  0.32730636144E+04 0.  0.
        3    1    3    3  502    0 -0.15339601867E+04 -0.56951764946E+03 -0.64963451392E+02  0.16375605233E+04  0.10100000352E+00 0. -1.
       -3    1    3    3    0  502  0.15339601867E+04  0.56951764946E+03 -0.65666916470E+01  0.16362846143E+04  0.10100000352E+00 0.  1.
</event>
<event>
 5   0  0.1092116E-06  0.3781470E+04  0.7818609E-02  0.8050143E-01
       -2   -1    0    0    0  501  0.00000000000E+00  0.00000000000E+00  0.20036003057E+04  0.20036003057E+04  0.25500000920E-02 0. -1.
        2   -1    0    0  501    0  0.00000000000E+00  0.00000000000E+00 -0.17842279881E+04  0.17842279881E+04  0.25500000920E-02 0.  1.
    10030    2    1    2    0    0  0.00000000000E+00  0.00000000000E+00  0.21937231757E+03  0.37878282938E+04  0.37814704772E+04 0.  0.
        1    1    3    3  502    0  0.26089973465E+03  0.59896732991E+03  0.18869435370E+04  0.19968441215E+04  0.50400001928E-02 0. -1.
       -1    1    3    3    0  502 -0.26089973465E+03 -0.59896732991E+03 -0.16675712194E+04  0.17909841724E+04  0.50400001928E-02 0.  1.
</event>
<event>
 5   0  0.3848431E-07  0.3585732E+04  0.7818609E-02  0.8093768E-01
        1   -1    0    0  501    0  0.00000000000E+00  0.00000000000E+00  0.22577590636E+04  0.22577590636E+04  0.50400001928E-02 0. -1.
       -1   -1    0    0    0  501  0.00000000000E+00  0.00000000000E+00 -0.14236988361E+04  0.14236988361E+04  0.50400001928E-02 0.  1.
    10030    2    1    2    0    0  0.00000000000E+00  0.00000000000E+00  0.83406022752E+03  0.36814578998E+04  0.35857322550E+04 0.  0.
        2    1    3    3  502    0 -0.15488592766E+04  0.53543437631E+03 -0.32950863297E+03  0.16715953365E+04  0.25500000920E-02 0.  1.
       -2    1    3    3    0  502  0.15488592766E+04 -0.53543437631E+03  0.11635688605E+04  0.20098625632E+04  0.25500000920E-02 0. -1.
</event>
<event>
 5   0  0.3675819E-07  0.3811771E+04  0.7818609E-02  0.8043634E-01
        1   -1    0    0  501    0  0.00000000000E+00  0.00000000000E+00  0.15099245705E+04  0.15099245705E+04  0.50400001928E-02 0.  1.
       -1   -1    0    0    0  501  0.00000000000E+00  0.00000000000E+00 -0.24056831145E+04  0.24056831145E+04  0.50400001928E-02 0. -1.
    10030    2    1    2    0    0  0.00000000000E+00  0.00000000000E+00 -0.89575854406E+03  0.39156076850E+04  0.38117712646E+04 0.  0.
        5    1    3    3  502    0  0.10266368446E+04 -0.10421581156E+04 -0.17027546130E+04  0.22448768587E+04  0.46999998093E+01 0. -1.
       -5    1    3    3    0  502 -0.10266368446E+04  0.10421581156E+04  0.80699606895E+03  0.16707308263E+04  0.46999998093E+01 0.  1.
</event>
<event>
 5   0  0.3848431E-07  0.3245003E+04  0.7818609E-02  0.8177032E-01
       -1   -1    0    0    0  501  0.00000000000E+00  0.00000000000E+00  0.20030724754E+04  0.20030724754E+04  0.50400001928E-02 0. -1.
        1   -1    0    0  501    0  0.00000000000E+00  0.00000000000E+00 -0.13142369384E+04  0.13142369384E+04  0.50400001928E-02 0.  1.
    10030    2    1    2    0    0  0.00000000000E+00  0.00000000000E+00  0.68883553694E+03  0.33173094138E+04  0.32450034438E+04 0.  0.
        2    1    3    3  502    0  0.62112688424E+03  0.11721074316E+04  0.12995146866E+04  0.18569794986E+04  0.25500000920E-02 0. -1.
       -2    1    3    3    0  502 -0.62112688424E+03 -0.11721074316E+04 -0.61067914965E+03  0.14603299152E+04  0.25500000920E-02 0.  1.
</event>
<event>
 5   0  0.3490375E-07  0.3768992E+04  0.7818609E-02  0.8052842E-01
        3   -1    0    0  501    0  0.00000000000E+00  0.00000000000E+00  0.17314354160E+04  0.17314354190E+04  0.10100000352E+00 0.  1.
       -3   -1    0    0    0  501  0.00000000000E+00  0.00000000000E+00 -0.20510869365E+04  0.20510869390E+04  0.10100000352E+00 0. -1.
    10030    2    1    2    0    0  0.00000000000E+00  0.00000000000E+00 -0.31965152044E+03  0.37825223579E+04  0.37689916813E+04 0.  0.
        1    1    3    3  502    0  0.10420007658E+04  0.94585063557E+03 -0.14176910318E+04  0.19975602325E+04  0.50400001928E-02 0.  1.
       -1    1    3    3    0  502 -0.10420007658E+04 -0.94585063557E+03  0.10980395114E+04  0.17849621254E+04  0.50400001928E-02 0. -1.
</event>
<event>
 5   0  0.3848431E-07  0.2901164E+04  0.7818609E-02  0.8272531E-01
        1   -1    0    0  501    0  0.00000000000E+00  0.00000000000E+00  0.10524908338E+04  0.10524908338E+04  0.50400001928E-02 0. -1.
       -1   -1    0    0    0  501  0.00000000000E+00  0.00000000000E+00 -0.19992454764E+04  0.19992454764E+04  0.50400001928E-02 0.  1.
    10030    2    1    2    0    0  0.00000000000E+00  0.00000000000E+00 -0.94675464260E+03  0.30517363102E+04  0.29011635862E+04 0.  0.
        2    1    3    3  502    0  0.95903146698E+03 -0.11203875148E+03 -0.16121023342E+04  0.18791402216E+04  0.25500000920E-02 0.  1.
       -2    1    3    3    0  502 -0.95903146698E+03  0.11203875148E+03  0.66534769157E+03  0.11725960887E+04  0.25500000920E-02 0. -1.
</event>
<event>
 5   0  0.1128166E-06  0.3646085E+04  0.7818609E-02  0.8080016E-01
       -2   -1    0    0    0  501  0.00000000000E+00  0.00000000000E+00  0.13177010548E+04  0.13177010548E+04  0.25500000920E-02 0.  1.
        2   -1    0    0  501    0  0.00000000000E+00  0.00000000000E+00 -0.25221841346E+04  0.25221841346E+04  0.25500000920E-02 0. -1.
    10030    2    1    2    0    0  0.00000000000E+00  0.00000000000E+00 -0.12044830798E+04  0.38398851895E+04  0.36460854048E+04 0.  0.
        3    1    3    3  502    0 -0.12782668855E+04 -0.16034830232E+02 -0.19710409943E+04  0.23493032920E+04  0.10100000352E+00 0. -1.
       -3    1    3    3    0  502  0.12782668855E+04  0.16034830232E+02  0.76655791454E+03  0.14905818974E+04  0.10100000352E+00 0.  1.
</event>
<event>
 5   0  0.1051123E-06  0.3691129E+04  0.7818609E-02  0.8069931E-01
       -2   -1    0    0    0  501  0.00000000000E+00  0.00000000000E+00  0.11172580346E+04  0.11172580346E+04  0.25500000920E-02 0.  1.
        2   -1    0    0  501    0  0.00000000000E+00  0.00000000000E+00 -0.30486316691E+04  0.30486316691E+04  0.25500000920E-02 0. -1.
    10030    2    1    2    0    0  0.00000000000E+00  0.00000000000E+00 -0.19313736345E+04  0.41658897037E+04  0.36911289476E+04 0.  0.
        2    1    3    3  502    0 -0.96768402986E+03  0.15122606393E+04 -0.14481824725E+04  0.23066376171E+04  0.25500000920E-02 0. -1.
       -2    1    3    3    0  502  0.96768402986E+03 -0.15122606393E+04 -0.48319116198E+03  0.18592520867E+04  0.25500000920E-02 0.  1.
</event>
<event>
 5   0  0.1092116E-06  0.2688451E+04  0.7818609E-02  0.8338762E-01
        2   -1    0    0  501    0  0.00000000000E+00  0.00000000000E+00  0.15372168119E+04  0.15372168119E+04  0.25500000920E-02 0.  1.
       -2   -1    0    0    0  501  0.00000000000E+00  0.00000000000E+00 -0.11754637764E+04  0.11754637764E+04  0.25500000920E-02 0. -1.
    10030    2    1    2    0    0  0.00000000000E+00  0.00000000000E+00  0.36175303548E+03  0.27126805884E+04  0.26884513601E+04 0.  0.
        1    1    3    3  502    0 -0.26960486500E+03  0.97242189830E+03 -0.71518753668E+03  0.12368445109E+04  0.50400001928E-02 0. -1.
       -1    1    3    3    0  502  0.26960486500E+03 -0.97242189830E+03  0.10769405722E+04  0.14758360775E+04  0.50400001928E-02 0.  1.
</event>
<event>
 5   0  0.3848431E-07  0.2348689E+04  0.7818609E-02  0.8458967E-01
       -1   -1    0    0    0  501  0.00000000000E+00  0.00000000000E+00  0.24674762130E+04  0.24674762130E+04  0.50400001928E-02 0.  1.
        1   -1    0    0  501    0  0.00000000000E+00  0.00000000000E+00 -0.55890503753E+03  0.55890503755E+03  0.50400001928E-02 0. -1.
    10030    2    1    2    0    0  0.00000000000E+00  0.00000000000E+00  0.19085711754E+04  0.30263812505E+04  0.23486888985E+04 0.  0.
        2    1    3    3  502    0 -0.99905488166E+03 -0.23658429042E+03  0.21970198835E+03  0.10499294008E+04  0.25500000920E-02 0. -1.
       -2    1    3    3    0  502  0.99905488166E+03  0.23658429042E+03  0.16888691871E+04  0.19764518497E+04  0.25500000920E-02 0.  1.
</event>
<event>
 5   0  0.1066907E-06  0.3710947E+04  0.7818609E-02  0.8065540E-01
       -2   -1    0    0    0  501  0.00000000000E+00  0.00000000000E+00  0.15480621988E+04  0.15480621988E+04  0.25500000920E-02 0.  1.
        2   -1    0    0  501    0  0.00000000000E+00  0.00000000000E+00 -0.22239300639E+04  0.22239300639E+04  0.25500000920E-02 0. -1.
    10030    2    1    2    0    0  0.00000000000E+00  0.00000000000E+00 -0.67586786508E+03  0.37719922627E+04  0.37109470838E+04 0.  0.
        4    1    3    3  502    0 -0.60879268383E+03 -0.23212881888E+03 -0.21038291922E+04  0.22024103167E+04  0.12699999809E+01 0. -1.
       -4    1    3    3    0  502  0.60879268383E+03  0.23212881888E+03  0.14279613271E+04  0.15695819460E+04  0.12699999809E+01 0.  1.
</event>
<event>
 5   0  0.3682276E-07  0.2283396E+04  0.7818609E-02  0.8484497E-01
        1   -1    0    0  501    0  0.00000000000E+00  0.00000000000E+00  0.10873598798E+04  0.10873598798E+04  0.50400001928E-02 0.  1.
       -1   -1    0    0    0  501  0.00000000000E+00  0.00000000000E+00 -0.11987519403E+04  0.11987519403E+04  0.50400001928E-02 0. -1.
    10030    2    1    2    0    0  0.00000000000E+00  0.00000000000E+00 -0.11139206048E+03  0.22861118202E+04  0.22833963877E+04 0.  0.
        1    1    3    3  502    0 -0.69133156513E+03  0.88159458903E+03  0.16439809062E+03  0.11323317025E+04  0.50400001928E-02 0.  1.
       -1    1    3    3    0  502  0.69133156513E+03 -0.88159458903E+03 -0.27579015110E+03  0.11537801176E+04  0.50400001928E-02 0. -1.
</event>
<event>
 5   0  0.3764495E-07  0.3737334E+04  0.7818609E-02  0.8059738E-01
       -1   -1    0    0    0  501  0.00000000000E+00  0.00000000000E+00  0.18921368760E+04  0.18921368760E+04  0.50400001928E-02 0.  1.
        1   -1    0    0  501    0  0.00000000000E+00  0.00000000000E+00 -0.18454877659E+04  0.18454877660E+04  0.50400001928E-02 0. -1.
    10030    2    1    2    0    0  0.00000000000E+00  0.00000000000E+00  0.46649110083E+02  0.37376246420E+04  0.37373335180E+04 0.  0.
        4    1    3    3  502    0  0.18689563582E+03  0.31721378517E+03  0.18555041845E+04  0.18916796652E+04  0.12699999809E+01 0.  1.
       -4    1    3    3    0  502 -0.18689563582E+03 -0.31721378517E+03 -0.18088550744E+04  0.18459449768E+04  0.12699999809E+01 0. -1.
</event>
<event>
 5   0  0.1128166E-06  0.3662728E+04  0.7818609E-02  0.8076272E-01
       -2   -1    0    0    0  501  0.00000000000E+00  0.00000000000E+00  0.99837111436E+03  0.99837111436E+03  0.25500000920E-02 0. -1.
        2   -1    0    0  501    0  0.00000000000E+00  0.00000000000E+00 -0.33593669095E+04  0.33593669095E+04  0.25500000920E-02 0.  1.
    10030    2    1    2    0    0  0.00000000000E+00  0.00000000000E+00 -0.23609957951E+04  0.43577380239E+04  0.36627284284E+04 0.  0.
        3    1    3    3  502    0 -0.14922158302E+03  0.24721529224E+03  0.97111578975E+03  0.10131378825E+04  0.10100000352E+00 0. -1.
       -3    1    3    3    0  502  0.14922158302E+03 -0.24721529224E+03 -0.33321115849E+04  0.33446001414E+04  0.10100000352E+00 0.  1.
</event>
<event>
 5   0  0.3675819E-07  0.3653102E+04  0.7818609E-02  0.8078435E-01
        1   -1    0    0  501    0  0.00000000000E+00  0.00000000000E+00  0.31246398752E+04  0.31246398752E+04  0.50400001928E-02 0.  1.
       -1   -1    0    0    0  501  0.00000000000E+00  0.00000000000E+00 -0.10677356205E+04  0.10677356205E+04  0.50400001928E-02 0. -1.
    10030    2    1    2    0    0  0.00000000000E+00  0.00000000000E+00  0.20569042547E+04  0.41923754957E+04  0.36531024054E+04 0.  0.
        5    1    3    3  502    0  0.11348467689E+04 -0.11533708262E+04  0.20009722099E+04  0.25733350591E+04  0.46999998093E+01 0. -1.
       -5    1    3    3    0  502 -0.11348467689E+04  0.11533708262E+04  0.55932044778E+02  0.16190404366E+04  0.46999998093E+01 0.  1.
</event>
<event>
 5   0  0.1128166E-06  0.2525082E+04  0.7818609E-02  0.8394104E-01
        2   -1    0    0  501    0  0.00000000000E+00  0.00000000000E+00  0.16551664995E+04  0.16551664995E+04  0.25500000920E-02 0.  1.
       -2   -1    0    0    0  501  0.00000000000E+00  0.00000000000E+00 -0.96305086563E+03  0.96305086563E+03  0.25500000920E-02 0. -1.
    10030    2    1    2    0    0  0.00000000000E+00  0.00000000000E+00  0.69211563385E+03  0.26182173651E+04  0.25250818047E+04 0.  0.
        3    1    3    3  502    0 -0.21765118246E+03  0.10267296590E+04 -0.38158350460E+03  0.11167595135E+04  0.10100000352E+00 0. -1.
       -3    1    3    3    0  502  0.21765118246E+03 -0.10267296590E+04  0.10736991385E+04  0.15014578516E+04  0.10100000352E+00 0.  1.
</event>
<event>
 5   0  0.3682276E-07  0.3705624E+04  0.7818609E-02  0.8066717E-01
        1   -1    0    0  501    0  0.00000000000E+00  0.00000000000E+00  0.28152293864E+04  0.28152293864E+04  0.50400001928E-02 0.  1.
       -1   -1    0    0    0  501  0.00000000000E+00  0.00000000000E+00 -0.12194075026E+04  0.12194075026E+04  0.50400001928E-02 0. -1.
    10030    2    1    2    0    0  0.00000000000E+00  0.00000000000E+00  0.15958218838E+04  0.40346368890E+04  0.37056237452E+04 0.  0.
        1    1    3    3  502    0  0.19716112919E+02 -0.88012505760E+03 -0.97714766828E+03  0.13152286523E+04  0.50400001928E-02 0. -1.
       -1    1    3    3    0  502 -0.19716112919E+02  0.88012505760E+03  0.25729695520E+04  0.27194082367E+04  0.50400001928E-02 0.  1.
</event>
<event>
 5   0  0.3490375E-07  0.3336038E+04  0.7818609E-02  0.8153786E-01
        3   -1    0    0  501    0  0.00000000000E+00  0.00000000000E+00  0.13747802935E+04  0.13747802972E+04  0.10100000352E+00 0. -1.
       -3   -1    0    0    0  501  0.00000000000E+00  0.00000000000E+00 -0.20238049181E+04  0.20238049207E+04  0.10100000352E+00 0.  1.
    10030    2    1    2    0    0  0.00000000000E+00  0.00000000000E+00 -0.64902462465E+03  0.33985852179E+04  0.33360378475E+04 0.  0.
        3    1    3    3  502    0  0.51258454312E+03 -0.15853013821E+04 -0.40578099130E+03  0.17148124122E+04  0.10100000352E+00 0. -1.
       -3    1    3    3    0  502 -0.51258454312E+03  0.15853013821E+04 -0.24324363335E+03  0.16837728057E+04  0.10100000352E+00 0.  1.
</event>
<event>
 5   0  0.1128530E-06  0.3715443E+04  0.7818609E-02  0.8064548E-01
       -2   -1    0    0    0  501  0.00000000000E+00  0.00000000000E+00  0.18150058004E+04  0.18150058004E+04  0.25500000920E-02 0.  1.
        2   -1    0    0  501    0  0.00000000000E+00  0.00000000000E+00 -0.19014427834E+04  0.19014427834E+04  0.25500000920E-02 0. -1.
    10030    2    1    2    0    0  0.00000000000E+00  0.00000000000E+00 -0.86436982982E+02  0.37164485838E+04  0.37154432742E+04 0.  0.
        5    1    3    3  502    0  0.15441371496E+03  0.17559630661E+04 -0.62977097034E+03  0.18718663013E+04  0.46999998093E+01 0.  1.
       -5    1    3    3    0  502 -0.15441371496E+03 -0.17559630661E+04  0.54333398735E+03  0.18445822825E+04  0.46999998093E+01 0. -1.
</event>
<event>
 5   0  0.3682276E-07  0.3514949E+04  0.7818609E-02  0.8110256E-01
        1   -1    0    0  501    0  0.00000000000E+00  0.00000000000E+00  0.14114935828E+04  0.14114935828E+04  0.50400001928E-02 0.  1.
       -1   -1    0    0    0  501  0.00000000000E+00  0.00000000000E+00 -0.21882609592E+04  0.21882609592E+04  0.50400001928E-02 0. -1.
    10030    2    1    2    0    0  0.00000000000E+00  0.00000000000E+00 -0.77676737641E+03  0.35997545420E+04  0.35149488198E+04 0.  0.
        1    1    3    3  502    0 -0.39681550849E+03  0.17073293263E+04 -0.25771082151E+03  0.17716802318E+04  0.50400001928E-02 0. -1.
       -1    1    3    3    0  502  0.39681550849E+03 -0.17073293263E+04 -0.51905655490E+03  0.18280743102E+04  0.50400001928E-02 0.  1.
</event>
<event>
 5   0  0.1128530E-06  0.3643588E+04  0.7818609E-02  0.8080580E-01
       -2   -1    0    0    0  501  0.00000000000E+00  0.00000000000E+00  0.19546157239E+04  0.19546157239E+04  0.25500000920E-02 0. -1.
        2   -1    0    0  501    0  0.00000000000E+00  0.00000000000E+00 -0.16979979658E+04  0.16979979658E+04  0.25500000920E-02 0.  1.
    10030    2    1    2    0    0  0.00000000000E+00  0.00000000000E+00  0.25661775811E+03  0.36526136897E+04  0.36435880794E+04 0.  0.
        5    1    3    3  502    0  0.57477671065E+02 -0.73448733613E+03  0.17986102863E+04  0.19436554174E+04  0.46999998093E+01 0. -1.
       -5    1    3    3    0  502 -0.57477671065E+02  0.73448733613E+03 -0.15419925282E+04  0.17089582723E+04  0.46999998093E+01 0.  1.
</event>
<event>
 5   0  0.3848431E-07  0.3695953E+04  0.7818609E-02  0.8068859E-01
       -1   -1    0    0    0  501  0.00000000000E+00  0.00000000000E+00  0.27953723110E+04  0.27953723110E+04  0.50400001928E-02 0. -1.
        1   -1    0    0  501    0  0.00000000000E+00  0.00000000000E+00 -0.12216681091E+04  0.12216681092E+04  0.50400001928E-02 0.  1.
    10030    2    1    2    0    0  0.00000000000E+00  0.00000000000E+00  0.15737042019E+04  0.40170404202E+04  0.36959530330E+04 0.  0.
        2    1    3    3  502    0  0.14735353822E+04  0.84323077226E+03  0.15801017992E+04  0.23192814305E+04  0.25500000920E-02 0. -1.
       -2    1    3    3    0  502 -0.14735353822E+04 -0.84323077226E+03 -0.63975973504E+01  0.16977589897E+04  0.25500000920E-02 0.  1.
</event>
<event>
 5   0  0.3704306E-07  0.2352845E+04  0.7818609E-02  0.8457372E-01
       -1   -1    0    0    0  501  0.00000000000E+00  0.00000000000E+00  0.10692357009E+04  0.10692357009E+04  0.50400001928E-02 0. -1.
        1   -1    0    0  501    0  0.00000000000E+00  0.00000000000E+00 -0.12943539626E+04  0.12943539626E+04  0.50400001928E-02 0.  1.
    10030    2    1    2    0    0  0.00000000000E+00  0.00000000000E+00 -0.22511826166E+03  0.23635896635E+04  0.23528446327E+04 0.  0.
        3    1    3    3  502    0  0.62396178615E+03 -0.99573036060E+03 -0.16904933278E+03  0.11871751971E+04  0.10100000352E+00 0.  1.
       -3    1    3    3    0  502 -0.62396178615E+03  0.99573036060E+03 -0.56068928882E+02  0.11764144663E+04  0.10100000352E+00 0. -1.
</event>
<event>
 5   0  0.3675819E-07  0.2643561E+04  0.7818609E-02  0.8353553E-01
       -1   -1    0    0    0  501  0.00000000000E+00  0.00000000000E+00  0.11892426157E+04  0.11892426157E+04  0.50400001928E-02 0. -1.
        1   -1    0    0  501    0  0.00000000000E+00  0.00000000000E+00 -0.14690897876E+04  0.14690897876E+04  0.50400001928E-02 0.  1.
    10030    2    1    2    0    0  0.00000000000E+00  0.00000000000E+00 -0.27984717194E+03  0.26583324033E+04  0.26435613719E+04 0.  0.
        5    1    3    3  502    0 -0.12270350644E+04 -0.48460327446E+03 -0.22178303845E+03  0.13377836854E+04  0.46999998093E+01 0.  1.
       -5    1    3    3    0  502  0.12270350644E+04  0.48460327446E+03 -0.58064133489E+02  0.13205487179E+04  0.46999998093E+01 0. -1.
</event>
<event>
 5   0  0.1051123E-06  0.3681533E+04  0.7818609E-02  0.8072067E-01
       -2   -1    0    0    0  501  0.00000000000E+00  0.00000000000E+00  0.16684765266E+04  0.16684765266E+04  0.25500000920E-02 0. -1.
        2   -1    0    0  501    0  0.00000000000E+00  0.00000000000E+00 -0.20308478747E+04  0.20308478747E+04  0.25500000920E-02 0.  1.
    10030    2    1    2    0    0  0.00000000000E+00  0.00000000000E+00 -0.36237134810E+03  0.36993244014E+04  0.36815333806E+04 0.  0.
        2    1    3    3  502    0  0.16598221174E+04 -0.78683701868E+03 -0.61024960889E+02  0.18378917273E+04  0.25500000920E-02 0.  1.
       -2    1    3    3    0  502 -0.16598221174E+04  0.78683701868E+03 -0.30134638721E+03  0.18614326741E+04  0.25500000920E-02 0. -1.
</event>
<event>
 5   0  0.1092116E-06  0.3726677E+04  0.7818609E-02  0.8062075E-01
        2   -1    0    0  501    0  0.00000000000E+00  0.00000000000E+00  0.27464398502E+04  0.27464398502E+04  0.25500000920E-02 0. -1.
       -2   -1    0    0    0  501  0.00000000000E+00  0.00000000000E+00 -0.12641931706E+04  0.12641931706E+04  0.25500000920E-02 0.  1.
    10030    2    1    2    0    0  0.00000000000E+00  0.00000000000E+00  0.14822466796E+04  0.40106330208E+04  0.37266770732E+04 0.  0.
        1    1    3    3  502    0  0.18205554404E+04 -0.94180142477E+02  0.11561756634E+04  0.21587112302E+04  0.50400001928E-02 0. -1.
       -1    1    3    3    0  502 -0.18205554404E+04  0.94180142477E+02  0.32607101628E+03  0.18519217906E+04  0.50400001928E-02 0.  1.
</event>
<event>
 5   0  0.3682276E-07  0.2681184E+04  0.7818609E-02  0.8341136E-01
        1   -1    0    0  501    0  0.00000000000E+00  0.00000000000E+00  0.20479542444E+04  0.20479542444E+04  0.50400001928E-02 0.  1.
       -1   -1    0    0    0  501  0.00000000000E+00  0.00000000000E+00 -0.87755207832E+03  0.87755207833E+03  0.50400001928E-02 0. -1.
    10030    2    1    2    0    0  0.00000000000E+00  0.00000000000E+00  0.11704021661E+04  0.29255063228E+04  0.26811836964E+04 0.  0.
        1    1    3    3  502    0 -0.27852851833E+03  0.80606584798E+03 -0.54339673979E+03  0.10112370166E+04  0.50400001928E-02 0. -1.
       -1    1    3    3    0  502  0.27852851833E+03 -0.80606584798E+03  0.17137989059E+04  0.19142693062E+04  0.50400001928E-02 0.  1.
</event>
<event>
 5   0  0.3704306E-07  0.3717380E+04  0.7818609E-02  0.8064121E-01
       -1   -1    0    0    0  501  0.00000000000E+00  0.00000000000E+00  0.19645118863E+04  0.19645118863E+04  0.50400001928E-02 0.  1.
        1   -1    0    0  501    0  0.00000000000E+00  0.00000000000E+00 -0.17585686708E+04  0.17585686709E+04  0.50400001928E-02 0. -1.
    10030    2    1    2    0    0  0.00000000000E+00  0.00000000000E+00  0.20594321542E+03  0.37230805571E+04  0.37173802909E+04 0.  0.
        3    1    3    3  502    0 -0.11934023519E+03 -0.46562769333E+03  0.19011851163E+04  0.19610089487E+04  0.10100000352E+00 0.  1.
       -3    1    3    3    0  502  0.11934023519E+03  0.46562769333E+03 -0.16952419008E+04  0.17620716084E+04  0.10100000352E+00 0. -1.
</event>
<event>
 5   0  0.3704306E-07  0.3655808E+04  0.7818609E-02  0.8077826E-01
        1   -1    0    0  501    0  0.00000000000E+00  0.00000000000E+00  0.12845548898E+04  0.12845548898E+04  0.50400001928E-02 0.  1.
       -1   -1    0    0    0  501  0.00000000000E+00  0.00000000000E+00 -0.26010825062E+04  0.26010825062E+04  0.50400001928E-02 0. -1.
    10030    2    1    2    0    0  0.00000000000E+00  0.00000000000E+00 -0.13165276164E+04  0.38856373960E+04  0.36558081198E+04 0.  0.
        3    1    3    3  502    0 -0.14863990301E+03 -0.92742951939E+03 -0.23249712311E+04  0.25075307715E+04  0.10100000352E+00 0. -1.
       -3    1    3    3    0  502  0.14863990301E+03  0.92742951939E+03  0.10084436148E+04  0.13781066245E+04  0.10100000352E+00 0.  1.
</event>
<event>
 5   0  0.3764495E-07  0.3773749E+04  0.7818609E-02  0.8051812E-01
       -1   -1    0    0    0  501  0.00000000000E+00  0.00000000000E+00  0.14400460442E+04  0.14400460442E+04  0.50400001928E-02 0.  1.
        1   -1    0    0  501    0  0.00000000000E+00  0.00000000000E+00 -0.24723485977E+04  0.24723485977E+04  0.50400001928E-02 0. -1.
    10030    2    1    2    0    0  0.00000000000E+00  0.00000000000E+00 -0.10323025535E+04  0.39123946419E+04  0.37737492328E+04 0.  0.
        4    1    3    3  502    0 -0.21112547300E+03 -0.10329235330E+04  0.11062015866E+04  0.15281323743E+04  0.12699999809E+01 0.  1.
       -4    1    3    3    0  502  0.21112547300E+03  0.10329235330E+04 -0.21385041401E+04  0.23842622676E+04  0.12699999809E+01 0. -1.
</event>
<event>
 5   0  0.1092116E-06  0.3775100E+04  0.7818609E-02  0.8051519E-01
        2   -1    0    0  501    0  0.00000000000E+00  0.00000000000E+00  0.17008148219E+04  0.17008148219E+04  0.25500000920E-02 0. -1.
       -2   -1    0    0    0  501  0.00000000000E+00  0.00000000000E+00 -0.20947875383E+04  0.20947875383E+04  0.25500000920E-02 0.  1.
    10030    2    1    2    0    0  0.00000000000E+00  0.00000000000E+00 -0.39397271639E+03  0.37956023601E+04  0.37751003662E+04 0.  0.
        1    1    3    3  502    0 -0.87768745495E+02 -0.97443483940E+03 -0.18199458076E+04  0.20662597493E+04  0.50400001928E-02 0.  1.
       -1    1    3    3    0  502  0.87768745495E+02  0.97443483940E+03  0.14259730912E+04  0.17293426109E+04  0.50400001928E-02 0. -1.
</event>
<event>
 5   0  0.1128166E-06  0.3608462E+04  0.7818609E-02  0.8088556E-01
        2   -1    0    0  501    0  0.00000000000E+00  0.00000000000E+00  0.18823832604E+04  0.18823832604E+04  0.25500000920E-02 0.  1.
       -2   -1    0    0    0  501  0.00000000000E+00  0.00000000000E+00 -0.17293235669E+04  0.17293235669E+04  0.25500000920E-02 0. -1.
    10030    2    1    2    0    0  0.00000000000E+00  0.00000000000E+00  0.15305969351E+03  0.36117068273E+04  0.36084621290E+04 0.  0.
        3    1    3    3  502    0 -0.13922313250E+04 -0.59718248541E+03  0.10573675147E+04  0.18474201077E+04  0.10100000352E+00 0.  1.
       -3    1    3    3    0  502  0.13922313250E+04  0.59718248541E+03 -0.90430782118E+03  0.17642867195E+04  0.10100000352E+00 0. -1.
</event>
<event>
 5   0  0.3704306E-07  0.3666037E+04  0.7818609E-02  0.8075530E-01
        1   -1    0    0  501    0  0.00000000000E+00  0.00000000000E+00  0.17610162126E+04  0.17610162126E+04  0.50400001928E-02 0. -1.
       -1   -1    0    0    0  501  0.00000000000E+00  0.00000000000E+00 -0.19079649934E+04  0.19079649934E+04  0.50400001928E-02 0.  1.
    10030    2    1    2    0    0  0.00000000000E+00  0.00000000000E+00 -0.14694878081E+03  0.36689812060E+04  0.36660372538E+04 0.  0.
        3    1    3    3  502    0 -0.80563214430E+02 -0.12485896018E+04 -0.14141361979E+04  0.18881863313E+04  0.10100000352E+00 0.  1.
       -3    1    3    3    0  502  0.80563214430E+02  0.12485896018E+04  0.12671874171E+04  0.17807948747E+04  0.10100000352E+00 0. -1.
</event>
<event>
 5   0  0.1066907E-06  0.3836793E+04  0.7818609E-02  0.8038305E-01
        2   -1    0    0  501    0  0.00000000000E+00  0.00000000000E+00  0.19673586923E+04  0.19673586923E+04  0.25500000920E-02 0.  1.
       -2   -1    0    0    0  501  0.00000000000E+00  0.00000000000E+00 -0.18706527636E+04  0.18706527636E+04  0.25500000920E-02 0. -1.
    10030    2    1    2    0    0  0.00000000000E+00  0.00000000000E+00  0.96705928698E+02  0.38380114559E+04  0.38367929184E+04 0.  0.
        4    1    3    3  502    0 -0.86370332828E+01 -0.11976852988E+04  0.15474011166E+04  0.19567770701E+04  0.12699999809E+01 0.  1.
       -4    1    3    3    0  502  0.86370332828E+01  0.11976852988E+04 -0.14506951879E+04  0.18812343858E+04  0.12699999809E+01 0. -1.
</event>
<event>
 5   0  0.3675819E-07  0.3372426E+04  0.7818609E-02  0.8144707E-01
       -1   -1    0    0    0  501  0.00000000000E+00  0.00000000000E+00  0.15263058683E+04  0.15263058683E+04  0.50400001928E-02 0. -1.
        1   -1    0    0  501    0  0.00000000000E+00  0.00000000000E+00 -0.18628735583E+04  0.18628735583E+04  0.50400001928E-02 0.  1.
    10030    2    1    2    0    0  0.00000000000E+00  0.00000000000E+00 -0.33656768997E+03  0.33891794266E+04  0.33724263337E+04 0.  0.
        5    1    3    3  502    0 -0.68412395091E+03  0.47857566030E+03  0.13039963643E+04  0.15483826565E+04  0.46999998093E+01 0. -1.
       -5    1    3    3    0  502  0.68412395091E+03 -0.47857566030E+03 -0.16405640543E+04  0.18407967701E+04  0.46999998093E+01 0.  1.
</event>
<event>
 5   0  0.3675819E-07  0.3206848E+04  0.7818609E-02  0.8187011E-01
        1   -1    0    0  501    0  0.00000000000E+00  0.00000000000E+00  0.10767657395E+04  0.10767657395E+04  0.50400001928E-02 0. -1.
       -1   -1    0    0    0  501  0.00000000000E+00  0.00000000000E+00 -0.23876762234E+04  0.23876762234E+04  0.50400001928E-02 0.  1.
    10030    2    1    2    0    0  0.00000000000E+00  0.00000000000E+00 -0.13109104839E+04  0.34644419629E+04  0.32068476449E+04 0.  0.
        5    1    3    3  502    0  0.86639468218E+03 -0.51838912340E+03  0.69022503269E+03  0.12230289098E+04  0.46999998093E+01 0. -1.
       -5    1    3    3    0  502 -0.86639468218E+03  0.51838912340E+03 -0.20011355166E+04  0.22414130530E+04  0.46999998093E+01 0.  1.
</event>
<event>
 5   0  0.1128166E-06  0.2272535E+04  0.7818609E-02  0.8488830E-01
        2   -1    0    0  501    0  0.00000000000E+00  0.00000000000E+00  0.13447137949E+04  0.13447137949E+04  0.25500000920E-02 0. -1.
       -2   -1    0    0    0  501  0.00000000000E+00  0.00000000000E+00 -0.96013245901E+03  0.96013245901E+03  0.25500000920E-02 0.  1.
    10030    2    1    2    0    0  0.00000000000E+00  0.00000000000E+00  0.38458133585E+03  0.23048462539E+04  0.22725345872E+04 0.  0.
        3    1    3    3  502    0  0.11043064678E+04 -0.20564616227E+03  0.36595681554E+03  0.11814006602E+04  0.10100000352E+00 0. -1.
       -3    1    3    3    0  502 -0.11043064678E+04  0.20564616227E+03  0.18624520304E+02  0.11234455936E+04  0.10100000352E+00 0.  1.
</event>
<event>
 5   0  0.3764495E-07  0.3684676E+04  0.7818609E-02  0.8071366E-01
       -1   -1    0    0    0  501  0.00000000000E+00  0.00000000000E+00  0.18347200730E+04  0.18347200731E+04  0.50400001928E-02 0.  1.
        1   -1    0    0  501    0  0.00000000000E+00  0.00000000000E+00 -0.18499880186E+04  0.18499880186E+04  0.50400001928E-02 0. -1.
    10030    2    1    2    0    0  0.00000000000E+00  0.00000000000E+00 -0.15267945553E+02  0.36847080917E+04  0.36846764594E+04 0.  0.
        4    1    3    3  502    0 -0.85166930690E+03  0.11503254916E+04 -0.11676522048E+04  0.18471606939E+04  0.12699999809E+01 0. -1.
       -4    1    3    3    0  502  0.85166930690E+03 -0.11503254916E+04  0.11523842593E+04  0.18375473977E+04  0.12699999809E+01 0.  1.
</event>
<event>
 5   0  0.3675819E-07  0.3684595E+04  0.7818609E-02  0.8071384E-01
        1   -1    0    0  501    0  0.00000000000E+00  0.00000000000E+00  0.22044729233E+04  0.22044729233E+04  0.50400001928E-02 0.  1.
       -1   -1    0    0    0  501  0.00000000000E+00  0.00000000000E+00 -0.15396243080E+04  0.15396243081E+04  0.50400001928E-02 0. -1.
    10030    2    1    2    0    0  0.00000000000E+00  0.00000000000E+00  0.66484861526E+03  0.37440972314E+04  0.36845950112E+04 0.  0.
        5    1    3    3  502    0 -0.11919722502E+04  0.13232093022E+04  0.81158707105E+03  0.19571347339E+04  0.46999998093E+01 0.  1.
       -5    1    3    3    0  502  0.11919722502E+04 -0.13232093022E+04 -0.14673845579E+03  0.17869624974E+04  0.46999998093E+01 0. -1.
</event>
<event>
 5   0  0.1051123E-06  0.2374668E+04  0.7818609E-02  0.8449049E-01
        2   -1    0    0  501    0  0.00000000000E+00  0.00000000000E+00  0.16900022589E+04  0.16900022589E+04  0.25500000920E-02 0.  1.
       -2   -1    0    0    0  501  0.00000000000E+00  0.00000000000E+00 -0.83417736858E+03  0.83417736859E+03  0.25500000920E-02 0. -1.
    10030    2    1    2    0    0  0.00000000000E+00  0.00000000000E+00  0.85582489036E+03  0.25241796275E+04  0.23746676713E+04 0.  0.
        2    1    3    3  502    0  0.78651622499E+03  0.86645303385E+03  0.64159939058E+03  0.13345405239E+04  0.25500000920E-02 0.  1.
       -2    1    3    3    0  502 -0.78651622499E+03 -0.86645303385E+03  0.21422549978E+03  0.11896391036E+04  0.25500000920E-02 0. -1.
</event>
<event>
 5   0  0.3682276E-07  0.2454342E+04  0.7818609E-02  0.8419434E-01
        1   -1    0    0  501    0  0.00000000000E+00  0.00000000000E+00  0.12907602404E+04  0.12907602404E+04  0.50400001928E-02 0.  1.
       -1   -1    0    0    0  501  0.00000000000E+00  0.00000000000E+00 -0.11667148121E+04  0.11667148121E+04  0.50400001928E-02 0. -1.
    10030    2    1    2    0    0  0.00000000000E+00  0.00000000000E+00  0.12404542826E+03  0.24574750525E+04  0.24543423489E+04 0.  0.
        1    1    3    3  502    0  0.11107789882E+04 -0.35598877506E+03  0.44381128369E+03  0.12480089840E+04  0.50400001928E-02 0.  1.
       -1    1    3    3    0  502 -0.11107789882E+04  0.35598877506E+03 -0.31976585543E+03  0.12094660685E+04  0.50400001928E-02 0. -1.
</event>
<event>
 5   0  0.1092116E-06  0.3592641E+04  0.7818609E-02  0.8092179E-01
       -2   -1    0    0    0  501  0.00000000000E+00  0.00000000000E+00  0.13161846875E+04  0.13161846875E+04  0.25500000920E-02 0.  1.
        2   -1    0    0  501    0  0.00000000000E+00  0.00000000000E+00 -0.24516070134E+04  0.24516070134E+04  0.25500000920E-02 0. -1.
    10030    2    1    2    0    0  0.00000000000E+00  0.00000000000E+00 -0.11354223258E+04  0.37677917009E+04  0.35926411515E+04 0.  0.
        1    1    3    3  502    0 -0.14362768771E+04  0.99801427457E+03 -0.13805033331E+03  0.17544177537E+04  0.50400001928E-02 0.  1.
       -1    1    3    3    0  502  0.14362768771E+04 -0.99801427457E+03 -0.99737199251E+03  0.20133739472E+04  0.50400001928E-02 0. -1.
</event>
<event>
 5   0  0.3848431E-07  0.3604950E+04  0.7818609E-02  0.8089359E-01
        1   -1    0    0  501    0  0.00000000000E+00  0.00000000000E+00  0.10841727751E+04  0.10841727751E+04  0.50400001928E-02 0. -1.
       -1   -1    0    0    0  501  0.00000000000E+00  0.00000000000E+00 -0.29966781753E+04  0.29966781753E+04  0.50400001928E-02 0.  1.
    10030    2    1    2    0    0  0.00000000000E+00  0.00000000000E+00 -0.19125054002E+04  0.40808509504E+04  0.36049504259E+04 0.  0.
        2    1    3    3  502    0  0.69113126455E+03  0.13408819833E+04  0.16053998612E+03  0.15170365866E+04  0.25500000920E-02 0. -1.
       -2    1    3    3    0  502 -0.69113126455E+03 -0.13408819833E+04 -0.20730453863E+04  0.25638143638E+04  0.25500000920E-02 0.  1.
</event>
<event>
 5   0  0.3682276E-07  0.3671020E+04  0.7818609E-02  0.8074415E-01
        1   -1    0    0  501    0  0.00000000000E+00  0.00000000000E+00  0.24477701228E+04  0.24477701229E+04  0.50400001928E-02 0. -1.
       -1   -1    0    0    0  501  0.00000000000E+00  0.00000000000E+00 -0.13763940533E+04  0.13763940533E+04  0.50400001928E-02 0.  1.
    10030    2    1    2    0    0  0.00000000000E+00  0.00000000000E+00  0.10713760695E+04  0.38241641762E+04  0.36710196082E+04 0.  0.
        1    1    3    3  502    0  0.77639163814E+03 -0.50538391905E+03 -0.11149980018E+04  0.14496266504E+04  0.50400001928E-02 0.  1.
       -1    1    3    3    0  502 -0.77639163814E+03  0.50538391905E+03  0.21863740714E+04  0.23745375258E+04  0.50400001928E-02 0. -1.
</event>
<event>
 5   0  0.1128166E-06  0.3685480E+04  0.7818609E-02  0.8071187E-01
        2   -1    0    0  501    0  0.00000000000E+00  0.00000000000E+00  0.24974617350E+04  0.24974617350E+04  0.25500000920E-02 0. -1.
       -2   -1    0    0    0  501  0.00000000000E+00  0.00000000000E+00 -0.13596564548E+04  0.13596564548E+04  0.25500000920E-02 0.  1.
    10030    2    1    2    0    0  0.00000000000E+00  0.00000000000E+00  0.11378052803E+04  0.38571181898E+04  0.36854795989E+04 0.  0.
        3    1    3    3  502    0  0.18114463013E+04 -0.36921733414E+02  0.92069556241E+03  0.20323339405E+04  0.10100000352E+00 0. -1.
       -3    1    3    3    0  502 -0.18114463013E+04  0.36921733414E+02  0.21710971784E+03  0.18247842493E+04  0.10100000352E+00 0.  1.
</event>
<event>
 5   0  0.3704306E-07  0.3030675E+04  0.7818609E-02  0.8235025E-01
       -1   -1    0    0    0  501  0.00000000000E+00  0.00000000000E+00  0.15115535806E+04  0.15115535806E+04  0.50400001928E-02 0.  1.
        1   -1    0    0  501    0  0.00000000000E+00  0.00000000000E+00 -0.15191306202E+04  0.15191306202E+04  0.50400001928E-02 0. -1.
    10030    2    1    2    0    0  0.00000000000E+00  0.00000000000E+00 -0.75770395996E+01  0.30306842009E+04  0.30306747291E+04 0.  0.
        3    1    3    3  502    0 -0.73414461614E+03  0.20471756847E+03 -0.13135138498E+04  0.15186165560E+04  0.10100000352E+00 0. -1.
       -3    1    3    3    0  502  0.73414461614E+03 -0.20471756847E+03  0.13059368102E+04  0.15120676449E+04  0.10100000352E+00 0.  1.
</event>
<event>
 5   0  0.1051123E-06  0.3697375E+04  0.7818609E-02  0.8068544E-01
        2   -1    0    0  501    0  0.00000000000E+00  0.00000000000E+00  0.23198979882E+04  0.23198979882E+04  0.25500000920E-02 0.  1.
       -2   -1    0    0    0  501  0.00000000000E+00  0.00000000000E+00 -0.14731878866E+04  0.14731878866E+04  0.25500000920E-02 0. -1.
    10030    2    1    2    0    0  0.00000000000E+00  0.00000000000E+00  0.84671010156E+03  0.37930858748E+04  0.36973750767E+04 0.  0.
        2    1    3    3  502    0  0.13376294915E+03 -0.77395918516E+03 -0.12935077209E+04  0.15132969209E+04  0.25500000920E-02 0. -1.
       -2    1    3    3    0  502 -0.13376294915E+03  0.77395918516E+03  0.21402178224E+04  0.22797889539E+04  0.25500000920E-02 0.  1.
</event>
<event>
 5   0  0.1128166E-06  0.3703128E+04  0.7818609E-02  0.8067269E-01
       -2   -1    0    0    0  501  0.00000000000E+00  0.00000000000E+00  0.27972852746E+04  0.27972852746E+04  0.25500000920E-02 0. -1.
        2   -1    0    0  501    0  0.00000000000E+00  0.00000000000E+00 -0.12255773994E+04  0.12255773994E+04  0.25500000920E-02 0.  1.
    10030    2    1    2    0    0  0.00000000000E+00  0.00000000000E+00  0.15717078751E+04  0.40228626740E+04  0.37031281978E+04 0.  0.
        3    1    3    3  502    0 -0.13205350700E+04 -0.11949907483E+04  0.13360126561E+04  0.22263749880E+04  0.10100000352E+00 0. -1.
       -3    1    3    3    0  502  0.13205350700E+04  0.11949907483E+04  0.23569521905E+03  0.17964876861E+04  0.10100000352E+00 0.  1.
</event>
<event>
 5   0  0.1051123E-06  0.3558791E+04  0.7818609E-02  0.8099997E-01
       -2   -1    0    0    0  501  0.00000000000E+00  0.00000000000E+00  0.19952269659E+04  0.19952269659E+04  0.25500000920E-02 0. -1.
        2   -1    0    0  501    0  0.00000000000E+00  0.00000000000E+00 -0.15869117473E+04  0.15869117473E+04  0.25500000920E-02 0.  1.
    10030    2    1    2    0    0  0.00000000000E+00  0.00000000000E+00  0.40831521852E+03  0.35821387132E+04  0.35587914301E+04 0.  0.
        2    1    3    3  502    0 -0.17168117944E+03  0.15943950807E+04 -0.57205584843E+03  0.17025915524E+04  0.25500000920E-02 0.  1.
       -2    1    3    3    0  502  0.17168117944E+03 -0.15943950807E+04  0.98037106695E+03  0.18795471608E+04  0.25500000920E-02 0. -1.
</event>
<event>
 5   0  0.1051123E-06  0.3678097E+04  0.7818609E-02  0.8072833E-01
        2   -1    0    0  501    0  0.00000000000E+00  0.00000000000E+00  0.26555076756E+04  0.26555076756E+04  0.25500000920E-02 0. -1.
       -2   -1    0    0    0  501  0.00000000000E+00  0.00000000000E+00 -0.12736167482E+04  0.12736167482E+04  0.25500000920E-02 0.  1.
    10030    2    1    2    0    0  0.00000000000E+00  0.00000000000E+00  0.13818909274E+04  0.39291244238E+04  0.36780968179E+04 0.  0.
        2    1    3    3  502    0 -0.99098946418E+03 -0.23680220360E+03 -0.94454516893E+03  0.13893527190E+04  0.25500000920E-02 0.  1.
       -2    1    3    3    0  502  0.99098946418E+03  0.23680220360E+03  0.23264360963E+04  0.25397717047E+04  0.25500000920E-02 0. -1.
</event>
<event>
 5   0  0.3490375E-07  0.3048622E+04  0.7818609E-02  0.8229981E-01
       -3   -1    0    0    0  501  0.00000000000E+00  0.00000000000E+00  0.18662080716E+04  0.18662080743E+04  0.10100000352E+00 0.  1.
        3   -1    0    0  501    0  0.00000000000E+00  0.00000000000E+00 -0.12450509231E+04  0.12450509272E+04  0.10100000352E+00 0. -1.
    10030    2    1    2    0    0  0.00000000000E+00  0.00000000000E+00  0.62115714847E+03  0.31112590015E+04  0.30486220447E+04 0.  0.
        4    1    3    3  502    0 -0.10931355225E+04 -0.10476662914E+04  0.49018466926E+03  0.15914875279E+04  0.12699999809E+01 0. -1.
       -4    1    3    3    0  502  0.10931355225E+04  0.10476662914E+04  0.13097247922E+03  0.15197714736E+04  0.12699999809E+01 0.  1.
</event>
<event>
 5   0  0.3682276E-07  0.3244785E+04  0.7818609E-02  0.8177089E-01
        1   -1    0    0  501    0  0.00000000000E+00  0.00000000000E+00  0.12810985245E+04  0.12810985246E+04  0.50400001928E-02 0. -1.
       -1   -1    0    0    0  501  0.00000000000E+00  0.00000000000E+00 -0.20546102100E+04  0.20546102100E+04  0.50400001928E-02 0.  1.
    10030    2    1    2    0    0  0.00000000000E+00  0.00000000000E+00 -0.77351168549E+03  0.33357087346E+04  0.32447854219E+04 0.  0.
        1    1    3    3  502    0  0.15702580065E+04  0.37828152891E+03 -0.22966359367E+03  0.16314265194E+04  0.50400001928E-02 0. -1.
       -1    1    3    3    0  502 -0.15702580065E+04 -0.37828152891E+03 -0.54384809181E+03  0.17042822152E+04  0.50400001928E-02 0.  1.
</event>
<event>
 5   0  0.1051123E-06  0.3693045E+04  0.7818609E-02  0.8069505E-01
        2   -1    0    0  501    0  0.00000000000E+00  0.00000000000E+00  0.24263118613E+04  0.24263118613E+04  0.25500000920E-02 0. -1.
       -2   -1    0    0    0  501  0.00000000000E+00  0.00000000000E+00 -0.14052793792E+04  0.14052793792E+04  0.25500000920E-02 0.  1.
    10030    2    1    2    0    0  0.00000000000E+00  0.00000000000E+00  0.10210324820E+04  0.38315912405E+04  0.36930453700E+04 0.  0.
        2    1    3    3  502    0 -0.16521550108E+04 -0.59435387699E+03  0.11036024436E+04  0.20738396911E+04  0.25500000920E-02 0.  1.
       -2    1    3    3    0  502  0.16521550108E+04  0.59435387699E+03 -0.82569961614E+02  0.17577515494E+04  0.25500000920E-02 0. -1.
</event>
<event>
 5   0  0.1051123E-06  0.2786149E+04  0.7818609E-02  0.8307581E-01
       -2   -1    0    0    0  501  0.00000000000E+00  0.00000000000E+00  0.22727203563E+04  0.22727203563E+04  0.25500000920E-02 0. -1.
        2   -1    0    0  501    0  0.00000000000E+00  0.00000000000E+00 -0.85389159507E+03  0.85389159508E+03  0.25500000920E-02 0.  1.
    10030    2    1    2    0    0  0.00000000000E+00  0.00000000000E+00  0.14188287612E+04  0.31266119513E+04  0.27861491777E+04 0.  0.
        2    1    3    3  502    0  0.30296587232E+02  0.79267871213E+03 -0.57568615826E+03  0.98013875379E+03  0.25500000920E-02 0.  1.
       -2    1    3    3    0  502 -0.30296587232E+02 -0.79267871213E+03  0.19945149194E+04  0.21464731975E+04  0.25500000920E-02 0. -1.
</event>
<event>
 5   0  0.1128166E-06  0.3703066E+04  0.7818609E-02  0.8067283E-01
       -2   -1    0    0    0  501  0.00000000000E+00  0.00000000000E+00  0.15418892013E+04  0.15418892013E+04  0.25500000920E-02 0.  1.
        2   -1    0    0  501    0  0.00000000000E+00  0.00000000000E+00 -0.22233594014E+04  0.22233594014E+04  0.25500000920E-02 0. -1.
    10030    2    1    2    0    0  0.00000000000E+00  0.00000000000E+00 -0.68147020003E+03  0.37652486027E+04  0.37030656768E+04 0.  0.
        3    1    3    3  502    0 -0.16707795754E+04  0.79756367550E+03 -0.36483190261E+03  0.18869855679E+04  0.10100000352E+00 0.  1.
       -3    1    3    3    0  502  0.16707795754E+04 -0.79756367550E+03 -0.31663829743E+03  0.18782630348E+04  0.10100000352E+00 0. -1.
</event>
<event>
 5   0  0.3848431E-07  0.3680988E+04  0.7818609E-02  0.8072188E-01
       -1   -1    0    0    0  501  0.00000000000E+00  0.00000000000E+00  0.18380535396E+04  0.18380535396E+04  0.50400001928E-02 0.  1.
        1   -1    0    0  501    0  0.00000000000E+00  0.00000000000E+00 -0.18429375940E+04  0.18429375940E+04  0.50400001928E-02 0. -1.
    10030    2    1    2    0    0  0.00000000000E+00  0.00000000000E+00 -0.48840544432E+01  0.36809911336E+04  0.36809878934E+04 0.  0.
        2    1    3    3  502    0 -0.89908991870E+03  0.86085551431E+03 -0.13581655629E+04  0.18422943833E+04  0.25500000920E-02 0. -1.
       -2    1    3    3    0  502  0.89908991870E+03 -0.86085551431E+03  0.13532815085E+04  0.18386967503E+04  0.25500000920E-02 0.  1.
</event>
<event>
 5   0  0.3682276E-07  0.3655020E+04  0.7818609E-02  0.8078004E-01
       -1   -1    0    0    0  501  0.00000000000E+00  0.00000000000E+00  0.32957405670E+04  0.32957405670E+04  0.50400001928E-02 0. -1.
        1   -1    0    0  501    0  0.00000000000E+00  0.00000000000E+00 -0.10133666857E+04  0.10133666857E+04  0.50400001928E-02 0.  1.
    10030    2    1    2    0    0  0.00000000000E+00  0.00000000000E+00  0.22823738813E+04  0.43091072527E+04  0.36550204898E+04 0.  0.
        1    1    3    3  502    0 -0.79890723562E+03  0.10087877855E+04 -0.38868156882E+03  0.13442391637E+04  0.50400001928E-02 0.  1.
       -1    1    3    3    0  502  0.79890723562E+03 -0.10087877855E+04  0.26710554502E+04  0.29648680890E+04  0.50400001928E-02 0. -1.
</event>
<event>
 5   0  0.1051123E-06  0.3733814E+04  0.7818609E-02  0.8060509E-01
       -2   -1    0    0    0  501  0.00000000000E+00  0.00000000000E+00  0.11708641620E+04  0.11708641621E+04  0.25500000920E-02 0.  1.
        2   -1    0    0  501    0  0.00000000000E+00  0.00000000000E+00 -0.29767254025E+04  0.29767254025E+04  0.25500000920E-02 0. -1.
    10030    2    1    2    0    0  0.00000000000E+00  0.00000000000E+00 -0.18058612405E+04  0.41475895646E+04  0.37338136505E+04 0.  0.
        2    1    3    3  502    0 -0.16643604662E+04  0.41819462658E+03 -0.86378026532E+02  0.17182676365E+04  0.25500000920E-02 0.  1.
       -2    1    3    3    0  502  0.16643604662E+04 -0.41819462658E+03 -0.17194832139E+04  0.24293219281E+04  0.25500000920E-02 0. -1.
</event>
<event>
 5   0  0.1128530E-06  0.3540255E+04  0.7818609E-02  0.8104316E-01
        2   -1    0    0  501    0  0.00000000000E+00  0.00000000000E+00  0.19970960944E+04  0.19970960944E+04  0.25500000920E-02 0. -1.
       -2   -1    0    0    0  501  0.00000000000E+00  0.00000000000E+00 -0.15689535425E+04  0.15689535425E+04  0.25500000920E-02 0.  1.
    10030    2    1    2    0    0  0.00000000000E+00  0.00000000000E+00  0.42814255196E+03  0.35660496369E+04  0.35402547886E+04 0.  0.
        5    1    3    3  502    0  0.95318836514E+02 -0.11512117138E+04  0.15650950526E+04  0.19452297304E+04  0.46999998093E+01 0. -1.
       -5    1    3    3    0  502 -0.95318836514E+02  0.11512117138E+04 -0.11369525006E+04  0.16208199065E+04  0.46999998093E+01 0.  1.
</event>
<event>
 5   0  0.3848431E-07  0.2995509E+04  0.7818609E-02  0.8245014E-01
        1   -1    0    0  501    0  0.00000000000E+00  0.00000000000E+00  0.16014586475E+04  0.16014586475E+04  0.50400001928E-02 0.  1.
       -1   -1    0    0    0  501  0.00000000000E+00  0.00000000000E+00 -0.14007660636E+04  0.14007660636E+04  0.50400001928E-02 0. -1.
    10030    2    1    2    0    0  0.00000000000E+00  0.00000000000E+00  0.20069258388E+03  0.30022247111E+04  0.29955092560E+04 0.  0.
        2    1    3    3  502    0 -0.78378735224E+03  0.25650581358E+03 -0.11527169977E+04  0.14173476365E+04  0.25500000920E-02 0. -1.
       -2    1    3    3    0  502  0.78378735224E+03 -0.25650581358E+03  0.13534095816E+04  0.15848770746E+04  0.25500000920E-02 0.  1.
</event>
<event>
 5   0  0.3675819E-07  0.3398053E+04  0.7818609E-02  0.8138384E-01
       -1   -1    0    0    0  501  0.00000000000E+00  0.00000000000E+00  0.10179544971E+04  0.10179544971E+04  0.50400001928E-02 0.  1.
        1   -1    0    0  501    0  0.00000000000E+00  0.00000000000E+00 -0.28357760011E+04  0.28357760011E+04  0.50400001928E-02 0. -1.
    10030    2    1    2    0    0  0.00000000000E+00  0.00000000000E+00 -0.18178215040E+04  0.38537304981E+04  0.33980529325E+04 0.  0.
        5    1    3    3  502    0  0.11152896969E+04 -0.70119890662E+03  0.30786652386E+03  0.13529060948E+04  0.46999998093E+01 0.  1.
       -5    1    3    3    0  502 -0.11152896969E+04  0.70119890662E+03 -0.21256880279E+04  0.25008244034E+04  0.46999998093E+01 0. -1.
</event>
<event>
 5   0  0.1066907E-06  0.3765635E+04  0.7818609E-02  0.8053570E-01
        2   -1    0    0  501    0  0.00000000000E+00  0.00000000000E+00  0.22541378775E+04  0.22541378775E+04  0.25500000920E-02 0. -1.
       -2   -1    0    0    0  501  0.00000000000E+00  0.00000000000E+00 -0.15726637223E+04  0.15726637223E+04  0.25500000920E-02 0.  1.
    10030    2    1    2    0    0  0.00000000000E+00  0.00000000000E+00  0.68147415519E+03  0.38268015998E+04  0.37656345362E+04 0.  0.
        4    1    3    3  502    0  0.32676554137E+03 -0.50909242852E+03  0.21526876671E+04  0.22360716949E+04  0.12699999809E+01 0. -1.
       -4    1    3    3    0  502 -0.32676554137E+03  0.50909242852E+03 -0.14712135119E+04  0.15907299049E+04  0.12699999809E+01 0.  1.
</event>
<event>
 5   0  0.3704306E-07  0.2296791E+04  0.7818609E-02  0.8479187E-01
       -1   -1    0    0    0  501  0.00000000000E+00  0.00000000000E+00  0.10138063324E+04  0.10138063325E+04  0.50400001928E-02 0. -1.
        1   -1    0    0  501    0  0.00000000000E+00  0.00000000000E+00 -0.13008526374E+04  0.13008526374E+04  0.50400001928E-02 0.  1.
    10030    2    1    2    0    0  0.00000000000E+00  0.00000000000E+00 -0.28704630496E+03  0.23146589699E+04  0.22967913631E+04 0.  0.
        3    1    3    3  502    0  0.28047016485E+03 -0.10690161596E+04 -0.45796577091E+03  0.11963242539E+04  0.10100000352E+00 0.  1.
       -3    1    3    3    0  502 -0.28047016485E+03  0.10690161596E+04  0.17091946595E+03  0.11183347160E+04  0.10100000352E+00 0. -1.
</event>
<event>
 5   0  0.3848431E-07  0.2722267E+04  0.7818609E-02  0.8327816E-01
       -1   -1    0    0    0  501  0.00000000000E+00  0.00000000000E+00  0.91688855040E+03  0.91688855042E+03  0.50400001928E-02 0.  1.
        1   -1    0    0  501    0  0.00000000000E+00  0.00000000000E+00 -0.20206204396E+04  0.20206204396E+04  0.50400001928E-02 0. -1.
    10030    2    1    2    0    0  0.00000000000E+00  0.00000000000E+00 -0.11037318891E+04  0.29375089900E+04  0.27222665158E+04 0.  0.
        2    1    3    3  502    0  0.47741853785E+03 -0.10145925000E+04  0.28073599992E+03  0.11559148338E+04  0.25500000920E-02 0.  1.
       -2    1    3    3    0  502 -0.47741853785E+03  0.10145925000E+04 -0.13844678891E+04  0.17815941562E+04  0.25500000920E-02 0. -1.
</event>
<event>
 5   0  0.1051123E-06  0.3374183E+04  0.7818609E-02  0.8144272E-01
        2   -1    0    0  501    0  0.00000000000E+00  0.00000000000E+00  0.18063424381E+04  0.18063424381E+04  0.25500000920E-02 0.  1.
       -2   -1    0    0    0  501  0.00000000000E+00  0.00000000000E+00 -0.15757127959E+04  0.15757127959E+04  0.25500000920E-02 0. -1.
    10030    2    1    2    0    0  0.00000000000E+00  0.00000000000E+00  0.23062964227E+03  0.33820552340E+04  0.33741825046E+04 0.  0.
        2    1    3    3  502    0  0.47300078324E+03  0.11791225886E+04 -0.99732791709E+03  0.16151541085E+04  0.25500000920E-02 0. -1.
       -2    1    3    3    0  502 -0.47300078324E+03 -0.11791225886E+04  0.12279575594E+04  0.17669011256E+04  0.25500000920E-02 0.  1.
</event>
<event>
 5   0  0.1128166E-06  0.3675914E+04  0.7818609E-02  0.8073321E-01
       -2   -1    0    0    0  501  0.00000000000E+00  0.00000000000E+00  0.35949620546E+04  0.35949620546E+04  0.25500000920E-02 0. -1.
        2   -1    0    0  501    0  0.00000000000E+00  0.00000000000E+00 -0.93967201835E+03  0.93967201836E+03  0.25500000920E-02 0.  1.
    10030    2    1    2    0    0  0.00000000000E+00  0.00000000000E+00  0.26552900362E+04  0.45346340730E+04  0.36759136278E+04 0.  0.
        3    1    3    3  502    0 -0.58315406938E+03  0.17139442520E+04  0.93674197813E+03  0.20384207396E+04  0.10100000352E+00 0. -1.
       -3    1    3    3    0  502  0.58315406938E+03 -0.17139442520E+04  0.17185480581E+04  0.24962133334E+04  0.10100000352E+00 0.  1.
</event>
<event>
 5   0  0.3764495E-07  0.2716580E+04  0.7818609E-02  0.8329645E-01
       -1   -1    0    0    0  501  0.00000000000E+00  0.00000000000E+00  0.13720504667E+04  0.13720504667E+04  0.50400001928E-02 0. -1.
        1   -1    0    0  501    0  0.00000000000E+00  0.00000000000E+00 -0.13446671514E+04  0.13446671514E+04  0.50400001928E-02 0.  1.
    10030    2    1    2    0    0  0.00000000000E+00  0.00000000000E+00  0.27383315244E+02  0.27167176181E+04  0.27165796087E+04 0.  0.
        4    1    3    3  502    0  0.10517492510E+04  0.34310737307E+03 -0.77441590285E+03  0.13504150325E+04  0.12699999809E+01 0.  1.
       -4    1    3    3    0  502 -0.10517492510E+04 -0.34310737307E+03  0.80179921809E+03  0.13663025856E+04  0.12699999809E+01 0. -1.
</event>
<event>
 5   0  0.1128166E-06  0.2737656E+04  0.7818609E-02  0.8322889E-01
       -2   -1    0    0    0  501  0.00000000000E+00  0.00000000000E+00  0.20453392182E+04  0.20453392182E+04  0.25500000920E-02 0. -1.
        2   -1    0    0  501    0  0.00000000000E+00  0.00000000000E+00 -0.91607763065E+03  0.91607763066E+03  0.25500000920E-02 0.  1.
    10030    2    1    2    0    0  0.00000000000E+00  0.00000000000E+00  0.11292615875E+04  0.29614168488E+04  0.27376555699E+04 0.  0.
        3    1    3    3  502    0  0.75063891448E+03  0.64225888082E+03  0.15895617990E+04  0.18715400004E+04  0.10100000352E+00 0. -1.
       -3    1    3    3    0  502 -0.75063891448E+03 -0.64225888082E+03 -0.46030021148E+03  0.10898768485E+04  0.10100000352E+00 0.  1.
</event>
<event>
 5   0  0.3704306E-07  0.3251183E+04  0.7818609E-02  0.8175429E-01
        1   -1    0    0  501    0  0.00000000000E+00  0.00000000000E+00  0.19452088373E+04  0.19452088373E+04  0.50400001928E-02 0. -1.
       -1   -1    0    0    0  501  0.00000000000E+00  0.00000000000E+00 -0.13584902516E+04  0.13584902516E+04  0.50400001928E-02 0.  1.
    10030    2    1    2    0    0  0.00000000000E+00  0.00000000000E+00  0.58671858566E+03  0.33036990889E+04  0.32511827035E+04 0.  0.
        3    1    3    3  502    0 -0.13359591925E+04 -0.12016835062E+03  0.12265174690E+04  0.18175732471E+04  0.10100000352E+00 0. -1.
       -3    1    3    3    0  502  0.13359591925E+04  0.12016835062E+03 -0.63979888330E+03  0.14861258419E+04  0.10100000352E+00 0.  1.
</event>
<event>
 5   0  0.1051123E-06  0.3673723E+04  0.7818609E-02  0.8073810E-01
       -2   -1    0    0    0  501  0.00000000000E+00  0.00000000000E+00  0.13778209653E+04  0.13778209653E+04  0.25500000920E-02 0.  1.
        2   -1    0    0  501    0  0.00000000000E+00  0.00000000000E+00 -0.24488383627E+04  0.24488383627E+04  0.25500000920E-02 0. -1.
    10030    2    1    2    0    0  0.00000000000E+00  0.00000000000E+00 -0.10710173975E+04  0.38266593280E+04  0.36737233629E+04 0.  0.
        2    1    3    3  502    0  0.10476817370E+04 -0.13701505360E+04 -0.11935609436E+04  0.20975073873E+04  0.25500000920E-02 0. -1.
       -2    1    3    3    0  502 -0.10476817370E+04  0.13701505360E+04  0.12254354617E+03  0.17291519408E+04  0.25500000920E-02 0.  1.
</event>
<event>
 5   0  0.1128166E-06  0.3776582E+04  0.7818609E-02  0.8051199E-01
        2   -1    0    0  501    0  0.00000000000E+00  0.00000000000E+00  0.22104183944E+04  0.22104183944E+04  0.25500000920E-02 0. -1.
       -2   -1    0    0    0  501  0.00000000000E+00  0.00000000000E+00 -0.16131079395E+04  0.16131079395E+04  0.25500000920E-02 0.  1.
    10030    2    1    2    0    0  0.00000000000E+00  0.00000000000E+00  0.59731045483E+03  0.38235263339E+04  0.37765822971E+04 0.  0.
        3    1    3    3  502    0 -0.17484834022E+04 -0.31794039612E+03  0.94483893196E+03  0.20127098452E+04  0.10100000352E+00 0.  1.
       -3    1    3    3    0  502  0.17484834022E+04  0.31794039612E+03 -0.34752847713E+03  0.18108164888E+04  0.10100000352E+00 0. -1.
</event>
<event>
 5   0  0.1092116E-06  0.3818825E+04  0.7818609E-02  0.8042127E-01
        2   -1    0    0  501    0  0.00000000000E+00  0.00000000000E+00  0.15794899650E+04  0.15794899650E+04  0.25500000920E-02 0. -1.
       -2   -1    0    0    0  501  0.00000000000E+00  0.00000000000E+00 -0.23082483884E+04  0.23082483884E+04  0.25500000920E-02 0.  1.
    10030    2    1    2    0    0  0.00000000000E+00  0.00000000000E+00 -0.72875842337E+03  0.38877383534E+04  0.38188245135E+04 0.  0.
        1    1    3    3  502    0 -0.45906890358E+02 -0.17258292136E+04 -0.11947335151E+04  0.20995194901E+04  0.50400001928E-02 0.  1.
       -1    1    3    3    0  502  0.45906890358E+02  0.17258292136E+04  0.46597509172E+03  0.17882188633E+04  0.50400001928E-02 0. -1.
</event>
<event>
 5   0  0.3682276E-07  0.3660844E+04  0.7818609E-02  0.8076695E-01
       -1   -1    0    0    0  501  0.00000000000E+00  0.00000000000E+00  0.29775822334E+04  0.29775822334E+04  0.50400001928E-02 0. -1.
        1   -1    0    0  501    0  0.00000000000E+00  0.00000000000E+00 -0.11252232303E+04  0.11252232303E+04  0.50400001928E-02 0.  1.
    10030    2    1    2    0    0  0.00000000000E+00  0.00000000000E+00  0.18523590031E+04  0.41028054637E+04  0.36608440006E+04 0.  0.
        1    1    3    3  502    0 -0.78373799709E+03  0.52608408667E+03 -0.83140970029E+03  0.12578759097E+04  0.50400001928E-02 0.  1.
       -1    1    3    3    0  502  0.78373799709E+03 -0.52608408667E+03  0.26837687034E+04  0.28449295541E+04  0.50400001928E-02 0. -1.
</event>
<event>
 5   0  0.1128166E-06  0.3655312E+04  0.7818609E-02  0.8077938E-01
       -2   -1    0    0    0  501  0.00000000000E+00  0.00000000000E+00  0.25614239686E+04  0.25614239686E+04  0.25500000920E-02 0. -1.
        2   -1    0    0  501    0  0.00000000000E+00  0.00000000000E+00 -0.13040894635E+04  0.13040894635E+04  0.25500000920E-02 0.  1.
    10030    2    1    2    0    0  0.00000000000E+00  0.00000000000E+00  0.12573345051E+04  0.38655134321E+04  0.36553117563E+04 0.  0.
        3    1    3    3  502    0 -0.45520987349E+03 -0.17561915865E+04  0.39481476475E+03  0.18566915808E+04  0.10100000352E+00 0. -1.
       -3    1    3    3    0  502  0.45520987349E+03  0.17561915865E+04  0.86251974033E+03  0.20088218513E+04  0.10100000352E+00 0.  1.
</event>
<event>
 5   0  0.5738871E-07  0.2309317E+04  0.7818609E-02  0.8474257E-01
       -1   -1    0    0    0  501  0.00000000000E+00  0.00000000000E+00  0.89337466114E+03  0.89337466115E+03  0.50400001928E-02 0.  1.
        1   -1    0    0  501    0  0.00000000000E+00  0.00000000000E+00 -0.14923590499E+04  0.14923590499E+04  0.50400001928E-02 0. -1.
    10030    2    1    2    0    0  0.00000000000E+00  0.00000000000E+00 -0.59898438879E+03  0.23857337111E+04  0.23093165747E+04 0.  0.
        4    1    3    3  502    0 -0.86680919763E+03  0.19453273741E+03  0.46250102594E+03  0.10015537843E+04  0.12699999809E+01 0.  1.
       -4    1    3    3    0  502  0.86680919763E+03 -0.19453273741E+03 -0.10614854147E+04  0.13841799267E+04  0.12699999809E+01 0. -1.
</event>
<event>
 5   0  0.1128530E-06  0.3953770E+04  0.7818609E-02  0.8013938E-01
       -2   -1    0    0    0  501  0.00000000000E+00  0.00000000000E+00  0.19481366588E+04  0.19481366588E+04  0.25500000920E-02 0. -1.
        2   -1    0    0  501    0  0.00000000000E+00  0.00000000000E+00 -0.20060572571E+04  0.20060572571E+04  0.25500000920E-02 0.  1.
    10030    2    1    2    0    0  0.00000000000E+00  0.00000000000E+00 -0.57920598370E+02  0.39541939159E+04  0.39537696859E+04 0.  0.
        5    1    3    3  502    0  0.19616148883E+04 -0.23401059344E+03 -0.10216422074E+03  0.19781692410E+04  0.46999998093E+01 0. -1.
       -5    1    3    3    0  502 -0.19616148883E+04  0.23401059344E+03  0.44243622366E+02  0.19760246749E+04  0.46999998093E+01 0.  1.
</event>
<event>
 5   0  0.3764495E-07  0.3705183E+04  0.7818609E-02  0.8066814E-01
        1   -1    0    0  501    0  0.00000000000E+00  0.00000000000E+00  0.18392141359E+04  0.18392141359E+04  0.50400001928E-02 0.  1.
       -1   -1    0    0    0  501  0.00000000000E+00  0.00000000000E+00 -0.18660659688E+04  0.18660659688E+04  0.50400001928E-02 0. -1.
    10030    2    1    2    0    0  0.00000000000E+00  0.00000000000E+00 -0.26851832984E+02  0.37052801047E+04  0.37051828070E+04 0.  0.
        4    1    3    3  502    0 -0.19608530580E+03 -0.11802434053E+04  0.14010614212E+04  0.18423893893E+04  0.12699999809E+01 0.  1.
       -4    1    3    3    0  502  0.19608530580E+03  0.11802434053E+04 -0.14279132542E+04  0.18628907154E+04  0.12699999809E+01 0. -1.
</event>
<event>
 5   0  0.3675819E-07  0.3291773E+04  0.7818609E-02  0.8164992E-01
       -1   -1    0    0    0  501  0.00000000000E+00  0.00000000000E+00  0.12532278628E+04  0.12532278628E+04  0.50400001928E-02 0.  1.
        1   -1    0    0  501    0  0.00000000000E+00  0.00000000000E+00 -0.21615722316E+04  0.21615722316E+04  0.50400001928E-02 0. -1.
    10030    2    1    2    0    0  0.00000000000E+00  0.00000000000E+00 -0.90834436880E+03  0.34148000945E+04  0.32917731077E+04 0.  0.
        5    1    3    3  502    0  0.11921552008E+04  0.58232812121E+03 -0.14645236226E+04  0.19761557618E+04  0.46999998093E+01 0. -1.
       -5    1    3    3    0  502 -0.11921552008E+04 -0.58232812121E+03  0.55617925381E+03  0.14386443327E+04  0.46999998093E+01 0.  1.
</event>
<event>
 5   0  0.1092116E-06  0.2572422E+04  0.7818609E-02  0.8377630E-01
        2   -1    0    0  501    0  0.00000000000E+00  0.00000000000E+00  0.15486108775E+04  0.15486108775E+04  0.25500000920E-02 0. -1.
       -2   -1    0    0    0  501  0.00000000000E+00  0.00000000000E+00 -0.10682725339E+04  0.10682725339E+04  0.25500000920E-02 0.  1.
    10030    2    1    2    0    0  0.00000000000E+00  0.00000000000E+00  0.48033834355E+03  0.26168834114E+04  0.25724217897E+04 0.  0.
        1    1    3    3  502    0  0.61442085592E+03 -0.15966142525E+03 -0.89779546502E+03  0.10995642118E+04  0.50400001928E-02 0.  1.
       -1    1    3    3    0  502 -0.61442085592E+03  0.15966142525E+03  0.13781338086E+04  0.15173191995E+04  0.50400001928E-02 0. -1.
</event>
<event>
 5   0  0.1066907E-06  0.3738442E+04  0.7818609E-02  0.8059496E-01
        2   -1    0    0  501    0  0.00000000000E+00  0.00000000000E+00  0.23315846355E+04  0.23315846355E+04  0.25500000920E-02 0.  1.
       -2   -1    0    0    0  501  0.00000000000E+00  0.00000000000E+00 -0.14985463844E+04  0.14985463844E+04  0.25500000920E-02 0. -1.
    10030    2    1    2    0    0  0.00000000000E+00  0.00000000000E+00  0.83303825112E+03  0.38301310199E+04  0.37384423095E+04 0.  0.
        4    1    3    3  502    0 -0.94756586433E+03 -0.11676662684E+04  0.15540015434E+04  0.21624634081E+04  0.12699999809E+01 0.  1.
       -4    1    3    3    0  502  0.94756586433E+03  0.11676662684E+04 -0.72096329230E+03  0.16676676118E+04  0.12699999809E+01 0. -1.
</event>
<event>
 5   0  0.1128166E-06  0.3357962E+04  0.7818609E-02  0.8148302E-01
        2   -1    0    0  501    0  0.00000000000E+00  0.00000000000E+00  0.25408690127E+04  0.25408690127E+04  0.25500000920E-02 0.  1.
       -2   -1    0    0    0  501  0.00000000000E+00  0.00000000000E+00 -0.11094537186E+04  0.11094537186E+04  0.25500000920E-02 0. -1.
    10030    2    1    2    0    0  0.00000000000E+00  0.00000000000E+00  0.14314152941E+04  0.36503227312E+04  0.33579616284E+04 0.  0.
        3    1    3    3  502    0  0.11887344488E+04 -0.11398839330E+04  0.36086524646E+03  0.16860156307E+04  0.10100000352E+00 0.  1.
       -3    1    3    3    0  502 -0.11887344488E+04  0.11398839330E+04  0.10705500476E+04  0.19643071006E+04  0.10100000352E+00 0. -1.
</event>
<event>
 5   0  0.3764495E-07  0.3640766E+04  0.7818609E-02  0.8081217E-01
        1   -1    0    0  501    0  0.00000000000E+00  0.00000000000E+00  0.16691539280E+04  0.16691539281E+04  0.50400001928E-02 0.  1.
       -1   -1    0    0    0  501  0.00000000000E+00  0.00000000000E+00 -0.19853134358E+04  0.19853134358E+04  0.50400001928E-02 0. -1.
    10030    2    1    2    0    0  0.00000000000E+00  0.00000000000E+00 -0.31615950771E+03  0.36544673638E+04  0.36407656995E+04 0.  0.
        4    1    3    3  502    0  0.10808601417E+04 -0.14438734064E+04 -0.40550905584E+03  0.18486395719E+04  0.12699999809E+01 0. -1.
       -4    1    3    3    0  502 -0.10808601417E+04  0.14438734064E+04  0.89349548126E+02  0.18058277919E+04  0.12699999809E+01 0.  1.
</event>
<event>
 5   0  0.3848431E-07  0.2481654E+04  0.7818609E-02  0.8409551E-01
        1   -1    0    0  501    0  0.00000000000E+00  0.00000000000E+00  0.17758070956E+04  0.17758070956E+04  0.50400001928E-02 0. -1.
       -1   -1    0    0    0  501  0.00000000000E+00  0.00000000000E+00 -0.86701528981E+03  0.86701528983E+03  0.50400001928E-02 0.  1.
    10030    2    1    2    0    0  0.00000000000E+00  0.00000000000E+00  0.90879180575E+03  0.26428223854E+04  0.24816542093E+04 0.  0.
        2    1    3    3  502    0  0.90859951543E+03 -0.77011201165E+03  0.83914329664E+02  0.11940130672E+04  0.25500000920E-02 0.  1.
       -2    1    3    3    0  502 -0.90859951543E+03  0.77011201165E+03  0.82487747609E+03  0.14488093182E+04  0.25500000920E-02 0. -1.
</event>
<event>
 5   0  0.1128530E-06  0.3725951E+04  0.7818609E-02  0.8062235E-01
       -2   -1    0    0    0  501  0.00000000000E+00  0.00000000000E+00  0.11976730735E+04  0.11976730735E+04  0.25500000920E-02 0. -1.
        2   -1    0    0  501    0  0.00000000000E+00  0.00000000000E+00 -0.28978500259E+04  0.28978500259E+04  0.25500000920E-02 0.  1.
    10030    2    1    2    0    0  0.00000000000E+00  0.00000000000E+00 -0.17001769524E+04  0.40955230994E+04  0.37259505885E+04 0.  0.
        5    1    3    3  502    0 -0.10848536838E+04 -0.14519275895E+04 -0.37647506094E+03  0.18511501295E+04  0.46999998093E+01 0. -1.
       -5    1    3    3    0  502  0.10848536838E+04  0.14519275895E+04 -0.13237018914E+04  0.22443729699E+04  0.46999998093E+01 0.  1.
</event>
<event>
 5   0  0.3682276E-07  0.3819590E+04  0.7818609E-02  0.8041964E-01
        1   -1    0    0  501    0  0.00000000000E+00  0.00000000000E+00  0.24349136451E+04  0.24349136452E+04  0.50400001928E-02 0.  1.
       -1   -1    0    0    0  501  0.00000000000E+00  0.00000000000E+00 -0.14979249057E+04  0.14979249057E+04  0.50400001928E-02 0. -1.
    10030    2    1    2    0    0  0.00000000000E+00  0.00000000000E+00  0.93698873941E+03  0.39328385509E+04  0.38195904453E+04 0.  0.
        1    1    3    3  502    0 -0.71000299322E+03 -0.17640967952E+04  0.28669189569E+03  0.19231053004E+04  0.50400001928E-02 0. -1.
       -1    1    3    3    0  502  0.71000299322E+03  0.17640967952E+04  0.65029684372E+03  0.20097332505E+04  0.50400001928E-02 0.  1.
</event>
<event>
 5   0  0.1128166E-06  0.3585597E+04  0.7818609E-02  0.8093799E-01
       -2   -1    0    0    0  501  0.00000000000E+00  0.00000000000E+00  0.14575901401E+04  0.14575901401E+04  0.25500000920E-02 0. -1.
        2   -1    0    0  501    0  0.00000000000E+00  0.00000000000E+00 -0.22050966996E+04  0.22050966996E+04  0.25500000920E-02 0.  1.
    10030    2    1    2    0    0  0.00000000000E+00  0.00000000000E+00 -0.74750655952E+03  0.36626868397E+04  0.35855974159E+04 0.  0.
        3    1    3    3  502    0  0.76027876706E+03  0.86568366342E+03  0.10293483618E+04  0.15449886954E+04  0.10100000352E+00 0. -1.
       -3    1    3    3    0  502 -0.76027876706E+03 -0.86568366342E+03 -0.17768549213E+04  0.21176981443E+04  0.10100000352E+00 0.  1.
</event>
<event>
 5   0  0.3848431E-07  0.3507384E+04  0.7818609E-02  0.8112042E-01
       -1   -1    0    0    0  501  0.00000000000E+00  0.00000000000E+00  0.12670611917E+04  0.12670611917E+04  0.50400001928E-02 0. -1.
        1   -1    0    0  501    0  0.00000000000E+00  0.00000000000E+00 -0.24272201277E+04  0.24272201278E+04  0.50400001928E-02 0.  1.
    10030    2    1    2    0    0  0.00000000000E+00  0.00000000000E+00 -0.11601589361E+04  0.36942813194E+04  0.35073844543E+04 0.  0.
        2    1    3    3  502    0  0.13459092606E+04 -0.10367941377E+04 -0.12214486231E+03  0.17033300294E+04  0.25500000920E-02 0.  1.
       -2    1    3    3    0  502 -0.13459092606E+04  0.10367941377E+04 -0.10380140738E+04  0.19909512900E+04  0.25500000920E-02 0. -1.
</event>
<event>
 5   0  0.3682276E-07  0.3694603E+04  0.7818609E-02  0.8069159E-01
        1   -1    0    0  501    0  0.00000000000E+00  0.00000000000E+00  0.22711257556E+04  0.22711257556E+04  0.50400001928E-02 0.  1.
       -1   -1    0    0    0  501  0.00000000000E+00  0.00000000000E+00 -0.15025686842E+04  0.15025686842E+04  0.50400001928E-02 0. -1.
    10030    2    1    2    0    0  0.00000000000E+00  0.00000000000E+00  0.76855707131E+03  0.37736944398E+04  0.36946027869E+04 0.  0.
        1    1    3    3  502    0 -0.32804812009E+03 -0.50290329138E+03 -0.14001160546E+04  0.15234343622E+04  0.50400001928E-02 0. -1.
       -1    1    3    3    0  502  0.32804812009E+03  0.50290329138E+03  0.21686731259E+04  0.22502600776E+04  0.50400001928E-02 0.  1.
</event>
<event>
 5   0  0.1066907E-06  0.3935561E+04  0.7818609E-02  0.8017674E-01
        2   -1    0    0  501    0  0.00000000000E+00  0.00000000000E+00  0.22790151892E+04  0.22790151892E+04  0.25500000920E-02 0.  1.
       -2   -1    0    0    0  501  0.00000000000E+00  0.00000000000E+00 -0.16990498843E+04  0.16990498843E+04  0.25500000920E-02 0. -1.
    10030    2    1    2    0    0  0.00000000000E+00  0.00000000000E+00  0.57996530483E+03  0.39780650735E+04  0.39355612019E+04 0.  0.
        4    1    3    3  502    0  0.13575975321E+03 -0.18170647203E+04  0.10409763875E+04  0.20985205171E+04  0.12699999809E+01 0.  1.
       -4    1    3    3    0  502 -0.13575975321E+03  0.18170647203E+04 -0.46101108265E+03  0.18795445564E+04  0.12699999809E+01 0. -1.
</event>
<event>
 5   0  0.3675819E-07  0.2655483E+04  0.7818609E-02  0.8349596E-01
       -1   -1    0    0    0  501  0.00000000000E+00  0.00000000000E+00  0.66101679018E+03  0.66101679020E+03  0.50400001928E-02 0.  1.
        1   -1    0    0  501    0  0.00000000000E+00  0.00000000000E+00 -0.26669472114E+04  0.26669472114E+04  0.50400001928E-02 0. -1.
    10030    2    1    2    0    0  0.00000000000E+00  0.00000000000E+00 -0.20059304212E+04  0.33279640016E+04  0.26554825439E+04 0.  0.
        5    1    3    3  502    0  0.85898027235E+03  0.10104677268E+04 -0.10820552490E+04  0.17116535243E+04  0.46999998093E+01 0.  1.
       -5    1    3    3    0  502 -0.85898027235E+03 -0.10104677268E+04 -0.92387517217E+03  0.16163104773E+04  0.46999998093E+01 0. -1.
</event>
<event>
 5   0  0.1051123E-06  0.3674344E+04  0.7818609E-02  0.8073671E-01
        2   -1    0    0  501    0  0.00000000000E+00  0.00000000000E+00  0.27478360237E+04  0.27478360237E+04  0.25500000920E-02 0. -1.
       -2   -1    0    0    0  501  0.00000000000E+00  0.00000000000E+00 -0.12283121005E+04  0.12283121005E+04  0.25500000920E-02 0.  1.
    10030    2    1    2    0    0  0.00000000000E+00  0.00000000000E+00  0.15195239232E+04  0.39761481242E+04  0.36743436084E+04 0.  0.
        2    1    3    3  502    0 -0.42570414438E+03 -0.14387282891E+04 -0.38752779582E+03  0.15496260519E+04  0.25500000920E-02 0.  1.
       -2    1    3    3    0  502  0.42570414438E+03  0.14387282891E+04  0.19070517190E+04  0.24265220723E+04  0.25500000920E-02 0. -1.
</event>
<event>
 5   0  0.3764495E-07  0.3689599E+04  0.7818609E-02  0.8070271E-01
        1   -1    0    0  501    0  0.00000000000E+00  0.00000000000E+00  0.15522573052E+04  0.15522573052E+04  0.50400001928E-02 0. -1.
       -1   -1    0    0    0  501  0.00000000000E+00  0.00000000000E+00 -0.21924753745E+04  0.21924753745E+04  0.50400001928E-02 0.  1.
    10030    2    1    2    0    0  0.00000000000E+00  0.00000000000E+00 -0.64021806923E+03  0.37447326797E+04  0.36895993910E+04 0.  0.
        4    1    3    3  502    0  0.58997848262E+03  0.24613136948E+02  0.14537498063E+04  0.15690986358E+04  0.12699999809E+01 0. -1.
       -4    1    3    3    0  502 -0.58997848262E+03 -0.24613136948E+02 -0.20939678756E+04  0.21756340440E+04  0.12699999809E+01 0.  1.
</event>
<event>
 5   0  0.3682276E-07  0.3727761E+04  0.7818609E-02  0.8061837E-01
        1   -1    0    0  501    0  0.00000000000E+00  0.00000000000E+00  0.24505626061E+04  0.24505626061E+04  0.50400001928E-02 0. -1.
       -1   -1    0    0    0  501  0.00000000000E+00  0.00000000000E+00 -0.14176544829E+04  0.14176544829E+04  0.50400001928E-02 0.  1.
    10030    2    1    2    0    0  0.00000000000E+00  0.00000000000E+00  0.10329081232E+04  0.38682170891E+04  0.37277612929E+04 0.  0.
        1    1    3    3  502    0 -0.64240709185E+03  0.17283868875E+04  0.79881500869E+03  0.20095057907E+04  0.50400001928E-02 0.  1.
       -1    1    3    3    0  502  0.64240709185E+03 -0.17283868875E+04  0.23409311451E+03  0.18587112984E+04  0.50400001928E-02 0. -1.
</event>
<event>
 5   0  0.1051123E-06  0.3687884E+04  0.7818609E-02  0.8070652E-01
       -2   -1    0    0    0  501  0.00000000000E+00  0.00000000000E+00  0.13621918480E+04  0.13621918480E+04  0.25500000920E-02 0.  1.
        2   -1    0    0  501    0  0.00000000000E+00  0.00000000000E+00 -0.24960663708E+04  0.24960663708E+04  0.25500000920E-02 0. -1.
    10030    2    1    2    0    0  0.00000000000E+00  0.00000000000E+00 -0.11338745228E+04  0.38582582187E+04  0.36878835460E+04 0.  0.
        2    1    3    3  502    0  0.13910612094E+04 -0.10114433016E+04  0.12864897228E+03  0.17247084967E+04  0.25500000920E-02 0.  1.
       -2    1    3    3    0  502 -0.13910612094E+04  0.10114433016E+04 -0.12625234951E+04  0.21335497220E+04  0.25500000920E-02 0. -1.
</event>
<event>
 5   0  0.1066907E-06  0.3687064E+04  0.7818609E-02  0.8070835E-01
       -2   -1    0    0    0  501  0.00000000000E+00  0.00000000000E+00  0.11439453634E+04  0.11439453634E+04  0.25500000920E-02 0.  1.
        2   -1    0    0  501    0  0.00000000000E+00  0.00000000000E+00 -0.29709550786E+04  0.29709550786E+04  0.25500000920E-02 0. -1.
    10030    2    1    2    0    0  0.00000000000E+00  0.00000000000E+00 -0.18270097152E+04  0.41149004419E+04  0.36870640281E+04 0.  0.
        4    1    3    3  502    0 -0.34108414717E+03  0.16946761466E+04 -0.16284161988E+04  0.23748697999E+04  0.12699999809E+01 0. -1.
       -4    1    3    3    0  502  0.34108414717E+03 -0.16946761466E+04 -0.19859351646E+03  0.17400306420E+04  0.12699999809E+01 0.  1.
</event>
<event>
 5   0  0.3848431E-07  0.3718986E+04  0.7818609E-02  0.8063767E-01
        1   -1    0    0  501    0  0.00000000000E+00  0.00000000000E+00  0.15481680395E+04  0.15481680395E+04  0.50400001928E-02 0. -1.
       -1   -1    0    0    0  501  0.00000000000E+00  0.00000000000E+00 -0.22334228413E+04  0.22334228413E+04  0.50400001928E-02 0.  1.
    10030    2    1    2    0    0  0.00000000000E+00  0.00000000000E+00 -0.68525480178E+03  0.37815908808E+04  0.37189858089E+04 0.  0.
        2    1    3    3  502    0  0.77709273228E+03 -0.48573368415E+03  0.13026034347E+04  0.15926663287E+04  0.25500000920E-02 0. -1.
       -2    1    3    3    0  502 -0.77709273228E+03  0.48573368415E+03 -0.19878582365E+04  0.21889245521E+04  0.25500000920E-02 0.  1.
</event>
<event>
 5   0  0.3704306E-07  0.3696962E+04  0.7818609E-02  0.8068635E-01
       -1   -1    0    0    0  501  0.00000000000E+00  0.00000000000E+00  0.13742585710E+04  0.13742585710E+04  0.50400001928E-02 0.  1.
        1   -1    0    0  501    0  0.00000000000E+00  0.00000000000E+00 -0.24863453511E+04  0.24863453511E+04  0.50400001928E-02 0. -1.
    10030    2    1    2    0    0  0.00000000000E+00  0.00000000000E+00 -0.11120867800E+04  0.38606039221E+04  0.36969616764E+04 0.  0.
        3    1    3    3  502    0  0.57186272359E+03 -0.10606577496E+04 -0.20198242238E+04  0.23519591284E+04  0.10100000352E+00 0. -1.
       -3    1    3    3    0  502 -0.57186272359E+03  0.10606577496E+04  0.90773744378E+03  0.15086447937E+04  0.10100000352E+00 0.  1.
</event>
<event>
 5   0  0.3682276E-07  0.3769718E+04  0.7818609E-02  0.8052685E-01
        1   -1    0    0  501    0  0.00000000000E+00  0.00000000000E+00  0.12412288633E+04  0.12412288633E+04  0.50400001928E-02 0.  1.
       -1   -1    0    0    0  501  0.00000000000E+00  0.00000000000E+00 -0.28622382012E+04  0.28622382012E+04  0.50400001928E-02 0. -1.
    10030    2    1    2    0    0  0.00000000000E+00  0.00000000000E+00 -0.16210093379E+04  0.41034670645E+04  0.37697175857E+04 0.  0.
        1    1    3    3  502    0  0.36080710734E+03 -0.78119653538E+03  0.10149394758E+04  0.13306208833E+04  0.50400001928E-02 0.  1.
       -1    1    3    3    0  502 -0.36080710734E+03  0.78119653538E+03 -0.26359488138E+04  0.27728461812E+04  0.50400001928E-02 0. -1.
</event>
<event>
 5   0  0.1066907E-06  0.3768211E+04  0.7818609E-02  0.8053011E-01
       -2   -1    0    0    0  501  0.00000000000E+00  0.00000000000E+00  0.14343621138E+04  0.14343621138E+04  0.25500000920E-02 0.  1.
        2   -1    0    0  501    0  0.00000000000E+00  0.00000000000E+00 -0.24748651774E+04  0.24748651774E+04  0.25500000920E-02 0. -1.
    10030    2    1    2    0    0  0.00000000000E+00  0.00000000000E+00 -0.10405030636E+04  0.39092272912E+04  0.37682106349E+04 0.  0.
        4    1    3    3  502    0  0.14167714449E+04  0.72745392566E+03 -0.15646125069E+04  0.22325869414E+04  0.12699999809E+01 0. -1.
       -4    1    3    3    0  502 -0.14167714449E+04 -0.72745392566E+03  0.52410944330E+03  0.16766403498E+04  0.12699999809E+01 0.  1.
</event>
<event>
 5   0  0.3704306E-07  0.3522656E+04  0.7818609E-02  0.8108442E-01
        1   -1    0    0  501    0  0.00000000000E+00  0.00000000000E+00  0.30936096741E+04  0.30936096741E+04  0.50400001928E-02 0.  1.
       -1   -1    0    0    0  501  0.00000000000E+00  0.00000000000E+00 -0.10028013417E+04  0.10028013417E+04  0.50400001928E-02 0. -1.
    10030    2    1    2    0    0  0.00000000000E+00  0.00000000000E+00  0.20908083324E+04  0.40964110158E+04  0.35226557776E+04 0.  0.
        3    1    3    3  502    0  0.88038512901E+03 -0.15131883155E+04  0.82033717657E+03  0.19333313081E+04  0.10100000352E+00 0. -1.
       -3    1    3    3    0  502 -0.88038512901E+03  0.15131883155E+04  0.12704711558E+04  0.21630797076E+04  0.10100000352E+00 0.  1.
</event>
<event>
 5   0  0.3682276E-07  0.3715469E+04  0.7818609E-02  0.8064542E-01
        1   -1    0    0  501    0  0.00000000000E+00  0.00000000000E+00  0.23016192892E+04  0.23016192892E+04  0.50400001928E-02 0. -1.
       -1   -1    0    0    0  501  0.00000000000E+00  0.00000000000E+00 -0.14994563775E+04  0.14994563775E+04  0.50400001928E-02 0.  1.
    10030    2    1    2    0    0  0.00000000000E+00  0.00000000000E+00  0.80216291176E+03  0.38010756667E+04  0.37154691342E+04 0.  0.
        1    1    3    3  502    0  0.95049538944E+03  0.66186075414E+02  0.20326164880E+04  0.22448500773E+04  0.50400001928E-02 0. -1.
       -1    1    3    3    0  502 -0.95049538944E+03 -0.66186075414E+02 -0.12304535763E+04  0.15562255895E+04  0.50400001928E-02 0.  1.
</event>
<event>
 5   0  0.3704306E-07  0.3653777E+04  0.7818609E-02  0.8078283E-01
       -1   -1    0    0    0  501  0.00000000000E+00  0.00000000000E+00  0.16276200385E+04  0.16276200385E+04  0.50400001928E-02 0. -1.
        1   -1    0    0  501    0  0.00000000000E+00  0.00000000000E+00 -0.20505533140E+04  0.20505533140E+04  0.50400001928E-02 0.  1.
    10030    2    1    2    0    0  0.00000000000E+00  0.00000000000E+00 -0.42293327551E+03  0.36781733525E+04  0.36537770397E+04 0.  0.
        3    1    3    3  502    0 -0.62340378567E+03  0.14979091421E+04 -0.10568101801E+04  0.19362881616E+04  0.10100000352E+00 0.  1.
       -3    1    3    3    0  502  0.62340378567E+03 -0.14979091421E+04  0.63387690455E+03  0.17418851909E+04  0.10100000352E+00 0. -1.
</event>
<event>
 5   0  0.1066907E-06  0.3474633E+04  0.7818609E-02  0.8119828E-01
        2   -1    0    0  501    0  0.00000000000E+00  0.00000000000E+00  0.27776267513E+04  0.27776267513E+04  0.25500000920E-02 0. -1.
       -2   -1    0    0    0  501  0.00000000000E+00  0.00000000000E+00 -0.10866358847E+04  0.10866358847E+04  0.25500000920E-02 0.  1.
    10030    2    1    2    0    0  0.00000000000E+00  0.00000000000E+00  0.16909908667E+04  0.38642626360E+04  0.34746331617E+04 0.  0.
        4    1    3    3  502    0 -0.78273807931E+03 -0.63489067156E+03  0.24192760027E+04  0.26208134340E+04  0.12699999809E+01 0. -1.
       -4    1    3    3    0  502  0.78273807931E+03  0.63489067156E+03 -0.72828513604E+03  0.12434492020E+04  0.12699999809E+01 0.  1.
</event>
<event>
 5   0  0.1128166E-06  0.2926950E+04  0.7818609E-02  0.8264904E-01
       -2   -1    0    0    0  501  0.00000000000E+00  0.00000000000E+00  0.11617748061E+04  0.11617748061E+04  0.25500000920E-02 0. -1.
        2   -1    0    0  501    0  0.00000000000E+00  0.00000000000E+00 -0.18435233380E+04  0.18435233380E+04  0.25500000920E-02 0.  1.
    10030    2    1    2    0    0  0.00000000000E+00  0.00000000000E+00 -0.68174853193E+03  0.30052981441E+04  0.29269499269E+04 0.  0.
        3    1    3    3  502    0  0.64985049817E+03  0.66710770353E+03 -0.14999949665E+04  0.17655943101E+04  0.10100000352E+00 0.  1.
       -3    1    3    3    0  502 -0.64985049817E+03 -0.66710770353E+03  0.81824643461E+03  0.12397038340E+04  0.10100000352E+00 0. -1.
</event>
<event>
 5   0  0.1128530E-06  0.3593653E+04  0.7818609E-02  0.8091947E-01
        2   -1    0    0  501    0  0.00000000000E+00  0.00000000000E+00  0.34716784191E+04  0.34716784191E+04  0.25500000920E-02 0.  1.
       -2   -1    0    0    0  501  0.00000000000E+00  0.00000000000E+00 -0.92997844564E+03  0.92997844564E+03  0.25500000920E-02 0. -1.
    10030    2    1    2    0    0  0.00000000000E+00  0.00000000000E+00  0.25416999735E+04  0.44016568647E+04  0.35936533500E+04 0.  0.
        5    1    3    3  502    0  0.10228405818E+04 -0.79516196097E+03  0.27958044078E+04  0.30814006193E+04  0.46999998093E+01 0.  1.
       -5    1    3    3    0  502 -0.10228405818E+04  0.79516196097E+03 -0.25410443438E+03  0.13202562454E+04  0.46999998093E+01 0. -1.
</event>
<event>
 5   0  0.1128166E-06  0.3494314E+04  0.7818609E-02  0.8115139E-01
        2   -1    0    0  501    0  0.00000000000E+00  0.00000000000E+00  0.22795964528E+04  0.22795964528E+04  0.25500000920E-02 0. -1.
       -2   -1    0    0    0  501  0.00000000000E+00  0.00000000000E+00 -0.13390781383E+04  0.13390781383E+04  0.25500000920E-02 0.  1.
    10030    2    1    2    0    0  0.00000000000E+00  0.00000000000E+00  0.94051831449E+03  0.36186745911E+04  0.34943141095E+04 0.  0.
        3    1    3    3  502    0 -0.10606888540E+04 -0.99562024310E+03  0.14722887494E+04  0.20697716505E+04  0.10100000352E+00 0. -1.
       -3    1    3    3    0  502  0.10606888540E+04  0.99562024310E+03 -0.53177043489E+03  0.15489029405E+04  0.10100000352E+00 0.  1.
</event>
<event>
 5   0  0.3675819E-07  0.3706346E+04  0.7818609E-02  0.8066557E-01
       -1   -1    0    0    0  501  0.00000000000E+00  0.00000000000E+00  0.15514144762E+04  0.15514144763E+04  0.50400001928E-02 0.  1.
        1   -1    0    0  501    0  0.00000000000E+00  0.00000000000E+00 -0.22136250788E+04  0.22136250789E+04  0.50400001928E-02 0. -1.
    10030    2    1    2    0    0  0.00000000000E+00  0.00000000000E+00 -0.66221060260E+03  0.37650395551E+04  0.37063459052E+04 0.  0.
        5    1    3    3  502    0 -0.11598926195E+04  0.14339199061E+04 -0.14726784723E+03  0.18501856920E+04  0.46999998093E+01 0. -1.
       -5    1    3    3    0  502  0.11598926195E+04 -0.14339199061E+04 -0.51494275537E+03  0.19148538631E+04  0.46999998093E+01 0.  1.
</event>
<event>
 5   0  0.1128530E-06  0.3687626E+04  0.7818609E-02  0.8070710E-01
        2   -1    0    0  501    0  0.00000000000E+00  0.00000000000E+00  0.22807303273E+04  0.22807303273E+04  0.25500000920E-02 0. -1.
       -2   -1    0    0    0  501  0.00000000000E+00  0.00000000000E+00 -0.14905953583E+04  0.14905953583E+04  0.25500000920E-02 0.  1.
    10030    2    1    2    0    0  0.00000000000E+00  0.00000000000E+00  0.79013496901E+03  0.37713256855E+04  0.36876258158E+04 0.  0.
        5    1    3    3  502    0 -0.13687285075E+04 -0.74631832076E+03 -0.61176518143E+03  0.16747201230E+04  0.46999998093E+01 0.  1.
       -5    1    3    3    0  502  0.13687285075E+04  0.74631832076E+03  0.14019001504E+04  0.20966055626E+04  0.46999998093E+01 0. -1.
</event>
<event>
 5   0  0.1051123E-06  0.3657196E+04  0.7818609E-02  0.8077515E-01
       -2   -1    0    0    0  501  0.00000000000E+00  0.00000000000E+00  0.24952664944E+04  0.24952664944E+04  0.25500000920E-02 0.  1.
        2   -1    0    0  501    0  0.00000000000E+00  0.00000000000E+00 -0.13400452602E+04  0.13400452602E+04  0.25500000920E-02 0. -1.
    10030    2    1    2    0    0  0.00000000000E+00  0.00000000000E+00  0.11552212342E+04  0.38353117547E+04  0.36571956682E+04 0.  0.
        2    1    3    3  502    0 -0.10210636581E+04 -0.13678663888E+04 -0.11018228035E+03  0.17104881135E+04  0.25500000920E-02 0. -1.
       -2    1    3    3    0  502  0.10210636581E+04  0.13678663888E+04  0.12654035146E+04  0.21248236412E+04  0.25500000920E-02 0.  1.
</event>
<event>
 5   0  0.1128530E-06  0.3680287E+04  0.7818609E-02  0.8072345E-01
       -2   -1    0    0    0  501  0.00000000000E+00  0.00000000000E+00  0.15504306989E+04  0.15504306989E+04  0.25500000920E-02 0. -1.
        2   -1    0    0  501    0  0.00000000000E+00  0.00000000000E+00 -0.21839920640E+04  0.21839920640E+04  0.25500000920E-02 0.  1.
    10030    2    1    2    0    0  0.00000000000E+00  0.00000000000E+00 -0.63356136515E+03  0.37344227629E+04  0.36802871313E+04 0.  0.
        5    1    3    3  502    0 -0.15774410678E+04 -0.24573452954E+02 -0.12779105485E+04  0.20302713210E+04  0.46999998093E+01 0.  1.
       -5    1    3    3    0  502  0.15774410678E+04  0.24573452954E+02  0.64434918335E+03  0.17041514419E+04  0.46999998093E+01 0. -1.
</event>
<event>
 5   0  0.3682276E-07  0.3748717E+04  0.7818609E-02  0.8057250E-01
       -1   -1    0    0    0  501  0.00000000000E+00  0.00000000000E+00  0.28478451998E+04  0.28478451998E+04  0.50400001928E-02 0.  1.
        1   -1    0    0  501    0  0.00000000000E+00  0.00000000000E+00 -0.12336417207E+04  0.12336417207E+04  0.50400001928E-02 0. -1.
    10030    2    1    2    0    0  0.00000000000E+00  0.00000000000E+00  0.16142034791E+04  0.40814869205E+04  0.37487174621E+04 0.  0.
        1    1    3    3  502    0 -0.16948462915E+03 -0.96418756988E+03 -0.93317124591E+03  0.13524759827E+04  0.50400001928E-02 0. -1.
       -1    1    3    3    0  502  0.16948462915E+03  0.96418756988E+03  0.25473747250E+04  0.27290109379E+04  0.50400001928E-02 0.  1.
</event>
<event>
 5   0  0.1051123E-06  0.4044772E+04  0.7818609E-02  0.7995575E-01
       -2   -1    0    0    0  501  0.00000000000E+00  0.00000000000E+00  0.13834597635E+04  0.13834597635E+04  0.25500000920E-02 0. -1.
        2   -1    0    0  501    0  0.00000000000E+00  0.00000000000E+00 -0.29563883177E+04  0.29563883177E+04  0.25500000920E-02 0.  1.
    10030    2    1    2    0    0  0.00000000000E+00  0.00000000000E+00 -0.15729285542E+04  0.43398480813E+04  0.40447715797E+04 0.  0.
        2    1    3    3  502    0  0.14345100787E+04  0.24824123750E+03  0.71972627950E+03  0.16240224122E+04  0.25500000920E-02 0. -1.
       -2    1    3    3    0  502 -0.14345100787E+04 -0.24824123750E+03 -0.22926548337E+04  0.27158256690E+04  0.25500000920E-02 0.  1.
</event>
<event>
 5   0  0.3675819E-07  0.2503446E+04  0.7818609E-02  0.8401759E-01
       -1   -1    0    0    0  501  0.00000000000E+00  0.00000000000E+00  0.22052466691E+04  0.22052466691E+04  0.50400001928E-02 0.  1.
        1   -1    0    0  501    0  0.00000000000E+00  0.00000000000E+00 -0.71049198588E+03  0.71049198590E+03  0.50400001928E-02 0. -1.
    10030    2    1    2    0    0  0.00000000000E+00  0.00000000000E+00  0.14947546832E+04  0.29157386550E+04  0.25034456937E+04 0.  0.
        5    1    3    3  502    0 -0.94524896537E+03 -0.67297292079E+03  0.12941616639E+04  0.17381785469E+04  0.46999998093E+01 0. -1.
       -5    1    3    3    0  502  0.94524896537E+03  0.67297292079E+03  0.20059301925E+03  0.11775601080E+04  0.46999998093E+01 0.  1.
</event>
<event>
 5   0  0.3675819E-07  0.3839433E+04  0.7818609E-02  0.8037745E-01
        1   -1    0    0  501    0  0.00000000000E+00  0.00000000000E+00  0.28489135633E+04  0.28489135633E+04  0.50400001928E-02 0.  1.
       -1   -1    0    0    0  501  0.00000000000E+00  0.00000000000E+00 -0.12935848598E+04  0.12935848599E+04  0.50400001928E-02 0. -1.
    10030    2    1    2    0    0  0.00000000000E+00  0.00000000000E+00  0.15553287034E+04  0.41424984231E+04  0.38394330063E+04 0.  0.
        5    1    3    3  502    0 -0.10298162552E+04 -0.14876189199E+04  0.14699991662E+04  0.23311909422E+04  0.46999998093E+01 0. -1.
       -5    1    3    3    0  502  0.10298162552E+04  0.14876189199E+04  0.85329537183E+02  0.18113074809E+04  0.46999998093E+01 0.  1.
</event>
<event>
 5   0  0.1066907E-06  0.3622599E+04  0.7818609E-02  0.8085335E-01
        2   -1    0    0  501    0  0.00000000000E+00  0.00000000000E+00  0.25137852443E+04  0.25137852443E+04  0.25500000920E-02 0.  1.
       -2   -1    0    0    0  501  0.00000000000E+00  0.00000000000E+00 -0.13051260541E+04  0.13051260541E+04  0.25500000920E-02 0. -1.
    10030    2    1    2    0    0  0.00000000000E+00  0.00000000000E+00  0.12086591902E+04  0.38189112983E+04  0.36225994074E+04 0.  0.
        4    1    3    3  502    0 -0.11697026753E+04 -0.12182891699E+04  0.12942990667E+04  0.21278262469E+04  0.12699999809E+01 0.  1.
       -4    1    3    3    0  502  0.11697026753E+04  0.12182891699E+04 -0.85639876471E+02  0.16910850515E+04  0.12699999809E+01 0. -1.
</event>
<event>
 5   0  0.3675819E-07  0.3689167E+04  0.7818609E-02  0.8070367E-01
       -1   -1    0    0    0  501  0.00000000000E+00  0.00000000000E+00  0.19916993399E+04  0.19916993400E+04  0.50400001928E-02 0.  1.
        1   -1    0    0  501    0  0.00000000000E+00  0.00000000000E+00 -0.17083340490E+04  0.17083340490E+04  0.50400001928E-02 0. -1.
    10030    2    1    2    0    0  0.00000000000E+00  0.00000000000E+00  0.28336529095E+03  0.37000333890E+04  0.36891667340E+04 0.  0.
        5    1    3    3  502    0 -0.15539922907E+04  0.88355823268E+03 -0.31451816111E+03  0.18150787735E+04  0.46999998093E+01 0. -1.
       -5    1    3    3    0  502  0.15539922907E+04 -0.88355823268E+03  0.59788345206E+03  0.18849546155E+04  0.46999998093E+01 0.  1.
</event>
<event>
 5   0  0.3682276E-07  0.2389676E+04  0.7818609E-02  0.8443379E-01
       -1   -1    0    0    0  501  0.00000000000E+00  0.00000000000E+00  0.11564826470E+04  0.11564826470E+04  0.50400001928E-02 0.  1.
        1   -1    0    0  501    0  0.00000000000E+00  0.00000000000E+00 -0.12344650096E+04  0.12344650096E+04  0.50400001928E-02 0. -1.
    10030    2    1    2    0    0  0.00000000000E+00  0.00000000000E+00 -0.77982362609E+02  0.23909476566E+04  0.23896755947E+04 0.  0.
        1    1    3    3  502    0  0.70794523278E+03 -0.80520036734E+03 -0.56662688336E+03  0.12126830209E+04  0.50400001928E-02 0. -1.
       -1    1    3    3    0  502 -0.70794523278E+03  0.80520036734E+03  0.48864452075E+03  0.11782646358E+04  0.50400001928E-02 0.  1.
</event>
<event>
 5   0  0.3675819E-07  0.3682854E+04  0.7818609E-02  0.8071772E-01
        1   -1    0    0  501    0  0.00000000000E+00  0.00000000000E+00  0.25130770592E+04  0.25130770592E+04  0.50400001928E-02 0. -1.
       -1   -1    0    0    0  501  0.00000000000E+00  0.00000000000E+00 -0.13492832816E+04  0.13492832816E+04  0.50400001928E-02 0.  1.
    10030    2    1    2    0    0  0.00000000000E+00  0.00000000000E+00  0.11637937775E+04  0.38623603408E+04  0.36828537095E+04 0.  0.
        5    1    3    3  502    0 -0.69648888666E+03 -0.16702114257E+04  0.93928196412E+03  0.20388662717E+04  0.46999998093E+01 0. -1.
       -5    1    3    3    0  502  0.69648888666E+03  0.16702114257E+04  0.22451181342E+03  0.18234940691E+04  0.46999998093E+01 0.  1.
</event>
<event>
 5   0  0.1128530E-06  0.3096990E+04  0.7818609E-02  0.8216564E-01
       -2   -1    0    0    0  501  0.00000000000E+00  0.00000000000E+00  0.98910399570E+03  0.98910399570E+03  0.25500000920E-02 0. -1.
        2   -1    0    0  501    0  0.00000000000E+00  0.00000000000E+00 -0.24242516602E+04  0.24242516602E+04  0.25500000920E-02 0.  1.
    10030    2    1    2    0    0  0.00000000000E+00  0.00000000000E+00 -0.14351476645E+04  0.34133556559E+04  0.30969901541E+04 0.  0.
        5    1    3    3  502    0  0.13521835740E+04  0.71030269117E+03 -0.43682854402E+03  0.15886382841E+04  0.46999998093E+01 0.  1.
       -5    1    3    3    0  502 -0.13521835740E+04 -0.71030269117E+03 -0.99831912048E+03  0.18247173718E+04  0.46999998093E+01 0. -1.
</event>
<event>
 5   0  0.3682276E-07  0.3725797E+04  0.7818609E-02  0.8062269E-01
       -1   -1    0    0    0  501  0.00000000000E+00  0.00000000000E+00  0.25445679304E+04  0.25445679304E+04  0.50400001928E-02 0.  1.
        1   -1    0    0  501    0  0.00000000000E+00  0.00000000000E+00 -0.13638431896E+04  0.13638431897E+04  0.50400001928E-02 0. -1.
    10030    2    1    2    0    0  0.00000000000E+00  0.00000000000E+00  0.11807247408E+04  0.39084111201E+04  0.37257974409E+04 0.  0.
        1    1    3    3  502    0  0.60705181351E+02 -0.13984614148E+04  0.18798434818E+04  0.23437557389E+04  0.50400001928E-02 0.  1.
       -1    1    3    3    0  502 -0.60705181351E+02  0.13984614148E+04 -0.69911874096E+03  0.15646553812E+04  0.50400001928E-02 0. -1.
</event>
<event>
 5   0  0.1128530E-06  0.3695840E+04  0.7818609E-02  0.8068884E-01
       -2   -1    0    0    0  501  0.00000000000E+00  0.00000000000E+00  0.20055139721E+04  0.20055139721E+04  0.25500000920E-02 0. -1.
        2   -1    0    0  501    0  0.00000000000E+00  0.00000000000E+00 -0.17027094656E+04  0.17027094656E+04  0.25500000920E-02 0.  1.
    10030    2    1    2    0    0  0.00000000000E+00  0.00000000000E+00  0.30280450652E+03  0.37082234376E+04  0.36958396197E+04 0.  0.
        5    1    3    3  502    0  0.14573417337E+04  0.83223503691E+03  0.92750910053E+03  0.19174867163E+04  0.46999998093E+01 0. -1.
       -5    1    3    3    0  502 -0.14573417337E+04 -0.83223503691E+03 -0.62470459401E+03  0.17907367214E+04  0.46999998093E+01 0.  1.
</event>
<event>
 5   0  0.3675819E-07  0.3563963E+04  0.7818609E-02  0.8098797E-01
       -1   -1    0    0    0  501  0.00000000000E+00  0.00000000000E+00  0.16576670112E+04  0.16576670112E+04  0.50400001928E-02 0. -1.
        1   -1    0    0  501    0  0.00000000000E+00  0.00000000000E+00 -0.19156188891E+04  0.19156188891E+04  0.50400001928E-02 0.  1.
    10030    2    1    2    0    0  0.00000000000E+00  0.00000000000E+00 -0.25795187794E+03  0.35732859003E+04  0.35639630966E+04 0.  0.
        5    1    3    3  502    0  0.50491935215E+03  0.96285144134E+03  0.12865989521E+04  0.16844540373E+04  0.46999998093E+01 0. -1.
       -5    1    3    3    0  502 -0.50491935215E+03 -0.96285144134E+03 -0.15445508300E+04  0.18888318630E+04  0.46999998093E+01 0.  1.
</event>
<event>
 5   0  0.1066907E-06  0.3563590E+04  0.7818609E-02  0.8098883E-01
        2   -1    0    0  501    0  0.00000000000E+00  0.00000000000E+00  0.12152603787E+04  0.12152603787E+04  0.25500000920E-02 0.  1.
       -2   -1    0    0    0  501  0.00000000000E+00  0.00000000000E+00 -0.26124393124E+04  0.26124393124E+04  0.25500000920E-02 0. -1.
    10030    2    1    2    0    0  0.00000000000E+00  0.00000000000E+00 -0.13971789337E+04  0.38276996911E+04  0.35635903177E+04 0.  0.
        4    1    3    3  502    0  0.76589932802E+03  0.16076337698E+04 -0.63321613275E+03  0.18899874079E+04  0.12699999809E+01 0. -1.
       -4    1    3    3    0  502 -0.76589932802E+03 -0.16076337698E+04 -0.76396280097E+03  0.19377122832E+04  0.12699999809E+01 0.  1.
</event>
<event>
 5   0  0.3764495E-07  0.2585628E+04  0.7818609E-02  0.8373099E-01
        1   -1    0    0  501    0  0.00000000000E+00  0.00000000000E+00  0.11524915930E+04  0.11524915930E+04  0.50400001928E-02 0. -1.
       -1   -1    0    0    0  501  0.00000000000E+00  0.00000000000E+00 -0.14502213680E+04  0.14502213680E+04  0.50400001928E-02 0.  1.
    10030    2    1    2    0    0  0.00000000000E+00  0.00000000000E+00 -0.29772977498E+03  0.26027129610E+04  0.25856279196E+04 0.  0.
        4    1    3    3  502    0  0.11955784416E+03  0.34619325139E+03 -0.13969051871E+04  0.14441224186E+04  0.12699999809E+01 0.  1.
       -4    1    3    3    0  502 -0.11955784416E+03 -0.34619325139E+03  0.10991754121E+04  0.11585905424E+04  0.12699999809E+01 0. -1.
</event>
<event>
 5   0  0.3848431E-07  0.2589259E+04  0.7818609E-02  0.8371859E-01
       -1   -1    0    0    0  501  0.00000000000E+00  0.00000000000E+00  0.10004425909E+04  0.10004425909E+04  0.50400001928E-02 0.  1.
        1   -1    0    0  501    0  0.00000000000E+00  0.00000000000E+00 -0.16753244314E+04  0.16753244314E+04  0.50400001928E-02 0. -1.
    10030    2    1    2    0    0  0.00000000000E+00  0.00000000000E+00 -0.67488184053E+03  0.26757670223E+04  0.25892592877E+04 0.  0.
        2    1    3    3  502    0  0.11785377829E+04  0.47263247988E+03 -0.76552117737E+02  0.12720821488E+04  0.25500000920E-02 0.  1.
       -2    1    3    3    0  502 -0.11785377829E+04 -0.47263247988E+03 -0.59832972280E+03  0.14036848734E+04  0.25500000920E-02 0. -1.
</event>
<event>
 5   0  0.3704306E-07  0.2960658E+04  0.7818609E-02  0.8255055E-01
       -1   -1    0    0    0  501  0.00000000000E+00  0.00000000000E+00  0.12771639889E+04  0.12771639889E+04  0.50400001928E-02 0. -1.
        1   -1    0    0  501    0  0.00000000000E+00  0.00000000000E+00 -0.17158122074E+04  0.17158122074E+04  0.50400001928E-02 0.  1.
    10030    2    1    2    0    0  0.00000000000E+00  0.00000000000E+00 -0.43864821845E+03  0.29929761963E+04  0.29606577398E+04 0.  0.
        3    1    3    3  502    0  0.53430799348E+03 -0.13423024579E+04  0.10686298351E+03  0.14486823765E+04  0.10100000352E+00 0. -1.
       -3    1    3    3    0  502 -0.53430799348E+03  0.13423024579E+04 -0.54551120196E+03  0.15442938199E+04  0.10100000352E+00 0.  1.
</event>
<event>
 5   0  0.1128166E-06  0.3603650E+04  0.7818609E-02  0.8089656E-01
       -2   -1    0    0    0  501  0.00000000000E+00  0.00000000000E+00  0.11354807275E+04  0.11354807275E+04  0.25500000920E-02 0. -1.
        2   -1    0    0  501    0  0.00000000000E+00  0.00000000000E+00 -0.28592054972E+04  0.28592054972E+04  0.25500000920E-02 0.  1.
    10030    2    1    2    0    0  0.00000000000E+00  0.00000000000E+00 -0.17237247697E+04  0.39946862247E+04  0.36036496711E+04 0.  0.
        3    1    3    3  502    0  0.13315046305E+04  0.19832022301E+03  0.46573303066E+03  0.14244798202E+04  0.10100000352E+00 0. -1.
       -3    1    3    3    0  502 -0.13315046305E+04 -0.19832022301E+03 -0.21894578004E+04  0.25702064045E+04  0.10100000352E+00 0.  1.
</event>
<event>
 5   0  0.3848431E-07  0.3734284E+04  0.7818609E-02  0.8060406E-01
       -1   -1    0    0    0  501  0.00000000000E+00  0.00000000000E+00  0.21416771415E+04  0.21416771415E+04  0.50400001928E-02 0.  1.
        1   -1    0    0  501    0  0.00000000000E+00  0.00000000000E+00 -0.16277985820E+04  0.16277985820E+04  0.50400001928E-02 0. -1.
    10030    2    1    2    0    0  0.00000000000E+00  0.00000000000E+00  0.51387855950E+03  0.37694757234E+04  0.37342838746E+04 0.  0.
        2    1    3    3  502    0  0.20044122008E+03 -0.97520950231E+03 -0.13375061448E+04  0.16673730667E+04  0.25500000920E-02 0. -1.
       -2    1    3    3    0  502 -0.20044122008E+03  0.97520950231E+03  0.18513847043E+04  0.21021026567E+04  0.25500000920E-02 0.  1.
</event>
<event>
 5   0  0.3764495E-07  0.3577325E+04  0.7818609E-02  0.8095705E-01
       -1   -1    0    0    0  501  0.00000000000E+00  0.00000000000E+00  0.12847056474E+04  0.12847056474E+04  0.50400001928E-02 0.  1.
        1   -1    0    0  501    0  0.00000000000E+00  0.00000000000E+00 -0.24903087426E+04  0.24903087426E+04  0.50400001928E-02 0. -1.
    10030    2    1    2    0    0  0.00000000000E+00  0.00000000000E+00 -0.12056030952E+04  0.37750143900E+04  0.35773250931E+04 0.  0.
        4    1    3    3  502    0 -0.12831957533E+04  0.20944990866E+03 -0.18990356711E+04  0.23014775034E+04  0.12699999809E+01 0. -1.
       -4    1    3    3    0  502  0.12831957533E+04 -0.20944990866E+03  0.69343257600E+03  0.14735368865E+04  0.12699999809E+01 0.  1.
</event>
<event>
 5   0  0.1128530E-06  0.3704374E+04  0.7818609E-02  0.8066993E-01
       -2   -1    0    0    0  501  0.00000000000E+00  0.00000000000E+00  0.12468754449E+04  0.12468754449E+04  0.25500000920E-02 0.  1.
        2   -1    0    0  501    0  0.00000000000E+00  0.00000000000E+00 -0.27513541008E+04  0.27513541008E+04  0.25500000920E-02 0. -1.
    10030    2    1    2    0    0  0.00000000000E+00  0.00000000000E+00 -0.15044786559E+04  0.39982295457E+04  0.37043735602E+04 0.  0.
        5    1    3    3  502    0  0.10283200416E+04  0.18118947433E+03 -0.24033983595E+04  0.26204231525E+04  0.46999998093E+01 0. -1.
       -5    1    3    3    0  502 -0.10283200416E+04 -0.18118947433E+03  0.89891970361E+03  0.13778063932E+04  0.46999998093E+01 0.  1.
</event>
<event>
 5   0  0.1066907E-06  0.3719067E+04  0.7818609E-02  0.8063749E-01
        2   -1    0    0  501    0  0.00000000000E+00  0.00000000000E+00  0.24245590318E+04  0.24245590318E+04  0.25500000920E-02 0.  1.
       -2   -1    0    0    0  501  0.00000000000E+00  0.00000000000E+00 -0.14261828026E+04  0.14261828026E+04  0.25500000920E-02 0. -1.
    10030    2    1    2    0    0  0.00000000000E+00  0.00000000000E+00  0.99837622922E+03  0.38507418344E+04  0.37190667620E+04 0.  0.
        4    1    3    3  502    0 -0.14102045846E+04  0.10482504754E+04  0.11293041941E+04  0.20887401958E+04  0.12699999809E+01 0.  1.
       -4    1    3    3    0  502  0.14102045846E+04 -0.10482504754E+04 -0.13092796486E+03  0.17620016386E+04  0.12699999809E+01 0. -1.
</event>
<event>
 5   0  0.3848431E-07  0.3743550E+04  0.7818609E-02  0.8058379E-01
        1   -1    0    0  501    0  0.00000000000E+00  0.00000000000E+00  0.20196923838E+04  0.20196923838E+04  0.50400001928E-02 0. -1.
       -1   -1    0    0    0  501  0.00000000000E+00  0.00000000000E+00 -0.17346902690E+04  0.17346902690E+04  0.50400001928E-02 0.  1.
    10030    2    1    2    0    0  0.00000000000E+00  0.00000000000E+00  0.28500211477E+03  0.37543826528E+04  0.37435495052E+04 0.  0.
        2    1    3    3  502    0  0.99887399339E+02  0.61665610975E+03  0.19120612226E+04  0.20115219037E+04  0.25500000920E-02 0. -1.
       -2    1    3    3    0  502 -0.99887399339E+02 -0.61665610975E+03 -0.16270591078E+04  0.17428607491E+04  0.25500000920E-02 0.  1.
</event>
<event>
 5   0  0.3704306E-07  0.3685835E+04  0.7818609E-02  0.8071108E-01
       -1   -1    0    0    0  501  0.00000000000E+00  0.00000000000E+00  0.13352475919E+04  0.13352475919E+04  0.50400001928E-02 0.  1.
        1   -1    0    0  501    0  0.00000000000E+00  0.00000000000E+00 -0.25436073486E+04  0.25436073486E+04  0.50400001928E-02 0. -1.
    10030    2    1    2    0    0  0.00000000000E+00  0.00000000000E+00 -0.12083597567E+04  0.38788549405E+04  0.36858353663E+04 0.  0.
        3    1    3    3  502    0 -0.17892299619E+04 -0.43960288284E+03 -0.56014327189E+03  0.19257089724E+04  0.10100000352E+00 0. -1.
       -3    1    3    3    0  502  0.17892299619E+04  0.43960288284E+03 -0.64821648484E+03  0.19531459681E+04  0.10100000352E+00 0.  1.
</event>
<event>
 5   0  0.3675819E-07  0.2502723E+04  0.7818609E-02  0.8402016E-01
        1   -1    0    0  501    0  0.00000000000E+00  0.00000000000E+00  0.11109581670E+04  0.11109581670E+04  0.50400001928E-02 0. -1.
       -1   -1    0    0    0  501  0.00000000000E+00  0.00000000000E+00 -0.14095094189E+04  0.14095094189E+04  0.50400001928E-02 0.  1.
    10030    2    1    2    0    0  0.00000000000E+00  0.00000000000E+00 -0.29855125195E+03  0.25204675859E+04  0.25027233171E+04 0.  0.
        5    1    3    3  502    0  0.25471859872E+03  0.60006285835E+03 -0.12249905378E+04  0.13876530208E+04  0.46999998093E+01 0.  1.
       -5    1    3    3    0  502 -0.25471859872E+03 -0.60006285835E+03  0.92643928587E+03  0.11328145651E+04  0.46999998093E+01 0. -1.
</event>
<event>
 5   0  0.1051123E-06  0.3802290E+04  0.7818609E-02  0.8045664E-01
       -2   -1    0    0    0  501  0.00000000000E+00  0.00000000000E+00  0.18052092989E+04  0.18052092989E+04  0.25500000920E-02 0.  1.
        2   -1    0    0  501    0  0.00000000000E+00  0.00000000000E+00 -0.20021793371E+04  0.20021793371E+04  0.25500000920E-02 0. -1.
    10030    2    1    2    0    0  0.00000000000E+00  0.00000000000E+00 -0.19697003819E+03  0.38073886360E+04  0.38022902348E+04 0.  0.
        2    1    3    3  502    0  0.59196805180E+03 -0.20654166354E+03 -0.18956804893E+04  0.19966697650E+04  0.25500000920E-02 0. -1.
       -2    1    3    3    0  502 -0.59196805180E+03  0.20654166354E+03  0.16987104511E+04  0.18107188710E+04  0.25500000920E-02 0.  1.
</event>
<event>
 5   0  0.3704306E-07  0.3682473E+04  0.7818609E-02  0.8071857E-01
       -1   -1    0    0    0  501  0.00000000000E+00  0.00000000000E+00  0.20230416263E+04  0.20230416263E+04  0.50400001928E-02 0.  1.
        1   -1    0    0  501    0  0.00000000000E+00  0.00000000000E+00 -0.16757695036E+04  0.16757695036E+04  0.50400001928E-02 0. -1.
    10030    2    1    2    0    0  0.00000000000E+00  0.00000000000E+00  0.34727212262E+03  0.36988111299E+04  0.36824727898E+04 0.  0.
        3    1    3    3  502    0 -0.50336783725E+03 -0.77818542501E+03 -0.14243972053E+04  0.16993702198E+04  0.10100000352E+00 0. -1.
       -3    1    3    3    0  502  0.50336783725E+03  0.77818542501E+03  0.17716693279E+04  0.19994409101E+04  0.10100000352E+00 0.  1.
</event>
<event>
 5   0  0.1128530E-06  0.3673304E+04  0.7818609E-02  0.8073904E-01
       -2   -1    0    0    0  501  0.00000000000E+00  0.00000000000E+00  0.20551428056E+04  0.20551428056E+04  0.25500000920E-02 0.  1.
        2   -1    0    0  501    0  0.00000000000E+00  0.00000000000E+00 -0.16413895533E+04  0.16413895533E+04  0.25500000920E-02 0. -1.
    10030    2    1    2    0    0  0.00000000000E+00  0.00000000000E+00  0.41375325229E+03  0.36965323590E+04  0.36733036530E+04 0.  0.
        5    1    3    3  502    0 -0.27211462947E+03 -0.87570340133E+03  0.18082803528E+04  0.20275114656E+04  0.46999998093E+01 0.  1.
       -5    1    3    3    0  502  0.27211462947E+03  0.87570340133E+03 -0.13945271005E+04  0.16690208934E+04  0.46999998093E+01 0. -1.
</event>
<event>
 5   0  0.3704306E-07  0.3743791E+04  0.7818609E-02  0.8058326E-01
        1   -1    0    0  501    0  0.00000000000E+00  0.00000000000E+00  0.12805674666E+04  0.12805674666E+04  0.50400001928E-02 0. -1.
       -1   -1    0    0    0  501  0.00000000000E+00  0.00000000000E+00 -0.27362813494E+04  0.27362813494E+04  0.50400001928E-02 0.  1.
    10030    2    1    2    0    0  0.00000000000E+00  0.00000000000E+00 -0.14557138828E+04  0.40168488160E+04  0.37437910601E+04 0.  0.
        3    1    3    3  502    0 -0.11566287198E+04  0.28813685682E+03  0.82073603190E+03  0.14472112797E+04  0.10100000352E+00 0. -1.
       -3    1    3    3    0  502  0.11566287198E+04 -0.28813685682E+03 -0.22764499147E+04  0.25696375363E+04  0.10100000352E+00 0.  1.
</event>
<event>
 5   0  0.1051123E-06  0.3106155E+04  0.7818609E-02  0.8214051E-01
        2   -1    0    0  501    0  0.00000000000E+00  0.00000000000E+00  0.13506405011E+04  0.13506405011E+04  0.25500000920E-02 0. -1.
       -2   -1    0    0    0  501  0.00000000000E+00  0.00000000000E+00 -0.17858559276E+04  0.17858559276E+04  0.25500000920E-02 0.  1.
    10030    2    1    2    0    0  0.00000000000E+00  0.00000000000E+00 -0.43521542650E+03  0.31364964288E+04  0.31061547579E+04 0.  0.
        2    1    3    3  502    0 -0.54006332096E+03  0.85386659112E+03 -0.14086604086E+04  0.17335168568E+04  0.25500000920E-02 0.  1.
       -2    1    3    3    0  502  0.54006332096E+03 -0.85386659112E+03  0.97344498211E+03  0.14029795719E+04  0.25500000920E-02 0. -1.
</event>
<event>
 5   0  0.1128530E-06  0.3729733E+04  0.7818609E-02  0.8061404E-01
        2   -1    0    0  501    0  0.00000000000E+00  0.00000000000E+00  0.19290869676E+04  0.19290869676E+04  0.25500000920E-02 0.  1.
       -2   -1    0    0    0  501  0.00000000000E+00  0.00000000000E+00 -0.18027838983E+04  0.18027838983E+04  0.25500000920E-02 0. -1.
    10030    2    1    2    0    0  0.00000000000E+00  0.00000000000E+00  0.12630306928E+03  0.37318708658E+04  0.37297329253E+04 0.  0.
        5    1    3    3  502    0 -0.36013413825E+03  0.18204348637E+04 -0.12141325534E+03  0.18596889415E+04  0.46999998093E+01 0. -1.
       -5    1    3    3    0  502  0.36013413825E+03 -0.18204348637E+04  0.24771632462E+03  0.18721819244E+04  0.46999998093E+01 0.  1.
</event>
<event>
 5   0  0.3704306E-07  0.2361393E+04  0.7818609E-02  0.8454100E-01
       -1   -1    0    0    0  501  0.00000000000E+00  0.00000000000E+00  0.10274643819E+04  0.10274643819E+04  0.50400001928E-02 0. -1.
        1   -1    0    0  501    0  0.00000000000E+00  0.00000000000E+00 -0.13567811538E+04  0.13567811538E+04  0.50400001928E-02 0.  1.
    10030    2    1    2    0    0  0.00000000000E+00  0.00000000000E+00 -0.32931677197E+03  0.23842455357E+04  0.23613930715E+04 0.  0.
        3    1    3    3  502    0  0.93074298926E+03 -0.37097752827E+03 -0.79531291654E+03  0.12792300356E+04  0.10100000352E+00 0.  1.
       -3    1    3    3    0  502 -0.93074298926E+03  0.37097752827E+03  0.46599614458E+03  0.11050155001E+04  0.10100000352E+00 0. -1.
</event>
<event>
 5   0  0.3764495E-07  0.3771401E+04  0.7818609E-02  0.8052320E-01
       -1   -1    0    0    0  501  0.00000000000E+00  0.00000000000E+00  0.21761132664E+04  0.21761132664E+04  0.50400001928E-02 0.  1.
        1   -1    0    0  501    0  0.00000000000E+00  0.00000000000E+00 -0.16340446638E+04  0.16340446638E+04  0.50400001928E-02 0. -1.
    10030    2    1    2    0    0  0.00000000000E+00  0.00000000000E+00  0.54206860267E+03  0.38101579302E+04  0.37714009444E+04 0.  0.
        4    1    3    3  502    0 -0.25002079363E+03  0.41010198628E+03 -0.15712100746E+04  0.16429840985E+04  0.12699999809E+01 0. -1.
       -4    1    3    3    0  502  0.25002079363E+03 -0.41010198628E+03  0.21132786773E+04  0.21671738318E+04  0.12699999809E+01 0.  1.
</event>
<event>
 5   0  0.1128166E-06  0.3605836E+04  0.7818609E-02  0.8089156E-01
        2   -1    0    0  501    0  0.00000000000E+00  0.00000000000E+00  0.12528868195E+04  0.12528868195E+04  0.25500000920E-02 0. -1.
       -2   -1    0    0    0  501  0.00000000000E+00  0.00000000000E+00 -0.25944190048E+04  0.25944190048E+04  0.25500000920E-02 0.  1.
    10030    2    1    2    0    0  0.00000000000E+00  0.00000000000E+00 -0.13415321853E+04  0.38473058243E+04  0.36058360336E+04 0.  0.
        3    1    3    3  502    0  0.48952238658E+03 -0.73723045129E+01 -0.25221378128E+04  0.25692149920E+04  0.10100000352E+00 0.  1.
       -3    1    3    3    0  502 -0.48952238658E+03  0.73723045129E+01  0.11806056275E+04  0.12780908323E+04  0.10100000352E+00 0. -1.
</event>
<event>
 5   0  0.3675819E-07  0.3546939E+04  0.7818609E-02  0.8102755E-01
       -1   -1    0    0    0  501  0.00000000000E+00  0.00000000000E+00  0.12116708810E+04  0.12116708811E+04  0.50400001928E-02 0.  1.
        1   -1    0    0  501    0  0.00000000000E+00  0.00000000000E+00 -0.25957488978E+04  0.25957488978E+04  0.50400001928E-02 0. -1.
    10030    2    1    2    0    0  0.00000000000E+00  0.00000000000E+00 -0.13840780167E+04  0.38074197788E+04  0.35469385977E+04 0.  0.
        5    1    3    3  502    0 -0.15826949667E+04  0.61286677356E+03 -0.12442520515E+04  0.21044510679E+04  0.46999998093E+01 0. -1.
       -5    1    3    3    0  502  0.15826949667E+04 -0.61286677356E+03 -0.13982596519E+03  0.17029687109E+04  0.46999998093E+01 0.  1.
</event>
<event>
 5   0  0.1092116E-06  0.3034227E+04  0.7818609E-02  0.8234024E-01
       -2   -1    0    0    0  501  0.00000000000E+00  0.00000000000E+00  0.29845611890E+04  0.29845611890E+04  0.25500000920E-02 0. -1.
        2   -1    0    0  501    0  0.00000000000E+00  0.00000000000E+00 -0.77117979924E+03  0.77117979925E+03  0.25500000920E-02 0.  1.
    10030    2    1    2    0    0  0.00000000000E+00  0.00000000000E+00  0.22133813897E+04  0.37557409882E+04  0.30342269517E+04 0.  0.
        1    1    3    3  502    0  0.13283308781E+03  0.45673672011E+03  0.28898757294E+04  0.29287599411E+04  0.50400001928E-02 0. -1.
       -1    1    3    3    0  502 -0.13283308781E+03 -0.45673672011E+03 -0.67649433970E+03  0.82698104718E+03  0.50400001928E-02 0.  1.
</event>
<event>
 5   0  0.3682276E-07  0.3266269E+04  0.7818609E-02  0.8171532E-01
        1   -1    0    0  501    0  0.00000000000E+00  0.00000000000E+00  0.31345630970E+04  0.31345630971E+04  0.50400001928E-02 0.  1.
       -1   -1    0    0    0  501  0.00000000000E+00  0.00000000000E+00 -0.85087703378E+03  0.85087703379E+03  0.50400001928E-02 0. -1.
    10030    2    1    2    0    0  0.00000000000E+00  0.00000000000E+00  0.22836860633E+04  0.39854401308E+04  0.32662686664E+04 0.  0.
        1    1    3    3  502    0 -0.15537812019E+03  0.16089589746E+04  0.14260075468E+04  0.21555483910E+04  0.50400001928E-02 0.  1.
       -1    1    3    3    0  502  0.15537812019E+03 -0.16089589746E+04  0.85767851643E+03  0.18298917399E+04  0.50400001928E-02 0. -1.
</event>
<event>
 5   0  0.1051123E-06  0.3635673E+04  0.7818609E-02  0.8082369E-01
       -2   -1    0    0    0  501  0.00000000000E+00  0.00000000000E+00  0.12642748257E+04  0.12642748257E+04  0.25500000920E-02 0. -1.
        2   -1    0    0  501    0  0.00000000000E+00  0.00000000000E+00 -0.26137742205E+04  0.26137742205E+04  0.25500000920E-02 0.  1.
    10030    2    1    2    0    0  0.00000000000E+00  0.00000000000E+00 -0.13494993948E+04  0.38780490462E+04  0.36356726734E+04 0.  0.
        2    1    3    3  502    0  0.45350744415E+03 -0.15337588909E+04 -0.15963169282E+04  0.22597152636E+04  0.25500000920E-02 0.  1.
       -2    1    3    3    0  502 -0.45350744415E+03  0.15337588909E+04  0.24681753334E+03  0.16183337826E+04  0.25500000920E-02 0. -1.
</event>
<event>
 5   0  0.3704306E-07  0.3576174E+04  0.7818609E-02  0.8095971E-01
        1   -1    0    0  501    0  0.00000000000E+00  0.00000000000E+00  0.25745671733E+04  0.25745671733E+04  0.50400001928E-02 0.  1.
       -1   -1    0    0    0  501  0.00000000000E+00  0.00000000000E+00 -0.12418612206E+04  0.12418612206E+04  0.50400001928E-02 0. -1.
    10030    2    1    2    0    0  0.00000000000E+00  0.00000000000E+00  0.13327059527E+04  0.38164283939E+04  0.35761740071E+04 0.  0.
        3    1    3    3  502    0  0.26200239032E+03  0.15970530117E+04  0.14777141975E+04  0.21915434823E+04  0.10100000352E+00 0.  1.
       -3    1    3    3    0  502 -0.26200239032E+03 -0.15970530117E+04 -0.14500824484E+03  0.16248849116E+04  0.10100000352E+00 0. -1.
</event>
<event>
 5   0  0.1066907E-06  0.3722722E+04  0.7818609E-02  0.8062945E-01
        2   -1    0    0  501    0  0.00000000000E+00  0.00000000000E+00  0.16339457674E+04  0.16339457674E+04  0.25500000920E-02 0. -1.
       -2   -1    0    0    0  501  0.00000000000E+00  0.00000000000E+00 -0.21204286015E+04  0.21204286015E+04  0.25500000920E-02 0.  1.
    10030    2    1    2    0    0  0.00000000000E+00  0.00000000000E+00 -0.48648283410E+03  0.37543743688E+04  0.37227223041E+04 0.  0.
        4    1    3    3  502    0 -0.11469975607E+04 -0.96541271499E+03  0.86933311244E+03  0.17330224429E+04  0.12699999809E+01 0. -1.
       -4    1    3    3    0  502  0.11469975607E+04  0.96541271499E+03 -0.13558159465E+04  0.20213519259E+04  0.12699999809E+01 0.  1.
</event>
<event>
 5   0  0.1092116E-06  0.3725144E+04  0.7818609E-02  0.8062412E-01
        2   -1    0    0  501    0  0.00000000000E+00  0.00000000000E+00  0.16969984727E+04  0.16969984727E+04  0.25500000920E-02 0. -1.
       -2   -1    0    0    0  501  0.00000000000E+00  0.00000000000E+00 -0.20443004126E+04  0.20443004126E+04  0.25500000920E-02 0.  1.
    10030    2    1    2    0    0  0.00000000000E+00  0.00000000000E+00 -0.34730193983E+03  0.37412988853E+04  0.37251441196E+04 0.  0.
        1    1    3    3  502    0  0.13265151031E+04 -0.44431750517E+03 -0.14086642774E+04  0.19852947919E+04  0.50400001928E-02 0.  1.
       -1    1    3    3    0  502 -0.13265151031E+04  0.44431750517E+03  0.10613623376E+04  0.17560040934E+04  0.50400001928E-02 0. -1.
</event>
<event>
 5   0  0.3704306E-07  0.3746221E+04  0.7818609E-02  0.8057795E-01
        1   -1    0    0  501    0  0.00000000000E+00  0.00000000000E+00  0.16530677509E+04  0.16530677509E+04  0.50400001928E-02 0.  1.
       -1   -1    0    0    0  501  0.00000000000E+00  0.00000000000E+00 -0.21224440737E+04  0.21224440737E+04  0.50400001928E-02 0. -1.
    10030    2    1    2    0    0  0.00000000000E+00  0.00000000000E+00 -0.46937632280E+03  0.37755118246E+04  0.37462214837E+04 0.  0.
        3    1    3    3  502    0  0.16885118093E+04  0.19645295372E+03  0.55815062616E+03  0.17891892088E+04  0.10100000352E+00 0.  1.
       -3    1    3    3    0  502 -0.16885118093E+04 -0.19645295372E+03 -0.10275269490E+04  0.19863226158E+04  0.10100000352E+00 0. -1.
</event>
<event>
 5   0  0.3675819E-07  0.2384381E+04  0.7818609E-02  0.8445374E-01
       -1   -1    0    0    0  501  0.00000000000E+00  0.00000000000E+00  0.81954561198E+03  0.81954561199E+03  0.50400001928E-02 0. -1.
        1   -1    0    0  501    0  0.00000000000E+00  0.00000000000E+00 -0.17342754819E+04  0.17342754819E+04  0.50400001928E-02 0.  1.
    10030    2    1    2    0    0  0.00000000000E+00  0.00000000000E+00 -0.91472986990E+03  0.25538210939E+04  0.23843807256E+04 0.  0.
        5    1    3    3  502    0 -0.23844219404E+02 -0.76376814784E+03 -0.14374811408E+04  0.16279694256E+04  0.46999998093E+01 0.  1.
       -5    1    3    3    0  502  0.23844219404E+02  0.76376814784E+03  0.52275127091E+03  0.92585166830E+03  0.46999998093E+01 0. -1.
</event>
<event>
 5   0  0.3704306E-07  0.3519827E+04  0.7818609E-02  0.8109107E-01
        1   -1    0    0  501    0  0.00000000000E+00  0.00000000000E+00  0.22302484701E+04  0.22302484701E+04  0.50400001928E-02 0. -1.
       -1   -1    0    0    0  501  0.00000000000E+00  0.00000000000E+00 -0.13887672074E+04  0.13887672074E+04  0.50400001928E-02 0.  1.
    10030    2    1    2    0    0  0.00000000000E+00  0.00000000000E+00  0.84148126277E+03  0.36190156775E+04  0.35198272342E+04 0.  0.
        3    1    3    3  502    0  0.18873366380E+03  0.15520197092E+04  0.12515394986E+04  0.20026823763E+04  0.10100000352E+00 0.  1.
       -3    1    3    3    0  502 -0.18873366380E+03 -0.15520197092E+04 -0.41005823585E+03  0.16163333012E+04  0.10100000352E+00 0. -1.
</event>
<event>
 5   0  0.1051123E-06  0.3359863E+04  0.7818609E-02  0.8147828E-01
       -2   -1    0    0    0  501  0.00000000000E+00  0.00000000000E+00  0.14412885068E+04  0.14412885068E+04  0.25500000920E-02 0.  1.
        2   -1    0    0  501    0  0.00000000000E+00  0.00000000000E+00 -0.19580884389E+04  0.19580884389E+04  0.25500000920E-02 0. -1.
    10030    2    1    2    0    0  0.00000000000E+00  0.00000000000E+00 -0.51679993210E+03  0.33993769457E+04  0.33598633081E+04 0.  0.
        2    1    3    3  502    0  0.68543266951E+03  0.31739839806E+03 -0.17765838090E+04  0.19304946822E+04  0.25500000920E-02 0. -1.
       -2    1    3    3    0  502 -0.68543266951E+03 -0.31739839806E+03  0.12597838769E+04  0.14688822635E+04  0.25500000920E-02 0.  1.
</event>
<event>
 5   0  0.3704306E-07  0.3485831E+04  0.7818609E-02  0.8117156E-01
       -1   -1    0    0    0  501  0.00000000000E+00  0.00000000000E+00  0.19781546667E+04  0.19781546667E+04  0.50400001928E-02 0. -1.
        1   -1    0    0  501    0  0.00000000000E+00  0.00000000000E+00 -0.15356503986E+04  0.15356503986E+04  0.50400001928E-02 0.  1.
    10030    2    1    2    0    0  0.00000000000E+00  0.00000000000E+00  0.44250426813E+03  0.35138050653E+04  0.34858307488E+04 0.  0.
        3    1    3    3  502    0 -0.10622603316E+04 -0.12034653204E+04 -0.46318744385E+03  0.16707089536E+04  0.10100000352E+00 0. -1.
       -3    1    3    3    0  502  0.10622603316E+04  0.12034653204E+04  0.90569171198E+03  0.18430961116E+04  0.10100000352E+00 0.  1.
</event>
<event>
 5   0  0.1092116E-06  0.3695312E+04  0.7818609E-02  0.8069001E-01
        2   -1    0    0  501    0  0.00000000000E+00  0.00000000000E+00  0.25040880208E+04  0.25040880208E+04  0.25500000920E-02 0. -1.
       -2   -1    0    0    0  501  0.00000000000E+00  0.00000000000E+00 -0.13633040068E+04  0.13633040068E+04  0.25500000920E-02 0.  1.
    10030    2    1    2    0    0  0.00000000000E+00  0.00000000000E+00  0.11407840140E+04  0.38673920276E+04  0.36953122911E+04 0.  0.
        1    1    3    3  502    0 -0.10230879197E+04  0.13671307501E+04  0.13090028291E+04  0.21515677507E+04  0.50400001928E-02 0.  1.
       -1    1    3    3    0  502  0.10230879197E+04 -0.13671307501E+04 -0.16821881505E+03  0.17158242769E+04  0.50400001928E-02 0. -1.
</event>
<event>
 5   0  0.1066907E-06  0.3766078E+04  0.7818609E-02  0.8053474E-01
       -2   -1    0    0    0  501  0.00000000000E+00  0.00000000000E+00  0.16831006905E+04  0.16831006905E+04  0.25500000920E-02 0.  1.
        2   -1    0    0  501    0  0.00000000000E+00  0.00000000000E+00 -0.21067285532E+04  0.21067285532E+04  0.25500000920E-02 0. -1.
    10030    2    1    2    0    0  0.00000000000E+00  0.00000000000E+00 -0.42362786261E+03  0.37898292437E+04  0.37660782162E+04 0.  0.
        4    1    3    3  502    0 -0.63193412090E+03  0.17530237523E+04 -0.48444996158E+03  0.19253899313E+04  0.12699999809E+01 0. -1.
       -4    1    3    3    0  502  0.63193412090E+03 -0.17530237523E+04  0.60822098965E+02  0.18644393125E+04  0.12699999809E+01 0.  1.
</event>
<event>
 5   0  0.3675819E-07  0.3830137E+04  0.7818609E-02  0.8039718E-01
       -1   -1    0    0    0  501  0.00000000000E+00  0.00000000000E+00  0.19474953530E+04  0.19474953530E+04  0.50400001928E-02 0. -1.
        1   -1    0    0  501    0  0.00000000000E+00  0.00000000000E+00 -0.18831814317E+04  0.18831814317E+04  0.50400001928E-02 0.  1.
    10030    2    1    2    0    0  0.00000000000E+00  0.00000000000E+00  0.64313921279E+02  0.38306767846E+04  0.38301368576E+04 0.  0.
        5    1    3    3  502    0 -0.92658607180E+03  0.16523847310E+04 -0.24811093034E+03  0.19106329243E+04  0.46999998093E+01 0.  1.
       -5    1    3    3    0  502  0.92658607180E+03 -0.16523847310E+04  0.31242485161E+03  0.19200438603E+04  0.46999998093E+01 0. -1.
</event>
<event>
 5   0  0.1128166E-06  0.2729774E+04  0.7818609E-02  0.8325408E-01
       -2   -1    0    0    0  501  0.00000000000E+00  0.00000000000E+00  0.11375233175E+04  0.11375233175E+04  0.25500000920E-02 0.  1.
        2   -1    0    0  501    0  0.00000000000E+00  0.00000000000E+00 -0.16376953560E+04  0.16376953560E+04  0.25500000920E-02 0. -1.
    10030    2    1    2    0    0  0.00000000000E+00  0.00000000000E+00 -0.50017203845E+03  0.27752186735E+04  0.27297740965E+04 0.  0.
        3    1    3    3  502    0  0.47403017501E+03  0.34956432582E+03  0.10016781342E+04  0.11620064197E+04  0.10100000352E+00 0.  1.
       -3    1    3    3    0  502 -0.47403017501E+03 -0.34956432582E+03 -0.15018501726E+04  0.16132122538E+04  0.10100000352E+00 0. -1.
</event>
<event>
 5   0  0.1092116E-06  0.3732740E+04  0.7818609E-02  0.8060745E-01
        2   -1    0    0  501    0  0.00000000000E+00  0.00000000000E+00  0.22195729042E+04  0.22195729042E+04  0.25500000920E-02 0. -1.
       -2   -1    0    0    0  501  0.00000000000E+00  0.00000000000E+00 -0.15693722769E+04  0.15693722769E+04  0.25500000920E-02 0.  1.
    10030    2    1    2    0    0  0.00000000000E+00  0.00000000000E+00  0.65020062730E+03  0.37889451812E+04  0.37327395744E+04 0.  0.
        1    1    3    3  502    0  0.12986152761E+04 -0.12123510765E+04  0.90567362388E+03  0.19941016727E+04  0.50400001928E-02 0. -1.
       -1    1    3    3    0  502 -0.12986152761E+04  0.12123510765E+04 -0.25547299658E+03  0.17948435085E+04  0.50400001928E-02 0.  1.
</event>
<event>
 5   0  0.3848431E-07  0.3675782E+04  0.7818609E-02  0.8073350E-01
       -1   -1    0    0    0  501  0.00000000000E+00  0.00000000000E+00  0.22078985582E+04  0.22078985582E+04  0.50400001928E-02 0. -1.
        1   -1    0    0  501    0  0.00000000000E+00  0.00000000000E+00 -0.15298906544E+04  0.15298906544E+04  0.50400001928E-02 0.  1.
    10030    2    1    2    0    0  0.00000000000E+00  0.00000000000E+00  0.67800790384E+03  0.37377892126E+04  0.36757820229E+04 0.  0.
        2    1    3    3  502    0 -0.13703244085E+04  0.98993393937E+03  0.10723387552E+04  0.20019162307E+04  0.25500000920E-02 0. -1.
       -2    1    3    3    0  502  0.13703244085E+04 -0.98993393937E+03 -0.39433085131E+03  0.17358729819E+04  0.25500000920E-02 0.  1.
</event>
<event>
 5   0  0.3675819E-07  0.3718161E+04  0.7818609E-02  0.8063949E-01
        1   -1    0    0  501    0  0.00000000000E+00  0.00000000000E+00  0.26133041509E+04  0.26133041509E+04  0.50400001928E-02 0. -1.
       -1   -1    0    0    0  501  0.00000000000E+00  0.00000000000E+00 -0.13225325244E+04  0.13225325244E+04  0.50400001928E-02 0.  1.
    10030    2    1    2    0    0  0.00000000000E+00  0.00000000000E+00  0.12907716265E+04  0.39358366753E+04  0.37181606935E+04 0.  0.
        5    1    3    3  502    0  0.14308182497E+04  0.10004593545E+04  0.13215277240E+04  0.21896614804E+04  0.46999998093E+01 0.  1.
       -5    1    3    3    0  502 -0.14308182497E+04 -0.10004593545E+04 -0.30756097446E+02  0.17461751948E+04  0.46999998093E+01 0. -1.
</event>
<event>
 5   0  0.3682276E-07  0.3653419E+04  0.7818609E-02  0.8078364E-01
        1   -1    0    0  501    0  0.00000000000E+00  0.00000000000E+00  0.10778828773E+04  0.10778828773E+04  0.50400001928E-02 0. -1.
       -1   -1    0    0    0  501  0.00000000000E+00  0.00000000000E+00 -0.30957608433E+04  0.30957608433E+04  0.50400001928E-02 0.  1.
    10030    2    1    2    0    0  0.00000000000E+00  0.00000000000E+00 -0.20178779660E+04  0.41736437206E+04  0.36534190043E+04 0.  0.
        1    1    3    3  502    0  0.13850174410E+04 -0.11849674166E+04 -0.87163047886E+03  0.20204357901E+04  0.50400001928E-02 0. -1.
       -1    1    3    3    0  502 -0.13850174410E+04  0.11849674166E+04 -0.11462474871E+04  0.21532079305E+04  0.50400001928E-02 0.  1.
</event>
<event>
 5   0  0.1128530E-06  0.3622576E+04  0.7818609E-02  0.8085340E-01
        2   -1    0    0  501    0  0.00000000000E+00  0.00000000000E+00  0.14453078226E+04  0.14453078226E+04  0.25500000920E-02 0. -1.
       -2   -1    0    0    0  501  0.00000000000E+00  0.00000000000E+00 -0.22699413601E+04  0.22699413601E+04  0.25500000920E-02 0.  1.
    10030    2    1    2    0    0  0.00000000000E+00  0.00000000000E+00 -0.82463353749E+03  0.37152491828E+04  0.36225758817E+04 0.  0.
        5    1    3    3  502    0 -0.38341141165E+03 -0.46386153926E+03 -0.21644031692E+04  0.22465161934E+04  0.46999998093E+01 0.  1.
       -5    1    3    3    0  502  0.38341141165E+03  0.46386153926E+03  0.13397696317E+04  0.14687329894E+04  0.46999998093E+01 0. -1.
</event>
<event>
 5   0  0.1128166E-06  0.3662509E+04  0.7818609E-02  0.8076321E-01
        2   -1    0    0  501    0  0.00000000000E+00  0.00000000000E+00  0.12862442423E+04  0.12862442424E+04  0.25500000920E-02 0.  1.
       -2   -1    0    0    0  501  0.00000000000E+00  0.00000000000E+00 -0.26071978747E+04  0.26071978747E+04  0.25500000920E-02 0. -1.
    10030    2    1    2    0    0  0.00000000000E+00  0.00000000000E+00 -0.13209536323E+04  0.38934421170E+04  0.36625091153E+04 0.  0.
        3    1    3    3  502    0 -0.17129970970E+04 -0.26717073631E+03 -0.33587212023E+02  0.17340321127E+04  0.10100000352E+00 0.  1.
       -3    1    3    3    0  502  0.17129970970E+04  0.26717073631E+03 -0.12873664203E+04  0.21594100044E+04  0.10100000352E+00 0. -1.
</event>
<event>
 5   0  0.1066907E-06  0.3808359E+04  0.7818609E-02  0.8044363E-01
       -2   -1    0    0    0  501  0.00000000000E+00  0.00000000000E+00  0.17128430500E+04  0.17128430500E+04  0.25500000920E-02 0.  1.
        2   -1    0    0  501    0  0.00000000000E+00  0.00000000000E+00 -0.21168897676E+04  0.21168897676E+04  0.25500000920E-02 0. -1.
    10030    2    1    2    0    0  0.00000000000E+00  0.00000000000E+00 -0.40404671762E+03  0.38297328176E+04  0.38083591879E+04 0.  0.
        4    1    3    3  502    0 -0.15879890905E+04  0.66695424582E+03 -0.10185910651E+04  0.20010164138E+04  0.12699999809E+01 0. -1.
       -4    1    3    3    0  502  0.15879890905E+04 -0.66695424582E+03  0.61454434750E+03  0.18287164038E+04  0.12699999809E+01 0.  1.
</event>
<event>
 5   0  0.1128166E-06  0.3526878E+04  0.7818609E-02  0.8107450E-01
        2   -1    0    0  501    0  0.00000000000E+00  0.00000000000E+00  0.21669987350E+04  0.21669987350E+04  0.25500000920E-02 0.  1.
       -2   -1    0    0    0  501  0.00000000000E+00  0.00000000000E+00 -0.14350340217E+04  0.14350340217E+04  0.25500000920E-02 0. -1.
    10030    2    1    2    0    0  0.00000000000E+00  0.00000000000E+00  0.73196471325E+03  0.36020327567E+04  0.35268778883E+04 0.  0.
        3    1    3    3  502    0  0.16280006455E+04  0.26085440906E+03  0.10048402492E+04  0.19308379168E+04  0.10100000352E+00 0.  1.
       -3    1    3    3    0  502 -0.16280006455E+04 -0.26085440906E+03 -0.27287553592E+03  0.16711948399E+04  0.10100000352E+00 0. -1.
</event>
<event>
 5   0  0.3675819E-07  0.3721362E+04  0.7818609E-02  0.8063244E-01
       -1   -1    0    0    0  501  0.00000000000E+00  0.00000000000E+00  0.13456604687E+04  0.13456604687E+04  0.50400001928E-02 0.  1.
        1   -1    0    0  501    0  0.00000000000E+00  0.00000000000E+00 -0.25728133511E+04  0.25728133511E+04  0.50400001928E-02 0. -1.
    10030    2    1    2    0    0  0.00000000000E+00  0.00000000000E+00 -0.12271528824E+04  0.39184738198E+04  0.37213616969E+04 0.  0.
        5    1    3    3  502    0 -0.13603359612E+04  0.51222415382E+03 -0.18366625503E+04  0.23422721714E+04  0.46999998093E+01 0. -1.
       -5    1    3    3    0  502  0.13603359612E+04 -0.51222415382E+03  0.60950966791E+03  0.15762016484E+04  0.46999998093E+01 0.  1.
</event>
<event>
 5   0  0.3764495E-07  0.3728643E+04  0.7818609E-02  0.8061644E-01
        1   -1    0    0  501    0  0.00000000000E+00  0.00000000000E+00  0.25235538732E+04  0.25235538732E+04  0.50400001928E-02 0.  1.
       -1   -1    0    0    0  501  0.00000000000E+00  0.00000000000E+00 -0.13773011873E+04  0.13773011873E+04  0.50400001928E-02 0. -1.
    10030    2    1    2    0    0  0.00000000000E+00  0.00000000000E+00  0.11462526859E+04  0.39008550605E+04  0.37286425121E+04 0.  0.
        4    1    3    3  502    0 -0.26630763617E+03 -0.80555139924E+02 -0.13554589665E+04  0.13837194479E+04  0.12699999809E+01 0. -1.
       -4    1    3    3    0  502  0.26630763617E+03  0.80555139924E+02  0.25017116524E+04  0.25171356127E+04  0.12699999809E+01 0.  1.
</event>
<event>
 5   0  0.3675819E-07  0.3296800E+04  0.7818609E-02  0.8163710E-01
       -1   -1    0    0    0  501  0.00000000000E+00  0.00000000000E+00  0.13551744517E+04  0.13551744517E+04  0.50400001928E-02 0.  1.
        1   -1    0    0  501    0  0.00000000000E+00  0.00000000000E+00 -0.20050726675E+04  0.20050726675E+04  0.50400001928E-02 0. -1.
    10030    2    1    2    0    0  0.00000000000E+00  0.00000000000E+00 -0.64989821576E+03  0.33602471192E+04  0.32968004203E+04 0.  0.
        5    1    3    3  502    0 -0.95255966763E+03  0.88879644390E+03  0.70437328564E+03  0.14810445147E+04  0.46999998093E+01 0.  1.
       -5    1    3    3    0  502  0.95255966763E+03 -0.88879644390E+03 -0.13542715014E+04  0.18792026044E+04  0.46999998093E+01 0. -1.
</event>
<event>
 5   0  0.3764495E-07  0.3672855E+04  0.7818609E-02  0.8074004E-01
       -1   -1    0    0    0  501  0.00000000000E+00  0.00000000000E+00  0.16556621510E+04  0.16556621511E+04  0.50400001928E-02 0. -1.
        1   -1    0    0  501    0  0.00000000000E+00  0.00000000000E+00 -0.20369290006E+04  0.20369290006E+04  0.50400001928E-02 0.  1.
    10030    2    1    2    0    0  0.00000000000E+00  0.00000000000E+00 -0.38126684954E+03  0.36925911517E+04  0.36728551568E+04 0.  0.
        4    1    3    3  502    0 -0.16515804594E+03 -0.99674067706E+03  0.13511308039E+04  0.16871055745E+04  0.12699999809E+01 0. -1.
       -4    1    3    3    0  502  0.16515804594E+03  0.99674067706E+03 -0.17323976535E+04  0.20054855771E+04  0.12699999809E+01 0.  1.
</event>
<event>
 5   0  0.1128166E-06  0.3744103E+04  0.7818609E-02  0.8058258E-01
       -2   -1    0    0    0  501  0.00000000000E+00  0.00000000000E+00  0.14539664066E+04  0.14539664066E+04  0.25500000920E-02 0. -1.
        2   -1    0    0  501    0  0.00000000000E+00  0.00000000000E+00 -0.24103561567E+04  0.24103561567E+04  0.25500000920E-02 0.  1.
    10030    2    1    2    0    0  0.00000000000E+00  0.00000000000E+00 -0.95638975015E+03  0.38643225633E+04  0.37441030327E+04 0.  0.
        3    1    3    3  502    0 -0.28793851823E+03  0.18468713079E+04 -0.37125995510E+03  0.19056957215E+04  0.10100000352E+00 0. -1.
       -3    1    3    3    0  502  0.28793851823E+03 -0.18468713079E+04 -0.58512979506E+03  0.19586268419E+04  0.10100000352E+00 0.  1.
</event>
<event>
 5   0  0.3704306E-07  0.3618236E+04  0.7818609E-02  0.8086327E-01
       -1   -1    0    0    0  501  0.00000000000E+00  0.00000000000E+00  0.15879559334E+04  0.15879559334E+04  0.50400001928E-02 0.  1.
        1   -1    0    0  501    0  0.00000000000E+00  0.00000000000E+00 -0.20610818345E+04  0.20610818345E+04  0.50400001928E-02 0. -1.
    10030    2    1    2    0    0  0.00000000000E+00  0.00000000000E+00 -0.47312590114E+03  0.36490377679E+04  0.36182355525E+04 0.  0.
        3    1    3    3  502    0  0.11800392471E+04  0.11779288623E+04  0.47148079149E+03  0.17327155498E+04  0.10100000352E+00 0.  1.
       -3    1    3    3    0  502 -0.11800392471E+04 -0.11779288623E+04 -0.94460669264E+03  0.19163222181E+04  0.10100000352E+00 0. -1.
</event>
<event>
 5   0  0.1128530E-06  0.3196623E+04  0.7818609E-02  0.8189710E-01
        2   -1    0    0  501    0  0.00000000000E+00  0.00000000000E+00  0.21595338532E+04  0.21595338532E+04  0.25500000920E-02 0.  1.
       -2   -1    0    0    0  501  0.00000000000E+00  0.00000000000E+00 -0.11829405351E+04  0.11829405351E+04  0.25500000920E-02 0. -1.
    10030    2    1    2    0    0  0.00000000000E+00  0.00000000000E+00  0.97659331803E+03  0.33424743883E+04  0.31966233009E+04 0.  0.
        5    1    3    3  502    0 -0.76161532164E+02 -0.15771114700E+04  0.22899628185E+03  0.15954756516E+04  0.46999998093E+01 0. -1.
       -5    1    3    3    0  502  0.76161532164E+02  0.15771114700E+04  0.74759703618E+03  0.17469987367E+04  0.46999998093E+01 0.  1.
</event>
<event>
 5   0  0.1128166E-06  0.3615156E+04  0.7818609E-02  0.8087029E-01
       -2   -1    0    0    0  501  0.00000000000E+00  0.00000000000E+00  0.18518201115E+04  0.18518201115E+04  0.25500000920E-02 0. -1.
        2   -1    0    0  501    0  0.00000000000E+00  0.00000000000E+00 -0.17643930474E+04  0.17643930474E+04  0.25500000920E-02 0.  1.
    10030    2    1    2    0    0  0.00000000000E+00  0.00000000000E+00  0.87427064187E+02  0.36162131589E+04  0.36151561680E+04 0.  0.
        3    1    3    3  502    0 -0.82811226022E+03  0.14468983175E+04  0.74252630862E+03  0.18250013660E+04  0.10100000352E+00 0. -1.
       -3    1    3    3    0  502  0.82811226022E+03 -0.14468983175E+04 -0.65509924444E+03  0.17912117929E+04  0.10100000352E+00 0.  1.
</event>
<event>
 5   0  0.3704306E-07  0.3713174E+04  0.7818609E-02  0.8065049E-01
        1   -1    0    0  501    0  0.00000000000E+00  0.00000000000E+00  0.14366671803E+04  0.14366671803E+04  0.50400001928E-02 0.  1.
       -1   -1    0    0    0  501  0.00000000000E+00  0.00000000000E+00 -0.23992442225E+04  0.23992442225E+04  0.50400001928E-02 0. -1.
    10030    2    1    2    0    0  0.00000000000E+00  0.00000000000E+00 -0.96257704215E+03  0.38359114028E+04  0.37131740773E+04 0.  0.
        3    1    3    3  502    0  0.90015110130E+03 -0.46003839108E+03 -0.20900062734E+04  0.23216445808E+04  0.10100000352E+00 0. -1.
       -3    1    3    3    0  502 -0.90015110130E+03  0.46003839108E+03  0.11274292313E+04  0.15142668220E+04  0.10100000352E+00 0.  1.
</event>
<event>
 5   0  0.1066907E-06  0.3712705E+04  0.7818609E-02  0.8065152E-01
       -2   -1    0    0    0  501  0.00000000000E+00  0.00000000000E+00  0.15466594378E+04  0.15466594378E+04  0.25500000920E-02 0. -1.
        2   -1    0    0  501    0  0.00000000000E+00  0.00000000000E+00 -0.22280570666E+04  0.22280570666E+04  0.25500000920E-02 0.  1.
    10030    2    1    2    0    0  0.00000000000E+00  0.00000000000E+00 -0.68139762881E+03  0.37747165044E+04  0.37127054771E+04 0.  0.
        4    1    3    3  502    0  0.12930874018E+03  0.83152033846E+03 -0.20229947609E+04  0.21910399903E+04  0.12699999809E+01 0.  1.
       -4    1    3    3    0  502 -0.12930874018E+03 -0.83152033846E+03  0.13415971321E+04  0.15836765141E+04  0.12699999809E+01 0. -1.
</event>
<event>
 5   0  0.1128530E-06  0.3646757E+04  0.7818609E-02  0.8079865E-01
        2   -1    0    0  501    0  0.00000000000E+00  0.00000000000E+00  0.17576501159E+04  0.17576501159E+04  0.25500000920E-02 0. -1.
       -2   -1    0    0    0  501  0.00000000000E+00  0.00000000000E+00 -0.18915646887E+04  0.18915646887E+04  0.25500000920E-02 0.  1.
    10030    2    1    2    0    0  0.00000000000E+00  0.00000000000E+00 -0.13391457284E+03  0.36492148046E+04  0.36467568574E+04 0.  0.
        5    1    3    3  502    0  0.48367966003E+03  0.10453959225E+04 -0.14813766913E+04  0.18765120943E+04  0.46999998093E+01 0.  1.
       -5    1    3    3    0  502 -0.48367966003E+03 -0.10453959225E+04  0.13474621185E+04  0.17727027103E+04  0.46999998093E+01 0. -1.
</event>
<event>
 5   0  0.3848431E-07  0.3681142E+04  0.7818609E-02  0.8072154E-01
        1   -1    0    0  501    0  0.00000000000E+00  0.00000000000E+00  0.18459119327E+04  0.18459119327E+04  0.50400001928E-02 0.  1.
       -1   -1    0    0    0  501  0.00000000000E+00  0.00000000000E+00 -0.18352458990E+04  0.18352458990E+04  0.50400001928E-02 0. -1.
    10030    2    1    2    0    0  0.00000000000E+00  0.00000000000E+00  0.10666033694E+02  0.36811578316E+04  0.36811423794E+04 0.  0.
        2    1    3    3  502    0 -0.91443207496E+03 -0.12908043958E+04 -0.93559616702E+03  0.18378526045E+04  0.25500000920E-02 0. -1.
       -2    1    3    3    0  502  0.91443207496E+03  0.12908043958E+04  0.94626220072E+03  0.18433052272E+04  0.25500000920E-02 0.  1.
</event>
<event>
 5   0  0.3764495E-07  0.2961116E+04  0.7818609E-02  0.8254922E-01
        1   -1    0    0  501    0  0.00000000000E+00  0.00000000000E+00  0.99465235894E+03  0.99465235895E+03  0.50400001928E-02 0.  1.
       -1   -1    0    0    0  501  0.00000000000E+00  0.00000000000E+00 -0.22038371823E+04  0.22038371823E+04  0.50400001928E-02 0. -1.
    10030    2    1    2    0    0  0.00000000000E+00  0.00000000000E+00 -0.12091848234E+04  0.31984895413E+04  0.29611159060E+04 0.  0.
        4    1    3    3  502    0 -0.78454176034E+03 -0.96275032480E+03  0.26603301675E+03  0.12701059564E+04  0.12699999809E+01 0.  1.
       -4    1    3    3    0  502  0.78454176034E+03  0.96275032480E+03 -0.14752178402E+04  0.19283835849E+04  0.12699999809E+01 0. -1.
</event>
<event>
 5   0  0.3704306E-07  0.3575776E+04  0.7818609E-02  0.8096063E-01
       -1   -1    0    0    0  501  0.00000000000E+00  0.00000000000E+00  0.23999048434E+04  0.23999048434E+04  0.50400001928E-02 0. -1.
        1   -1    0    0  501    0  0.00000000000E+00  0.00000000000E+00 -0.13319459808E+04  0.13319459808E+04  0.50400001928E-02 0.  1.
    10030    2    1    2    0    0  0.00000000000E+00  0.00000000000E+00  0.10679588626E+04  0.37318508242E+04  0.35757760615E+04 0.  0.
        3    1    3    3  502    0  0.13433833245E+04  0.91378326846E+03 -0.24482590156E+03  0.16430515362E+04  0.10100000352E+00 0.  1.
       -3    1    3    3    0  502 -0.13433833245E+04 -0.91378326846E+03  0.13127847641E+04  0.20887992880E+04  0.10100000352E+00 0. -1.
</event>
<event>
 5   0  0.3675819E-07  0.3728144E+04  0.7818609E-02  0.8061753E-01
       -1   -1    0    0    0  501  0.00000000000E+00  0.00000000000E+00  0.24004194971E+04  0.24004194971E+04  0.50400001928E-02 0.  1.
        1   -1    0    0  501    0  0.00000000000E+00  0.00000000000E+00 -0.14475652694E+04  0.14475652694E+04  0.50400001928E-02 0. -1.
    10030    2    1    2    0    0  0.00000000000E+00  0.00000000000E+00  0.95285422769E+03  0.38479847665E+04  0.37281437182E+04 0.  0.
        5    1    3    3  502    0 -0.34346901029E+02 -0.74305140845E+03 -0.12877368176E+04  0.14871426652E+04  0.46999998093E+01 0. -1.
       -5    1    3    3    0  502  0.34346901029E+02  0.74305140845E+03  0.22405910453E+04  0.23608421013E+04  0.46999998093E+01 0.  1.
</event>
<event>
 5   0  0.1092116E-06  0.3697717E+04  0.7818609E-02  0.8068468E-01
        2   -1    0    0  501    0  0.00000000000E+00  0.00000000000E+00  0.23833243886E+04  0.23833243886E+04  0.25500000920E-02 0. -1.
       -2   -1    0    0    0  501  0.00000000000E+00  0.00000000000E+00 -0.14342479316E+04  0.14342479316E+04  0.25500000920E-02 0.  1.
    10030    2    1    2    0    0  0.00000000000E+00  0.00000000000E+00  0.94907645699E+03  0.38175723202E+04  0.36977171740E+04 0.  0.
        1    1    3    3  502    0  0.35467760828E+03  0.14913159837E+04 -0.59262883529E+03  0.16434806070E+04  0.50400001928E-02 0.  1.
       -1    1    3    3    0  502 -0.35467760828E+03 -0.14913159837E+04  0.15417052923E+04  0.21740917132E+04  0.50400001928E-02 0. -1.
</event>
<event>
 5   0  0.3682276E-07  0.2427837E+04  0.7818609E-02  0.8429155E-01
        1   -1    0    0  501    0  0.00000000000E+00  0.00000000000E+00  0.68653947765E+03  0.68653947767E+03  0.50400001928E-02 0. -1.
       -1   -1    0    0    0  501  0.00000000000E+00  0.00000000000E+00 -0.21464135518E+04  0.21464135518E+04  0.50400001928E-02 0.  1.
    10030    2    1    2    0    0  0.00000000000E+00  0.00000000000E+00 -0.14598740741E+04  0.28329530295E+04  0.24278365997E+04 0.  0.
        1    1    3    3  502    0 -0.84464981566E+03 -0.73119625484E+03 -0.17581049783E+03  0.11309246683E+04  0.50400001928E-02 0. -1.
       -1    1    3    3    0  502  0.84464981566E+03  0.73119625484E+03 -0.12840635763E+04  0.17020283612E+04  0.50400001928E-02 0.  1.
</event>
<event>
 5   0  0.1092116E-06  0.2678121E+04  0.7818609E-02  0.8342139E-01
       -2   -1    0    0    0  501  0.00000000000E+00  0.00000000000E+00  0.11416817297E+04  0.11416817297E+04  0.25500000920E-02 0.  1.
        2   -1    0    0  501    0  0.00000000000E+00  0.00000000000E+00 -0.15705628601E+04  0.15705628602E+04  0.25500000920E-02 0. -1.
    10030    2    1    2    0    0  0.00000000000E+00  0.00000000000E+00 -0.42888113048E+03  0.27122445898E+04  0.26781209254E+04 0.  0.
        1    1    3    3  502    0  0.52170630292E+03 -0.68284682354E+03  0.82559415546E+03  0.11916639461E+04  0.50400001928E-02 0.  1.
       -1    1    3    3    0  502 -0.52170630292E+03  0.68284682354E+03 -0.12544752859E+04  0.15205806437E+04  0.50400001928E-02 0. -1.
</event>
<event>
 5   0  0.3704306E-07  0.3378873E+04  0.7818609E-02  0.8143111E-01
       -1   -1    0    0    0  501  0.00000000000E+00  0.00000000000E+00  0.23848194738E+04  0.23848194738E+04  0.50400001928E-02 0. -1.
        1   -1    0    0  501    0  0.00000000000E+00  0.00000000000E+00 -0.11968180770E+04  0.11968180770E+04  0.50400001928E-02 0.  1.
    10030    2    1    2    0    0  0.00000000000E+00  0.00000000000E+00  0.11880013968E+04  0.35816375508E+04  0.33788726266E+04 0.  0.
        3    1    3    3  502    0 -0.10616519332E+04 -0.11392795950E+04 -0.10039237120E+03  0.15604939799E+04  0.10100000352E+00 0.  1.
       -3    1    3    3    0  502  0.10616519332E+04  0.11392795950E+04  0.12883937680E+04  0.20211435710E+04  0.10100000352E+00 0. -1.
</event>
<event>
 5   0  0.3848431E-07  0.3658568E+04  0.7818609E-02  0.8077206E-01
        1   -1    0    0  501    0  0.00000000000E+00  0.00000000000E+00  0.24778231905E+04  0.24778231906E+04  0.50400001928E-02 0.  1.
       -1   -1    0    0    0  501  0.00000000000E+00  0.00000000000E+00 -0.13504914719E+04  0.13504914719E+04  0.50400001928E-02 0. -1.
    10030    2    1    2    0    0  0.00000000000E+00  0.00000000000E+00  0.11273317187E+04  0.38283146624E+04  0.36585675271E+04 0.  0.
        2    1    3    3  502    0  0.12119901487E+04  0.87782162970E+03  0.16645175214E+04  0.22383273918E+04  0.25500000920E-02 0.  1.
       -2    1    3    3    0  502 -0.12119901487E+04 -0.87782162970E+03 -0.53718580272E+03  0.15899872706E+04  0.25500000920E-02 0. -1.
</event>
<event>
 5   0  0.3490375E-07  0.3658745E+04  0.7818609E-02  0.8077167E-01
        3   -1    0    0  501    0  0.00000000000E+00  0.00000000000E+00  0.13321006001E+04  0.13321006040E+04  0.10100000352E+00 0. -1.
       -3   -1    0    0    0  501  0.00000000000E+00  0.00000000000E+00 -0.25122748488E+04  0.25122748508E+04  0.10100000352E+00 0.  1.
    10030    2    1    2    0    0  0.00000000000E+00  0.00000000000E+00 -0.11801742487E+04  0.38443754548E+04  0.36587445087E+04 0.  0.
        3    1    3    3  502    0  0.43228272432E+03 -0.14290532036E+03  0.12716184120E+04  0.13506678646E+04  0.10100000352E+00 0. -1.
       -3    1    3    3    0  502 -0.43228272432E+03  0.14290532036E+03 -0.24517926607E+04  0.24937075902E+04  0.10100000352E+00 0.  1.
</event>
<event>
 5   0  0.1128530E-06  0.3699965E+04  0.7818609E-02  0.8067970E-01
        2   -1    0    0  501    0  0.00000000000E+00  0.00000000000E+00  0.16233439658E+04  0.16233439659E+04  0.25500000920E-02 0.  1.
       -2   -1    0    0    0  501  0.00000000000E+00  0.00000000000E+00 -0.21082619913E+04  0.21082619913E+04  0.25500000920E-02 0. -1.
    10030    2    1    2    0    0  0.00000000000E+00  0.00000000000E+00 -0.48491802540E+03  0.37316059571E+04  0.36999645306E+04 0.  0.
        5    1    3    3  502    0  0.13102998642E+04 -0.50624130817E+03 -0.14566005481E+04  0.20235793147E+04  0.46999998093E+01 0. -1.
       -5    1    3    3    0  502 -0.13102998642E+04  0.50624130817E+03  0.97168252272E+03  0.17080266424E+04  0.46999998093E+01 0.  1.
</event>
<event>
 5   0  0.1128530E-06  0.2450101E+04  0.7818609E-02  0.8420981E-01
        2   -1    0    0  501    0  0.00000000000E+00  0.00000000000E+00  0.56284684196E+03  0.56284684197E+03  0.25500000920E-02 0.  1.
       -2   -1    0    0    0  501  0.00000000000E+00  0.00000000000E+00 -0.26663532459E+04  0.26663532459E+04  0.25500000920E-02 0. -1.
    10030    2    1    2    0    0  0.00000000000E+00  0.00000000000E+00 -0.21035064040E+04  0.32292000879E+04  0.24501008175E+04 0.  0.
        5    1    3    3  502    0  0.62970377133E+03  0.85947386999E+03 -0.25493873457E+03  0.10955537509E+04  0.46999998093E+01 0.  1.
       -5    1    3    3    0  502 -0.62970377133E+03 -0.85947386999E+03 -0.18485676694E+04  0.21336463369E+04  0.46999998093E+01 0. -1.
</event>
<event>
 5   0  0.1128530E-06  0.3675915E+04  0.7818609E-02  0.8073320E-01
       -2   -1    0    0    0  501  0.00000000000E+00  0.00000000000E+00  0.13680534700E+04  0.13680534700E+04  0.25500000920E-02 0. -1.
        2   -1    0    0  501    0  0.00000000000E+00  0.00000000000E+00 -0.24692659993E+04  0.24692659993E+04  0.25500000920E-02 0.  1.
    10030    2    1    2    0    0  0.00000000000E+00  0.00000000000E+00 -0.11012125293E+04  0.38373194693E+04  0.36759150799E+04 0.  0.
        5    1    3    3  502    0 -0.79585157736E+03 -0.94008851960E+03  0.87344721902E+03  0.15099928120E+04  0.46999998093E+01 0. -1.
       -5    1    3    3    0  502  0.79585157736E+03  0.94008851960E+03 -0.19746597483E+04  0.23273266573E+04  0.46999998093E+01 0.  1.
</event>
<event>
 5   0  0.3764495E-07  0.2633702E+04  0.7818609E-02  0.8356843E-01
       -1   -1    0    0    0  501  0.00000000000E+00  0.00000000000E+00  0.10563797049E+04  0.10563797049E+04  0.50400001928E-02 0.  1.
        1   -1    0    0  501    0  0.00000000000E+00  0.00000000000E+00 -0.16415466058E+04  0.16415466058E+04  0.50400001928E-02 0. -1.
    10030    2    1    2    0    0  0.00000000000E+00  0.00000000000E+00 -0.58516690089E+03  0.26979263107E+04  0.26337019717E+04 0.  0.
        4    1    3    3  502    0  0.44668721859E+03 -0.12112959674E+04 -0.55838636877E+03  0.14066144964E+04  0.12699999809E+01 0.  1.
       -4    1    3    3    0  502 -0.44668721859E+03  0.12112959674E+04 -0.26780532119E+02  0.12913118143E+04  0.12699999809E+01 0. -1.
</event>
<event>
 5   0  0.1051123E-06  0.3703604E+04  0.7818609E-02  0.8067164E-01
        2   -1    0    0  501    0  0.00000000000E+00  0.00000000000E+00  0.15335127954E+04  0.15335127954E+04  0.25500000920E-02 0. -1.
       -2   -1    0    0    0  501  0.00000000000E+00  0.00000000000E+00 -0.22361537674E+04  0.22361537674E+04  0.25500000920E-02 0.  1.
    10030    2    1    2    0    0  0.00000000000E+00  0.00000000000E+00 -0.70264097199E+03  0.37696665628E+04  0.37036038745E+04 0.  0.
        2    1    3    3  502    0 -0.13005910701E+04 -0.17897710416E+03 -0.16806022974E+04  0.21326026394E+04  0.25500000920E-02 0.  1.
       -2    1    3    3    0  502  0.13005910701E+04  0.17897710416E+03  0.97796132542E+03  0.16370639234E+04  0.25500000920E-02 0. -1.
</event>
<event>
 5   0  0.1128166E-06  0.3714851E+04  0.7818609E-02  0.8064679E-01
       -2   -1    0    0    0  501  0.00000000000E+00  0.00000000000E+00  0.13839064049E+04  0.13839064049E+04  0.25500000920E-02 0.  1.
        2   -1    0    0  501    0  0.00000000000E+00  0.00000000000E+00 -0.24929638638E+04  0.24929638638E+04  0.25500000920E-02 0. -1.
    10030    2    1    2    0    0  0.00000000000E+00  0.00000000000E+00 -0.11090574590E+04  0.38768702687E+04  0.37148505533E+04 0.  0.
        3    1    3    3  502    0 -0.50854092568E+02 -0.36889049198E+03  0.13445513248E+04  0.13951647246E+04  0.10100000352E+00 0.  1.
       -3    1    3    3    0  502  0.50854092568E+02  0.36889049198E+03 -0.24536087837E+04  0.24817055441E+04  0.10100000352E+00 0. -1.
</event>
<event>
 5   0  0.3704306E-07  0.3639604E+04  0.7818609E-02  0.8081480E-01
       -1   -1    0    0    0  501  0.00000000000E+00  0.00000000000E+00  0.29425791443E+04  0.29425791443E+04  0.50400001928E-02 0. -1.
        1   -1    0    0  501    0  0.00000000000E+00  0.00000000000E+00 -0.11254341066E+04  0.11254341066E+04  0.50400001928E-02 0.  1.
    10030    2    1    2    0    0  0.00000000000E+00  0.00000000000E+00  0.18171450376E+04  0.40680132509E+04  0.36396037864E+04 0.  0.
        3    1    3    3  502    0 -0.59197108343E+03 -0.80457359253E+03 -0.79163341784E+03  0.12745398808E+04  0.10100000352E+00 0.  1.
       -3    1    3    3    0  502  0.59197108343E+03  0.80457359253E+03  0.26087784555E+04  0.27934733701E+04  0.10100000352E+00 0. -1.
</event>
<event>
 5   0  0.1128166E-06  0.3725105E+04  0.7818609E-02  0.8062421E-01
        2   -1    0    0  501    0  0.00000000000E+00  0.00000000000E+00  0.20161088710E+04  0.20161088710E+04  0.25500000920E-02 0. -1.
       -2   -1    0    0    0  501  0.00000000000E+00  0.00000000000E+00 -0.17206917581E+04  0.17206917581E+04  0.25500000920E-02 0.  1.
    10030    2    1    2    0    0  0.00000000000E+00  0.00000000000E+00  0.29541711297E+03  0.37368006291E+04  0.37251050550E+04 0.  0.
        3    1    3    3  502    0 -0.16391533383E+04  0.21256909993E+03  0.10089450683E+04  0.19364863671E+04  0.10100000352E+00 0. -1.
       -3    1    3    3    0  502  0.16391533383E+04 -0.21256909993E+03 -0.71352795533E+03  0.18003142620E+04  0.10100000352E+00 0.  1.
</event>
<event>
 5   0  0.3682276E-07  0.3594690E+04  0.7818609E-02  0.8091709E-01
        1   -1    0    0  501    0  0.00000000000E+00  0.00000000000E+00  0.17562043933E+04  0.17562043933E+04  0.50400001928E-02 0.  1.
       -1   -1    0    0    0  501  0.00000000000E+00  0.00000000000E+00 -0.18394491617E+04  0.18394491617E+04  0.50400001928E-02 0. -1.
    10030    2    1    2    0    0  0.00000000000E+00  0.00000000000E+00 -0.83244768436E+02  0.35956535550E+04  0.35946898053E+04 0.  0.
        1    1    3    3  502    0  0.10435206151E+04 -0.14512270098E+04  0.14671933665E+03  0.17934663844E+04  0.50400001928E-02 0. -1.
       -1    1    3    3    0  502 -0.10435206151E+04  0.14512270098E+04 -0.22996410508E+03  0.18021871706E+04  0.50400001928E-02 0.  1.
</event>
<event>
 5   0  0.1128530E-06  0.3711044E+04  0.7818609E-02  0.8065519E-01
        2   -1    0    0  501    0  0.00000000000E+00  0.00000000000E+00  0.15098784576E+04  0.15098784576E+04  0.25500000920E-02 0.  1.
       -2   -1    0    0    0  501  0.00000000000E+00  0.00000000000E+00 -0.22802910495E+04  0.22802910495E+04  0.25500000920E-02 0. -1.
    10030    2    1    2    0    0  0.00000000000E+00  0.00000000000E+00 -0.77041259191E+03  0.37901695070E+04  0.37110442372E+04 0.  0.
        5    1    3    3  502    0  0.23101158250E+03 -0.13268434026E+04 -0.16887665358E+04  0.21600542282E+04  0.46999998093E+01 0. -1.
       -5    1    3    3    0  502 -0.23101158250E+03  0.13268434026E+04  0.91835394386E+03  0.16301152789E+04  0.46999998093E+01 0.  1.
</event>
<event>
 5   0  0.3704306E-07  0.2498987E+04  0.7818609E-02  0.8403347E-01
        1   -1    0    0  501    0  0.00000000000E+00  0.00000000000E+00  0.10993985079E+04  0.10993985079E+04  0.50400001928E-02 0. -1.
       -1   -1    0    0    0  501  0.00000000000E+00  0.00000000000E+00 -0.14200800841E+04  0.14200800841E+04  0.50400001928E-02 0.  1.
    10030    2    1    2    0    0  0.00000000000E+00  0.00000000000E+00 -0.32068157617E+03  0.25194785921E+04  0.24989869352E+04 0.  0.
        3    1    3    3  502    0  0.85060080454E+03  0.54733936763E+03 -0.89993076455E+03  0.13538749954E+04  0.10100000352E+00 0.  1.
       -3    1    3    3    0  502 -0.85060080454E+03 -0.54733936763E+03  0.57924918838E+03  0.11656035966E+04  0.10100000352E+00 0. -1.
</event>
<event>
 5   0  0.1051123E-06  0.2906316E+04  0.7818609E-02  0.8271001E-01
        2   -1    0    0  501    0  0.00000000000E+00  0.00000000000E+00  0.20741564218E+04  0.20741564218E+04  0.25500000920E-02 0. -1.
       -2   -1    0    0    0  501  0.00000000000E+00  0.00000000000E+00 -0.10180849910E+04  0.10180849910E+04  0.25500000920E-02 0.  1.
    10030    2    1    2    0    0  0.00000000000E+00  0.00000000000E+00  0.10560714308E+04  0.30922414128E+04  0.29063155521E+04 0.  0.
        2    1    3    3  502    0 -0.11864676319E+04 -0.37156654552E+03  0.13284238100E+04  0.18194716152E+04  0.25500000920E-02 0. -1.
       -2    1    3    3    0  502  0.11864676319E+04  0.37156654552E+03 -0.27235237925E+03  0.12727697977E+04  0.25500000920E-02 0.  1.
</event>
<event>
 5   0  0.3675819E-07  0.3254558E+04  0.7818609E-02  0.8174555E-01
        1   -1    0    0  501    0  0.00000000000E+00  0.00000000000E+00  0.13271499976E+04  0.13271499976E+04  0.50400001928E-02 0.  1.
       -1   -1    0    0    0  501  0.00000000000E+00  0.00000000000E+00 -0.19952808012E+04  0.19952808013E+04  0.50400001928E-02 0. -1.
    10030    2    1    2    0    0  0.00000000000E+00  0.00000000000E+00 -0.66813080368E+03  0.33224307988E+04  0.32545579795E+04 0.  0.
        5    1    3    3  502    0  0.13653750853E+04  0.77745592732E+03 -0.76636811076E+03  0.17481501691E+04  0.46999998093E+01 0.  1.
       -5    1    3    3    0  502 -0.13653750853E+04 -0.77745592732E+03  0.98237307080E+02  0.15742806297E+04  0.46999998093E+01 0. -1.
</event>
<event>
 5   0  0.3848431E-07  0.3675867E+04  0.7818609E-02  0.8073331E-01
       -1   -1    0    0    0  501  0.00000000000E+00  0.00000000000E+00  0.18161154839E+04  0.18161154839E+04  0.50400001928E-02 0.  1.
        1   -1    0    0  501    0  0.00000000000E+00  0.00000000000E+00 -0.18600132920E+04  0.18600132920E+04  0.50400001928E-02 0. -1.
    10030    2    1    2    0    0  0.00000000000E+00  0.00000000000E+00 -0.43897808095E+02  0.36761287758E+04  0.36758666677E+04 0.  0.
        2    1    3    3  502    0 -0.16914674192E+04  0.20391798118E+03  0.66755973217E+03  0.18298307488E+04  0.25500000920E-02 0.  1.
       -2    1    3    3    0  502  0.16914674192E+04 -0.20391798118E+03 -0.71145754027E+03  0.18462980271E+04  0.25500000920E-02 0. -1.
</event>
<event>
 5   0  0.3490375E-07  0.2302039E+04  0.7818609E-02  0.8477118E-01
        3   -1    0    0  501    0  0.00000000000E+00  0.00000000000E+00  0.18072997037E+04  0.18072997065E+04  0.10100000352E+00 0. -1.
       -3   -1    0    0    0  501  0.00000000000E+00  0.00000000000E+00 -0.73305257023E+03  0.73305257719E+03  0.10100000352E+00 0.  1.
    10030    2    1    2    0    0  0.00000000000E+00  0.00000000000E+00  0.10742471335E+04  0.25403522837E+04  0.23020388402E+04 0.  0.
        5    1    3    3  502    0  0.23463110281E+03  0.83063825624E+03  0.13774052180E+04  0.16255088101E+04  0.46999998093E+01 0. -1.
       -5    1    3    3    0  502 -0.23463110281E+03 -0.83063825624E+03 -0.30315808447E+03  0.91484347367E+03  0.46999998093E+01 0.  1.
</event>
<event>
 5   0  0.1128530E-06  0.3621078E+04  0.7818609E-02  0.8085680E-01
       -2   -1    0    0    0  501  0.00000000000E+00  0.00000000000E+00  0.21252427848E+04  0.21252427848E+04  0.25500000920E-02 0.  1.
        2   -1    0    0  501    0  0.00000000000E+00  0.00000000000E+00 -0.15424366030E+04  0.15424366030E+04  0.25500000920E-02 0. -1.
    10030    2    1    2    0    0  0.00000000000E+00  0.00000000000E+00  0.58280618183E+03  0.36676793878E+04  0.36210784369E+04 0.  0.
        5    1    3    3  502    0 -0.70253087472E+03  0.12762485901E+04  0.13802588857E+04  0.20068624206E+04  0.46999998093E+01 0.  1.
       -5    1    3    3    0  502  0.70253087472E+03 -0.12762485901E+04 -0.79745270387E+03  0.16608169672E+04  0.46999998093E+01 0. -1.
</event>
<event>
 5   0  0.3490375E-07  0.3687852E+04  0.7818609E-02  0.8070659E-01
       -3   -1    0    0    0  501  0.00000000000E+00  0.00000000000E+00  0.12836535524E+04  0.12836535563E+04  0.10100000352E+00 0. -1.
        3   -1    0    0  501    0  0.00000000000E+00  0.00000000000E+00 -0.26487387937E+04  0.26487387956E+04  0.10100000352E+00 0.  1.
    10030    2    1    2    0    0  0.00000000000E+00  0.00000000000E+00 -0.13650852413E+04  0.39323923520E+04  0.36878519349E+04 0.  0.
        3    1    3    3  502    0 -0.74383845637E+03  0.11535221089E+04 -0.19955133162E+04  0.24219790070E+04  0.10100000352E+00 0.  1.
       -3    1    3    3    0  502  0.74383845637E+03 -0.11535221089E+04  0.63042807490E+03  0.15104133450E+04  0.10100000352E+00 0. -1.
</event>
<event>
 5   0  0.1092116E-06  0.3797664E+04  0.7818609E-02  0.8046656E-01
        2   -1    0    0  501    0  0.00000000000E+00  0.00000000000E+00  0.26559233260E+04  0.26559233260E+04  0.25500000920E-02 0.  1.
       -2   -1    0    0    0  501  0.00000000000E+00  0.00000000000E+00 -0.13575550888E+04  0.13575550888E+04  0.25500000920E-02 0. -1.
    10030    2    1    2    0    0  0.00000000000E+00  0.00000000000E+00  0.12983682372E+04  0.40134784148E+04  0.37976636115E+04 0.  0.
        1    1    3    3  502    0  0.67829197135E+03  0.79423980731E+03 -0.10267021312E+04  0.14645866776E+04  0.50400001928E-02 0. -1.
       -1    1    3    3    0  502 -0.67829197135E+03 -0.79423980731E+03  0.23250703684E+04  0.25488917372E+04  0.50400001928E-02 0.  1.
</event>
<event>
 5   0  0.1128530E-06  0.3693399E+04  0.7818609E-02  0.8069426E-01
       -2   -1    0    0    0  501  0.00000000000E+00  0.00000000000E+00  0.18278785754E+04  0.18278785754E+04  0.25500000920E-02 0.  1.
        2   -1    0    0  501    0  0.00000000000E+00  0.00000000000E+00 -0.18657138408E+04  0.18657138408E+04  0.25500000920E-02 0. -1.
    10030    2    1    2    0    0  0.00000000000E+00  0.00000000000E+00 -0.37835265397E+02  0.36935924163E+04  0.36933986287E+04 0.  0.
        5    1    3    3  502    0  0.14966414692E+04  0.50639180661E+02  0.10617760334E+04  0.18357261368E+04  0.46999998093E+01 0.  1.
       -5    1    3    3    0  502 -0.14966414692E+04 -0.50639180661E+02 -0.10996112988E+04  0.18578662795E+04  0.46999998093E+01 0. -1.
</event>
<event>
 5   0  0.1128530E-06  0.2798033E+04  0.7818609E-02  0.8303879E-01
       -2   -1    0    0    0  501  0.00000000000E+00  0.00000000000E+00  0.12252156466E+04  0.12252156466E+04  0.25500000920E-02 0.  1.
        2   -1    0    0  501    0  0.00000000000E+00  0.00000000000E+00 -0.15974715353E+04  0.15974715353E+04  0.25500000920E-02 0. -1.
    10030    2    1    2    0    0  0.00000000000E+00  0.00000000000E+00 -0.37225588866E+03  0.28226871819E+04  0.27980329663E+04 0.  0.
        5    1    3    3  502    0  0.22554222558E+03 -0.13642406058E+04  0.28356111605E+02  0.13830574410E+04  0.46999998093E+01 0.  1.
       -5    1    3    3    0  502 -0.22554222558E+03  0.13642406058E+04 -0.40061200026E+03  0.14396297409E+04  0.46999998093E+01 0. -1.
</event>
<event>
 5   0  0.3675819E-07  0.3649848E+04  0.7818609E-02  0.8079168E-01
        1   -1    0    0  501    0  0.00000000000E+00  0.00000000000E+00  0.10735616772E+04  0.10735616772E+04  0.50400001928E-02 0.  1.
       -1   -1    0    0    0  501  0.00000000000E+00  0.00000000000E+00 -0.31021480466E+04  0.31021480466E+04  0.50400001928E-02 0. -1.
    10030    2    1    2    0    0  0.00000000000E+00  0.00000000000E+00 -0.20285863694E+04  0.41757097238E+04  0.36498478104E+04 0.  0.
        5    1    3    3  502    0 -0.53207567445E+03 -0.78257723406E+03  0.77090572778E+03  0.12205938644E+04  0.46999998093E+01 0.  1.
       -5    1    3    3    0  502  0.53207567445E+03  0.78257723406E+03 -0.27994920971E+04  0.29551158594E+04  0.46999998093E+01 0. -1.
</event>
<event>
 5   0  0.3490375E-07  0.3392609E+04  0.7818609E-02  0.8139723E-01
       -3   -1    0    0    0  501  0.00000000000E+00  0.00000000000E+00  0.20232959466E+04  0.20232959491E+04  0.10100000352E+00 0.  1.
        3   -1    0    0  501    0  0.00000000000E+00  0.00000000000E+00 -0.14221595620E+04  0.14221595656E+04  0.10100000352E+00 0. -1.
    10030    2    1    2    0    0  0.00000000000E+00  0.00000000000E+00  0.60113638463E+03  0.34454555147E+04  0.33926094309E+04 0.  0.
        3    1    3    3  502    0  0.64553749522E+03  0.15425150004E+04  0.59028093963E+03  0.17732745930E+04  0.10100000352E+00 0. -1.
       -3    1    3    3    0  502 -0.64553749522E+03 -0.15425150004E+04  0.10855444999E+02  0.16721809217E+04  0.10100000352E+00 0.  1.
</event>
<event>
 5   0  0.1128530E-06  0.3687326E+04  0.7818609E-02  0.8070776E-01
        2   -1    0    0  501    0  0.00000000000E+00  0.00000000000E+00  0.21630396687E+04  0.21630396687E+04  0.25500000920E-02 0. -1.
       -2   -1    0    0    0  501  0.00000000000E+00  0.00000000000E+00 -0.15714431582E+04  0.15714431582E+04  0.25500000920E-02 0.  1.
    10030    2    1    2    0    0  0.00000000000E+00  0.00000000000E+00  0.59159651050E+03  0.37344828270E+04  0.36873263422E+04 0.  0.
        5    1    3    3  502    0  0.67306264041E+03  0.28166709687E+03 -0.14189946973E+04  0.15955932164E+04  0.46999998093E+01 0.  1.
       -5    1    3    3    0  502 -0.67306264041E+03 -0.28166709687E+03  0.20105912078E+04  0.21388896106E+04  0.46999998093E+01 0. -1.
</event>
<event>
 5   0  0.3764495E-07  0.3716738E+04  0.7818609E-02  0.8064263E-01
       -1   -1    0    0    0  501  0.00000000000E+00  0.00000000000E+00  0.18892940249E+04  0.18892940249E+04  0.50400001928E-02 0. -1.
        1   -1    0    0  501    0  0.00000000000E+00  0.00000000000E+00 -0.18279501572E+04  0.18279501572E+04  0.50400001928E-02 0.  1.
    10030    2    1    2    0    0  0.00000000000E+00  0.00000000000E+00  0.61343867664E+02  0.37172441822E+04  0.37167379837E+04 0.  0.
        4    1    3    3  502    0  0.13325834331E+04  0.12067015702E+04  0.50150819392E+03  0.18663920722E+04  0.12699999809E+01 0. -1.
       -4    1    3    3    0  502 -0.13325834331E+04 -0.12067015702E+04 -0.44016432625E+03  0.18508521099E+04  0.12699999809E+01 0.  1.
</event>
<event>
 5   0  0.1092116E-06  0.3708641E+04  0.7818609E-02  0.8066050E-01
       -2   -1    0    0    0  501  0.00000000000E+00  0.00000000000E+00  0.11886594353E+04  0.11886594353E+04  0.25500000920E-02 0. -1.
        2   -1    0    0  501    0  0.00000000000E+00  0.00000000000E+00 -0.28927583792E+04  0.28927583792E+04  0.25500000920E-02 0.  1.
    10030    2    1    2    0    0  0.00000000000E+00  0.00000000000E+00 -0.17040989439E+04  0.40814178145E+04  0.37086410133E+04 0.  0.
        1    1    3    3  502    0 -0.66674551405E+03  0.14180847871E+04  0.23906651416E+03  0.15851393762E+04  0.50400001928E-02 0.  1.
       -1    1    3    3    0  502  0.66674551405E+03 -0.14180847871E+04 -0.19431654581E+04  0.24962784383E+04  0.50400001928E-02 0. -1.
</event>
<event>
 5   0  0.3675819E-07  0.3771740E+04  0.7818609E-02  0.8052247E-01
       -1   -1    0    0    0  501  0.00000000000E+00  0.00000000000E+00  0.19685788351E+04  0.19685788351E+04  0.50400001928E-02 0.  1.
        1   -1    0    0  501    0  0.00000000000E+00  0.00000000000E+00 -0.18066363623E+04  0.18066363623E+04  0.50400001928E-02 0. -1.
    10030    2    1    2    0    0  0.00000000000E+00  0.00000000000E+00  0.16194247280E+03  0.37752151974E+04  0.37717402379E+04 0.  0.
        5    1    3    3  502    0  0.25433992322E+03  0.18639083259E+04 -0.51970451437E+02  0.18819049024E+04  0.46999998093E+01 0.  1.
       -5    1    3    3    0  502 -0.25433992322E+03 -0.18639083259E+04  0.21391292423E+03  0.18933102950E+04  0.46999998093E+01 0. -1.
</event>
<event>
 5   0  0.3682276E-07  0.3682407E+04  0.7818609E-02  0.8071872E-01
        1   -1    0    0  501    0  0.00000000000E+00  0.00000000000E+00  0.18317759531E+04  0.18317759531E+04  0.50400001928E-02 0.  1.
       -1   -1    0    0    0  501  0.00000000000E+00  0.00000000000E+00 -0.18506794527E+04  0.18506794527E+04  0.50400001928E-02 0. -1.
    10030    2    1    2    0    0  0.00000000000E+00  0.00000000000E+00 -0.18903499552E+02  0.36824554058E+04  0.36824068859E+04 0.  0.
        1    1    3    3  502    0  0.11858885179E+03  0.96881334126E+03 -0.15706793895E+04  0.18492421017E+04  0.50400001928E-02 0. -1.
       -1    1    3    3    0  502 -0.11858885179E+03 -0.96881334126E+03  0.15517758899E+04  0.18332133042E+04  0.50400001928E-02 0.  1.
</event>
<event>
 5   0  0.3704306E-07  0.3589842E+04  0.7818609E-02  0.8092822E-01
        1   -1    0    0  501    0  0.00000000000E+00  0.00000000000E+00  0.25601168054E+04  0.25601168055E+04  0.50400001928E-02 0.  1.
       -1   -1    0    0    0  501  0.00000000000E+00  0.00000000000E+00 -0.12584352779E+04  0.12584352779E+04  0.50400001928E-02 0. -1.
    10030    2    1    2    0    0  0.00000000000E+00  0.00000000000E+00  0.13016815275E+04  0.38185520834E+04  0.35898419484E+04 0.  0.
        3    1    3    3  502    0  0.15576271452E+04  0.52938077492E+03 -0.11273360173E+03  0.16489861138E+04  0.10100000352E+00 0. -1.
       -3    1    3    3    0  502 -0.15576271452E+04 -0.52938077492E+03  0.14144151292E+04  0.21695659696E+04  0.10100000352E+00 0.  1.
</event>
<event>
 5   0  0.3764495E-07  0.3658895E+04  0.7818609E-02  0.8077133E-01
        1   -1    0    0  501    0  0.00000000000E+00  0.00000000000E+00  0.13065978418E+04  0.13065978418E+04  0.50400001928E-02 0. -1.
       -1   -1    0    0    0  501  0.00000000000E+00  0.00000000000E+00 -0.25615214623E+04  0.25615214623E+04  0.50400001928E-02 0.  1.
    10030    2    1    2    0    0  0.00000000000E+00  0.00000000000E+00 -0.12549236205E+04  0.38681193041E+04  0.36588951416E+04 0.  0.
        4    1    3    3  502    0 -0.85399241930E+03 -0.19066047817E+03 -0.23259502837E+04  0.24850957337E+04  0.12699999809E+01 0.  1.
       -4    1    3    3    0  502  0.85399241930E+03  0.19066047817E+03  0.10710266632E+04  0.13830235704E+04  0.12699999809E+01 0. -1.
</event>
<event>
 5   0  0.1066907E-06  0.2484009E+04  0.7818609E-02  0.8408704E-01
       -2   -1    0    0    0  501  0.00000000000E+00  0.00000000000E+00  0.14438422091E+04  0.14438422091E+04  0.25500000920E-02 0. -1.
        2   -1    0    0  501    0  0.00000000000E+00  0.00000000000E+00 -0.10683824916E+04  0.10683824916E+04  0.25500000920E-02 0.  1.
    10030    2    1    2    0    0  0.00000000000E+00  0.00000000000E+00  0.37545971754E+03  0.25122247007E+04  0.24840094499E+04 0.  0.
        4    1    3    3  502    0 -0.45339004943E+03 -0.90472587116E+03 -0.54050651374E+03  0.11472751820E+04  0.12699999809E+01 0.  1.
       -4    1    3    3    0  502  0.45339004943E+03  0.90472587116E+03  0.91596623128E+03  0.13649495187E+04  0.12699999809E+01 0. -1.
</event>
<event>
 5   0  0.1092116E-06  0.3716051E+04  0.7818609E-02  0.8064414E-01
       -2   -1    0    0    0  501  0.00000000000E+00  0.00000000000E+00  0.14522349376E+04  0.14522349376E+04  0.25500000920E-02 0. -1.
        2   -1    0    0  501    0  0.00000000000E+00  0.00000000000E+00 -0.23772035894E+04  0.23772035894E+04  0.25500000920E-02 0.  1.
    10030    2    1    2    0    0  0.00000000000E+00  0.00000000000E+00 -0.92496865176E+03  0.38294385270E+04  0.37160506489E+04 0.  0.
        1    1    3    3  502    0  0.12249386180E+04  0.11431380897E+04 -0.12901208781E+04  0.21146279082E+04  0.50400001928E-02 0.  1.
       -1    1    3    3    0  502 -0.12249386180E+04 -0.11431380897E+04  0.36515222630E+03  0.17148106188E+04  0.50400001928E-02 0. -1.
</event>
<event>
 5   0  0.3682276E-07  0.3431944E+04  0.7818609E-02  0.8130110E-01
       -1   -1    0    0    0  501  0.00000000000E+00  0.00000000000E+00  0.23899783963E+04  0.23899783964E+04  0.50400001928E-02 0.  1.
        1   -1    0    0  501    0  0.00000000000E+00  0.00000000000E+00 -0.12320445462E+04  0.12320445462E+04  0.50400001928E-02 0. -1.
    10030    2    1    2    0    0  0.00000000000E+00  0.00000000000E+00  0.11579338501E+04  0.36220229426E+04  0.34319439674E+04 0.  0.
        1    1    3    3  502    0 -0.70575960245E+03 -0.65522152800E+03  0.20778918740E+04  0.22902066516E+04  0.50400001928E-02 0.  1.
       -1    1    3    3    0  502  0.70575960245E+03  0.65522152800E+03 -0.91995802383E+03  0.13318162910E+04  0.50400001928E-02 0. -1.
</event>
<event>
 5   0  0.1128530E-06  0.3618853E+04  0.7818609E-02  0.8086187E-01
       -2   -1    0    0    0  501  0.00000000000E+00  0.00000000000E+00  0.19161336964E+04  0.19161336964E+04  0.25500000920E-02 0. -1.
        2   -1    0    0  501    0  0.00000000000E+00  0.00000000000E+00 -0.17086620135E+04  0.17086620135E+04  0.25500000920E-02 0.  1.
    10030    2    1    2    0    0  0.00000000000E+00  0.00000000000E+00  0.20747168299E+03  0.36247957099E+04  0.36188533321E+04 0.  0.
        5    1    3    3  502    0  0.52181042957E+03  0.16397883255E+04  0.66394923433E+03  0.18444626731E+04  0.46999998093E+01 0. -1.
       -5    1    3    3    0  502 -0.52181042957E+03 -0.16397883255E+04 -0.45647755134E+03  0.17803330367E+04  0.46999998093E+01 0.  1.
</event>
<event>
 5   0  0.1128166E-06  0.3742759E+04  0.7818609E-02  0.8058551E-01
        2   -1    0    0  501    0  0.00000000000E+00  0.00000000000E+00  0.13775888385E+04  0.13775888385E+04  0.25500000920E-02 0.  1.
       -2   -1    0    0    0  501  0.00000000000E+00  0.00000000000E+00 -0.25421675856E+04  0.25421675856E+04  0.25500000920E-02 0. -1.
    10030    2    1    2    0    0  0.00000000000E+00  0.00000000000E+00 -0.11645787470E+04  0.39197564241E+04  0.37427592451E+04 0.  0.
        3    1    3    3  502    0  0.17076963087E+04 -0.73414768623E+03 -0.80900340607E+03  0.20272360566E+04  0.10100000352E+00 0. -1.
       -3    1    3    3    0  502 -0.17076963087E+04  0.73414768623E+03 -0.35557534097E+03  0.18925203675E+04  0.10100000352E+00 0.  1.
</event>
<event>
 5   0  0.1051123E-06  0.3713449E+04  0.7818609E-02  0.8064988E-01
        2   -1    0    0  501    0  0.00000000000E+00  0.00000000000E+00  0.24123748933E+04  0.24123748933E+04  0.25500000920E-02 0.  1.
       -2   -1    0    0    0  501  0.00000000000E+00  0.00000000000E+00 -0.14290586995E+04  0.14290586995E+04  0.25500000920E-02 0. -1.
    10030    2    1    2    0    0  0.00000000000E+00  0.00000000000E+00  0.98331619387E+03  0.38414335928E+04  0.37134487085E+04 0.  0.
        2    1    3    3  502    0  0.80764253425E+02 -0.65735184205E+03  0.22860277357E+04  0.23800330076E+04  0.25500000920E-02 0.  1.
       -2    1    3    3    0  502 -0.80764253425E+02  0.65735184205E+03 -0.13027115419E+04  0.14614005851E+04  0.25500000920E-02 0. -1.
</event>
<event>
 5   0  0.1051123E-06  0.3057867E+04  0.7818609E-02  0.8227397E-01
       -2   -1    0    0    0  501  0.00000000000E+00  0.00000000000E+00  0.13185396029E+04  0.13185396029E+04  0.25500000920E-02 0. -1.
        2   -1    0    0  501    0  0.00000000000E+00  0.00000000000E+00 -0.17728985385E+04  0.17728985385E+04  0.25500000920E-02 0.  1.
    10030    2    1    2    0    0  0.00000000000E+00  0.00000000000E+00 -0.45435893562E+03  0.30914381414E+04  0.30578665340E+04 0.  0.
        2    1    3    3  502    0  0.12740406887E+04 -0.61205926228E+03 -0.81653822519E+03  0.16323390856E+04  0.25500000920E-02 0.  1.
       -2    1    3    3    0  502 -0.12740406887E+04  0.61205926228E+03  0.36217928956E+03  0.14590990559E+04  0.25500000920E-02 0. -1.
</event>
<event>
 5   0  0.1051123E-06  0.2502237E+04  0.7818609E-02  0.8402189E-01
       -2   -1    0    0    0  501  0.00000000000E+00  0.00000000000E+00  0.14959168896E+04  0.14959168896E+04  0.25500000920E-02 0.  1.
        2   -1    0    0  501    0  0.00000000000E+00  0.00000000000E+00 -0.10463797176E+04  0.10463797176E+04  0.25500000920E-02 0. -1.
    10030    2    1    2    0    0  0.00000000000E+00  0.00000000000E+00  0.44953717203E+03  0.25422966072E+04  0.25022366735E+04 0.  0.
        2    1    3    3  502    0  0.48168504396E+03 -0.73534420168E+02 -0.94601196157E+03  0.10641270713E+04  0.25500000920E-02 0. -1.
       -2    1    3    3    0  502 -0.48168504396E+03  0.73534420168E+02  0.13955491336E+04  0.14781695359E+04  0.25500000920E-02 0.  1.
</event>
<event>
 5   0  0.1051123E-06  0.3477346E+04  0.7818609E-02  0.8119180E-01
        2   -1    0    0  501    0  0.00000000000E+00  0.00000000000E+00  0.23945930170E+04  0.23945930170E+04  0.25500000920E-02 0. -1.
       -2   -1    0    0    0  501  0.00000000000E+00  0.00000000000E+00 -0.12624207110E+04  0.12624207110E+04  0.25500000920E-02 0.  1.
    10030    2    1    2    0    0  0.00000000000E+00  0.00000000000E+00  0.11321723060E+04  0.36570137280E+04  0.34773460104E+04 0.  0.
        2    1    3    3  502    0  0.23237314039E+03  0.71634737738E+03  0.22141654245E+04  0.23387345656E+04  0.25500000920E-02 0. -1.
       -2    1    3    3    0  502 -0.23237314039E+03 -0.71634737738E+03 -0.10819931185E+04  0.13182791624E+04  0.25500000920E-02 0.  1.
</event>
<event>
 5   0  0.1128166E-06  0.3719621E+04  0.7818609E-02  0.8063627E-01
       -2   -1    0    0    0  501  0.00000000000E+00  0.00000000000E+00  0.17469872963E+04  0.17469872963E+04  0.25500000920E-02 0. -1.
        2   -1    0    0  501    0  0.00000000000E+00  0.00000000000E+00 -0.19799198317E+04  0.19799198317E+04  0.25500000920E-02 0.  1.
    10030    2    1    2    0    0  0.00000000000E+00  0.00000000000E+00 -0.23293253541E+03  0.37269071280E+04  0.37196208375E+04 0.  0.
        3    1    3    3  502    0 -0.57554049662E+03  0.28229894566E+03 -0.18657255617E+04  0.19727826641E+04  0.10100000352E+00 0.  1.
       -3    1    3    3    0  502  0.57554049662E+03 -0.28229894566E+03  0.16327930263E+04  0.17541244639E+04  0.10100000352E+00 0. -1.
</event>
<event>
 5   0  0.1066907E-06  0.3652577E+04  0.7818609E-02  0.8078553E-01
        2   -1    0    0  501    0  0.00000000000E+00  0.00000000000E+00  0.23760627744E+04  0.23760627744E+04  0.25500000920E-02 0.  1.
       -2   -1    0    0    0  501  0.00000000000E+00  0.00000000000E+00 -0.14037215748E+04  0.14037215748E+04  0.25500000920E-02 0. -1.
    10030    2    1    2    0    0  0.00000000000E+00  0.00000000000E+00  0.97234119956E+03  0.37797843492E+04  0.36525774897E+04 0.  0.
        4    1    3    3  502    0 -0.57311428627E+03  0.16118084536E+04 -0.17558664238E+03  0.17196565815E+04  0.12699999809E+01 0.  1.
       -4    1    3    3    0  502  0.57311428627E+03 -0.16118084536E+04  0.11479278419E+04  0.20601277678E+04  0.12699999809E+01 0. -1.
</event>
<event>
 5   0  0.1092116E-06  0.3683892E+04  0.7818609E-02  0.8071541E-01
        2   -1    0    0  501    0  0.00000000000E+00  0.00000000000E+00  0.18405429185E+04  0.18405429186E+04  0.25500000920E-02 0. -1.
       -2   -1    0    0    0  501  0.00000000000E+00  0.00000000000E+00 -0.18433500470E+04  0.18433500470E+04  0.25500000920E-02 0.  1.
    10030    2    1    2    0    0  0.00000000000E+00  0.00000000000E+00 -0.28071284080E+01  0.36838929655E+04  0.36838918960E+04 0.  0.
        1    1    3    3  502    0 -0.45243213830E+03  0.16772228520E+04 -0.61377090338E+03  0.18424131070E+04  0.50400001928E-02 0.  1.
       -1    1    3    3    0  502  0.45243213830E+03 -0.16772228520E+04  0.61096377497E+03  0.18414798585E+04  0.50400001928E-02 0. -1.
</event>
<event>
 5   0  0.3682276E-07  0.3652344E+04  0.7818609E-02  0.8078606E-01
        1   -1    0    0  501    0  0.00000000000E+00  0.00000000000E+00  0.23663771260E+04  0.23663771260E+04  0.50400001928E-02 0.  1.
       -1   -1    0    0    0  501  0.00000000000E+00  0.00000000000E+00 -0.14092869904E+04  0.14092869904E+04  0.50400001928E-02 0. -1.
    10030    2    1    2    0    0  0.00000000000E+00  0.00000000000E+00  0.95709013560E+03  0.37756641165E+04  0.36523441778E+04 0.  0.
        1    1    3    3  502    0  0.47254976010E+03 -0.17433608650E+04  0.20059093569E+03  0.18173736833E+04  0.50400001928E-02 0.  1.
       -1    1    3    3    0  502 -0.47254976010E+03  0.17433608650E+04  0.75649919991E+03  0.19582904332E+04  0.50400001928E-02 0. -1.
</event>
<event>
 5   0  0.3704306E-07  0.3597888E+04  0.7818609E-02  0.8090976E-01
       -1   -1    0    0    0  501  0.00000000000E+00  0.00000000000E+00  0.15705426312E+04  0.15705426312E+04  0.50400001928E-02 0. -1.
        1   -1    0    0  501    0  0.00000000000E+00  0.00000000000E+00 -0.20605619526E+04  0.20605619526E+04  0.50400001928E-02 0.  1.
    10030    2    1    2    0    0  0.00000000000E+00  0.00000000000E+00 -0.49001932146E+03  0.36311045838E+04  0.35978884867E+04 0.  0.
        3    1    3    3  502    0 -0.93708031101E+03  0.13771823474E+04  0.44056257466E+03  0.17230339868E+04  0.10100000352E+00 0.  1.
       -3    1    3    3    0  502  0.93708031101E+03 -0.13771823474E+04 -0.93058189613E+03  0.19080705970E+04  0.10100000352E+00 0. -1.
</event>
<event>
 5   0  0.3682276E-07  0.3667585E+04  0.7818609E-02  0.8075184E-01
       -1   -1    0    0    0  501  0.00000000000E+00  0.00000000000E+00  0.17416691372E+04  0.17416691372E+04  0.50400001928E-02 0. -1.
        1   -1    0    0  501    0  0.00000000000E+00  0.00000000000E+00 -0.19307885246E+04  0.19307885246E+04  0.50400001928E-02 0.  1.
    10030    2    1    2    0    0  0.00000000000E+00  0.00000000000E+00 -0.18911938734E+03  0.36724576618E+04  0.36675849186E+04 0.  0.
        1    1    3    3  502    0  0.69620200233E+02 -0.14258417613E+04  0.10580226245E+04  0.17768746648E+04  0.50400001928E-02 0. -1.
       -1    1    3    3    0  502 -0.69620200233E+02  0.14258417613E+04 -0.12471420118E+04  0.18955829969E+04  0.50400001928E-02 0.  1.
</event>
<event>
 5   0  0.1066907E-06  0.2897547E+04  0.7818609E-02  0.8273608E-01
       -2   -1    0    0    0  501  0.00000000000E+00  0.00000000000E+00  0.11322554101E+04  0.11322554101E+04  0.25500000920E-02 0.  1.
        2   -1    0    0  501    0  0.00000000000E+00  0.00000000000E+00 -0.18537736218E+04  0.18537736218E+04  0.25500000920E-02 0. -1.
    10030    2    1    2    0    0  0.00000000000E+00  0.00000000000E+00 -0.72151821164E+03  0.29860290319E+04  0.28975473853E+04 0.  0.
        4    1    3    3  502    0 -0.65271478115E+02  0.97379502659E+03 -0.14641586368E+04  0.17596304289E+04  0.12699999809E+01 0. -1.
       -4    1    3    3    0  502  0.65271478115E+02 -0.97379502659E+03  0.74264042513E+03  0.12263986031E+04  0.12699999809E+01 0.  1.
</event>
<event>
 5   0  0.1051123E-06  0.3786571E+04  0.7818609E-02  0.8049043E-01
       -2   -1    0    0    0  501  0.00000000000E+00  0.00000000000E+00  0.14820595991E+04  0.14820595991E+04  0.25500000920E-02 0. -1.
        2   -1    0    0  501    0  0.00000000000E+00  0.00000000000E+00 -0.24186144250E+04  0.24186144250E+04  0.25500000920E-02 0.  1.
    10030    2    1    2    0    0  0.00000000000E+00  0.00000000000E+00 -0.93655482588E+03  0.39006740241E+04  0.37865713912E+04 0.  0.
        2    1    3    3  502    0  0.13201918347E+04 -0.64921688167E+03  0.75932955996E+03  0.16555876360E+04  0.25500000920E-02 0. -1.
       -2    1    3    3    0  502 -0.13201918347E+04  0.64921688167E+03 -0.16958843858E+04  0.22450863881E+04  0.25500000920E-02 0.  1.
</event>
<event>
 5   0  0.1051123E-06  0.3700077E+04  0.7818609E-02  0.8067945E-01
       -2   -1    0    0    0  501  0.00000000000E+00  0.00000000000E+00  0.12979715496E+04  0.12979715496E+04  0.25500000920E-02 0.  1.
        2   -1    0    0  501    0  0.00000000000E+00  0.00000000000E+00 -0.26369163251E+04  0.26369163251E+04  0.25500000920E-02 0. -1.
    10030    2    1    2    0    0  0.00000000000E+00  0.00000000000E+00 -0.13389447755E+04  0.39348878747E+04  0.37000769552E+04 0.  0.
        2    1    3    3  502    0  0.17724840665E+04  0.52385616777E+03 -0.58361927200E+03  0.19382302508E+04  0.25500000920E-02 0.  1.
       -2    1    3    3    0  502 -0.17724840665E+04 -0.52385616777E+03 -0.75532550350E+03  0.19966576238E+04  0.25500000920E-02 0. -1.
</event>
<event>
 5   0  0.1092116E-06  0.3700228E+04  0.7818609E-02  0.8067911E-01
       -2   -1    0    0    0  501  0.00000000000E+00  0.00000000000E+00  0.14071445679E+04  0.14071445679E+04  0.25500000920E-02 0.  1.
        2   -1    0    0  501    0  0.00000000000E+00  0.00000000000E+00 -0.24325301868E+04  0.24325301868E+04  0.25500000920E-02 0. -1.
    10030    2    1    2    0    0  0.00000000000E+00  0.00000000000E+00 -0.10253856189E+04  0.38396747547E+04  0.37002279057E+04 0.  0.
        1    1    3    3  502    0 -0.13087518003E+04 -0.99563009960E+03 -0.13924713049E+04  0.21547823335E+04  0.50400001928E-02 0. -1.
       -1    1    3    3    0  502  0.13087518003E+04  0.99563009960E+03  0.36708568602E+03  0.16848924211E+04  0.50400001928E-02 0.  1.
</event>
<event>
 5   0  0.1128530E-06  0.3524909E+04  0.7818609E-02  0.8107912E-01
        2   -1    0    0  501    0  0.00000000000E+00  0.00000000000E+00  0.16736989491E+04  0.16736989491E+04  0.25500000920E-02 0. -1.
       -2   -1    0    0    0  501  0.00000000000E+00  0.00000000000E+00 -0.18559171311E+04  0.18559171311E+04  0.25500000920E-02 0.  1.
    10030    2    1    2    0    0  0.00000000000E+00  0.00000000000E+00 -0.18221818207E+03  0.35296160802E+04  0.35249093900E+04 0.  0.
        5    1    3    3  502    0  0.11374092657E+03  0.69927651407E+03 -0.17070482383E+04  0.18482317007E+04  0.46999998093E+01 0.  1.
       -5    1    3    3    0  502 -0.11374092657E+03 -0.69927651407E+03  0.15248300562E+04  0.16813843796E+04  0.46999998093E+01 0. -1.
</event>
<event>
 5   0  0.3848431E-07  0.3729530E+04  0.7818609E-02  0.8061449E-01
        1   -1    0    0  501    0  0.00000000000E+00  0.00000000000E+00  0.30074297811E+04  0.30074297811E+04  0.50400001928E-02 0. -1.
       -1   -1    0    0    0  501  0.00000000000E+00  0.00000000000E+00 -0.11562525980E+04  0.11562525980E+04  0.50400001928E-02 0.  1.
    10030    2    1    2    0    0  0.00000000000E+00  0.00000000000E+00  0.18511771831E+04  0.41636823791E+04  0.37295299960E+04 0.  0.
        2    1    3    3  502    0 -0.15643561448E+04 -0.39477739479E+03  0.19694696917E+04  0.25459517289E+04  0.25500000920E-02 0. -1.
       -2    1    3    3    0  502  0.15643561448E+04  0.39477739479E+03 -0.11829250860E+03  0.16177306502E+04  0.25500000920E-02 0.  1.
</event>
<event>
 5   0  0.3704306E-07  0.2320542E+04  0.7818609E-02  0.8469866E-01
        1   -1    0    0  501    0  0.00000000000E+00  0.00000000000E+00  0.12688225136E+04  0.12688225136E+04  0.50400001928E-02 0.  1.
       -1   -1    0    0    0  501  0.00000000000E+00  0.00000000000E+00 -0.10610061142E+04  0.10610061142E+04  0.50400001928E-02 0. -1.
    10030    2    1    2    0    0  0.00000000000E+00  0.00000000000E+00  0.20781639933E+03  0.23298286278E+04  0.23205416995E+04 0.  0.
        3    1    3    3  502    0 -0.37911658945E+03 -0.53550532984E+02 -0.99575200900E+03  0.10668266596E+04  0.10100000352E+00 0. -1.
       -3    1    3    3    0  502  0.37911658945E+03  0.53550532984E+02  0.12035684083E+04  0.12630019682E+04  0.10100000352E+00 0.  1.
</event>
<event>
 5   0  0.3682276E-07  0.3662603E+04  0.7818609E-02  0.8076300E-01
        1   -1    0    0  501    0  0.00000000000E+00  0.00000000000E+00  0.28783306298E+04  0.28783306298E+04  0.50400001928E-02 0. -1.
       -1   -1    0    0    0  501  0.00000000000E+00  0.00000000000E+00 -0.11651422153E+04  0.11651422153E+04  0.50400001928E-02 0.  1.
    10030    2    1    2    0    0  0.00000000000E+00  0.00000000000E+00  0.17131884145E+04  0.40434728451E+04  0.36626026409E+04 0.  0.
        1    1    3    3  502    0  0.66063263011E+03 -0.80548947817E+03 -0.80615233777E+03  0.13172434715E+04  0.50400001928E-02 0.  1.
       -1    1    3    3    0  502 -0.66063263011E+03  0.80548947817E+03  0.25193407523E+04  0.27262293736E+04  0.50400001928E-02 0. -1.
</event>
<event>
 5   0  0.3848431E-07  0.3721255E+04  0.7818609E-02  0.8063268E-01
        1   -1    0    0  501    0  0.00000000000E+00  0.00000000000E+00  0.24529316258E+04  0.24529316258E+04  0.50400001928E-02 0. -1.
       -1   -1    0    0    0  501  0.00000000000E+00  0.00000000000E+00 -0.14113459330E+04  0.14113459330E+04  0.50400001928E-02 0.  1.
    10030    2    1    2    0    0  0.00000000000E+00  0.00000000000E+00  0.10415856928E+04  0.38642775587E+04  0.37212552043E+04 0.  0.
        2    1    3    3  502    0 -0.34603167628E+03 -0.14316860323E+04 -0.65977098253E+03  0.16139270632E+04  0.25500000920E-02 0.  1.
       -2    1    3    3    0  502  0.34603167628E+03  0.14316860323E+04  0.17013566753E+04  0.22503504955E+04  0.25500000920E-02 0. -1.
</event>
<event>
 5   0  0.1128166E-06  0.3698177E+04  0.7818609E-02  0.8068366E-01
       -2   -1    0    0    0  501  0.00000000000E+00  0.00000000000E+00  0.16536132063E+04  0.16536132063E+04  0.25500000920E-02 0.  1.
        2   -1    0    0  501    0  0.00000000000E+00  0.00000000000E+00 -0.20676706059E+04  0.20676706059E+04  0.25500000920E-02 0. -1.
    10030    2    1    2    0    0  0.00000000000E+00  0.00000000000E+00 -0.41405739953E+03  0.37212838122E+04  0.36981765346E+04 0.  0.
        3    1    3    3  502    0 -0.34166988226E+02  0.26613865431E+03  0.16339190444E+04  0.16558045236E+04  0.10100000352E+00 0.  1.
       -3    1    3    3    0  502  0.34166988226E+02 -0.26613865431E+03 -0.20479764440E+04  0.20654792886E+04  0.10100000352E+00 0. -1.
</event>
<event>
 5   0  0.3848431E-07  0.3686782E+04  0.7818609E-02  0.8070897E-01
       -1   -1    0    0    0  501  0.00000000000E+00  0.00000000000E+00  0.30524710798E+04  0.30524710798E+04  0.50400001928E-02 0. -1.
        1   -1    0    0  501    0  0.00000000000E+00  0.00000000000E+00 -0.11132259395E+04  0.11132259395E+04  0.50400001928E-02 0.  1.
    10030    2    1    2    0    0  0.00000000000E+00  0.00000000000E+00  0.19392451404E+04  0.41656970193E+04  0.36867817866E+04 0.  0.
        2    1    3    3  502    0  0.69729864637E+03 -0.16915631309E+03 -0.94896422534E+03  0.11896942302E+04  0.25500000920E-02 0.  1.
       -2    1    3    3    0  502 -0.69729864637E+03  0.16915631309E+03  0.28882093657E+04  0.29760027891E+04  0.25500000920E-02 0. -1.
</event>
<event>
 5   0  0.1128530E-06  0.3608357E+04  0.7818609E-02  0.8088580E-01
       -2   -1    0    0    0  501  0.00000000000E+00  0.00000000000E+00  0.14851748786E+04  0.14851748786E+04  0.25500000920E-02 0. -1.
        2   -1    0    0  501    0  0.00000000000E+00  0.00000000000E+00 -0.21917010423E+04  0.21917010423E+04  0.25500000920E-02 0.  1.
    10030    2    1    2    0    0  0.00000000000E+00  0.00000000000E+00 -0.70652616367E+03  0.36768759210E+04  0.36083565952E+04 0.  0.
        5    1    3    3  502    0  0.69838019057E+03 -0.16561873778E+04 -0.19426904945E+03  0.18078866321E+04  0.46999998093E+01 0.  1.
       -5    1    3    3    0  502 -0.69838019057E+03  0.16561873778E+04 -0.51225711422E+03  0.18689892889E+04  0.46999998093E+01 0. -1.
</event>
<event>
 5   0  0.1066907E-06  0.2318057E+04  0.7818609E-02  0.8470835E-01
        2   -1    0    0  501    0  0.00000000000E+00  0.00000000000E+00  0.26864295121E+04  0.26864295121E+04  0.25500000920E-02 0.  1.
       -2   -1    0    0    0  501  0.00000000000E+00  0.00000000000E+00 -0.50004941821E+03  0.50004941822E+03  0.25500000920E-02 0. -1.
    10030    2    1    2    0    0  0.00000000000E+00  0.00000000000E+00  0.21863800939E+04  0.31864789303E+04  0.23180573889E+04 0.  0.
        4    1    3    3  502    0 -0.57163288416E+03  0.66224227725E+03  0.21382883457E+04  0.23103263082E+04  0.12699999809E+01 0.  1.
       -4    1    3    3    0  502  0.57163288416E+03 -0.66224227725E+03  0.48091748121E+02  0.87615262207E+03  0.12699999809E+01 0. -1.
</event>
<event>
 5   0  0.3675819E-07  0.2782513E+04  0.7818609E-02  0.8308718E-01
        1   -1    0    0  501    0  0.00000000000E+00  0.00000000000E+00  0.16727696150E+04  0.16727696150E+04  0.50400001928E-02 0. -1.
       -1   -1    0    0    0  501  0.00000000000E+00  0.00000000000E+00 -0.11571195721E+04  0.11571195722E+04  0.50400001928E-02 0.  1.
    10030    2    1    2    0    0  0.00000000000E+00  0.00000000000E+00  0.51565004285E+03  0.28298891872E+04  0.27825128652E+04 0.  0.
        5    1    3    3  502    0 -0.59011696142E+03 -0.31426258579E+03 -0.98301951118E+03  0.11888433246E+04  0.46999998093E+01 0.  1.
       -5    1    3    3    0  502  0.59011696142E+03  0.31426258579E+03  0.14986695540E+04  0.16410458626E+04  0.46999998093E+01 0. -1.
</event>
<event>
 5   0  0.3704306E-07  0.3730084E+04  0.7818609E-02  0.8061327E-01
       -1   -1    0    0    0  501  0.00000000000E+00  0.00000000000E+00  0.13874633688E+04  0.13874633689E+04  0.50400001928E-02 0.  1.
        1   -1    0    0  501    0  0.00000000000E+00  0.00000000000E+00 -0.25070078875E+04  0.25070078875E+04  0.50400001928E-02 0. -1.
    10030    2    1    2    0    0  0.00000000000E+00  0.00000000000E+00 -0.11195445187E+04  0.38944712564E+04  0.37300839719E+04 0.  0.
        3    1    3    3  502    0  0.14725855847E+03 -0.15126308545E+04 -0.16884529307E+04  0.22716977119E+04  0.10100000352E+00 0. -1.
       -3    1    3    3    0  502 -0.14725855847E+03  0.15126308545E+04  0.56890841206E+03  0.16227735444E+04  0.10100000352E+00 0.  1.
</event>
<event>
 5   0  0.3682276E-07  0.3673348E+04  0.7818609E-02  0.8073894E-01
        1   -1    0    0  501    0  0.00000000000E+00  0.00000000000E+00  0.14966067324E+04  0.14966067324E+04  0.50400001928E-02 0.  1.
       -1   -1    0    0    0  501  0.00000000000E+00  0.00000000000E+00 -0.22540137888E+04  0.22540137888E+04  0.50400001928E-02 0. -1.
    10030    2    1    2    0    0  0.00000000000E+00  0.00000000000E+00 -0.75740705642E+03  0.37506205213E+04  0.36733484514E+04 0.  0.
        1    1    3    3  502    0  0.15377491551E+04 -0.95461606145E+03 -0.69737129639E+03  0.19396626031E+04  0.50400001928E-02 0.  1.
       -1    1    3    3    0  502 -0.15377491551E+04  0.95461606145E+03 -0.60035760025E+02  0.18109579182E+04  0.50400001928E-02 0. -1.
</event>
<event>
 5   0  0.3490375E-07  0.3738897E+04  0.7818609E-02  0.8059396E-01
       -3   -1    0    0    0  501  0.00000000000E+00  0.00000000000E+00  0.21215031225E+04  0.21215031249E+04  0.10100000352E+00 0.  1.
        3   -1    0    0  501    0  0.00000000000E+00  0.00000000000E+00 -0.16473400543E+04  0.16473400574E+04  0.10100000352E+00 0. -1.
    10030    2    1    2    0    0  0.00000000000E+00  0.00000000000E+00  0.47416306820E+03  0.37688431822E+04  0.37388966711E+04 0.  0.
        4    1    3    3  502    0  0.17586348723E+04  0.54871944491E+03 -0.83182950384E+02  0.18441286993E+04  0.12699999809E+01 0. -1.
       -4    1    3    3    0  502 -0.17586348723E+04 -0.54871944491E+03  0.55734601859E+03  0.19247144829E+04  0.12699999809E+01 0.  1.
</event>
<event>
 5   0  0.1051123E-06  0.3648472E+04  0.7818609E-02  0.8079478E-01
        2   -1    0    0  501    0  0.00000000000E+00  0.00000000000E+00  0.21055493635E+04  0.21055493635E+04  0.25500000920E-02 0.  1.
       -2   -1    0    0    0  501  0.00000000000E+00  0.00000000000E+00 -0.15805075104E+04  0.15805075104E+04  0.25500000920E-02 0. -1.
    10030    2    1    2    0    0  0.00000000000E+00  0.00000000000E+00  0.52504185308E+03  0.36860568739E+04  0.36484717801E+04 0.  0.
        2    1    3    3  502    0  0.16579711781E+03  0.14198004082E+03  0.20923078173E+04  0.21036632380E+04  0.25500000920E-02 0.  1.
       -2    1    3    3    0  502 -0.16579711781E+03 -0.14198004082E+03 -0.15672659643E+04  0.15823936359E+04  0.25500000920E-02 0. -1.
</event>
<event>
 5   0  0.3848431E-07  0.3683061E+04  0.7818609E-02  0.8071726E-01
       -1   -1    0    0    0  501  0.00000000000E+00  0.00000000000E+00  0.14674858545E+04  0.14674858545E+04  0.50400001928E-02 0. -1.
        1   -1    0    0  501    0  0.00000000000E+00  0.00000000000E+00 -0.23109143798E+04  0.23109143798E+04  0.50400001928E-02 0.  1.
    10030    2    1    2    0    0  0.00000000000E+00  0.00000000000E+00 -0.84342852530E+03  0.37784002343E+04  0.36830607724E+04 0.  0.
        2    1    3    3  502    0 -0.72061465652E+03  0.13281498069E+04  0.65813327480E+03  0.16481525415E+04  0.25500000920E-02 0. -1.
       -2    1    3    3    0  502  0.72061465652E+03 -0.13281498069E+04 -0.15015618001E+04  0.21302476927E+04  0.25500000920E-02 0.  1.
</event>
<event>
 5   0  0.1128530E-06  0.3976467E+04  0.7818609E-02  0.8009311E-01
        2   -1    0    0  501    0  0.00000000000E+00  0.00000000000E+00  0.16740609375E+04  0.16740609375E+04  0.25500000920E-02 0. -1.
       -2   -1    0    0    0  501  0.00000000000E+00  0.00000000000E+00 -0.23613665581E+04  0.23613665581E+04  0.25500000920E-02 0.  1.
    10030    2    1    2    0    0  0.00000000000E+00  0.00000000000E+00 -0.68730562067E+03  0.40354274956E+04  0.39764665290E+04 0.  0.
        5    1    3    3  502    0 -0.94349157693E+03  0.14940820994E+04 -0.12685341638E+04  0.21752376169E+04  0.46999998093E+01 0.  1.
       -5    1    3    3    0  502  0.94349157693E+03 -0.14940820994E+04  0.58122854311E+03  0.18601898787E+04  0.46999998093E+01 0. -1.
</event>
<event>
 5   0  0.3704306E-07  0.4198878E+04  0.7818609E-02  0.7965586E-01
       -1   -1    0    0    0  501  0.00000000000E+00  0.00000000000E+00  0.15005519427E+04  0.15005519427E+04  0.50400001928E-02 0. -1.
        1   -1    0    0  501    0  0.00000000000E+00  0.00000000000E+00 -0.29373480270E+04  0.29373480270E+04  0.50400001928E-02 0.  1.
    10030    2    1    2    0    0  0.00000000000E+00  0.00000000000E+00 -0.14367960843E+04  0.44378999697E+04  0.41988776064E+04 0.  0.
        3    1    3    3  502    0 -0.14907497234E+04 -0.12376700271E+04 -0.15727974203E+04  0.24955667832E+04  0.10100000352E+00 0.  1.
       -3    1    3    3    0  502  0.14907497234E+04  0.12376700271E+04  0.13600133600E+03  0.19423331865E+04  0.10100000352E+00 0. -1.
</event>
<event>
 5   0  0.1128166E-06  0.3548938E+04  0.7818609E-02  0.8102289E-01
        2   -1    0    0  501    0  0.00000000000E+00  0.00000000000E+00  0.18763367114E+04  0.18763367114E+04  0.25500000920E-02 0.  1.
       -2   -1    0    0    0  501  0.00000000000E+00  0.00000000000E+00 -0.16781321027E+04  0.16781321027E+04  0.25500000920E-02 0. -1.
    10030    2    1    2    0    0  0.00000000000E+00  0.00000000000E+00  0.19820460868E+03  0.35544688141E+04  0.35489383601E+04 0.  0.
        3    1    3    3  502    0  0.19663790142E+03 -0.11560310124E+03 -0.16633872126E+04  0.16789543086E+04  0.10100000352E+00 0. -1.
       -3    1    3    3    0  502 -0.19663790142E+03  0.11560310124E+03  0.18615918212E+04  0.18755145055E+04  0.10100000352E+00 0.  1.
</event>
<event>
 5   0  0.1128530E-06  0.3716795E+04  0.7818609E-02  0.8064250E-01
       -2   -1    0    0    0  501  0.00000000000E+00  0.00000000000E+00  0.18901742311E+04  0.18901742311E+04  0.25500000920E-02 0.  1.
        2   -1    0    0  501    0  0.00000000000E+00  0.00000000000E+00 -0.18271549036E+04  0.18271549036E+04  0.25500000920E-02 0. -1.
    10030    2    1    2    0    0  0.00000000000E+00  0.00000000000E+00  0.63019327506E+02  0.37173291347E+04  0.37167949177E+04 0.  0.
        5    1    3    3  502    0 -0.12125444825E+04 -0.13602585161E+04 -0.33330525153E+03  0.18524799144E+04  0.46999998093E+01 0.  1.
       -5    1    3    3    0  502  0.12125444825E+04  0.13602585161E+04  0.39632457904E+03  0.18648492203E+04  0.46999998093E+01 0. -1.
</event>
<event>
 5   0  0.1128530E-06  0.3723272E+04  0.7818609E-02  0.8062824E-01
       -2   -1    0    0    0  501  0.00000000000E+00  0.00000000000E+00  0.15714065291E+04  0.15714065291E+04  0.25500000920E-02 0.  1.
        2   -1    0    0  501    0  0.00000000000E+00  0.00000000000E+00 -0.22054687401E+04  0.22054687401E+04  0.25500000920E-02 0. -1.
    10030    2    1    2    0    0  0.00000000000E+00  0.00000000000E+00 -0.63406221101E+03  0.37768752692E+04  0.37232716677E+04 0.  0.
        5    1    3    3  502    0  0.39225710886E+03  0.40579670428E+03 -0.21165864551E+04  0.21905471729E+04  0.46999998093E+01 0. -1.
       -5    1    3    3    0  502 -0.39225710886E+03 -0.40579670428E+03  0.14825242441E+04  0.15863280963E+04  0.46999998093E+01 0.  1.
</event>
<event>
 5   0  0.1128166E-06  0.3662309E+04  0.7818609E-02  0.8076366E-01
        2   -1    0    0  501    0  0.00000000000E+00  0.00000000000E+00  0.26497748144E+04  0.26497748144E+04  0.25500000920E-02 0. -1.
       -2   -1    0    0    0  501  0.00000000000E+00  0.00000000000E+00 -0.12654383112E+04  0.12654383112E+04  0.25500000920E-02 0.  1.
    10030    2    1    2    0    0  0.00000000000E+00  0.00000000000E+00  0.13843365032E+04  0.39152131257E+04  0.36623088708E+04 0.  0.
        3    1    3    3  502    0  0.16492345432E+04  0.11122276825E+03  0.15344740935E+04  0.22554280827E+04  0.10100000352E+00 0. -1.
       -3    1    3    3    0  502 -0.16492345432E+04 -0.11122276825E+03 -0.15013759022E+03  0.16597850429E+04  0.10100000352E+00 0.  1.
</event>
<event>
 5   0  0.3682276E-07  0.3696538E+04  0.7818609E-02  0.8068730E-01
        1   -1    0    0  501    0  0.00000000000E+00  0.00000000000E+00  0.28698995848E+04  0.28698995848E+04  0.50400001928E-02 0. -1.
       -1   -1    0    0    0  501  0.00000000000E+00  0.00000000000E+00 -0.11903195612E+04  0.11903195612E+04  0.50400001928E-02 0.  1.
    10030    2    1    2    0    0  0.00000000000E+00  0.00000000000E+00  0.16795800235E+04  0.40602191460E+04  0.36965376311E+04 0.  0.
        1    1    3    3  502    0  0.46443869428E+03 -0.82603547420E+03 -0.90316972615E+03  0.13091040675E+04  0.50400001928E-02 0.  1.
       -1    1    3    3    0  502 -0.46443869428E+03  0.82603547420E+03  0.25827497497E+04  0.27511150785E+04  0.50400001928E-02 0. -1.
</event>
<event>
 5   0  0.3764495E-07  0.3657541E+04  0.7818609E-02  0.8077437E-01
       -1   -1    0    0    0  501  0.00000000000E+00  0.00000000000E+00  0.16431501865E+04  0.16431501865E+04  0.50400001928E-02 0.  1.
        1   -1    0    0  501    0  0.00000000000E+00  0.00000000000E+00 -0.20353592134E+04  0.20353592134E+04  0.50400001928E-02 0. -1.
    10030    2    1    2    0    0  0.00000000000E+00  0.00000000000E+00 -0.39220902687E+03  0.36785093999E+04  0.36575406333E+04 0.  0.
        4    1    3    3  502    0  0.17540802051E+04 -0.74093272635E+02 -0.71100846933E+03  0.18941546492E+04  0.12699999809E+01 0. -1.
       -4    1    3    3    0  502 -0.17540802051E+04  0.74093272635E+02  0.31879944245E+03  0.17843547507E+04  0.12699999809E+01 0.  1.
</event>
<event>
 5   0  0.3490375E-07  0.3662607E+04  0.7818609E-02  0.8076299E-01
       -3   -1    0    0    0  501  0.00000000000E+00  0.00000000000E+00  0.17793281851E+04  0.17793281879E+04  0.10100000352E+00 0. -1.
        3   -1    0    0  501    0  0.00000000000E+00  0.00000000000E+00 -0.18847974083E+04  0.18847974111E+04  0.10100000352E+00 0.  1.
    10030    2    1    2    0    0  0.00000000000E+00  0.00000000000E+00 -0.10546922329E+03  0.36641255990E+04  0.36626073565E+04 0.  0.
        4    1    3    3  502    0  0.60360969185E+03  0.45162194620E+03  0.16168983396E+04  0.17840036143E+04  0.12699999809E+01 0. -1.
       -4    1    3    3    0  502 -0.60360969185E+03 -0.45162194620E+03 -0.17223675629E+04  0.18801219846E+04  0.12699999809E+01 0.  1.
</event>
<event>
 5   0  0.1051123E-06  0.3717876E+04  0.7818609E-02  0.8064012E-01
       -2   -1    0    0    0  501  0.00000000000E+00  0.00000000000E+00  0.26119871895E+04  0.26119871895E+04  0.25500000920E-02 0. -1.
        2   -1    0    0  501    0  0.00000000000E+00  0.00000000000E+00 -0.13229968710E+04  0.13229968710E+04  0.25500000920E-02 0.  1.
    10030    2    1    2    0    0  0.00000000000E+00  0.00000000000E+00  0.12889903186E+04  0.39349840605E+04  0.37178762103E+04 0.  0.
        2    1    3    3  502    0  0.33315757585E+03  0.58240213144E+03  0.24793590974E+04  0.25685419496E+04  0.25500000920E-02 0. -1.
       -2    1    3    3    0  502 -0.33315757585E+03 -0.58240213144E+03 -0.11903687788E+04  0.13664421109E+04  0.25500000920E-02 0.  1.
</event>
<event>
 5   0  0.3675819E-07  0.2718273E+04  0.7818609E-02  0.8329100E-01
        1   -1    0    0  501    0  0.00000000000E+00  0.00000000000E+00  0.23369837563E+04  0.23369837563E+04  0.50400001928E-02 0. -1.
       -1   -1    0    0    0  501  0.00000000000E+00  0.00000000000E+00 -0.79044282790E+03  0.79044282791E+03  0.50400001928E-02 0.  1.
    10030    2    1    2    0    0  0.00000000000E+00  0.00000000000E+00  0.15465409284E+04  0.31274265842E+04  0.27182730173E+04 0.  0.
        5    1    3    3  502    0 -0.56131666078E+02 -0.97156519969E+03  0.18648343084E+04  0.21035015543E+04  0.46999998093E+01 0. -1.
       -5    1    3    3    0  502  0.56131666078E+02  0.97156519969E+03 -0.31829337998E+03  0.10239250299E+04  0.46999998093E+01 0.  1.
</event>
<event>
 5   0  0.3682276E-07  0.3727403E+04  0.7818609E-02  0.8061916E-01
        1   -1    0    0  501    0  0.00000000000E+00  0.00000000000E+00  0.13975776069E+04  0.13975776070E+04  0.50400001928E-02 0.  1.
       -1   -1    0    0    0  501  0.00000000000E+00  0.00000000000E+00 -0.24852888483E+04  0.24852888483E+04  0.50400001928E-02 0. -1.
    10030    2    1    2    0    0  0.00000000000E+00  0.00000000000E+00 -0.10877112413E+04  0.38828664552E+04  0.37274034078E+04 0.  0.
        1    1    3    3  502    0  0.13183559048E+04 -0.12171698613E+04 -0.19038059976E+02  0.17944155625E+04  0.50400001928E-02 0. -1.
       -1    1    3    3    0  502 -0.13183559048E+04  0.12171698613E+04 -0.10686731814E+04  0.20884508928E+04  0.50400001928E-02 0.  1.
</event>
<event>
 5   0  0.1066907E-06  0.3717705E+04  0.7818609E-02  0.8064049E-01
        2   -1    0    0  501    0  0.00000000000E+00  0.00000000000E+00  0.21182290117E+04  0.21182290117E+04  0.25500000920E-02 0. -1.
       -2   -1    0    0    0  501  0.00000000000E+00  0.00000000000E+00 -0.16312367508E+04  0.16312367508E+04  0.25500000920E-02 0.  1.
    10030    2    1    2    0    0  0.00000000000E+00  0.00000000000E+00  0.48699226095E+03  0.37494657625E+04  0.37177052118E+04 0.  0.
        4    1    3    3  502    0 -0.12977122093E+04  0.21795516270E+03  0.15676367152E+04  0.20467163738E+04  0.12699999809E+01 0. -1.
       -4    1    3    3    0  502  0.12977122093E+04 -0.21795516270E+03 -0.10806444542E+04  0.17027493886E+04  0.12699999809E+01 0.  1.
</event>
<event>
 5   0  0.3764495E-07  0.3459569E+04  0.7818609E-02  0.8123439E-01
        1   -1    0    0  501    0  0.00000000000E+00  0.00000000000E+00  0.16779869007E+04  0.16779869007E+04  0.50400001928E-02 0. -1.
       -1   -1    0    0    0  501  0.00000000000E+00  0.00000000000E+00 -0.17831814920E+04  0.17831814920E+04  0.50400001928E-02 0.  1.
    10030    2    1    2    0    0  0.00000000000E+00  0.00000000000E+00 -0.10519459127E+03  0.34611683927E+04  0.34595694444E+04 0.  0.
        4    1    3    3  502    0  0.16104130224E+02  0.15327966789E+04 -0.85448416077E+03  0.17549557817E+04  0.12699999809E+01 0.  1.
       -4    1    3    3    0  502 -0.16104130224E+02 -0.15327966789E+04  0.74928956950E+03  0.17062126110E+04  0.12699999809E+01 0. -1.
</event>
<event>
 5   0  0.3764495E-07  0.3667421E+04  0.7818609E-02  0.8075220E-01
        1   -1    0    0  501    0  0.00000000000E+00  0.00000000000E+00  0.17614020493E+04  0.17614020493E+04  0.50400001928E-02 0. -1.
       -1   -1    0    0    0  501  0.00000000000E+00  0.00000000000E+00 -0.19089869951E+04  0.19089869951E+04  0.50400001928E-02 0.  1.
    10030    2    1    2    0    0  0.00000000000E+00  0.00000000000E+00 -0.14758494580E+03  0.36703890444E+04  0.36674206769E+04 0.  0.
        4    1    3    3  502    0  0.68269435252E+03 -0.14081100997E+04  0.88282968271E+03  0.17967291096E+04  0.12699999809E+01 0. -1.
       -4    1    3    3    0  502 -0.68269435252E+03  0.14081100997E+04 -0.10304146285E+04  0.18736599348E+04  0.12699999809E+01 0.  1.
</event>
<event>
 5   0  0.3704306E-07  0.3683123E+04  0.7818609E-02  0.8071712E-01
        1   -1    0    0  501    0  0.00000000000E+00  0.00000000000E+00  0.17127048815E+04  0.17127048815E+04  0.50400001928E-02 0.  1.
       -1   -1    0    0    0  501  0.00000000000E+00  0.00000000000E+00 -0.19801123259E+04  0.19801123259E+04  0.50400001928E-02 0. -1.
    10030    2    1    2    0    0  0.00000000000E+00  0.00000000000E+00 -0.26740744434E+03  0.36928172074E+04  0.36831226135E+04 0.  0.
        3    1    3    3  502    0 -0.20231643961E+03  0.63969968249E+03  0.15858032565E+04  0.17218941908E+04  0.10100000352E+00 0.  1.
       -3    1    3    3    0  502  0.20231643961E+03 -0.63969968249E+03 -0.18532107009E+04  0.19709230167E+04  0.10100000352E+00 0. -1.
</event>
<event>
 5   0  0.1092116E-06  0.3008354E+04  0.7818609E-02  0.8241349E-01
       -2   -1    0    0    0  501  0.00000000000E+00  0.00000000000E+00  0.96267773181E+03  0.96267773181E+03  0.25500000920E-02 0. -1.
        2   -1    0    0  501    0  0.00000000000E+00  0.00000000000E+00 -0.23502653262E+04  0.23502653262E+04  0.25500000920E-02 0.  1.
    10030    2    1    2    0    0  0.00000000000E+00  0.00000000000E+00 -0.13875875944E+04  0.33129430580E+04  0.30083537647E+04 0.  0.
        1    1    3    3  502    0 -0.12806736507E+04  0.65282242944E+03 -0.11816428195E+04  0.18608014071E+04  0.50400001928E-02 0.  1.
       -1    1    3    3    0  502  0.12806736507E+04 -0.65282242944E+03 -0.20594477489E+03  0.14521416509E+04  0.50400001928E-02 0. -1.
</event>
<event>
 5   0  0.3704306E-07  0.3907888E+04  0.7818609E-02  0.8023391E-01
       -1   -1    0    0    0  501  0.00000000000E+00  0.00000000000E+00  0.13880440620E+04  0.13880440620E+04  0.50400001928E-02 0.  1.
        1   -1    0    0  501    0  0.00000000000E+00  0.00000000000E+00 -0.27505591549E+04  0.27505591549E+04  0.50400001928E-02 0. -1.
    10030    2    1    2    0    0  0.00000000000E+00  0.00000000000E+00 -0.13625150929E+04  0.41386032170E+04  0.39078880753E+04 0.  0.
        3    1    3    3  502    0 -0.74332677400E+03  0.17796635656E+04 -0.34945525995E+03  0.19600653277E+04  0.10100000352E+00 0.  1.
       -3    1    3    3    0  502  0.74332677400E+03 -0.17796635656E+04 -0.10130598330E+04  0.21785378893E+04  0.10100000352E+00 0. -1.
</event>
<event>
 5   0  0.1051123E-06  0.3796089E+04  0.7818609E-02  0.8046995E-01
       -2   -1    0    0    0  501  0.00000000000E+00  0.00000000000E+00  0.22411787833E+04  0.22411787833E+04  0.25500000920E-02 0. -1.
        2   -1    0    0  501    0  0.00000000000E+00  0.00000000000E+00 -0.16074459297E+04  0.16074459297E+04  0.25500000920E-02 0.  1.
    10030    2    1    2    0    0  0.00000000000E+00  0.00000000000E+00  0.63373285359E+03  0.38486247130E+04  0.37960894157E+04 0.  0.
        2    1    3    3  502    0  0.37750043372E+03 -0.29667927114E+03 -0.15448607560E+04  0.16177515022E+04  0.25500000920E-02 0.  1.
       -2    1    3    3    0  502 -0.37750043372E+03  0.29667927114E+03  0.21785936096E+04  0.22308732109E+04  0.25500000920E-02 0. -1.
</event>
<event>
 5   0  0.1128166E-06  0.3148800E+04  0.7818609E-02  0.8202471E-01
       -2   -1    0    0    0  501  0.00000000000E+00  0.00000000000E+00  0.11084149471E+04  0.11084149471E+04  0.25500000920E-02 0. -1.
        2   -1    0    0  501    0  0.00000000000E+00  0.00000000000E+00 -0.22362883330E+04  0.22362883330E+04  0.25500000920E-02 0.  1.
    10030    2    1    2    0    0  0.00000000000E+00  0.00000000000E+00 -0.11278733858E+04  0.33447032801E+04  0.31488000345E+04 0.  0.
        3    1    3    3  502    0 -0.86873974258E+03  0.13060271259E+04 -0.70770825826E+03  0.17208331072E+04  0.10100000352E+00 0.  1.
       -3    1    3    3    0  502  0.86873974258E+03 -0.13060271259E+04 -0.42016512757E+03  0.16238701729E+04  0.10100000352E+00 0. -1.
</event>
<event>
 5   0  0.3675819E-07  0.3610521E+04  0.7818609E-02  0.8088086E-01
       -1   -1    0    0    0  501  0.00000000000E+00  0.00000000000E+00  0.19025434406E+04  0.19025434406E+04  0.50400001928E-02 0.  1.
        1   -1    0    0  501    0  0.00000000000E+00  0.00000000000E+00 -0.17129519373E+04  0.17129519373E+04  0.50400001928E-02 0. -1.
    10030    2    1    2    0    0  0.00000000000E+00  0.00000000000E+00  0.18959150331E+03  0.36154953780E+04  0.36105209998E+04 0.  0.
        5    1    3    3  502    0 -0.53359457538E+02 -0.35354877539E+03 -0.16771334434E+04  0.17148302089E+04  0.46999998093E+01 0. -1.
       -5    1    3    3    0  502  0.53359457538E+02  0.35354877539E+03  0.18667249467E+04  0.19006651691E+04  0.46999998093E+01 0.  1.
</event>
<event>
 5   0  0.1066907E-06  0.3689120E+04  0.7818609E-02  0.8070377E-01
        2   -1    0    0  501    0  0.00000000000E+00  0.00000000000E+00  0.22746018770E+04  0.22746018770E+04  0.25500000920E-02 0.  1.
       -2   -1    0    0    0  501  0.00000000000E+00  0.00000000000E+00 -0.14958228393E+04  0.14958228393E+04  0.25500000920E-02 0. -1.
    10030    2    1    2    0    0  0.00000000000E+00  0.00000000000E+00  0.77877903762E+03  0.37704247163E+04  0.36891199156E+04 0.  0.
        4    1    3    3  502    0  0.12005350857E+04 -0.65121727230E+03 -0.87770458763E+03  0.16234948056E+04  0.12699999809E+01 0. -1.
       -4    1    3    3    0  502 -0.12005350857E+04  0.65121727230E+03  0.16564836253E+04  0.21469299107E+04  0.12699999809E+01 0.  1.
</event>
<event>
 5   0  0.1066907E-06  0.3757922E+04  0.7818609E-02  0.8055246E-01
       -2   -1    0    0    0  501  0.00000000000E+00  0.00000000000E+00  0.13982001817E+04  0.13982001817E+04  0.25500000920E-02 0.  1.
        2   -1    0    0  501    0  0.00000000000E+00  0.00000000000E+00 -0.25250275756E+04  0.25250275756E+04  0.25500000920E-02 0. -1.
    10030    2    1    2    0    0  0.00000000000E+00  0.00000000000E+00 -0.11268273939E+04  0.39232277572E+04  0.37579217740E+04 0.  0.
        4    1    3    3  502    0  0.45478991907E+03  0.88653870155E+03  0.10996794777E+04  0.14839411398E+04  0.12699999809E+01 0.  1.
       -4    1    3    3    0  502 -0.45478991907E+03 -0.88653870155E+03 -0.22265068716E+04  0.24392866174E+04  0.12699999809E+01 0. -1.
</event>
<event>
 5   0  0.1051123E-06  0.3488491E+04  0.7818609E-02  0.8116523E-01
        2   -1    0    0  501    0  0.00000000000E+00  0.00000000000E+00  0.24297943409E+04  0.24297943409E+04  0.25500000920E-02 0.  1.
       -2   -1    0    0    0  501  0.00000000000E+00  0.00000000000E+00 -0.12521194854E+04  0.12521194854E+04  0.25500000920E-02 0. -1.
    10030    2    1    2    0    0  0.00000000000E+00  0.00000000000E+00  0.11776748555E+04  0.36819138263E+04  0.34884912726E+04 0.  0.
        2    1    3    3  502    0 -0.14735745537E+04  0.90715054599E+03  0.35748339363E+03  0.17669574005E+04  0.25500000920E-02 0. -1.
       -2    1    3    3    0  502  0.14735745537E+04 -0.90715054599E+03  0.82019146187E+03  0.19149564258E+04  0.25500000920E-02 0.  1.
</event>
<event>
 5   0  0.3675819E-07  0.3694213E+04  0.7818609E-02  0.8069245E-01
        1   -1    0    0  501    0  0.00000000000E+00  0.00000000000E+00  0.23770498324E+04  0.23770498324E+04  0.50400001928E-02 0.  1.
       -1   -1    0    0    0  501  0.00000000000E+00  0.00000000000E+00 -0.14353097195E+04  0.14353097195E+04  0.50400001928E-02 0. -1.
    10030    2    1    2    0    0  0.00000000000E+00  0.00000000000E+00  0.94174011295E+03  0.38123595519E+04  0.36942131656E+04 0.  0.
        5    1    3    3  502    0  0.17332573464E+04  0.13937298736E+03 -0.17209231772E+03  0.17473533456E+04  0.46999998093E+01 0. -1.
       -5    1    3    3    0  502 -0.17332573464E+04 -0.13937298736E+03  0.11138324307E+04  0.20650062063E+04  0.46999998093E+01 0.  1.
</event>
<event>
 5   0  0.1128166E-06  0.3717070E+04  0.7818609E-02  0.8064189E-01
       -2   -1    0    0    0  501  0.00000000000E+00  0.00000000000E+00  0.14177316766E+04  0.14177316766E+04  0.25500000920E-02 0.  1.
        2   -1    0    0  501    0  0.00000000000E+00  0.00000000000E+00 -0.24363930324E+04  0.24363930324E+04  0.25500000920E-02 0. -1.
    10030    2    1    2    0    0  0.00000000000E+00  0.00000000000E+00 -0.10186613558E+04  0.38541247090E+04  0.37170695870E+04 0.  0.
        3    1    3    3  502    0  0.16162231007E+04  0.50227006410E+03 -0.13055640126E+04  0.21375101706E+04  0.10100000352E+00 0. -1.
       -3    1    3    3    0  502 -0.16162231007E+04 -0.50227006410E+03  0.28690265676E+03  0.17166145383E+04  0.10100000352E+00 0.  1.
</event>
<event>
 5   0  0.3675819E-07  0.3866884E+04  0.7818609E-02  0.8031952E-01
       -1   -1    0    0    0  501  0.00000000000E+00  0.00000000000E+00  0.17386945181E+04  0.17386945181E+04  0.50400001928E-02 0. -1.
        1   -1    0    0  501    0  0.00000000000E+00  0.00000000000E+00 -0.21500029096E+04  0.21500029097E+04  0.50400001928E-02 0.  1.
    10030    2    1    2    0    0  0.00000000000E+00  0.00000000000E+00 -0.41130839159E+03  0.38886974277E+04  0.38668841580E+04 0.  0.
        5    1    3    3  502    0 -0.88268630468E+03  0.67175805936E+02  0.15229162419E+04  0.17615174343E+04  0.46999998093E+01 0. -1.
       -5    1    3    3    0  502  0.88268630468E+03 -0.67175805936E+02 -0.19342246335E+04  0.21271799934E+04  0.46999998093E+01 0.  1.
</event>
<event>
 5   0  0.1066907E-06  0.2448333E+04  0.7818609E-02  0.8421627E-01
       -2   -1    0    0    0  501  0.00000000000E+00  0.00000000000E+00  0.59270409010E+03  0.59270409011E+03  0.25500000920E-02 0. -1.
        2   -1    0    0  501    0  0.00000000000E+00  0.00000000000E+00 -0.25283835273E+04  0.25283835273E+04  0.25500000920E-02 0.  1.
    10030    2    1    2    0    0  0.00000000000E+00  0.00000000000E+00 -0.19356794372E+04  0.31210876174E+04  0.24483327045E+04 0.  0.
        4    1    3    3  502    0 -0.71984952658E+02 -0.12217117323E+04 -0.93132987581E+03  0.15379006277E+04  0.12699999809E+01 0. -1.
       -4    1    3    3    0  502  0.71984952658E+02  0.12217117323E+04 -0.10043495614E+04  0.15831869898E+04  0.12699999809E+01 0.  1.
</event>
<event>
 5   0  0.3764495E-07  0.3617268E+04  0.7818609E-02  0.8086548E-01
       -1   -1    0    0    0  501  0.00000000000E+00  0.00000000000E+00  0.13094049235E+04  0.13094049235E+04  0.50400001928E-02 0.  1.
        1   -1    0    0  501    0  0.00000000000E+00  0.00000000000E+00 -0.24982013727E+04  0.24982013727E+04  0.50400001928E-02 0. -1.
    10030    2    1    2    0    0  0.00000000000E+00  0.00000000000E+00 -0.11887964492E+04  0.38076062962E+04  0.36172681279E+04 0.  0.
        4    1    3    3  502    0 -0.62142621504E+02  0.17770933154E+04 -0.24650283217E+03  0.17951845633E+04  0.12699999809E+01 0.  1.
       -4    1    3    3    0  502  0.62142621504E+02 -0.17770933154E+04 -0.94229361708E+03  0.20124217329E+04  0.12699999809E+01 0. -1.
</event>
<event>
 5   0  0.3704306E-07  0.3500974E+04  0.7818609E-02  0.8113559E-01
        1   -1    0    0  501    0  0.00000000000E+00  0.00000000000E+00  0.16606069477E+04  0.16606069477E+04  0.50400001928E-02 0.  1.
       -1   -1    0    0    0  501  0.00000000000E+00  0.00000000000E+00 -0.18452318358E+04  0.18452318359E+04  0.50400001928E-02 0. -1.
    10030    2    1    2    0    0  0.00000000000E+00  0.00000000000E+00 -0.18462488817E+03  0.35058387835E+04  0.35009740397E+04 0.  0.
        3    1    3    3  502    0 -0.17860391498E+03 -0.30853094726E+03  0.16238700169E+04  0.16625415922E+04  0.10100000352E+00 0.  1.
       -3    1    3    3    0  502  0.17860391498E+03  0.30853094726E+03 -0.18084949050E+04  0.18432971913E+04  0.10100000352E+00 0. -1.
</event>
<event>
 5   0  0.1051123E-06  0.3763087E+04  0.7818609E-02  0.8054123E-01
       -2   -1    0    0    0  501  0.00000000000E+00  0.00000000000E+00  0.16389324357E+04  0.16389324357E+04  0.25500000920E-02 0.  1.
        2   -1    0    0  501    0  0.00000000000E+00  0.00000000000E+00 -0.21600681576E+04  0.21600681576E+04  0.25500000920E-02 0. -1.
    10030    2    1    2    0    0  0.00000000000E+00  0.00000000000E+00 -0.52113572189E+03  0.37990005933E+04  0.37630869067E+04 0.  0.
        2    1    3    3  502    0  0.11343681941E+04  0.89372882764E+02 -0.17733437314E+04  0.21070184388E+04  0.25500000920E-02 0. -1.
       -2    1    3    3    0  502 -0.11343681941E+04 -0.89372882764E+02  0.12522080095E+04  0.16919821545E+04  0.25500000920E-02 0.  1.
</event>
<event>
 5   0  0.3704306E-07  0.3825730E+04  0.7818609E-02  0.8040656E-01
        1   -1    0    0  501    0  0.00000000000E+00  0.00000000000E+00  0.14053355822E+04  0.14053355822E+04  0.50400001928E-02 0. -1.
       -1   -1    0    0    0  501  0.00000000000E+00  0.00000000000E+00 -0.26036862244E+04  0.26036862244E+04  0.50400001928E-02 0.  1.
    10030    2    1    2    0    0  0.00000000000E+00  0.00000000000E+00 -0.11983506422E+04  0.40090218066E+04  0.38257302027E+04 0.  0.
        3    1    3    3  502    0 -0.15903317770E+04 -0.35671099263E+03  0.45012508108E+03  0.16908608731E+04  0.10100000352E+00 0. -1.
       -3    1    3    3    0  502  0.15903317770E+04  0.35671099263E+03 -0.16484757233E+04  0.23181609335E+04  0.10100000352E+00 0.  1.
</event>
<event>
 5   0  0.1066907E-06  0.3544407E+04  0.7818609E-02  0.8103346E-01
       -2   -1    0    0    0  501  0.00000000000E+00  0.00000000000E+00  0.13122120269E+04  0.13122120269E+04  0.25500000920E-02 0.  1.
        2   -1    0    0  501    0  0.00000000000E+00  0.00000000000E+00 -0.23934439568E+04  0.23934439568E+04  0.25500000920E-02 0. -1.
    10030    2    1    2    0    0  0.00000000000E+00  0.00000000000E+00 -0.10812319299E+04  0.37056559837E+04  0.35444073952E+04 0.  0.
        4    1    3    3  502    0 -0.16629379173E+04 -0.55680371275E+03 -0.27342848719E+03  0.17748683449E+04  0.12699999809E+01 0.  1.
       -4    1    3    3    0  502  0.16629379173E+04  0.55680371275E+03 -0.80780344271E+03  0.19307876388E+04  0.12699999809E+01 0. -1.
</event>
<event>
 5   0  0.1092116E-06  0.3504692E+04  0.7818609E-02  0.8112679E-01
       -2   -1    0    0    0  501  0.00000000000E+00  0.00000000000E+00  0.16746852374E+04  0.16746852374E+04  0.25500000920E-02 0.  1.
        2   -1    0    0  501    0  0.00000000000E+00  0.00000000000E+00 -0.18336085500E+04  0.18336085500E+04  0.25500000920E-02 0. -1.
    10030    2    1    2    0    0  0.00000000000E+00  0.00000000000E+00 -0.15892331265E+03  0.35082937874E+04  0.35046923801E+04 0.  0.
        1    1    3    3  502    0  0.56375793903E+02 -0.59562848265E+03  0.15692783984E+04  0.16794600952E+04  0.50400001928E-02 0.  1.
       -1    1    3    3    0  502 -0.56375793903E+02  0.59562848265E+03 -0.17282017111E+04  0.18288336922E+04  0.50400001928E-02 0. -1.
</event>
<event>
 5   0  0.1092116E-06  0.3086229E+04  0.7818609E-02  0.8219527E-01
       -2   -1    0    0    0  501  0.00000000000E+00  0.00000000000E+00  0.11506803098E+04  0.11506803098E+04  0.25500000920E-02 0.  1.
        2   -1    0    0  501    0  0.00000000000E+00  0.00000000000E+00 -0.20693869232E+04  0.20693869232E+04  0.25500000920E-02 0. -1.
    10030    2    1    2    0    0  0.00000000000E+00  0.00000000000E+00 -0.91870661335E+03  0.32200672330E+04  0.30862292759E+04 0.  0.
        1    1    3    3  502    0  0.11003164372E+04  0.10735257876E+03  0.66389323116E+03  0.12895639033E+04  0.50400001928E-02 0.  1.
       -1    1    3    3    0  502 -0.11003164372E+04 -0.10735257876E+03 -0.15825998445E+04  0.19305033297E+04  0.50400001928E-02 0. -1.
</event>
<event>
 5   0  0.1128166E-06  0.3692792E+04  0.7818609E-02  0.8069561E-01
        2   -1    0    0  501    0  0.00000000000E+00  0.00000000000E+00  0.24360182341E+04  0.24360182341E+04  0.25500000920E-02 0. -1.
       -2   -1    0    0    0  501  0.00000000000E+00  0.00000000000E+00 -0.13994878863E+04  0.13994878863E+04  0.25500000920E-02 0.  1.
    10030    2    1    2    0    0  0.00000000000E+00  0.00000000000E+00  0.10365303478E+04  0.38355061204E+04  0.36927919028E+04 0.  0.
        3    1    3    3  502    0 -0.10183768888E+03 -0.18396461804E+04  0.64337367268E+03  0.19515631368E+04  0.10100000352E+00 0. -1.
       -3    1    3    3    0  502  0.10183768888E+03  0.18396461804E+04  0.39315667515E+03  0.18839429836E+04  0.10100000352E+00 0.  1.
</event>
<event>
 5   0  0.1128530E-06  0.3626320E+04  0.7818609E-02  0.8084489E-01
       -2   -1    0    0    0  501  0.00000000000E+00  0.00000000000E+00  0.16840175847E+04  0.16840175847E+04  0.25500000920E-02 0.  1.
        2   -1    0    0  501    0  0.00000000000E+00  0.00000000000E+00 -0.19522058122E+04  0.19522058122E+04  0.25500000920E-02 0. -1.
    10030    2    1    2    0    0  0.00000000000E+00  0.00000000000E+00 -0.26818822749E+03  0.36362233969E+04  0.36263198517E+04 0.  0.
        5    1    3    3  502    0  0.16115577276E+04  0.56466691309E+03 -0.74531587307E+03  0.18631921191E+04  0.46999998093E+01 0. -1.
       -5    1    3    3    0  502 -0.16115577276E+04 -0.56466691309E+03  0.47712764557E+03  0.17730312778E+04  0.46999998093E+01 0.  1.
</event>
<event>
 5   0  0.3675819E-07  0.3265383E+04  0.7818609E-02  0.8171760E-01
        1   -1    0    0  501    0  0.00000000000E+00  0.00000000000E+00  0.28065230202E+04  0.28065230202E+04  0.50400001928E-02 0. -1.
       -1   -1    0    0    0  501  0.00000000000E+00  0.00000000000E+00 -0.94981622347E+03  0.94981622348E+03  0.50400001928E-02 0.  1.
    10030    2    1    2    0    0  0.00000000000E+00  0.00000000000E+00  0.18567067968E+04  0.37563392437E+04  0.32653827317E+04 0.  0.
        5    1    3    3  502    0  0.50891160919E+02  0.48936659102E+03 -0.86250084838E+03  0.99297501183E+03  0.46999998093E+01 0.  1.
       -5    1    3    3    0  502 -0.50891160919E+02 -0.48936659102E+03  0.27192076451E+04  0.27633642319E+04  0.46999998093E+01 0. -1.
</event>
<event>
 5   0  0.3764495E-07  0.3721968E+04  0.7818609E-02  0.8063111E-01
       -1   -1    0    0    0  501  0.00000000000E+00  0.00000000000E+00  0.15647398765E+04  0.15647398765E+04  0.50400001928E-02 0.  1.
        1   -1    0    0  501    0  0.00000000000E+00  0.00000000000E+00 -0.22133148892E+04  0.22133148892E+04  0.50400001928E-02 0. -1.
    10030    2    1    2    0    0  0.00000000000E+00  0.00000000000E+00 -0.64857501271E+03  0.37780547657E+04  0.37219683322E+04 0.  0.
        4    1    3    3  502    0  0.58174922972E+03  0.24822995993E+03 -0.21008642526E+04  0.21940105970E+04  0.12699999809E+01 0. -1.
       -4    1    3    3    0  502 -0.58174922972E+03 -0.24822995993E+03  0.14522892398E+04  0.15840441687E+04  0.12699999809E+01 0.  1.
</event>
<event>
 5   0  0.1066907E-06  0.3269518E+04  0.7818609E-02  0.8170695E-01
       -2   -1    0    0    0  501  0.00000000000E+00  0.00000000000E+00  0.30926723537E+04  0.30926723537E+04  0.25500000920E-02 0.  1.
        2   -1    0    0  501    0  0.00000000000E+00  0.00000000000E+00 -0.86411922483E+03  0.86411922483E+03  0.25500000920E-02 0. -1.
    10030    2    1    2    0    0  0.00000000000E+00  0.00000000000E+00  0.22285531289E+04  0.39567915785E+04  0.32695183969E+04 0.  0.
        4    1    3    3  502    0 -0.38845373901E+03 -0.13437253695E+04  0.21382725722E+04  0.25551331437E+04  0.12699999809E+01 0.  1.
       -4    1    3    3    0  502  0.38845373901E+03  0.13437253695E+04  0.90280556629E+02  0.14016584348E+04  0.12699999809E+01 0. -1.
</event>
<event>
 5   0  0.3704306E-07  0.3746861E+04  0.7818609E-02  0.8057655E-01
        1   -1    0    0  501    0  0.00000000000E+00  0.00000000000E+00  0.25652016843E+04  0.25652016843E+04  0.50400001928E-02 0. -1.
       -1   -1    0    0    0  501  0.00000000000E+00  0.00000000000E+00 -0.13682129790E+04  0.13682129790E+04  0.50400001928E-02 0.  1.
    10030    2    1    2    0    0  0.00000000000E+00  0.00000000000E+00  0.11969887053E+04  0.39334146633E+04  0.37468612135E+04 0.  0.
        3    1    3    3  502    0 -0.93249138069E+02 -0.17906571811E+04  0.11682830670E+04  0.21401013706E+04  0.10100000352E+00 0.  1.
       -3    1    3    3    0  502  0.93249138069E+02  0.17906571811E+04  0.28705638346E+02  0.17933132927E+04  0.10100000352E+00 0. -1.
</event>
<event>
 5   0  0.3764495E-07  0.3814572E+04  0.7818609E-02  0.8043035E-01
       -1   -1    0    0    0  501  0.00000000000E+00  0.00000000000E+00  0.27919101981E+04  0.27919101981E+04  0.50400001928E-02 0. -1.
        1   -1    0    0  501    0  0.00000000000E+00  0.00000000000E+00 -0.13029570741E+04  0.13029570742E+04  0.50400001928E-02 0.  1.
    10030    2    1    2    0    0  0.00000000000E+00  0.00000000000E+00  0.14889531240E+04  0.40948672723E+04  0.38145716106E+04 0.  0.
        4    1    3    3  502    0  0.54669522692E+03 -0.11998896189E+04 -0.73487377163E+03  0.15095204013E+04  0.12699999809E+01 0.  1.
       -4    1    3    3    0  502 -0.54669522692E+03  0.11998896189E+04  0.22238268956E+04  0.25853468710E+04  0.12699999809E+01 0. -1.
</event>
<event>
 5   0  0.3675819E-07  0.3667134E+04  0.7818609E-02  0.8075285E-01
       -1   -1    0    0    0  501  0.00000000000E+00  0.00000000000E+00  0.18312873040E+04  0.18312873040E+04  0.50400001928E-02 0.  1.
        1   -1    0    0  501    0  0.00000000000E+00  0.00000000000E+00 -0.18358494624E+04  0.18358494624E+04  0.50400001928E-02 0. -1.
    10030    2    1    2    0    0  0.00000000000E+00  0.00000000000E+00 -0.45621584032E+01  0.36671367664E+04  0.36671339286E+04 0.  0.
        5    1    3    3  502    0  0.12803753776E+04 -0.25678894794E+03 -0.12893889283E+04  0.18351696297E+04  0.46999998093E+01 0. -1.
       -5    1    3    3    0  502 -0.12803753776E+04  0.25678894794E+03  0.12848267699E+04  0.18319671367E+04  0.46999998093E+01 0.  1.
</event>
<event>
 5   0  0.3704306E-07  0.3728243E+04  0.7818609E-02  0.8061732E-01
       -1   -1    0    0    0  501  0.00000000000E+00  0.00000000000E+00  0.12911080606E+04  0.12911080606E+04  0.50400001928E-02 0.  1.
        1   -1    0    0  501    0  0.00000000000E+00  0.00000000000E+00 -0.26914468383E+04  0.26914468383E+04  0.50400001928E-02 0. -1.
    10030    2    1    2    0    0  0.00000000000E+00  0.00000000000E+00 -0.14003387777E+04  0.39825548989E+04  0.37282428610E+04 0.  0.
        3    1    3    3  502    0 -0.14703339427E+04  0.21871441238E+03  0.50138228861E+03  0.15687900136E+04  0.10100000352E+00 0.  1.
       -3    1    3    3    0  502  0.14703339427E+04 -0.21871441238E+03 -0.19017210663E+04  0.24137648853E+04  0.10100000352E+00 0. -1.
</event>
<event>
 5   0  0.3675819E-07  0.3956838E+04  0.7818609E-02  0.8013311E-01
       -1   -1    0    0    0  501  0.00000000000E+00  0.00000000000E+00  0.18369543180E+04  0.18369543180E+04  0.50400001928E-02 0.  1.
        1   -1    0    0  501    0  0.00000000000E+00  0.00000000000E+00 -0.21307774840E+04  0.21307774840E+04  0.50400001928E-02 0. -1.
    10030    2    1    2    0    0  0.00000000000E+00  0.00000000000E+00 -0.29382316599E+03  0.39677318020E+04  0.39568375756E+04 0.  0.
        5    1    3    3  502    0  0.10597328746E+04 -0.43541276334E+03  0.14704460577E+04  0.18640954210E+04  0.46999998093E+01 0.  1.
       -5    1    3    3    0  502 -0.10597328746E+04  0.43541276334E+03 -0.17642692237E+04  0.21036363810E+04  0.46999998093E+01 0. -1.
</event>
<event>
 5   0  0.3848431E-07  0.3561040E+04  0.7818609E-02  0.8099475E-01
       -1   -1    0    0    0  501  0.00000000000E+00  0.00000000000E+00  0.16259032622E+04  0.16259032622E+04  0.50400001928E-02 0.  1.
        1   -1    0    0  501    0  0.00000000000E+00  0.00000000000E+00 -0.19498406429E+04  0.19498406429E+04  0.50400001928E-02 0. -1.
    10030    2    1    2    0    0  0.00000000000E+00  0.00000000000E+00 -0.32393738072E+03  0.35757439051E+04  0.35610404446E+04 0.  0.
        2    1    3    3  502    0 -0.16634570443E+04 -0.61221193407E+03 -0.33106672847E+03  0.18031910517E+04  0.25500000920E-02 0. -1.
       -2    1    3    3    0  502  0.16634570443E+04  0.61221193407E+03  0.71293477510E+01  0.17725528534E+04  0.25500000920E-02 0.  1.
</event>
<event>
 5   0  0.3848431E-07  0.3695087E+04  0.7818609E-02  0.8069051E-01
       -1   -1    0    0    0  501  0.00000000000E+00  0.00000000000E+00  0.16401851197E+04  0.16401851197E+04  0.50400001928E-02 0. -1.
        1   -1    0    0  501    0  0.00000000000E+00  0.00000000000E+00 -0.20811170697E+04  0.20811170697E+04  0.50400001928E-02 0.  1.
    10030    2    1    2    0    0  0.00000000000E+00  0.00000000000E+00 -0.44093195004E+03  0.37213021894E+04  0.36950871438E+04 0.  0.
        2    1    3    3  502    0 -0.96725224109E+03 -0.80853526198E+03 -0.15806444390E+04  0.20218167598E+04  0.25500000920E-02 0.  1.
       -2    1    3    3    0  502  0.96725224109E+03  0.80853526198E+03  0.11397124890E+04  0.16994854295E+04  0.25500000920E-02 0. -1.
</event>
<event>
 5   0  0.1128530E-06  0.3615338E+04  0.7818609E-02  0.8086987E-01
       -2   -1    0    0    0  501  0.00000000000E+00  0.00000000000E+00  0.12815667521E+04  0.12815667521E+04  0.25500000920E-02 0. -1.
        2   -1    0    0  501    0  0.00000000000E+00  0.00000000000E+00 -0.25497434306E+04  0.25497434306E+04  0.25500000920E-02 0.  1.
    10030    2    1    2    0    0  0.00000000000E+00  0.00000000000E+00 -0.12681766785E+04  0.38313101827E+04  0.36153375538E+04 0.  0.
        5    1    3    3  502    0  0.27747032415E+03 -0.17542839110E+04 -0.27762789921E+03  0.17976654754E+04  0.46999998093E+01 0. -1.
       -5    1    3    3    0  502 -0.27747032415E+03  0.17542839110E+04 -0.99054877931E+03  0.20336447073E+04  0.46999998093E+01 0.  1.
</event>
<event>
 5   0  0.3704306E-07  0.3851516E+04  0.7818609E-02  0.8035189E-01
       -1   -1    0    0    0  501  0.00000000000E+00  0.00000000000E+00  0.28616035692E+04  0.28616035692E+04  0.50400001928E-02 0. -1.
        1   -1    0    0  501    0  0.00000000000E+00  0.00000000000E+00 -0.12959671566E+04  0.12959671566E+04  0.50400001928E-02 0.  1.
    10030    2    1    2    0    0  0.00000000000E+00  0.00000000000E+00  0.15656364126E+04  0.41575707258E+04  0.38515161902E+04 0.  0.
        3    1    3    3  502    0 -0.14594437070E+04  0.97674767843E+03 -0.70253149614E+02  0.17575401778E+04  0.10100000352E+00 0.  1.
       -3    1    3    3    0  502  0.14594437070E+04 -0.97674767843E+03  0.16358895623E+04  0.24000305480E+04  0.10100000352E+00 0. -1.
</event>
<event>
 5   0  0.1128530E-06  0.2701965E+04  0.7818609E-02  0.8334368E-01
        2   -1    0    0  501    0  0.00000000000E+00  0.00000000000E+00  0.15644353830E+04  0.15644353830E+04  0.25500000920E-02 0.  1.
       -2   -1    0    0    0  501  0.00000000000E+00  0.00000000000E+00 -0.11666537174E+04  0.11666537174E+04  0.25500000920E-02 0. -1.
    10030    2    1    2    0    0  0.00000000000E+00  0.00000000000E+00  0.39778166562E+03  0.27310891004E+04  0.27019654737E+04 0.  0.
        5    1    3    3  502    0  0.70142389098E+03  0.95049912057E+03 -0.46368073208E+03  0.12690413564E+04  0.46999998093E+01 0. -1.
       -5    1    3    3    0  502 -0.70142389098E+03 -0.95049912057E+03  0.86146239770E+03  0.14620477440E+04  0.46999998093E+01 0.  1.
</event>
<event>
 5   0  0.3675819E-07  0.3668842E+04  0.7818609E-02  0.8074902E-01
        1   -1    0    0  501    0  0.00000000000E+00  0.00000000000E+00  0.22783193617E+04  0.22783193617E+04  0.50400001928E-02 0. -1.
       -1   -1    0    0    0  501  0.00000000000E+00  0.00000000000E+00 -0.14770096448E+04  0.14770096448E+04  0.50400001928E-02 0.  1.
    10030    2    1    2    0    0  0.00000000000E+00  0.00000000000E+00  0.80130971685E+03  0.37553290065E+04  0.36688415999E+04 0.  0.
        5    1    3    3  502    0  0.57247317467E+03 -0.11872321736E+03  0.21803948213E+04  0.22574242855E+04  0.46999998093E+01 0. -1.
       -5    1    3    3    0  502 -0.57247317467E+03  0.11872321736E+03 -0.13790851044E+04  0.14979047210E+04  0.46999998093E+01 0.  1.
</event>
<event>
 5   0  0.1066907E-06  0.3863703E+04  0.7818609E-02  0.8032621E-01
       -2   -1    0    0    0  501  0.00000000000E+00  0.00000000000E+00  0.31869705048E+04  0.31869705048E+04  0.25500000920E-02 0.  1.
        2   -1    0    0  501    0  0.00000000000E+00  0.00000000000E+00 -0.11710335653E+04  0.11710335653E+04  0.25500000920E-02 0. -1.
    10030    2    1    2    0    0  0.00000000000E+00  0.00000000000E+00  0.20159369395E+04  0.43580040702E+04  0.38637025936E+04 0.  0.
        4    1    3    3  502    0 -0.31274640589E+03 -0.19008419079E+04  0.11715677871E+04  0.22546802359E+04  0.12699999809E+01 0. -1.
       -4    1    3    3    0  502  0.31274640589E+03  0.19008419079E+04  0.84436915238E+03  0.21033238343E+04  0.12699999809E+01 0.  1.
</event>
<event>
 5   0  0.3764495E-07  0.3700871E+04  0.7818609E-02  0.8067769E-01
        1   -1    0    0  501    0  0.00000000000E+00  0.00000000000E+00  0.24984993999E+04  0.24984993999E+04  0.50400001928E-02 0.  1.
       -1   -1    0    0    0  501  0.00000000000E+00  0.00000000000E+00 -0.13704672892E+04  0.13704672892E+04  0.50400001928E-02 0. -1.
    10030    2    1    2    0    0  0.00000000000E+00  0.00000000000E+00  0.11280321107E+04  0.38689666891E+04  0.37008710864E+04 0.  0.
        4    1    3    3  502    0  0.17515647411E+04 -0.29553321589E+03  0.11060151064E+04  0.20925080531E+04  0.12699999809E+01 0.  1.
       -4    1    3    3    0  502 -0.17515647411E+04  0.29553321589E+03  0.22017004304E+02  0.17764586360E+04  0.12699999809E+01 0. -1.
</event>
<event>
 5   0  0.1066907E-06  0.3548498E+04  0.7818609E-02  0.8102392E-01
       -2   -1    0    0    0  501  0.00000000000E+00  0.00000000000E+00  0.11339815771E+04  0.11339815771E+04  0.25500000920E-02 0.  1.
        2   -1    0    0  501    0  0.00000000000E+00  0.00000000000E+00 -0.27760237679E+04  0.27760237679E+04  0.25500000920E-02 0. -1.
    10030    2    1    2    0    0  0.00000000000E+00  0.00000000000E+00 -0.16420421908E+04  0.39100053450E+04  0.35484981671E+04 0.  0.
        4    1    3    3  502    0  0.16962958583E+04 -0.45726959410E+03 -0.10941509943E+04  0.20697060496E+04  0.12699999809E+01 0. -1.
       -4    1    3    3    0  502 -0.16962958583E+04  0.45726959410E+03 -0.54789119649E+03  0.18402992954E+04  0.12699999809E+01 0.  1.
</event>
<event>
 5   0  0.1051123E-06  0.3658957E+04  0.7818609E-02  0.8077119E-01
       -2   -1    0    0    0  501  0.00000000000E+00  0.00000000000E+00  0.16304801074E+04  0.16304801074E+04  0.25500000920E-02 0.  1.
        2   -1    0    0  501    0  0.00000000000E+00  0.00000000000E+00 -0.20527648840E+04  0.20527648840E+04  0.25500000920E-02 0. -1.
    10030    2    1    2    0    0  0.00000000000E+00  0.00000000000E+00 -0.42228477652E+03  0.36832449914E+04  0.36589573972E+04 0.  0.
        2    1    3    3  502    0 -0.17269164144E+04 -0.10845157749E+03  0.38693118934E+03  0.17730532402E+04  0.25500000920E-02 0.  1.
       -2    1    3    3    0  502  0.17269164144E+04  0.10845157749E+03 -0.80921596586E+03  0.19101917513E+04  0.25500000920E-02 0. -1.
</event>
<event>
 5   0  0.3682276E-07  0.3657419E+04  0.7818609E-02  0.8077464E-01
        1   -1    0    0  501    0  0.00000000000E+00  0.00000000000E+00  0.18075252547E+04  0.18075252547E+04  0.50400001928E-02 0.  1.
       -1   -1    0    0    0  501  0.00000000000E+00  0.00000000000E+00 -0.18501417618E+04  0.18501417618E+04  0.50400001928E-02 0. -1.
    10030    2    1    2    0    0  0.00000000000E+00  0.00000000000E+00 -0.42616507122E+02  0.36576670165E+04  0.36574187396E+04 0.  0.
        1    1    3    3  502    0  0.64409962046E+03  0.16842689137E+04  0.28293577714E+03  0.18252886755E+04  0.50400001928E-02 0.  1.
       -1    1    3    3    0  502 -0.64409962046E+03 -0.16842689137E+04 -0.32555228427E+03  0.18323783410E+04  0.50400001928E-02 0. -1.
</event>
<event>
 5   0  0.3682276E-07  0.3450458E+04  0.7818609E-02  0.8125632E-01
        1   -1    0    0  501    0  0.00000000000E+00  0.00000000000E+00  0.19592957928E+04  0.19592957928E+04  0.50400001928E-02 0.  1.
       -1   -1    0    0    0  501  0.00000000000E+00  0.00000000000E+00 -0.15191249102E+04  0.15191249102E+04  0.50400001928E-02 0. -1.
    10030    2    1    2    0    0  0.00000000000E+00  0.00000000000E+00  0.44017088262E+03  0.34784207029E+04  0.34504579668E+04 0.  0.
        1    1    3    3  502    0  0.99337836818E+03 -0.87815194202E+03 -0.89270055358E+03  0.15983947241E+04  0.50400001928E-02 0. -1.
       -1    1    3    3    0  502 -0.99337836818E+03  0.87815194202E+03  0.13328714362E+04  0.18800259788E+04  0.50400001928E-02 0.  1.
</event>
<event>
 5   0  0.1128530E-06  0.2707100E+04  0.7818609E-02  0.8332705E-01
        2   -1    0    0  501    0  0.00000000000E+00  0.00000000000E+00  0.19007641199E+04  0.19007641199E+04  0.25500000920E-02 0. -1.
       -2   -1    0    0    0  501  0.00000000000E+00  0.00000000000E+00 -0.96387402483E+03  0.96387402483E+03  0.25500000920E-02 0.  1.
    10030    2    1    2    0    0  0.00000000000E+00  0.00000000000E+00  0.93689009509E+03  0.28646381448E+04  0.27070996749E+04 0.  0.
        5    1    3    3  502    0 -0.37194393616E+03 -0.40464522038E+03  0.17773573010E+04  0.18604034808E+04  0.46999998093E+01 0. -1.
       -5    1    3    3    0  502  0.37194393616E+03  0.40464522038E+03 -0.84046720592E+03  0.10042346639E+04  0.46999998093E+01 0.  1.
</event>
<event>
 5   0  0.1128166E-06  0.3240120E+04  0.7818609E-02  0.8178301E-01
        2   -1    0    0  501    0  0.00000000000E+00  0.00000000000E+00  0.16558264974E+04  0.16558264974E+04  0.25500000920E-02 0.  1.
       -2   -1    0    0    0  501  0.00000000000E+00  0.00000000000E+00 -0.15850659075E+04  0.15850659075E+04  0.25500000920E-02 0. -1.
    10030    2    1    2    0    0  0.00000000000E+00  0.00000000000E+00  0.70760589889E+02  0.32408924049E+04  0.32401198310E+04 0.  0.
        3    1    3    3  502    0  0.38260717703E+03 -0.71561760644E+03  0.14378905491E+04  0.16510681549E+04  0.10100000352E+00 0.  1.
       -3    1    3    3    0  502 -0.38260717703E+03  0.71561760644E+03 -0.13671299592E+04  0.15898242501E+04  0.10100000352E+00 0. -1.
</event>
<event>
 5   0  0.1128166E-06  0.2680457E+04  0.7818609E-02  0.8341374E-01
       -2   -1    0    0    0  501  0.00000000000E+00  0.00000000000E+00  0.80872491052E+03  0.80872491052E+03  0.25500000920E-02 0.  1.
        2   -1    0    0  501    0  0.00000000000E+00  0.00000000000E+00 -0.22210420395E+04  0.22210420395E+04  0.25500000920E-02 0. -1.
    10030    2    1    2    0    0  0.00000000000E+00  0.00000000000E+00 -0.14123171290E+04  0.30297669500E+04  0.26804566959E+04 0.  0.
        3    1    3    3  502    0  0.93170938359E+03 -0.19790311659E+03 -0.17718770876E+04  0.20116650921E+04  0.10100000352E+00 0. -1.
       -3    1    3    3    0  502 -0.93170938359E+03  0.19790311659E+03  0.35955995863E+03  0.10181018579E+04  0.10100000352E+00 0.  1.
</event>
<event>
 5   0  0.3848431E-07  0.3448552E+04  0.7818609E-02  0.8126092E-01
        1   -1    0    0  501    0  0.00000000000E+00  0.00000000000E+00  0.30942544215E+04  0.30942544215E+04  0.50400001928E-02 0. -1.
       -1   -1    0    0    0  501  0.00000000000E+00  0.00000000000E+00 -0.96085456207E+03  0.96085456208E+03  0.50400001928E-02 0.  1.
    10030    2    1    2    0    0  0.00000000000E+00  0.00000000000E+00  0.21333998594E+04  0.40551089836E+04  0.34485524367E+04 0.  0.
        2    1    3    3  502    0  0.19104240852E+03 -0.46293411758E+03 -0.87345112863E+03  0.10068376598E+04  0.25500000920E-02 0.  1.
       -2    1    3    3    0  502 -0.19104240852E+03  0.46293411758E+03  0.30068509881E+04  0.30482713238E+04  0.25500000920E-02 0. -1.
</event>
<event>
 5   0  0.1066907E-06  0.3762163E+04  0.7818609E-02  0.8054324E-01
       -2   -1    0    0    0  501  0.00000000000E+00  0.00000000000E+00  0.15336895519E+04  0.15336895519E+04  0.25500000920E-02 0. -1.
        2   -1    0    0  501    0  0.00000000000E+00  0.00000000000E+00 -0.23071606729E+04  0.23071606729E+04  0.25500000920E-02 0.  1.
    10030    2    1    2    0    0  0.00000000000E+00  0.00000000000E+00 -0.77347112101E+03  0.38408502248E+04  0.37621633237E+04 0.  0.
        4    1    3    3  502    0  0.12776943853E+04  0.33057402214E+03 -0.17551751652E+04  0.21960017304E+04  0.12699999809E+01 0.  1.
       -4    1    3    3    0  502 -0.12776943853E+04 -0.33057402214E+03  0.98170404424E+03  0.16448484944E+04  0.12699999809E+01 0. -1.
</event>
<event>
 5   0  0.3704306E-07  0.3711428E+04  0.7818609E-02  0.8065434E-01
       -1   -1    0    0    0  501  0.00000000000E+00  0.00000000000E+00  0.15844217295E+04  0.15844217295E+04  0.50400001928E-02 0. -1.
        1   -1    0    0  501    0  0.00000000000E+00  0.00000000000E+00 -0.21734577184E+04  0.21734577184E+04  0.50400001928E-02 0.  1.
    10030    2    1    2    0    0  0.00000000000E+00  0.00000000000E+00 -0.58903598885E+03  0.37578794479E+04  0.37114275621E+04 0.  0.
        3    1    3    3  502    0  0.53837467248E+03  0.12710536663E+04  0.96126663819E+03  0.16820993641E+04  0.10100000352E+00 0.  1.
       -3    1    3    3    0  502 -0.53837467248E+03 -0.12710536663E+04 -0.15503026270E+04  0.20757800838E+04  0.10100000352E+00 0. -1.
</event>
<event>
 5   0  0.1128166E-06  0.3733144E+04  0.7818609E-02  0.8060656E-01
       -2   -1    0    0    0  501  0.00000000000E+00  0.00000000000E+00  0.19963550858E+04  0.19963550858E+04  0.25500000920E-02 0.  1.
        2   -1    0    0  501    0  0.00000000000E+00  0.00000000000E+00 -0.17452260118E+04  0.17452260118E+04  0.25500000920E-02 0. -1.
    10030    2    1    2    0    0  0.00000000000E+00  0.00000000000E+00  0.25112907396E+03  0.37415810976E+04  0.37331438893E+04 0.  0.
        3    1    3    3  502    0  0.43326977626E+03  0.15461427576E+04  0.10794564212E+04  0.19348142808E+04  0.10100000352E+00 0. -1.
       -3    1    3    3    0  502 -0.43326977626E+03 -0.15461427576E+04 -0.82832734727E+03  0.18067668168E+04  0.10100000352E+00 0.  1.
</event>
<event>
 5   0  0.3682276E-07  0.2610944E+04  0.7818609E-02  0.8364493E-01
       -1   -1    0    0    0  501  0.00000000000E+00  0.00000000000E+00  0.12959477395E+04  0.12959477395E+04  0.50400001928E-02 0. -1.
        1   -1    0    0  501    0  0.00000000000E+00  0.00000000000E+00 -0.13150663189E+04  0.13150663189E+04  0.50400001928E-02 0.  1.
    10030    2    1    2    0    0  0.00000000000E+00  0.00000000000E+00 -0.19118579385E+02  0.26110140583E+04  0.26109440616E+04 0.  0.
        1    1    3    3  502    0  0.44303285226E+03 -0.87101656900E+03 -0.87520900435E+03  0.13118455599E+04  0.50400001928E-02 0.  1.
       -1    1    3    3    0  502 -0.44303285226E+03  0.87101656900E+03  0.85609042497E+03  0.12991684985E+04  0.50400001928E-02 0. -1.
</event>
<event>
 5   0  0.1128530E-06  0.3678828E+04  0.7818609E-02  0.8072670E-01
        2   -1    0    0  501    0  0.00000000000E+00  0.00000000000E+00  0.24945875808E+04  0.24945875808E+04  0.25500000920E-02 0. -1.
       -2   -1    0    0    0  501  0.00000000000E+00  0.00000000000E+00 -0.13563137084E+04  0.13563137084E+04  0.25500000920E-02 0.  1.
    10030    2    1    2    0    0  0.00000000000E+00  0.00000000000E+00  0.11382738723E+04  0.38509012892E+04  0.36788277115E+04 0.  0.
        5    1    3    3  502    0  0.75173294170E+03  0.16787820915E+04  0.57236606520E+03  0.19264051311E+04  0.46999998093E+01 0.  1.
       -5    1    3    3    0  502 -0.75173294170E+03 -0.16787820915E+04  0.56590780712E+03  0.19244961581E+04  0.46999998093E+01 0. -1.
</event>
<event>
 5   0  0.3764495E-07  0.3706231E+04  0.7818609E-02  0.8066582E-01
        1   -1    0    0  501    0  0.00000000000E+00  0.00000000000E+00  0.17874407094E+04  0.17874407094E+04  0.50400001928E-02 0.  1.
       -1   -1    0    0    0  501  0.00000000000E+00  0.00000000000E+00 -0.19212035305E+04  0.19212035305E+04  0.50400001928E-02 0. -1.
    10030    2    1    2    0    0  0.00000000000E+00  0.00000000000E+00 -0.13376282117E+03  0.37086442399E+04  0.37062311863E+04 0.  0.
        4    1    3    3  502    0  0.21966878974E+03 -0.84904894768E+03 -0.17003955823E+04  0.19132394628E+04  0.12699999809E+01 0. -1.
       -4    1    3    3    0  502 -0.21966878974E+03  0.84904894768E+03  0.15666327611E+04  0.17954047772E+04  0.12699999809E+01 0.  1.
</event>
<event>
 5   0  0.1051123E-06  0.2815613E+04  0.7818609E-02  0.8298437E-01
        2   -1    0    0  501    0  0.00000000000E+00  0.00000000000E+00  0.90288456902E+03  0.90288456902E+03  0.25500000920E-02 0.  1.
       -2   -1    0    0    0  501  0.00000000000E+00  0.00000000000E+00 -0.21950969298E+04  0.21950969298E+04  0.25500000920E-02 0. -1.
    10030    2    1    2    0    0  0.00000000000E+00  0.00000000000E+00 -0.12922123608E+04  0.30979814988E+04  0.28156130028E+04 0.  0.
        2    1    3    3  502    0 -0.43335729251E+03  0.18810430136E+03 -0.21052777322E+04  0.21576320588E+04  0.25500000920E-02 0. -1.
       -2    1    3    3    0  502  0.43335729251E+03 -0.18810430136E+03  0.81306537145E+03  0.94034944006E+03  0.25500000920E-02 0.  1.
</event>
<event>
 5   0  0.1128166E-06  0.3729093E+04  0.7818609E-02  0.8061545E-01
        2   -1    0    0  501    0  0.00000000000E+00  0.00000000000E+00  0.20744269879E+04  0.20744269879E+04  0.25500000920E-02 0.  1.
       -2   -1    0    0    0  501  0.00000000000E+00  0.00000000000E+00 -0.16759011360E+04  0.16759011360E+04  0.25500000920E-02 0. -1.
    10030    2    1    2    0    0  0.00000000000E+00  0.00000000000E+00  0.39852585184E+03  0.37503281239E+04  0.37290934800E+04 0.  0.
        3    1    3    3  502    0  0.95514737664E+03 -0.56659015560E+03  0.17055243194E+04  0.20352258179E+04  0.10100000352E+00 0.  1.
       -3    1    3    3    0  502 -0.95514737664E+03  0.56659015560E+03 -0.13069984676E+04  0.17151023060E+04  0.10100000352E+00 0. -1.
</event>
<event>
 5   0  0.3675819E-07  0.3237232E+04  0.7818609E-02  0.8179053E-01
        1   -1    0    0  501    0  0.00000000000E+00  0.00000000000E+00  0.15915866595E+04  0.15915866595E+04  0.50400001928E-02 0.  1.
       -1   -1    0    0    0  501  0.00000000000E+00  0.00000000000E+00 -0.16461047343E+04  0.16461047343E+04  0.50400001928E-02 0. -1.
    10030    2    1    2    0    0  0.00000000000E+00  0.00000000000E+00 -0.54518074732E+02  0.32376913938E+04  0.32372323582E+04 0.  0.
        5    1    3    3  502    0  0.17157375586E+03 -0.75480376099E+03 -0.14489844288E+04  0.16427855113E+04  0.46999998093E+01 0. -1.
       -5    1    3    3    0  502 -0.17157375586E+03  0.75480376099E+03  0.13944663541E+04  0.15949058825E+04  0.46999998093E+01 0.  1.
</event>
<event>
 5   0  0.3848431E-07  0.3612794E+04  0.7818609E-02  0.8087567E-01
       -1   -1    0    0    0  501  0.00000000000E+00  0.00000000000E+00  0.14277037074E+04  0.14277037074E+04  0.50400001928E-02 0. -1.
        1   -1    0    0  501    0  0.00000000000E+00  0.00000000000E+00 -0.22855367275E+04  0.22855367275E+04  0.50400001928E-02 0.  1.
    10030    2    1    2    0    0  0.00000000000E+00  0.00000000000E+00 -0.85783302017E+03  0.37132404349E+04  0.36127935226E+04 0.  0.
        2    1    3    3  502    0 -0.57475854537E+03  0.10577478619E+04  0.95533677366E+03  0.15368299437E+04  0.25500000920E-02 0. -1.
       -2    1    3    3    0  502  0.57475854537E+03 -0.10577478619E+04 -0.18131697938E+04  0.21764104912E+04  0.25500000920E-02 0.  1.
</event>
<event>
 5   0  0.1066907E-06  0.3332619E+04  0.7818609E-02  0.8154645E-01
       -2   -1    0    0    0  501  0.00000000000E+00  0.00000000000E+00  0.99993143491E+03  0.99993143492E+03  0.25500000920E-02 0. -1.
        2   -1    0    0  501    0  0.00000000000E+00  0.00000000000E+00 -0.27767772130E+04  0.27767772130E+04  0.25500000920E-02 0.  1.
    10030    2    1    2    0    0  0.00000000000E+00  0.00000000000E+00 -0.17768457781E+04  0.37767086480E+04  0.33326186839E+04 0.  0.
        4    1    3    3  502    0 -0.10032968020E+04 -0.84651812427E+03  0.27469035390E+03  0.13411389976E+04  0.12699999809E+01 0. -1.
       -4    1    3    3    0  502  0.10032968020E+04  0.84651812427E+03 -0.20515361320E+04  0.24355696503E+04  0.12699999809E+01 0.  1.
</event>
<event>
 5   0  0.1051123E-06  0.3694292E+04  0.7818609E-02  0.8069228E-01
       -2   -1    0    0    0  501  0.00000000000E+00  0.00000000000E+00  0.17470533144E+04  0.17470533144E+04  0.25500000920E-02 0.  1.
        2   -1    0    0  501    0  0.00000000000E+00  0.00000000000E+00 -0.19529733739E+04  0.19529733739E+04  0.25500000920E-02 0. -1.
    10030    2    1    2    0    0  0.00000000000E+00  0.00000000000E+00 -0.20592005947E+03  0.37000266883E+04  0.36942921410E+04 0.  0.
        2    1    3    3  502    0 -0.27355709167E+02  0.80651054882E+03 -0.17670869784E+04  0.19426281140E+04  0.25500000920E-02 0. -1.
       -2    1    3    3    0  502  0.27355709167E+02 -0.80651054882E+03  0.15611669189E+04  0.17573985743E+04  0.25500000920E-02 0.  1.
</event>
<event>
 5   0  0.3848431E-07  0.3151231E+04  0.7818609E-02  0.8201817E-01
       -1   -1    0    0    0  501  0.00000000000E+00  0.00000000000E+00  0.15902479386E+04  0.15902479386E+04  0.50400001928E-02 0. -1.
        1   -1    0    0  501    0  0.00000000000E+00  0.00000000000E+00 -0.15611178539E+04  0.15611178539E+04  0.50400001928E-02 0.  1.
    10030    2    1    2    0    0  0.00000000000E+00  0.00000000000E+00  0.29130084745E+02  0.31513657925E+04  0.31512311557E+04 0.  0.
        2    1    3    3  502    0 -0.52914247540E+03  0.62573602577E+03  0.13603666147E+04  0.15881229989E+04  0.25500000920E-02 0. -1.
       -2    1    3    3    0  502  0.52914247540E+03 -0.62573602577E+03 -0.13312365299E+04  0.15632427936E+04  0.25500000920E-02 0.  1.
</event>
<event>
 5   0  0.1051123E-06  0.3553681E+04  0.7818609E-02  0.8101185E-01
        2   -1    0    0  501    0  0.00000000000E+00  0.00000000000E+00  0.23053730119E+04  0.23053730119E+04  0.25500000920E-02 0. -1.
       -2   -1    0    0    0  501  0.00000000000E+00  0.00000000000E+00 -0.13694802386E+04  0.13694802386E+04  0.25500000920E-02 0.  1.
    10030    2    1    2    0    0  0.00000000000E+00  0.00000000000E+00  0.93589277333E+03  0.36748532505E+04  0.35536813489E+04 0.  0.
        2    1    3    3  502    0 -0.85847970226E+03  0.92374303521E+03  0.17623764206E+04  0.21670854257E+04  0.25500000920E-02 0. -1.
       -2    1    3    3    0  502  0.85847970226E+03 -0.92374303521E+03 -0.82648364727E+03  0.15077678248E+04  0.25500000920E-02 0.  1.
</event>
<event>
 5   0  0.1128530E-06  0.3456720E+04  0.7818609E-02  0.8124124E-01
       -2   -1    0    0    0  501  0.00000000000E+00  0.00000000000E+00  0.14795894940E+04  0.14795894940E+04  0.25500000920E-02 0. -1.
        2   -1    0    0  501    0  0.00000000000E+00  0.00000000000E+00 -0.20189575258E+04  0.20189575258E+04  0.25500000920E-02 0.  1.
    10030    2    1    2    0    0  0.00000000000E+00  0.00000000000E+00 -0.53936803176E+03  0.34985470198E+04  0.34567200315E+04 0.  0.
        5    1    3    3  502    0 -0.66000002596E+03 -0.97231927291E+03  0.10130113205E+04  0.15515214560E+04  0.46999998093E+01 0. -1.
       -5    1    3    3    0  502  0.66000002596E+03  0.97231927291E+03 -0.15523793523E+04  0.19470255638E+04  0.46999998093E+01 0.  1.
</event>
<event>
 5   0  0.1066907E-06  0.2321264E+04  0.7818609E-02  0.8469584E-01
        2   -1    0    0  501    0  0.00000000000E+00  0.00000000000E+00  0.15418361023E+04  0.15418361023E+04  0.25500000920E-02 0.  1.
       -2   -1    0    0    0  501  0.00000000000E+00  0.00000000000E+00 -0.87367712814E+03  0.87367712814E+03  0.25500000920E-02 0. -1.
    10030    2    1    2    0    0  0.00000000000E+00  0.00000000000E+00  0.66815897412E+03  0.24155132304E+04  0.23212642572E+04 0.  0.
        4    1    3    3  502    0 -0.11435594852E+04  0.62955075698E+01  0.54036404563E+03  0.12648173165E+04  0.12699999809E+01 0.  1.
       -4    1    3    3    0  502  0.11435594852E+04 -0.62955075698E+01  0.12779492848E+03  0.11506959139E+04  0.12699999809E+01 0. -1.
</event>
<event>
 5   0  0.1051123E-06  0.3497855E+04  0.7818609E-02  0.8114298E-01
       -2   -1    0    0    0  501  0.00000000000E+00  0.00000000000E+00  0.11707359331E+04  0.11707359331E+04  0.25500000920E-02 0.  1.
        2   -1    0    0  501    0  0.00000000000E+00  0.00000000000E+00 -0.26126708191E+04  0.26126708191E+04  0.25500000920E-02 0. -1.
    10030    2    1    2    0    0  0.00000000000E+00  0.00000000000E+00 -0.14419348859E+04  0.37834067522E+04  0.34978551195E+04 0.  0.
        2    1    3    3  502    0  0.67003501458E+03  0.67818600404E+03 -0.23069074502E+04  0.24961380492E+04  0.25500000920E-02 0. -1.
       -2    1    3    3    0  502 -0.67003501458E+03 -0.67818600404E+03  0.86497256426E+03  0.12872687030E+04  0.25500000920E-02 0.  1.
</event>
<event>
 5   0  0.1128530E-06  0.3680812E+04  0.7818609E-02  0.8072228E-01
        2   -1    0    0  501    0  0.00000000000E+00  0.00000000000E+00  0.20531213963E+04  0.20531213963E+04  0.25500000920E-02 0. -1.
       -2   -1    0    0    0  501  0.00000000000E+00  0.00000000000E+00 -0.16497290166E+04  0.16497290166E+04  0.25500000920E-02 0.  1.
    10030    2    1    2    0    0  0.00000000000E+00  0.00000000000E+00  0.40339237969E+03  0.37028504130E+04  0.36808118356E+04 0.  0.
        5    1    3    3  502    0 -0.17284518268E+03 -0.14148642140E+04 -0.96947178044E+03  0.17238369483E+04  0.46999998093E+01 0.  1.
       -5    1    3    3    0  502  0.17284518268E+03  0.14148642140E+04  0.13728641601E+04  0.19790134647E+04  0.46999998093E+01 0. -1.
</event>
<event>
 5   0  0.3682276E-07  0.3274444E+04  0.7818609E-02  0.8169429E-01
        1   -1    0    0  501    0  0.00000000000E+00  0.00000000000E+00  0.13806286093E+04  0.13806286093E+04  0.50400001928E-02 0. -1.
       -1   -1    0    0    0  501  0.00000000000E+00  0.00000000000E+00 -0.19415036521E+04  0.19415036521E+04  0.50400001928E-02 0.  1.
    10030    2    1    2    0    0  0.00000000000E+00  0.00000000000E+00 -0.56087504282E+03  0.33221322615E+04  0.32744437618E+04 0.  0.
        1    1    3    3  502    0 -0.12647621180E+04  0.60379449134E+03 -0.11391113332E+04  0.18060358890E+04  0.50400001928E-02 0.  1.
       -1    1    3    3    0  502  0.12647621180E+04 -0.60379449134E+03  0.57823629041E+03  0.15160963724E+04  0.50400001928E-02 0. -1.
</event>
<event>
 5   0  0.1128166E-06  0.3766725E+04  0.7818609E-02  0.8053334E-01
        2   -1    0    0  501    0  0.00000000000E+00  0.00000000000E+00  0.12176147903E+04  0.12176147903E+04  0.25500000920E-02 0. -1.
       -2   -1    0    0    0  501  0.00000000000E+00  0.00000000000E+00 -0.29131165238E+04  0.29131165238E+04  0.25500000920E-02 0.  1.
    10030    2    1    2    0    0  0.00000000000E+00  0.00000000000E+00 -0.16955017335E+04  0.41307313141E+04  0.37667247126E+04 0.  0.
        3    1    3    3  502    0 -0.96603846146E+03 -0.60469645621E+03 -0.24920363353E+04  0.27402797704E+04  0.10100000352E+00 0.  1.
       -3    1    3    3    0  502  0.96603846146E+03  0.60469645621E+03  0.79653460185E+03  0.13904515437E+04  0.10100000352E+00 0. -1.
</event>
<event>
 5   0  0.3682276E-07  0.3658875E+04  0.7818609E-02  0.8077137E-01
       -1   -1    0    0    0  501  0.00000000000E+00  0.00000000000E+00  0.13910084754E+04  0.13910084754E+04  0.50400001928E-02 0.  1.
        1   -1    0    0  501    0  0.00000000000E+00  0.00000000000E+00 -0.24060540561E+04  0.24060540561E+04  0.50400001928E-02 0. -1.
    10030    2    1    2    0    0  0.00000000000E+00  0.00000000000E+00 -0.10150455807E+04  0.37970625314E+04  0.36588750097E+04 0.  0.
        1    1    3    3  502    0 -0.27902463353E+03  0.90933760513E+02  0.13664219864E+04  0.13975810316E+04  0.50400001928E-02 0.  1.
       -1    1    3    3    0  502  0.27902463353E+03 -0.90933760513E+02 -0.23814675671E+04  0.23994814998E+04  0.50400001928E-02 0. -1.
</event>
<event>
 5   0  0.1051123E-06  0.3631315E+04  0.7818609E-02  0.8083356E-01
       -2   -1    0    0    0  501  0.00000000000E+00  0.00000000000E+00  0.15924144798E+04  0.15924144799E+04  0.25500000920E-02 0.  1.
        2   -1    0    0  501    0  0.00000000000E+00  0.00000000000E+00 -0.20701967800E+04  0.20701967800E+04  0.25500000920E-02 0. -1.
    10030    2    1    2    0    0  0.00000000000E+00  0.00000000000E+00 -0.47778230016E+03  0.36626112599E+04  0.36313145436E+04 0.  0.
        2    1    3    3  502    0  0.12091330828E+04 -0.10768525620E+04 -0.10675540644E+04  0.19394034992E+04  0.25500000920E-02 0. -1.
       -2    1    3    3    0  502 -0.12091330828E+04  0.10768525620E+04  0.58977176425E+03  0.17232077606E+04  0.25500000920E-02 0.  1.
</event>
<event>
 5   0  0.1128530E-06  0.2274814E+04  0.7818609E-02  0.8487918E-01
       -2   -1    0    0    0  501  0.00000000000E+00  0.00000000000E+00  0.74719335485E+03  0.74719335485E+03  0.25500000920E-02 0.  1.
        2   -1    0    0  501    0  0.00000000000E+00  0.00000000000E+00 -0.17314050844E+04  0.17314050844E+04  0.25500000920E-02 0. -1.
    10030    2    1    2    0    0  0.00000000000E+00  0.00000000000E+00 -0.98421172953E+03  0.24785984392E+04  0.22748137274E+04 0.  0.
        5    1    3    3  502    0 -0.38431350000E+03  0.10701527116E+04 -0.52191728431E+03  0.12511368567E+04  0.46999998093E+01 0.  1.
       -5    1    3    3    0  502  0.38431350000E+03 -0.10701527116E+04 -0.46229444522E+03  0.12274615825E+04  0.46999998093E+01 0. -1.
</event>
<event>
 5   0  0.3704306E-07  0.3750143E+04  0.7818609E-02  0.8056940E-01
       -1   -1    0    0    0  501  0.00000000000E+00  0.00000000000E+00  0.11955960456E+04  0.11955960456E+04  0.50400001928E-02 0. -1.
        1   -1    0    0  501    0  0.00000000000E+00  0.00000000000E+00 -0.29407031040E+04  0.29407031040E+04  0.50400001928E-02 0.  1.
    10030    2    1    2    0    0  0.00000000000E+00  0.00000000000E+00 -0.17451070584E+04  0.41362991496E+04  0.37501429319E+04 0.  0.
        3    1    3    3  502    0  0.14647413805E+03  0.18165955431E+04 -0.38622088848E+03  0.18629655459E+04  0.10100000352E+00 0. -1.
       -3    1    3    3    0  502 -0.14647413805E+03 -0.18165955431E+04 -0.13588861699E+04  0.22733336036E+04  0.10100000352E+00 0.  1.
</event>
<event>
 5   0  0.3682276E-07  0.3396311E+04  0.7818609E-02  0.8138812E-01
        1   -1    0    0  501    0  0.00000000000E+00  0.00000000000E+00  0.14510443162E+04  0.14510443163E+04  0.50400001928E-02 0.  1.
       -1   -1    0    0    0  501  0.00000000000E+00  0.00000000000E+00 -0.19873495978E+04  0.19873495978E+04  0.50400001928E-02 0. -1.
    10030    2    1    2    0    0  0.00000000000E+00  0.00000000000E+00 -0.53630528158E+03  0.34383939141E+04  0.33963111391E+04 0.  0.
        1    1    3    3  502    0  0.20908076439E+03 -0.11789659329E+04 -0.14872564332E+04  0.19093473060E+04  0.50400001928E-02 0. -1.
       -1    1    3    3    0  502 -0.20908076439E+03  0.11789659329E+04  0.95095115163E+03  0.15290466081E+04  0.50400001928E-02 0.  1.
</event>
<event>
 5   0  0.3675819E-07  0.3681112E+04  0.7818609E-02  0.8072161E-01
        1   -1    0    0  501    0  0.00000000000E+00  0.00000000000E+00  0.25587890257E+04  0.25587890257E+04  0.50400001928E-02 0. -1.
       -1   -1    0    0    0  501  0.00000000000E+00  0.00000000000E+00 -0.13239256883E+04  0.13239256883E+04  0.50400001928E-02 0.  1.
    10030    2    1    2    0    0  0.00000000000E+00  0.00000000000E+00  0.12348633374E+04  0.38827147141E+04  0.36811120723E+04 0.  0.
        5    1    3    3  502    0 -0.57790432676E+03 -0.12499059632E+04 -0.67067398931E+03  0.15316866578E+04  0.46999998093E+01 0.  1.
       -5    1    3    3    0  502  0.57790432676E+03  0.12499059632E+04  0.19055373267E+04  0.23510280562E+04  0.46999998093E+01 0. -1.
</event>
<event>
 5   0  0.3704306E-07  0.3238721E+04  0.7818609E-02  0.8178665E-01
       -1   -1    0    0    0  501  0.00000000000E+00  0.00000000000E+00  0.12433526047E+04  0.12433526048E+04  0.50400001928E-02 0. -1.
        1   -1    0    0  501    0  0.00000000000E+00  0.00000000000E+00 -0.21090788580E+04  0.21090788580E+04  0.50400001928E-02 0.  1.
    10030    2    1    2    0    0  0.00000000000E+00  0.00000000000E+00 -0.86572625321E+03  0.33524314627E+04  0.32387211622E+04 0.  0.
        3    1    3    3  502    0 -0.93182509304E+03  0.78386184928E+03  0.67213338582E+03  0.13908632935E+04  0.10100000352E+00 0. -1.
       -3    1    3    3    0  502  0.93182509304E+03 -0.78386184928E+03 -0.15378596390E+04  0.19615681692E+04  0.10100000352E+00 0.  1.
</event>
<event>
 5   0  0.1128530E-06  0.3727669E+04  0.7818609E-02  0.8061858E-01
        2   -1    0    0  501    0  0.00000000000E+00  0.00000000000E+00  0.13879243791E+04  0.13879243791E+04  0.25500000920E-02 0.  1.
       -2   -1    0    0    0  501  0.00000000000E+00  0.00000000000E+00 -0.25029305205E+04  0.25029305205E+04  0.25500000920E-02 0. -1.
    10030    2    1    2    0    0  0.00000000000E+00  0.00000000000E+00 -0.11150061413E+04  0.38908548996E+04  0.37276685950E+04 0.  0.
        5    1    3    3  502    0 -0.95137249889E+03  0.12629477443E+04 -0.15874680489E+04  0.22405855335E+04  0.46999998093E+01 0.  1.
       -5    1    3    3    0  502  0.95137249889E+03 -0.12629477443E+04  0.47246190755E+03  0.16502693661E+04  0.46999998093E+01 0. -1.
</event>
<event>
 5   0  0.1128530E-06  0.3828892E+04  0.7818609E-02  0.8039983E-01
       -2   -1    0    0    0  501  0.00000000000E+00  0.00000000000E+00  0.10668932970E+04  0.10668932970E+04  0.25500000920E-02 0. -1.
        2   -1    0    0  501    0  0.00000000000E+00  0.00000000000E+00 -0.34353046583E+04  0.34353046583E+04  0.25500000920E-02 0.  1.
    10030    2    1    2    0    0  0.00000000000E+00  0.00000000000E+00 -0.23684113613E+04  0.45021979553E+04  0.38288920137E+04 0.  0.
        5    1    3    3  502    0 -0.99241492861E+03 -0.98289360378E+02 -0.31057502484E+04  0.32619403557E+04  0.46999998093E+01 0.  1.
       -5    1    3    3    0  502  0.99241492861E+03  0.98289360378E+02  0.73733888712E+03  0.12402575996E+04  0.46999998093E+01 0. -1.
</event>
<event>
 5   0  0.3682276E-07  0.3640098E+04  0.7818609E-02  0.8081368E-01
        1   -1    0    0  501    0  0.00000000000E+00  0.00000000000E+00  0.21821752115E+04  0.21821752115E+04  0.50400001928E-02 0.  1.
       -1   -1    0    0    0  501  0.00000000000E+00  0.00000000000E+00 -0.15180167080E+04  0.15180167080E+04  0.50400001928E-02 0. -1.
    10030    2    1    2    0    0  0.00000000000E+00  0.00000000000E+00  0.66415850346E+03  0.37001919195E+04  0.36400980376E+04 0.  0.
        1    1    3    3  502    0 -0.35588474867E+03  0.15539499101E+04  0.12247361937E+04  0.20103216214E+04  0.50400001928E-02 0.  1.
       -1    1    3    3    0  502  0.35588474867E+03 -0.15539499101E+04 -0.56057769026E+03  0.16898702981E+04  0.50400001928E-02 0. -1.
</event>
<event>
 5   0  0.3490375E-07  0.3675510E+04  0.7818609E-02  0.8073411E-01
       -3   -1    0    0    0  501  0.00000000000E+00  0.00000000000E+00  0.25402701939E+04  0.25402701959E+04  0.10100000352E+00 0. -1.
        3   -1    0    0  501    0  0.00000000000E+00  0.00000000000E+00 -0.13295212080E+04  0.13295212118E+04  0.10100000352E+00 0.  1.
    10030    2    1    2    0    0  0.00000000000E+00  0.00000000000E+00  0.12107489858E+04  0.38697914077E+04  0.36755098194E+04 0.  0.
        5    1    3    3  502    0  0.15001631663E+04 -0.68633682290E+02  0.17206695985E+04  0.22838402013E+04  0.46999998093E+01 0. -1.
       -5    1    3    3    0  502 -0.15001631663E+04  0.68633682290E+02 -0.50992061263E+03  0.15859512064E+04  0.46999998093E+01 0.  1.
</event>
<event>
 5   0  0.1128166E-06  0.3740746E+04  0.7818609E-02  0.8058991E-01
       -2   -1    0    0    0  501  0.00000000000E+00  0.00000000000E+00  0.16253453843E+04  0.16253453843E+04  0.25500000920E-02 0. -1.
        2   -1    0    0  501    0  0.00000000000E+00  0.00000000000E+00 -0.21523400871E+04  0.21523400871E+04  0.25500000920E-02 0.  1.
    10030    2    1    2    0    0  0.00000000000E+00  0.00000000000E+00 -0.52699470281E+03  0.37776854714E+04  0.37407464635E+04 0.  0.
        3    1    3    3  502    0 -0.63738460590E+03  0.14456370767E+04 -0.12744674036E+04  0.20298750864E+04  0.10100000352E+00 0.  1.
       -3    1    3    3    0  502  0.63738460590E+03 -0.14456370767E+04  0.74747270075E+03  0.17478103850E+04  0.10100000352E+00 0. -1.
</event>
<event>
 5   0  0.1128530E-06  0.4010089E+04  0.7818609E-02  0.8002514E-01
       -2   -1    0    0    0  501  0.00000000000E+00  0.00000000000E+00  0.21706927570E+04  0.21706927570E+04  0.25500000920E-02 0. -1.
        2   -1    0    0  501    0  0.00000000000E+00  0.00000000000E+00 -0.18520374717E+04  0.18520374717E+04  0.25500000920E-02 0.  1.
    10030    2    1    2    0    0  0.00000000000E+00  0.00000000000E+00  0.31865528524E+03  0.40227302287E+04  0.40100894382E+04 0.  0.
        5    1    3    3  502    0 -0.14117243136E+04  0.98415847188E+03 -0.87282232886E+03  0.19296047116E+04  0.46999998093E+01 0.  1.
       -5    1    3    3    0  502  0.14117243136E+04 -0.98415847188E+03  0.11914776141E+04  0.20931255171E+04  0.46999998093E+01 0. -1.
</event>
<event>
 5   0  0.1066907E-06  0.3669678E+04  0.7818609E-02  0.8074715E-01
        2   -1    0    0  501    0  0.00000000000E+00  0.00000000000E+00  0.23253721900E+04  0.23253721900E+04  0.25500000920E-02 0. -1.
       -2   -1    0    0    0  501  0.00000000000E+00  0.00000000000E+00 -0.14477833068E+04  0.14477833068E+04  0.25500000920E-02 0.  1.
    10030    2    1    2    0    0  0.00000000000E+00  0.00000000000E+00  0.87758888317E+03  0.37731554969E+04  0.36696784812E+04 0.  0.
        4    1    3    3  502    0 -0.50801572929E+03 -0.34984262759E+02  0.22512624327E+04  0.23081351853E+04  0.12699999809E+01 0. -1.
       -4    1    3    3    0  502  0.50801572929E+03  0.34984262759E+02 -0.13736735495E+04  0.14650203116E+04  0.12699999809E+01 0.  1.
</event>
<event>
 5   0  0.3704306E-07  0.3683715E+04  0.7818609E-02  0.8071580E-01
       -1   -1    0    0    0  501  0.00000000000E+00  0.00000000000E+00  0.14580921086E+04  0.14580921086E+04  0.50400001928E-02 0.  1.
        1   -1    0    0  501    0  0.00000000000E+00  0.00000000000E+00 -0.23266289079E+04  0.23266289079E+04  0.50400001928E-02 0. -1.
    10030    2    1    2    0    0  0.00000000000E+00  0.00000000000E+00 -0.86853679930E+03  0.37847210166E+04  0.36837151086E+04 0.  0.
        3    1    3    3  502    0 -0.15355456647E+04 -0.10031975916E+04 -0.26193934111E+03  0.18528135699E+04  0.10100000352E+00 0.  1.
       -3    1    3    3    0  502  0.15355456647E+04  0.10031975916E+04 -0.60659745819E+03  0.19319074467E+04  0.10100000352E+00 0. -1.
</event>
<event>
 5   0  0.3764495E-07  0.3605539E+04  0.7818609E-02  0.8089224E-01
        1   -1    0    0  501    0  0.00000000000E+00  0.00000000000E+00  0.14672517494E+04  0.14672517494E+04  0.50400001928E-02 0.  1.
       -1   -1    0    0    0  501  0.00000000000E+00  0.00000000000E+00 -0.22150098310E+04  0.22150098310E+04  0.50400001928E-02 0. -1.
    10030    2    1    2    0    0  0.00000000000E+00  0.00000000000E+00 -0.74775808167E+03  0.36822615804E+04  0.36055385448E+04 0.  0.
        4    1    3    3  502    0 -0.13344006147E+04 -0.62591347021E+03  0.68627704802E+03  0.16258445413E+04  0.12699999809E+01 0.  1.
       -4    1    3    3    0  502  0.13344006147E+04  0.62591347021E+03 -0.14340351297E+04  0.20564170391E+04  0.12699999809E+01 0. -1.
</event>
<event>
 5   0  0.3764495E-07  0.3651199E+04  0.7818609E-02  0.8078864E-01
        1   -1    0    0  501    0  0.00000000000E+00  0.00000000000E+00  0.18651553327E+04  0.18651553327E+04  0.50400001928E-02 0.  1.
       -1   -1    0    0    0  501  0.00000000000E+00  0.00000000000E+00 -0.17868823426E+04  0.17868823427E+04  0.50400001928E-02 0. -1.
    10030    2    1    2    0    0  0.00000000000E+00  0.00000000000E+00  0.78272990023E+02  0.36520376753E+04  0.36511987786E+04 0.  0.
        4    1    3    3  502    0 -0.11523332896E+04 -0.99119393467E+03  0.10505434313E+04  0.18476960086E+04  0.12699999809E+01 0.  1.
       -4    1    3    3    0  502  0.11523332896E+04  0.99119393467E+03 -0.97227044128E+03  0.18043416667E+04  0.12699999809E+01 0. -1.
</event>
<event>
 5   0  0.3682276E-07  0.3469787E+04  0.7818609E-02  0.8120988E-01
       -1   -1    0    0    0  501  0.00000000000E+00  0.00000000000E+00  0.33824135044E+04  0.33824135044E+04  0.50400001928E-02 0. -1.
        1   -1    0    0  501    0  0.00000000000E+00  0.00000000000E+00 -0.88985416267E+03  0.88985416269E+03  0.50400001928E-02 0.  1.
    10030    2    1    2    0    0  0.00000000000E+00  0.00000000000E+00  0.24925593417E+04  0.42722676671E+04  0.34697865853E+04 0.  0.
        1    1    3    3  502    0 -0.16414828863E+04 -0.41944309398E+03  0.17060855762E+04  0.24043973400E+04  0.50400001928E-02 0.  1.
       -1    1    3    3    0  502  0.16414828863E+04  0.41944309398E+03  0.78647376553E+03  0.18678703271E+04  0.50400001928E-02 0. -1.
</event>
<event>
 5   0  0.3682276E-07  0.3565678E+04  0.7818609E-02  0.8098399E-01
       -1   -1    0    0    0  501  0.00000000000E+00  0.00000000000E+00  0.22623404936E+04  0.22623404936E+04  0.50400001928E-02 0.  1.
        1   -1    0    0  501    0  0.00000000000E+00  0.00000000000E+00 -0.14049672952E+04  0.14049672952E+04  0.50400001928E-02 0. -1.
    10030    2    1    2    0    0  0.00000000000E+00  0.00000000000E+00  0.85737319841E+03  0.36673077887E+04  0.35656777218E+04 0.  0.
        1    1    3    3  502    0 -0.74270901700E+03  0.53339871462E+03 -0.11454204951E+04  0.14656462681E+04  0.50400001928E-02 0. -1.
       -1    1    3    3    0  502  0.74270901700E+03 -0.53339871462E+03  0.20027936935E+04  0.22016615206E+04  0.50400001928E-02 0.  1.
</event>
<event>
 5   0  0.3675819E-07  0.3671043E+04  0.7818609E-02  0.8074409E-01
       -1   -1    0    0    0  501  0.00000000000E+00  0.00000000000E+00  0.22427979592E+04  0.22427979592E+04  0.50400001928E-02 0.  1.
        1   -1    0    0  501    0  0.00000000000E+00  0.00000000000E+00 -0.15022039791E+04  0.15022039791E+04  0.50400001928E-02 0. -1.
    10030    2    1    2    0    0  0.00000000000E+00  0.00000000000E+00  0.74059398007E+03  0.37450019383E+04  0.36710434585E+04 0.  0.
        5    1    3    3  502    0 -0.68843930453E+03 -0.55985680348E+03  0.20094439744E+04  0.21966509720E+04  0.46999998093E+01 0.  1.
       -5    1    3    3    0  502  0.68843930453E+03  0.55985680348E+03 -0.12688499944E+04  0.15483509662E+04  0.46999998093E+01 0. -1.
</event>
<event>
 5   0  0.1066907E-06  0.3727699E+04  0.7818609E-02  0.8061851E-01
        2   -1    0    0  501    0  0.00000000000E+00  0.00000000000E+00  0.32146721181E+04  0.32146721181E+04  0.25500000920E-02 0.  1.
       -2   -1    0    0    0  501  0.00000000000E+00  0.00000000000E+00 -0.10806495890E+04  0.10806495890E+04  0.25500000920E-02 0. -1.
    10030    2    1    2    0    0  0.00000000000E+00  0.00000000000E+00  0.21340225291E+04  0.42953217072E+04  0.37276985411E+04 0.  0.
        4    1    3    3  502    0 -0.75513973407E+03  0.13066831454E+04 -0.19327888220E+03  0.15215174004E+04  0.12699999809E+01 0. -1.
       -4    1    3    3    0  502  0.75513973407E+03 -0.13066831454E+04  0.23273014113E+04  0.27738043068E+04  0.12699999809E+01 0.  1.
</event>
<event>
 5   0  0.3490375E-07  0.3017511E+04  0.7818609E-02  0.8238748E-01
        3   -1    0    0  501    0  0.00000000000E+00  0.00000000000E+00  0.19829143770E+04  0.19829143796E+04  0.10100000352E+00 0. -1.
       -3   -1    0    0    0  501  0.00000000000E+00  0.00000000000E+00 -0.11479789158E+04  0.11479789202E+04  0.10100000352E+00 0.  1.
    10030    2    1    2    0    0  0.00000000000E+00  0.00000000000E+00  0.83493546127E+03  0.31308932998E+04  0.30175114963E+04 0.  0.
        5    1    3    3  502    0  0.92728373570E+03  0.10284140978E+04 -0.20406555667E+03  0.13996983691E+04  0.46999998093E+01 0.  1.
       -5    1    3    3    0  502 -0.92728373570E+03 -0.10284140978E+04  0.10390010179E+04  0.17311949308E+04  0.46999998093E+01 0. -1.
</event>
<event>
 5   0  0.1066907E-06  0.3683499E+04  0.7818609E-02  0.8071628E-01
       -2   -1    0    0    0  501  0.00000000000E+00  0.00000000000E+00  0.30710883394E+04  0.30710883394E+04  0.25500000920E-02 0. -1.
        2   -1    0    0  501    0  0.00000000000E+00  0.00000000000E+00 -0.11045081167E+04  0.11045081167E+04  0.25500000920E-02 0.  1.
    10030    2    1    2    0    0  0.00000000000E+00  0.00000000000E+00  0.19665802228E+04  0.41755964561E+04  0.36834994220E+04 0.  0.
        4    1    3    3  502    0  0.10423398632E+04 -0.64533747639E+02 -0.73641621341E+03  0.12778683216E+04  0.12699999809E+01 0.  1.
       -4    1    3    3    0  502 -0.10423398632E+04  0.64533747639E+02  0.27029964362E+04  0.28977281346E+04  0.12699999809E+01 0. -1.
</event>
<event>
 5   0  0.3682276E-07  0.2358205E+04  0.7818609E-02  0.8455319E-01
        1   -1    0    0  501    0  0.00000000000E+00  0.00000000000E+00  0.21051617739E+04  0.21051617739E+04  0.50400001928E-02 0. -1.
       -1   -1    0    0    0  501  0.00000000000E+00  0.00000000000E+00 -0.66041635230E+03  0.66041635232E+03  0.50400001928E-02 0.  1.
    10030    2    1    2    0    0  0.00000000000E+00  0.00000000000E+00  0.14447454216E+04  0.27655781263E+04  0.23582054701E+04 0.  0.
        1    1    3    3  502    0 -0.10630076112E+04  0.28141816332E+03  0.22329774304E+03  0.11220709630E+04  0.50400001928E-02 0.  1.
       -1    1    3    3    0  502  0.10630076112E+04 -0.28141816332E+03  0.12214476786E+04  0.16435071632E+04  0.50400001928E-02 0. -1.
</event>
<event>
 5   0  0.1092116E-06  0.3712005E+04  0.7818609E-02  0.8065307E-01
       -2   -1    0    0    0  501  0.00000000000E+00  0.00000000000E+00  0.26400646436E+04  0.26400646436E+04  0.25500000920E-02 0. -1.
        2   -1    0    0  501    0  0.00000000000E+00  0.00000000000E+00 -0.13047958496E+04  0.13047958496E+04  0.25500000920E-02 0.  1.
    10030    2    1    2    0    0  0.00000000000E+00  0.00000000000E+00  0.13352687940E+04  0.39448604932E+04  0.37120050591E+04 0.  0.
        1    1    3    3  502    0  0.16963302307E+03 -0.94879994235E+03 -0.10179741242E+04  0.14018801698E+04  0.50400001928E-02 0.  1.
       -1    1    3    3    0  502 -0.16963302307E+03  0.94879994235E+03  0.23532429181E+04  0.25429803233E+04  0.50400001928E-02 0. -1.
</event>
<event>
 5   0  0.3704306E-07  0.3739789E+04  0.7818609E-02  0.8059201E-01
        1   -1    0    0  501    0  0.00000000000E+00  0.00000000000E+00  0.21311517610E+04  0.21311517610E+04  0.50400001928E-02 0. -1.
       -1   -1    0    0    0  501  0.00000000000E+00  0.00000000000E+00 -0.16406647031E+04  0.16406647031E+04  0.50400001928E-02 0.  1.
    10030    2    1    2    0    0  0.00000000000E+00  0.00000000000E+00  0.49048705787E+03  0.37718164642E+04  0.37397890161E+04 0.  0.
        3    1    3    3  502    0 -0.17300949849E+04  0.57065180152E+03  0.67031863686E+03  0.19411850042E+04  0.10100000352E+00 0.  1.
       -3    1    3    3    0  502  0.17300949849E+04 -0.57065180152E+03 -0.17983157899E+03  0.18306314600E+04  0.10100000352E+00 0. -1.
</event>
<event>
 5   0  0.1051123E-06  0.3783389E+04  0.7818609E-02  0.8049729E-01
       -2   -1    0    0    0  501  0.00000000000E+00  0.00000000000E+00  0.16285438325E+04  0.16285438325E+04  0.25500000920E-02 0.  1.
        2   -1    0    0  501    0  0.00000000000E+00  0.00000000000E+00 -0.21973670467E+04  0.21973670467E+04  0.25500000920E-02 0. -1.
    10030    2    1    2    0    0  0.00000000000E+00  0.00000000000E+00 -0.56882321424E+03  0.38259108792E+04  0.37833892486E+04 0.  0.
        2    1    3    3  502    0 -0.93060990155E+03  0.16433453788E+04 -0.17414606952E+03  0.18965615404E+04  0.25500000920E-02 0. -1.
       -2    1    3    3    0  502  0.93060990155E+03 -0.16433453788E+04 -0.39467714473E+03  0.19293493389E+04  0.25500000920E-02 0.  1.
</event>
<event>
 5   0  0.3682276E-07  0.3781148E+04  0.7818609E-02  0.8050213E-01
        1   -1    0    0  501    0  0.00000000000E+00  0.00000000000E+00  0.15249320072E+04  0.15249320072E+04  0.50400001928E-02 0.  1.
       -1   -1    0    0    0  501  0.00000000000E+00  0.00000000000E+00 -0.23438883872E+04  0.23438883872E+04  0.50400001928E-02 0. -1.
    10030    2    1    2    0    0  0.00000000000E+00  0.00000000000E+00 -0.81895637995E+03  0.38688203944E+04  0.37811481976E+04 0.  0.
        1    1    3    3  502    0  0.96255677210E+03 -0.11724071056E+04  0.74505385565E+03  0.16900175172E+04  0.50400001928E-02 0.  1.
       -1    1    3    3    0  502 -0.96255677210E+03  0.11724071056E+04 -0.15640102356E+04  0.21788028772E+04  0.50400001928E-02 0. -1.
</event>
<event>
 5   0  0.3675819E-07  0.3867940E+04  0.7818609E-02  0.8031730E-01
        1   -1    0    0  501    0  0.00000000000E+00  0.00000000000E+00  0.20168182305E+04  0.20168182305E+04  0.50400001928E-02 0. -1.
       -1   -1    0    0    0  501  0.00000000000E+00  0.00000000000E+00 -0.18545247472E+04  0.18545247472E+04  0.50400001928E-02 0.  1.
    10030    2    1    2    0    0  0.00000000000E+00  0.00000000000E+00  0.16229348338E+03  0.38713429777E+04  0.38679396681E+04 0.  0.
        5    1    3    3  502    0 -0.14604887878E+04 -0.26646517340E+03  0.13216670111E+04  0.19876762730E+04  0.46999998093E+01 0. -1.
       -5    1    3    3    0  502  0.14604887878E+04  0.26646517340E+03 -0.11593735277E+04  0.18836667048E+04  0.46999998093E+01 0.  1.
</event>
<event>
 5   0  0.3682276E-07  0.3669807E+04  0.7818609E-02  0.8074686E-01
       -1   -1    0    0    0  501  0.00000000000E+00  0.00000000000E+00  0.16015172646E+04  0.16015172647E+04  0.50400001928E-02 0. -1.
        1   -1    0    0  501    0  0.00000000000E+00  0.00000000000E+00 -0.21023005027E+04  0.21023005027E+04  0.50400001928E-02 0.  1.
    10030    2    1    2    0    0  0.00000000000E+00  0.00000000000E+00 -0.50078323801E+03  0.37038177673E+04  0.36698068344E+04 0.  0.
        1    1    3    3  502    0  0.15856198760E+04 -0.53318412269E+03  0.51051519443E+03  0.17490287201E+04  0.50400001928E-02 0. -1.
       -1    1    3    3    0  502 -0.15856198760E+04  0.53318412269E+03 -0.10112984324E+04  0.19547890473E+04  0.50400001928E-02 0.  1.
</event>
<event>
 5   0  0.1128530E-06  0.3771976E+04  0.7818609E-02  0.8052196E-01
       -2   -1    0    0    0  501  0.00000000000E+00  0.00000000000E+00  0.29449948710E+04  0.29449948710E+04  0.25500000920E-02 0.  1.
        2   -1    0    0  501    0  0.00000000000E+00  0.00000000000E+00 -0.12077949171E+04  0.12077949171E+04  0.25500000920E-02 0. -1.
    10030    2    1    2    0    0  0.00000000000E+00  0.00000000000E+00  0.17371999539E+04  0.41527897880E+04  0.37719755227E+04 0.  0.
        5    1    3    3  502    0  0.29227176183E+03 -0.96143305388E+03  0.26257080167E+04  0.28114304151E+04  0.46999998093E+01 0.  1.
       -5    1    3    3    0  502 -0.29227176183E+03  0.96143305388E+03 -0.88850806278E+03  0.13413593730E+04  0.46999998093E+01 0. -1.
</event>
<event>
 5   0  0.1128166E-06  0.3686951E+04  0.7818609E-02  0.8070860E-01
        2   -1    0    0  501    0  0.00000000000E+00  0.00000000000E+00  0.14771250291E+04  0.14771250291E+04  0.25500000920E-02 0. -1.
       -2   -1    0    0    0  501  0.00000000000E+00  0.00000000000E+00 -0.23006870874E+04  0.23006870874E+04  0.25500000920E-02 0.  1.
    10030    2    1    2    0    0  0.00000000000E+00  0.00000000000E+00 -0.82356205825E+03  0.37778121165E+04  0.36869513048E+04 0.  0.
        3    1    3    3  502    0 -0.54076569571E+03  0.97556458784E+03  0.10921255873E+04  0.15610548073E+04  0.10100000352E+00 0. -1.
       -3    1    3    3    0  502  0.54076569571E+03 -0.97556458784E+03 -0.19156876455E+04  0.22167573093E+04  0.10100000352E+00 0.  1.
</event>
<event>
 5   0  0.1092116E-06  0.3727695E+04  0.7818609E-02  0.8061852E-01
        2   -1    0    0  501    0  0.00000000000E+00  0.00000000000E+00  0.11820488374E+04  0.11820488374E+04  0.25500000920E-02 0. -1.
       -2   -1    0    0    0  501  0.00000000000E+00  0.00000000000E+00 -0.29389038967E+04  0.29389038967E+04  0.25500000920E-02 0.  1.
    10030    2    1    2    0    0  0.00000000000E+00  0.00000000000E+00 -0.17568550593E+04  0.41209527342E+04  0.37276952313E+04 0.  0.
        1    1    3    3  502    0 -0.71152465274E+03  0.31827098425E+03  0.99321506165E+03  0.12625529334E+04  0.50400001928E-02 0. -1.
       -1    1    3    3    0  502  0.71152465274E+03 -0.31827098425E+03 -0.27500701210E+04  0.28583998008E+04  0.50400001928E-02 0.  1.
</event>
<event>
 5   0  0.5496953E-07  0.2327816E+04  0.7818609E-02  0.8467034E-01
        1   -1    0    0  501    0  0.00000000000E+00  0.00000000000E+00  0.11771145315E+04  0.11771145315E+04  0.50400001928E-02 0. -1.
       -1   -1    0    0    0  501  0.00000000000E+00  0.00000000000E+00 -0.11508491692E+04  0.11508491692E+04  0.50400001928E-02 0.  1.
    10030    2    1    2    0    0  0.00000000000E+00  0.00000000000E+00  0.26265362289E+02  0.23279637008E+04  0.23278155259E+04 0.  0.
        2    1    3    3  502    0 -0.11020720234E+04 -0.30002068923E+02  0.38627626726E+03  0.11681918608E+04  0.25500000920E-02 0. -1.
       -2    1    3    3    0  502  0.11020720234E+04  0.30002068923E+02 -0.36001090498E+03  0.11597718399E+04  0.25500000920E-02 0.  1.
</event>
<event>
 5   0  0.3682276E-07  0.3853867E+04  0.7818609E-02  0.8034693E-01
        1   -1    0    0  501    0  0.00000000000E+00  0.00000000000E+00  0.23527986978E+04  0.23527986978E+04  0.50400001928E-02 0. -1.
       -1   -1    0    0    0  501  0.00000000000E+00  0.00000000000E+00 -0.15781513107E+04  0.15781513108E+04  0.50400001928E-02 0.  1.
    10030    2    1    2    0    0  0.00000000000E+00  0.00000000000E+00  0.77464738701E+03  0.39309500085E+04  0.38538668108E+04 0.  0.
        1    1    3    3  502    0 -0.14840630435E+04 -0.45183578681E+03 -0.77854904518E+03  0.17357238579E+04  0.50400001928E-02 0.  1.
       -1    1    3    3    0  502  0.14840630435E+04  0.45183578681E+03  0.15531964322E+04  0.21952261506E+04  0.50400001928E-02 0. -1.
</event>
<event>
 5   0  0.1128530E-06  0.3417121E+04  0.7818609E-02  0.8133717E-01
       -2   -1    0    0    0  501  0.00000000000E+00  0.00000000000E+00  0.16331932664E+04  0.16331932664E+04  0.25500000920E-02 0. -1.
        2   -1    0    0  501    0  0.00000000000E+00  0.00000000000E+00 -0.17874053698E+04  0.17874053698E+04  0.25500000920E-02 0.  1.
    10030    2    1    2    0    0  0.00000000000E+00  0.00000000000E+00 -0.15421210335E+03  0.34205986362E+04  0.34171206677E+04 0.  0.
        5    1    3    3  502    0  0.42985708320E+03  0.23768580717E+03 -0.17151959704E+04  0.17841499269E+04  0.46999998093E+01 0.  1.
       -5    1    3    3    0  502 -0.42985708320E+03 -0.23768580717E+03  0.15609838671E+04  0.16364487093E+04  0.46999998093E+01 0. -1.
</event>
<event>
 5   0  0.3675819E-07  0.3333854E+04  0.7818609E-02  0.8154334E-01
        1   -1    0    0  501    0  0.00000000000E+00  0.00000000000E+00  0.20763503224E+04  0.20763503224E+04  0.50400001928E-02 0. -1.
       -1   -1    0    0    0  501  0.00000000000E+00  0.00000000000E+00 -0.13382354119E+04  0.13382354119E+04  0.50400001928E-02 0.  1.
    10030    2    1    2    0    0  0.00000000000E+00  0.00000000000E+00  0.73811491046E+03  0.34145857343E+04  0.33338539434E+04 0.  0.
        5    1    3    3  502    0 -0.18088907582E+03 -0.14209322223E+04  0.12422602249E+04  0.18960489958E+04  0.46999998093E+01 0. -1.
       -5    1    3    3    0  502  0.18088907582E+03  0.14209322223E+04 -0.50414531446E+03  0.15185367385E+04  0.46999998093E+01 0.  1.
</event>
<event>
 5   0  0.3764495E-07  0.2894460E+04  0.7818609E-02  0.8274528E-01
       -1   -1    0    0    0  501  0.00000000000E+00  0.00000000000E+00  0.24737073211E+04  0.24737073211E+04  0.50400001928E-02 0. -1.
        1   -1    0    0  501    0  0.00000000000E+00  0.00000000000E+00 -0.84669444771E+03  0.84669444772E+03  0.50400001928E-02 0.  1.
    10030    2    1    2    0    0  0.00000000000E+00  0.00000000000E+00  0.16270128734E+04  0.33204017688E+04  0.28944597106E+04 0.  0.
        4    1    3    3  502    0  0.85357095685E+03  0.11313388999E+04  0.11498439143E+04  0.18250078698E+04  0.12699999809E+01 0. -1.
       -4    1    3    3    0  502 -0.85357095685E+03 -0.11313388999E+04  0.47716895911E+03  0.14953938990E+04  0.12699999809E+01 0.  1.
</event>
<event>
 5   0  0.1128530E-06  0.3162907E+04  0.7818609E-02  0.8198682E-01
       -2   -1    0    0    0  501  0.00000000000E+00  0.00000000000E+00  0.95262554116E+03  0.95262554116E+03  0.25500000920E-02 0.  1.
        2   -1    0    0  501    0  0.00000000000E+00  0.00000000000E+00 -0.26253714181E+04  0.26253714181E+04  0.25500000920E-02 0. -1.
    10030    2    1    2    0    0  0.00000000000E+00  0.00000000000E+00 -0.16727458769E+04  0.35779969593E+04  0.31629074396E+04 0.  0.
        5    1    3    3  502    0  0.98218654063E+03  0.54403532791E+02  0.56440856698E+03  0.11341204810E+04  0.46999998093E+01 0.  1.
       -5    1    3    3    0  502 -0.98218654063E+03 -0.54403532791E+02 -0.22371544439E+04  0.24438764782E+04  0.46999998093E+01 0. -1.
</event>
<event>
 5   0  0.1128530E-06  0.3682820E+04  0.7818609E-02  0.8071780E-01
        2   -1    0    0  501    0  0.00000000000E+00  0.00000000000E+00  0.29493211056E+04  0.29493211056E+04  0.25500000920E-02 0. -1.
       -2   -1    0    0    0  501  0.00000000000E+00  0.00000000000E+00 -0.11496851198E+04  0.11496851198E+04  0.25500000920E-02 0.  1.
    10030    2    1    2    0    0  0.00000000000E+00  0.00000000000E+00  0.17996359858E+04  0.40990062255E+04  0.36828198918E+04 0.  0.
        5    1    3    3  502    0 -0.12372791044E+04  0.33248985978E+03 -0.57228305015E+03  0.14031888926E+04  0.46999998093E+01 0.  1.
       -5    1    3    3    0  502  0.12372791044E+04 -0.33248985978E+03  0.23719190359E+04  0.26958173328E+04  0.46999998093E+01 0. -1.
</event>
<event>
 5   0  0.1066907E-06  0.3159629E+04  0.7818609E-02  0.8199561E-01
        2   -1    0    0  501    0  0.00000000000E+00  0.00000000000E+00  0.23553068632E+04  0.23553068632E+04  0.25500000920E-02 0.  1.
       -2   -1    0    0    0  501  0.00000000000E+00  0.00000000000E+00 -0.10596552070E+04  0.10596552070E+04  0.25500000920E-02 0. -1.
    10030    2    1    2    0    0  0.00000000000E+00  0.00000000000E+00  0.12956516562E+04  0.34149620702E+04  0.31596285741E+04 0.  0.
        4    1    3    3  502    0  0.28386572249E+03  0.12093144557E+04  0.17028162836E+04  0.21077490623E+04  0.12699999809E+01 0.  1.
       -4    1    3    3    0  502 -0.28386572249E+03 -0.12093144557E+04 -0.40716462732E+03  0.13072130078E+04  0.12699999809E+01 0. -1.
</event>
<event>
 5   0  0.1092116E-06  0.3601434E+04  0.7818609E-02  0.8090163E-01
        2   -1    0    0  501    0  0.00000000000E+00  0.00000000000E+00  0.12440542775E+04  0.12440542775E+04  0.25500000920E-02 0. -1.
       -2   -1    0    0    0  501  0.00000000000E+00  0.00000000000E+00 -0.26064628002E+04  0.26064628002E+04  0.25500000920E-02 0.  1.
    10030    2    1    2    0    0  0.00000000000E+00  0.00000000000E+00 -0.13624085227E+04  0.38505170777E+04  0.36014337122E+04 0.  0.
        1    1    3    3  502    0 -0.14449949878E+04  0.10511488345E+04 -0.44295419441E+03  0.18409597512E+04  0.50400001928E-02 0. -1.
       -1    1    3    3    0  502  0.14449949878E+04 -0.10511488345E+04 -0.91945432829E+03  0.20095573266E+04  0.50400001928E-02 0.  1.
</event>
<event>
 5   0  0.1092116E-06  0.2404711E+04  0.7818609E-02  0.8437742E-01
        2   -1    0    0  501    0  0.00000000000E+00  0.00000000000E+00  0.12076796768E+04  0.12076796768E+04  0.25500000920E-02 0.  1.
       -2   -1    0    0    0  501  0.00000000000E+00  0.00000000000E+00 -0.11970550411E+04  0.11970550411E+04  0.25500000920E-02 0. -1.
    10030    2    1    2    0    0  0.00000000000E+00  0.00000000000E+00  0.10624635707E+02  0.24047347179E+04  0.24047112468E+04 0.  0.
        1    1    3    3  502    0  0.34263276812E+03 -0.78864447445E+03  0.84573810993E+03  0.12060805410E+04  0.50400001928E-02 0.  1.
       -1    1    3    3    0  502 -0.34263276812E+03  0.78864447445E+03 -0.83511347423E+03  0.11986541769E+04  0.50400001928E-02 0. -1.
</event>
<event>
 5   0  0.3848431E-07  0.3723888E+04  0.7818609E-02  0.8062688E-01
       -1   -1    0    0    0  501  0.00000000000E+00  0.00000000000E+00  0.17466088073E+04  0.17466088073E+04  0.50400001928E-02 0. -1.
        1   -1    0    0  501    0  0.00000000000E+00  0.00000000000E+00 -0.19848954076E+04  0.19848954076E+04  0.50400001928E-02 0.  1.
    10030    2    1    2    0    0  0.00000000000E+00  0.00000000000E+00 -0.23828660032E+03  0.37315042148E+04  0.37238881833E+04 0.  0.
        2    1    3    3  502    0  0.12367633312E+04  0.30088859459E+02 -0.15135160584E+04  0.19547940393E+04  0.25500000920E-02 0. -1.
       -2    1    3    3    0  502 -0.12367633312E+04 -0.30088859459E+02  0.12752294581E+04  0.17767101755E+04  0.25500000920E-02 0.  1.
</event>
<event>
 5   0  0.1092116E-06  0.3702585E+04  0.7818609E-02  0.8067389E-01
       -2   -1    0    0    0  501  0.00000000000E+00  0.00000000000E+00  0.14908511419E+04  0.14908511419E+04  0.25500000920E-02 0.  1.
        2   -1    0    0  501    0  0.00000000000E+00  0.00000000000E+00 -0.22988769307E+04  0.22988769307E+04  0.25500000920E-02 0. -1.
    10030    2    1    2    0    0  0.00000000000E+00  0.00000000000E+00 -0.80802578876E+03  0.37897280726E+04  0.37025846633E+04 0.  0.
        1    1    3    3  502    0 -0.13020925481E+04 -0.50933692433E+03 -0.16460027487E+04  0.21596745484E+04  0.50400001928E-02 0. -1.
       -1    1    3    3    0  502  0.13020925481E+04  0.50933692433E+03  0.83797695992E+03  0.16300535242E+04  0.50400001928E-02 0.  1.
</event>
<event>
 5   0  0.3675819E-07  0.2761831E+04  0.7818609E-02  0.8315217E-01
        1   -1    0    0  501    0  0.00000000000E+00  0.00000000000E+00  0.27646019948E+04  0.27646019948E+04  0.50400001928E-02 0.  1.
       -1   -1    0    0    0  501  0.00000000000E+00  0.00000000000E+00 -0.68976590301E+03  0.68976590303E+03  0.50400001928E-02 0. -1.
    10030    2    1    2    0    0  0.00000000000E+00  0.00000000000E+00  0.20748360918E+04  0.34543678979E+04  0.27618314152E+04 0.  0.
        5    1    3    3  502    0  0.72089766816E+03  0.45477516903E+02 -0.43461973515E+03  0.84301723392E+03  0.46999998093E+01 0. -1.
       -5    1    3    3    0  502 -0.72089766816E+03 -0.45477516903E+02  0.25094558270E+04  0.26113506639E+04  0.46999998093E+01 0.  1.
</event>
<event>
 5   0  0.3675819E-07  0.2597719E+04  0.7818609E-02  0.8368976E-01
        1   -1    0    0  501    0  0.00000000000E+00  0.00000000000E+00  0.16324226958E+04  0.16324226958E+04  0.50400001928E-02 0.  1.
       -1   -1    0    0    0  501  0.00000000000E+00  0.00000000000E+00 -0.10334554022E+04  0.10334554022E+04  0.50400001928E-02 0. -1.
    10030    2    1    2    0    0  0.00000000000E+00  0.00000000000E+00  0.59896729365E+03  0.26658780980E+04  0.25977190407E+04 0.  0.
        5    1    3    3  502    0 -0.13814331575E+03  0.10611368671E+04  0.10549502543E+04  0.15026766637E+04  0.46999998093E+01 0.  1.
       -5    1    3    3    0  502  0.13814331575E+03 -0.10611368671E+04 -0.45598296068E+03  0.11632014343E+04  0.46999998093E+01 0. -1.
</event>
<event>
 5   0  0.1066907E-06  0.2384512E+04  0.7818609E-02  0.8445325E-01
        2   -1    0    0  501    0  0.00000000000E+00  0.00000000000E+00  0.12580053812E+04  0.12580053812E+04  0.25500000920E-02 0.  1.
       -2   -1    0    0    0  501  0.00000000000E+00  0.00000000000E+00 -0.11299426596E+04  0.11299426596E+04  0.25500000920E-02 0. -1.
    10030    2    1    2    0    0  0.00000000000E+00  0.00000000000E+00  0.12806272164E+03  0.23879480408E+04  0.23845116450E+04 0.  0.
        4    1    3    3  502    0  0.24307709381E+03  0.80576160214E+03  0.90972103326E+03  0.12393273193E+04  0.12699999809E+01 0.  1.
       -4    1    3    3    0  502 -0.24307709381E+03 -0.80576160214E+03 -0.78165831161E+03  0.11486207216E+04  0.12699999809E+01 0. -1.
</event>
<event>
 5   0  0.3682276E-07  0.3561367E+04  0.7818609E-02  0.8099399E-01
        1   -1    0    0  501    0  0.00000000000E+00  0.00000000000E+00  0.21128304087E+04  0.21128304087E+04  0.50400001928E-02 0. -1.
       -1   -1    0    0    0  501  0.00000000000E+00  0.00000000000E+00 -0.15007518183E+04  0.15007518183E+04  0.50400001928E-02 0.  1.
    10030    2    1    2    0    0  0.00000000000E+00  0.00000000000E+00  0.61207859038E+03  0.36135822270E+04  0.35613671968E+04 0.  0.
        1    1    3    3  502    0 -0.51895442325E+03  0.29236831623E+03 -0.13966707018E+04  0.15183813668E+04  0.50400001928E-02 0.  1.
       -1    1    3    3    0  502  0.51895442325E+03 -0.29236831623E+03  0.20087492922E+04  0.20952008602E+04  0.50400001928E-02 0. -1.
</event>
<event>
 5   0  0.1128166E-06  0.3675820E+04  0.7818609E-02  0.8073342E-01
       -2   -1    0    0    0  501  0.00000000000E+00  0.00000000000E+00  0.19981985427E+04  0.19981985427E+04  0.25500000920E-02 0.  1.
        2   -1    0    0  501    0  0.00000000000E+00  0.00000000000E+00 -0.16904793630E+04  0.16904793630E+04  0.25500000920E-02 0. -1.
    10030    2    1    2    0    0  0.00000000000E+00  0.00000000000E+00  0.30771917973E+03  0.36886779057E+04  0.36758201260E+04 0.  0.
        3    1    3    3  502    0  0.42420982650E+03 -0.71150562570E+02  0.19469778707E+04  0.19939255800E+04  0.10100000352E+00 0.  1.
       -3    1    3    3    0  502 -0.42420982650E+03  0.71150562570E+02 -0.16392586910E+04  0.16947523257E+04  0.10100000352E+00 0. -1.
</event>
<event>
 5   0  0.1128166E-06  0.3631625E+04  0.7818609E-02  0.8083286E-01
        2   -1    0    0  501    0  0.00000000000E+00  0.00000000000E+00  0.15524329023E+04  0.15524329023E+04  0.25500000920E-02 0.  1.
       -2   -1    0    0    0  501  0.00000000000E+00  0.00000000000E+00 -0.21238756123E+04  0.21238756123E+04  0.25500000920E-02 0. -1.
    10030    2    1    2    0    0  0.00000000000E+00  0.00000000000E+00 -0.57144270992E+03  0.36763085146E+04  0.36316246397E+04 0.  0.
        3    1    3    3  502    0 -0.94428526699E+03 -0.10805347599E+02 -0.18557338550E+04  0.20821958534E+04  0.10100000352E+00 0. -1.
       -3    1    3    3    0  502  0.94428526699E+03  0.10805347599E+02  0.12842911451E+04  0.15941126612E+04  0.10100000352E+00 0.  1.
</event>
<event>
 5   0  0.1128166E-06  0.3639437E+04  0.7818609E-02  0.8081517E-01
       -2   -1    0    0    0  501  0.00000000000E+00  0.00000000000E+00  0.21218434816E+04  0.21218434816E+04  0.25500000920E-02 0. -1.
        2   -1    0    0  501    0  0.00000000000E+00  0.00000000000E+00 -0.15606124912E+04  0.15606124912E+04  0.25500000920E-02 0.  1.
    10030    2    1    2    0    0  0.00000000000E+00  0.00000000000E+00  0.56123099042E+03  0.36824559728E+04  0.36394370124E+04 0.  0.
        3    1    3    3  502    0 -0.16668755090E+04 -0.65106607074E+03  0.61469156727E+03  0.18921434206E+04  0.10100000352E+00 0.  1.
       -3    1    3    3    0  502  0.16668755090E+04  0.65106607074E+03 -0.53460576857E+02  0.17903125522E+04  0.10100000352E+00 0. -1.
</event>
<event>
 5   0  0.3848431E-07  0.2381500E+04  0.7818609E-02  0.8446462E-01
       -1   -1    0    0    0  501  0.00000000000E+00  0.00000000000E+00  0.51585609334E+03  0.51585609336E+03  0.50400001928E-02 0.  1.
        1   -1    0    0  501    0  0.00000000000E+00  0.00000000000E+00 -0.27486074015E+04  0.27486074015E+04  0.50400001928E-02 0. -1.
    10030    2    1    2    0    0  0.00000000000E+00  0.00000000000E+00 -0.22327513081E+04  0.32644634948E+04  0.23815002635E+04 0.  0.
        2    1    3    3  502    0 -0.13794790150E+03  0.10286696590E+04 -0.31627605416E+03  0.10849983563E+04  0.25500000920E-02 0.  1.
       -2    1    3    3    0  502  0.13794790150E+03 -0.10286696590E+04 -0.19164752540E+04  0.21794651385E+04  0.25500000920E-02 0. -1.
</event>
<event>
 5   0  0.1128530E-06  0.2407778E+04  0.7818609E-02  0.8436597E-01
       -2   -1    0    0    0  501  0.00000000000E+00  0.00000000000E+00  0.13421017246E+04  0.13421017246E+04  0.25500000920E-02 0.  1.
        2   -1    0    0  501    0  0.00000000000E+00  0.00000000000E+00 -0.10799093875E+04  0.10799093875E+04  0.25500000920E-02 0. -1.
    10030    2    1    2    0    0  0.00000000000E+00  0.00000000000E+00  0.26219233718E+03  0.24220111121E+04  0.24077776072E+04 0.  0.
        5    1    3    3  502    0 -0.86876623668E+03  0.57523290599E+03 -0.47552640692E+03  0.11453362492E+04  0.46999998093E+01 0. -1.
       -5    1    3    3    0  502  0.86876623668E+03 -0.57523290599E+03  0.73771874409E+03  0.12766748629E+04  0.46999998093E+01 0.  1.
</event>
<event>
 5   0  0.1128530E-06  0.2275332E+04  0.7818609E-02  0.8487711E-01
        2   -1    0    0  501    0  0.00000000000E+00  0.00000000000E+00  0.97654825564E+03  0.97654825564E+03  0.25500000920E-02 0. -1.
       -2   -1    0    0    0  501  0.00000000000E+00  0.00000000000E+00 -0.13253666219E+04  0.13253666219E+04  0.25500000920E-02 0.  1.
    10030    2    1    2    0    0  0.00000000000E+00  0.00000000000E+00 -0.34881836629E+03  0.23019148776E+04  0.22753324704E+04 0.  0.
        5    1    3    3  502    0 -0.94644998572E+03  0.17519235932E+03  0.43914326747E+03  0.10579833825E+04  0.46999998093E+01 0. -1.
       -5    1    3    3    0  502  0.94644998572E+03 -0.17519235932E+03 -0.78796163376E+03  0.12439314951E+04  0.46999998093E+01 0.  1.
</event>
<event>
 5   0  0.1066907E-06  0.3718278E+04  0.7818609E-02  0.8063923E-01
        2   -1    0    0  501    0  0.00000000000E+00  0.00000000000E+00  0.21971186485E+04  0.21971186485E+04  0.25500000920E-02 0. -1.
       -2   -1    0    0    0  501  0.00000000000E+00  0.00000000000E+00 -0.15731506330E+04  0.15731506330E+04  0.25500000920E-02 0.  1.
    10030    2    1    2    0    0  0.00000000000E+00  0.00000000000E+00  0.62396801547E+03  0.37702692815E+04  0.37182784149E+04 0.  0.
        4    1    3    3  502    0 -0.31558666139E+02  0.11413368057E+04  0.17997252311E+04  0.21313512554E+04  0.12699999809E+01 0. -1.
       -4    1    3    3    0  502  0.31558666139E+02 -0.11413368057E+04 -0.11757572156E+04  0.16389180261E+04  0.12699999809E+01 0.  1.
</event>
<event>
 5   0  0.1066907E-06  0.3797502E+04  0.7818609E-02  0.8046691E-01
        2   -1    0    0  501    0  0.00000000000E+00  0.00000000000E+00  0.12322738334E+04  0.12322738334E+04  0.25500000920E-02 0. -1.
       -2   -1    0    0    0  501  0.00000000000E+00  0.00000000000E+00 -0.29256940466E+04  0.29256940466E+04  0.25500000920E-02 0.  1.
    10030    2    1    2    0    0  0.00000000000E+00  0.00000000000E+00 -0.16934202132E+04  0.41579678800E+04  0.37975024519E+04 0.  0.
        4    1    3    3  502    0 -0.38555286748E+03 -0.15602708513E+04  0.26027602828E+03  0.16281404629E+04  0.12699999809E+01 0. -1.
       -4    1    3    3    0  502  0.38555286748E+03  0.15602708513E+04 -0.19536962415E+04  0.25298274170E+04  0.12699999809E+01 0.  1.
</event>
<event>
 5   0  0.3764495E-07  0.3689475E+04  0.7818609E-02  0.8070298E-01
       -1   -1    0    0    0  501  0.00000000000E+00  0.00000000000E+00  0.15179783829E+04  0.15179783829E+04  0.50400001928E-02 0.  1.
        1   -1    0    0  501    0  0.00000000000E+00  0.00000000000E+00 -0.22418345308E+04  0.22418345308E+04  0.50400001928E-02 0. -1.
    10030    2    1    2    0    0  0.00000000000E+00  0.00000000000E+00 -0.72385614789E+03  0.37598129137E+04  0.36894749522E+04 0.  0.
        4    1    3    3  502    0  0.58018268936E+03 -0.16744256769E+04  0.16042716967E+03  0.17793402683E+04  0.12699999809E+01 0.  1.
       -4    1    3    3    0  502 -0.58018268936E+03  0.16744256769E+04 -0.88428331756E+03  0.19804726454E+04  0.12699999809E+01 0. -1.
</event>
<event>
 5   0  0.1128166E-06  0.3602569E+04  0.7818609E-02  0.8089904E-01
        2   -1    0    0  501    0  0.00000000000E+00  0.00000000000E+00  0.23902028202E+04  0.23902028202E+04  0.25500000920E-02 0.  1.
       -2   -1    0    0    0  501  0.00000000000E+00  0.00000000000E+00 -0.13574687843E+04  0.13574687843E+04  0.25500000920E-02 0. -1.
    10030    2    1    2    0    0  0.00000000000E+00  0.00000000000E+00  0.10327340359E+04  0.37476716045E+04  0.36025689259E+04 0.  0.
        3    1    3    3  502    0 -0.62192670066E+03  0.10024288714E+04 -0.89969845838E+03  0.14836151082E+04  0.10100000352E+00 0. -1.
       -3    1    3    3    0  502  0.62192670066E+03 -0.10024288714E+04  0.19324324943E+04  0.22640564962E+04  0.10100000352E+00 0.  1.
</event>
<event>
 5   0  0.3764495E-07  0.2921786E+04  0.7818609E-02  0.8266425E-01
       -1   -1    0    0    0  501  0.00000000000E+00  0.00000000000E+00  0.15891200273E+04  0.15891200273E+04  0.50400001928E-02 0.  1.
        1   -1    0    0  501    0  0.00000000000E+00  0.00000000000E+00 -0.13430123816E+04  0.13430123816E+04  0.50400001928E-02 0. -1.
    10030    2    1    2    0    0  0.00000000000E+00  0.00000000000E+00  0.24610764575E+03  0.29321324089E+04  0.29217856680E+04 0.  0.
        4    1    3    3  502    0 -0.14024207185E+04 -0.36079235713E+03  0.31674316550E+03  0.14823234608E+04  0.12699999809E+01 0.  1.
       -4    1    3    3    0  502  0.14024207185E+04  0.36079235713E+03 -0.70635519756E+02  0.14498089481E+04  0.12699999809E+01 0. -1.
</event>
<event>
 5   0  0.1092116E-06  0.3721074E+04  0.7818609E-02  0.8063308E-01
       -2   -1    0    0    0  501  0.00000000000E+00  0.00000000000E+00  0.12080274782E+04  0.12080274782E+04  0.25500000920E-02 0. -1.
        2   -1    0    0  501    0  0.00000000000E+00  0.00000000000E+00 -0.28654954268E+04  0.28654954268E+04  0.25500000920E-02 0.  1.
    10030    2    1    2    0    0  0.00000000000E+00  0.00000000000E+00 -0.16574679486E+04  0.40735229050E+04  0.37210736162E+04 0.  0.
        1    1    3    3  502    0 -0.17935249779E+03 -0.41252026828E+03  0.11476039253E+04  0.12326131022E+04  0.50400001928E-02 0. -1.
       -1    1    3    3    0  502  0.17935249779E+03  0.41252026828E+03 -0.28050718739E+04  0.28409098028E+04  0.50400001928E-02 0.  1.
</event>
<event>
 5   0  0.1051123E-06  0.3477482E+04  0.7818609E-02  0.8119147E-01
       -2   -1    0    0    0  501  0.00000000000E+00  0.00000000000E+00  0.10585501991E+04  0.10585501991E+04  0.25500000920E-02 0.  1.
        2   -1    0    0  501    0  0.00000000000E+00  0.00000000000E+00 -0.28560007751E+04  0.28560007751E+04  0.25500000920E-02 0. -1.
    10030    2    1    2    0    0  0.00000000000E+00  0.00000000000E+00 -0.17974505760E+04  0.39145509742E+04  0.34774819564E+04 0.  0.
        2    1    3    3  502    0 -0.67888044267E+03 -0.30497945447E+03 -0.26676386059E+04  0.27695102193E+04  0.25500000920E-02 0. -1.
       -2    1    3    3    0  502  0.67888044267E+03  0.30497945447E+03  0.87018802992E+03  0.11450407550E+04  0.25500000920E-02 0.  1.
</event>
<event>
 5   0  0.3682276E-07  0.3125641E+04  0.7818609E-02  0.8208736E-01
        1   -1    0    0  501    0  0.00000000000E+00  0.00000000000E+00  0.11624945447E+04  0.11624945447E+04  0.50400001928E-02 0. -1.
       -1   -1    0    0    0  501  0.00000000000E+00  0.00000000000E+00 -0.21010058182E+04  0.21010058182E+04  0.50400001928E-02 0.  1.
    10030    2    1    2    0    0  0.00000000000E+00  0.00000000000E+00 -0.93851127355E+03  0.32635003630E+04  0.31256409276E+04 0.  0.
        1    1    3    3  502    0  0.45310240539E+03  0.48893740896E+02  0.10915746825E+04  0.11828895448E+04  0.50400001928E-02 0. -1.
       -1    1    3    3    0  502 -0.45310240539E+03 -0.48893740896E+02 -0.20300859561E+04  0.20806108182E+04  0.50400001928E-02 0.  1.
</event>
<event>
 5   0  0.3848431E-07  0.2421613E+04  0.7818609E-02  0.8431456E-01
       -1   -1    0    0    0  501  0.00000000000E+00  0.00000000000E+00  0.23617686279E+04  0.23617686279E+04  0.50400001928E-02 0.  1.
        1   -1    0    0  501    0  0.00000000000E+00  0.00000000000E+00 -0.62074341566E+03  0.62074341568E+03  0.50400001928E-02 0. -1.
    10030    2    1    2    0    0  0.00000000000E+00  0.00000000000E+00  0.17410252122E+04  0.29825120436E+04  0.24216129543E+04 0.  0.
        2    1    3    3  502    0 -0.11050701495E+04  0.46556111074E+03  0.66396277867E+03  0.13706836814E+04  0.25500000920E-02 0. -1.
       -2    1    3    3    0  502  0.11050701495E+04 -0.46556111074E+03  0.10770624336E+04  0.16118283621E+04  0.25500000920E-02 0.  1.
</event>
<event>
 5   0  0.1066907E-06  0.4016540E+04  0.7818609E-02  0.8001218E-01
        2   -1    0    0  501    0  0.00000000000E+00  0.00000000000E+00  0.17375024134E+04  0.17375024134E+04  0.25500000920E-02 0. -1.
       -2   -1    0    0    0  501  0.00000000000E+00  0.00000000000E+00 -0.23212328300E+04  0.23212328300E+04  0.25500000920E-02 0.  1.
    10030    2    1    2    0    0  0.00000000000E+00  0.00000000000E+00 -0.58373041661E+03  0.40587352434E+04  0.40165396272E+04 0.  0.
        4    1    3    3  502    0  0.76187634345E+03  0.41045706543E+03  0.15394136751E+04  0.17659916877E+04  0.12699999809E+01 0. -1.
       -4    1    3    3    0  502 -0.76187634345E+03 -0.41045706543E+03 -0.21231440917E+04  0.22927435557E+04  0.12699999809E+01 0.  1.
</event>
<event>
 5   0  0.1066907E-06  0.2429755E+04  0.7818609E-02  0.8428447E-01
        2   -1    0    0  501    0  0.00000000000E+00  0.00000000000E+00  0.16690232772E+04  0.16690232772E+04  0.25500000920E-02 0. -1.
       -2   -1    0    0    0  501  0.00000000000E+00  0.00000000000E+00 -0.88430629900E+03  0.88430629901E+03  0.25500000920E-02 0.  1.
    10030    2    1    2    0    0  0.00000000000E+00  0.00000000000E+00  0.78471697824E+03  0.25533295763E+04  0.24297553764E+04 0.  0.
        4    1    3    3  502    0 -0.11781983894E+04  0.21528120581E+03  0.17846616601E+03  0.12109290762E+04  0.12699999809E+01 0. -1.
       -4    1    3    3    0  502  0.11781983894E+04 -0.21528120581E+03  0.60625081223E+03  0.13424005000E+04  0.12699999809E+01 0.  1.
</event>
<event>
 5   0  0.3764495E-07  0.3715799E+04  0.7818609E-02  0.8064470E-01
        1   -1    0    0  501    0  0.00000000000E+00  0.00000000000E+00  0.21501516219E+04  0.21501516219E+04  0.50400001928E-02 0. -1.
       -1   -1    0    0    0  501  0.00000000000E+00  0.00000000000E+00 -0.16053707109E+04  0.16053707109E+04  0.50400001928E-02 0.  1.
    10030    2    1    2    0    0  0.00000000000E+00  0.00000000000E+00  0.54478091097E+03  0.37555223328E+04  0.37157989385E+04 0.  0.
        4    1    3    3  502    0  0.13512580449E+04 -0.69838924450E+03  0.13506332272E+04  0.20341724529E+04  0.12699999809E+01 0. -1.
       -4    1    3    3    0  502 -0.13512580449E+04  0.69838924450E+03 -0.80585231623E+03  0.17213498799E+04  0.12699999809E+01 0.  1.
</event>
<event>
 5   0  0.3848431E-07  0.3333243E+04  0.7818609E-02  0.8154488E-01
       -1   -1    0    0    0  501  0.00000000000E+00  0.00000000000E+00  0.19032231983E+04  0.19032231983E+04  0.50400001928E-02 0.  1.
        1   -1    0    0  501    0  0.00000000000E+00  0.00000000000E+00 -0.14594329264E+04  0.14594329264E+04  0.50400001928E-02 0. -1.
    10030    2    1    2    0    0  0.00000000000E+00  0.00000000000E+00  0.44379027185E+03  0.33626561247E+04  0.33332426266E+04 0.  0.
        2    1    3    3  502    0 -0.15027268029E+04 -0.20465718882E+03 -0.47525587495E+03  0.15893207844E+04  0.25500000920E-02 0. -1.
       -2    1    3    3    0  502  0.15027268029E+04  0.20465718882E+03  0.91904614680E+03  0.17733353403E+04  0.25500000920E-02 0.  1.
</event>
<event>
 5   0  0.1128530E-06  0.3547073E+04  0.7818609E-02  0.8102724E-01
       -2   -1    0    0    0  501  0.00000000000E+00  0.00000000000E+00  0.20623437005E+04  0.20623437005E+04  0.25500000920E-02 0. -1.
        2   -1    0    0  501    0  0.00000000000E+00  0.00000000000E+00 -0.15251730556E+04  0.15251730556E+04  0.25500000920E-02 0.  1.
    10030    2    1    2    0    0  0.00000000000E+00  0.00000000000E+00  0.53717064489E+03  0.35875167561E+04  0.35470726203E+04 0.  0.
        5    1    3    3  502    0 -0.14034025090E+04  0.83432861126E+03  0.96913452962E+03  0.18986539074E+04  0.46999998093E+01 0. -1.
       -5    1    3    3    0  502  0.14034025090E+04 -0.83432861126E+03 -0.43196388473E+03  0.16888628486E+04  0.46999998093E+01 0.  1.
</event>
<event>
 5   0  0.1128530E-06  0.3627652E+04  0.7818609E-02  0.8084187E-01
        2   -1    0    0  501    0  0.00000000000E+00  0.00000000000E+00  0.22925742129E+04  0.22925742129E+04  0.25500000920E-02 0. -1.
       -2   -1    0    0    0  501  0.00000000000E+00  0.00000000000E+00 -0.14350530469E+04  0.14350530469E+04  0.25500000920E-02 0.  1.
    10030    2    1    2    0    0  0.00000000000E+00  0.00000000000E+00  0.85752116606E+03  0.37276272598E+04  0.36276524693E+04 0.  0.
        5    1    3    3  502    0  0.67818354174E+03  0.16821349220E+04  0.40738568846E+03  0.18588964472E+04  0.46999998093E+01 0. -1.
       -5    1    3    3    0  502 -0.67818354174E+03 -0.16821349220E+04  0.45013547760E+03  0.18687308127E+04  0.46999998093E+01 0.  1.
</event>
<event>
 5   0  0.3675819E-07  0.3689692E+04  0.7818609E-02  0.8070250E-01
       -1   -1    0    0    0  501  0.00000000000E+00  0.00000000000E+00  0.13036756983E+04  0.13036756983E+04  0.50400001928E-02 0.  1.
        1   -1    0    0  501    0  0.00000000000E+00  0.00000000000E+00 -0.26106615017E+04  0.26106615017E+04  0.50400001928E-02 0. -1.
    10030    2    1    2    0    0  0.00000000000E+00  0.00000000000E+00 -0.13069858034E+04  0.39143372001E+04  0.36896915624E+04 0.  0.
        5    1    3    3  502    0 -0.16444644806E+04  0.40946491166E+03  0.11994144206E+03  0.16989211227E+04  0.46999998093E+01 0.  1.
       -5    1    3    3    0  502  0.16444644806E+04 -0.40946491166E+03 -0.14269272455E+04  0.22154160773E+04  0.46999998093E+01 0. -1.
</event>
<event>
 5   0  0.1051123E-06  0.3490712E+04  0.7818609E-02  0.8115995E-01
       -2   -1    0    0    0  501  0.00000000000E+00  0.00000000000E+00  0.16361433536E+04  0.16361433536E+04  0.25500000920E-02 0.  1.
        2   -1    0    0  501    0  0.00000000000E+00  0.00000000000E+00 -0.18618582371E+04  0.18618582371E+04  0.25500000920E-02 0. -1.
    10030    2    1    2    0    0  0.00000000000E+00  0.00000000000E+00 -0.22571488345E+03  0.34980015907E+04  0.34907116638E+04 0.  0.
        2    1    3    3  502    0  0.44330204021E+03 -0.95743054204E+03 -0.15061124298E+04  0.18389030950E+04  0.25500000920E-02 0. -1.
       -2    1    3    3    0  502 -0.44330204021E+03  0.95743054204E+03  0.12803975464E+04  0.16590984957E+04  0.25500000920E-02 0.  1.
</event>
<event>
 5   0  0.3682276E-07  0.3708766E+04  0.7818609E-02  0.8066022E-01
        1   -1    0    0  501    0  0.00000000000E+00  0.00000000000E+00  0.20528253952E+04  0.20528253952E+04  0.50400001928E-02 0.  1.
       -1   -1    0    0    0  501  0.00000000000E+00  0.00000000000E+00 -0.16751239292E+04  0.16751239292E+04  0.50400001928E-02 0. -1.
    10030    2    1    2    0    0  0.00000000000E+00  0.00000000000E+00  0.37770146607E+03  0.37279493244E+04  0.37087663404E+04 0.  0.
        1    1    3    3  502    0 -0.38229275665E+03 -0.11072413585E+04 -0.12561542528E+04  0.17175723230E+04  0.50400001928E-02 0. -1.
       -1    1    3    3    0  502  0.38229275665E+03  0.11072413585E+04  0.16338557189E+04  0.20103770014E+04  0.50400001928E-02 0.  1.
</event>
<event>
 5   0  0.1128166E-06  0.3826121E+04  0.7818609E-02  0.8040572E-01
       -2   -1    0    0    0  501  0.00000000000E+00  0.00000000000E+00  0.18262375940E+04  0.18262375940E+04  0.25500000920E-02 0. -1.
        2   -1    0    0  501    0  0.00000000000E+00  0.00000000000E+00 -0.20040115876E+04  0.20040115876E+04  0.25500000920E-02 0.  1.
    10030    2    1    2    0    0  0.00000000000E+00  0.00000000000E+00 -0.17777399363E+03  0.38302491816E+04  0.38261214304E+04 0.  0.
        3    1    3    3  502    0 -0.13783433384E+03  0.45628508926E+03 -0.19436153670E+04  0.20012084078E+04  0.10100000352E+00 0.  1.
       -3    1    3    3    0  502  0.13783433384E+03 -0.45628508926E+03  0.17658413734E+04  0.18290407738E+04  0.10100000352E+00 0. -1.
</event>
<event>
 5   0  0.3490375E-07  0.3141084E+04  0.7818609E-02  0.8204552E-01
       -4   -1    0    0    0  501  0.00000000000E+00  0.00000000000E+00  0.14893895846E+04  0.14893901261E+04  0.12699999809E+01 0.  1.
        4   -1    0    0  501    0  0.00000000000E+00  0.00000000000E+00 -0.16561154850E+04  0.16561159720E+04  0.12699999809E+01 0. -1.
    10030    2    1    2    0    0  0.00000000000E+00  0.00000000000E+00 -0.16672590037E+03  0.31455060980E+04  0.31410843807E+04 0.  0.
        4    1    3    3  502    0 -0.13555310165E+04  0.75291133164E+03  0.16651054466E+03  0.15595086355E+04  0.12699999809E+01 0. -1.
       -4    1    3    3    0  502  0.13555310165E+04 -0.75291133164E+03 -0.33323644503E+03  0.15859974625E+04  0.12699999809E+01 0.  1.
</event>
<event>
 5   0  0.1051123E-06  0.3477464E+04  0.7818609E-02  0.8119152E-01
        2   -1    0    0  501    0  0.00000000000E+00  0.00000000000E+00  0.27154191845E+04  0.27154191845E+04  0.25500000920E-02 0.  1.
       -2   -1    0    0    0  501  0.00000000000E+00  0.00000000000E+00 -0.11133413152E+04  0.11133413152E+04  0.25500000920E-02 0. -1.
    10030    2    1    2    0    0  0.00000000000E+00  0.00000000000E+00  0.16020778693E+04  0.38287604997E+04  0.34774636539E+04 0.  0.
        2    1    3    3  502    0 -0.14216594792E+04 -0.38695289409E+03 -0.21544864022E+03  0.14890488016E+04  0.25500000920E-02 0. -1.
       -2    1    3    3    0  502  0.14216594792E+04  0.38695289409E+03  0.18175265095E+04  0.23397116980E+04  0.25500000920E-02 0.  1.
</event>
<event>
 5   0  0.3704306E-07  0.3404378E+04  0.7818609E-02  0.8136833E-01
        1   -1    0    0  501    0  0.00000000000E+00  0.00000000000E+00  0.22802158329E+04  0.22802158329E+04  0.50400001928E-02 0.  1.
       -1   -1    0    0    0  501  0.00000000000E+00  0.00000000000E+00 -0.12706899607E+04  0.12706899608E+04  0.50400001928E-02 0. -1.
    10030    2    1    2    0    0  0.00000000000E+00  0.00000000000E+00  0.10095258721E+04  0.35509057936E+04  0.34043779856E+04 0.  0.
        3    1    3    3  502    0  0.10580795199E+04  0.49452010988E+03 -0.78682548390E+03  0.14082530887E+04  0.10100000352E+00 0. -1.
       -3    1    3    3    0  502 -0.10580795199E+04 -0.49452010988E+03  0.17963513560E+04  0.21426527049E+04  0.10100000352E+00 0.  1.
</event>
<event>
 5   0  0.1051123E-06  0.4042131E+04  0.7818609E-02  0.7996101E-01
        2   -1    0    0  501    0  0.00000000000E+00  0.00000000000E+00  0.20037014726E+04  0.20037014726E+04  0.25500000920E-02 0.  1.
       -2   -1    0    0    0  501  0.00000000000E+00  0.00000000000E+00 -0.20385804871E+04  0.20385804872E+04  0.25500000920E-02 0. -1.
    10030    2    1    2    0    0  0.00000000000E+00  0.00000000000E+00 -0.34879014549E+02  0.40422819598E+04  0.40421314794E+04 0.  0.
        2    1    3    3  502    0  0.33566401670E+03 -0.12848065077E+04  0.15062013520E+04  0.20079941751E+04  0.25500000920E-02 0.  1.
       -2    1    3    3    0  502 -0.33566401670E+03  0.12848065077E+04 -0.15410803666E+04  0.20342877846E+04  0.25500000920E-02 0. -1.
</event>
<event>
 5   0  0.3675819E-07  0.2813263E+04  0.7818609E-02  0.8299163E-01
       -1   -1    0    0    0  501  0.00000000000E+00  0.00000000000E+00  0.14022611487E+04  0.14022611487E+04  0.50400001928E-02 0.  1.
        1   -1    0    0  501    0  0.00000000000E+00  0.00000000000E+00 -0.14110151861E+04  0.14110151861E+04  0.50400001928E-02 0. -1.
    10030    2    1    2    0    0  0.00000000000E+00  0.00000000000E+00 -0.87540374282E+01  0.28132763348E+04  0.28132627149E+04 0.  0.
        5    1    3    3  502    0  0.15536774413E+03 -0.70247222779E+03  0.12043402622E+04  0.14028770167E+04  0.46999998093E+01 0.  1.
       -5    1    3    3    0  502 -0.15536774413E+03  0.70247222779E+03 -0.12130942997E+04  0.14103993181E+04  0.46999998093E+01 0. -1.
</event>
<event>
 5   0  0.3764495E-07  0.3508077E+04  0.7818609E-02  0.8111878E-01
       -1   -1    0    0    0  501  0.00000000000E+00  0.00000000000E+00  0.12165906437E+04  0.12165906437E+04  0.50400001928E-02 0. -1.
        1   -1    0    0  501    0  0.00000000000E+00  0.00000000000E+00 -0.25289125610E+04  0.25289125610E+04  0.50400001928E-02 0.  1.
    10030    2    1    2    0    0  0.00000000000E+00  0.00000000000E+00 -0.13123219173E+04  0.37455032047E+04  0.35080771716E+04 0.  0.
        4    1    3    3  502    0 -0.13966958122E+04  0.10103744152E+04 -0.31013698656E+03  0.17515142632E+04  0.12699999809E+01 0.  1.
       -4    1    3    3    0  502  0.13966958122E+04 -0.10103744152E+04 -0.10021849308E+04  0.19939889416E+04  0.12699999809E+01 0. -1.
</event>
<event>
 5   0  0.1128166E-06  0.3341972E+04  0.7818609E-02  0.8152297E-01
       -2   -1    0    0    0  501  0.00000000000E+00  0.00000000000E+00  0.13869837406E+04  0.13869837406E+04  0.25500000920E-02 0. -1.
        2   -1    0    0  501    0  0.00000000000E+00  0.00000000000E+00 -0.20131414098E+04  0.20131414098E+04  0.25500000920E-02 0.  1.
    10030    2    1    2    0    0  0.00000000000E+00  0.00000000000E+00 -0.62615766920E+03  0.34001251505E+04  0.33419721142E+04 0.  0.
        3    1    3    3  502    0 -0.52919195777E+03  0.39721738951E+03 -0.18741737541E+04  0.19875495097E+04  0.10100000352E+00 0.  1.
       -3    1    3    3    0  502  0.52919195777E+03 -0.39721738951E+03  0.12480160849E+04  0.14125756408E+04  0.10100000352E+00 0. -1.
</event>
<event>
 5   0  0.3704306E-07  0.3750899E+04  0.7818609E-02  0.8056775E-01
        1   -1    0    0  501    0  0.00000000000E+00  0.00000000000E+00  0.23676663663E+04  0.23676663663E+04  0.50400001928E-02 0. -1.
       -1   -1    0    0    0  501  0.00000000000E+00  0.00000000000E+00 -0.14855601962E+04  0.14855601962E+04  0.50400001928E-02 0.  1.
    10030    2    1    2    0    0  0.00000000000E+00  0.00000000000E+00  0.88210617013E+03  0.38532265625E+04  0.37508990451E+04 0.  0.
        3    1    3    3  502    0  0.11233950875E+03  0.18253393809E+04  0.13987263413E+02  0.18288465420E+04  0.10100000352E+00 0. -1.
       -3    1    3    3    0  502 -0.11233950875E+03 -0.18253393809E+04  0.86811890672E+03  0.20243800204E+04  0.10100000352E+00 0.  1.
</event>
<event>
 5   0  0.3848431E-07  0.3760783E+04  0.7818609E-02  0.8054624E-01
       -1   -1    0    0    0  501  0.00000000000E+00  0.00000000000E+00  0.15430112549E+04  0.15430112549E+04  0.50400001928E-02 0. -1.
        1   -1    0    0  501    0  0.00000000000E+00  0.00000000000E+00 -0.22915395237E+04  0.22915395237E+04  0.50400001928E-02 0.  1.
    10030    2    1    2    0    0  0.00000000000E+00  0.00000000000E+00 -0.74852826878E+03  0.38345507787E+04  0.37607825123E+04 0.  0.
        2    1    3    3  502    0 -0.15556028119E+04  0.71059622595E+03 -0.11712772533E+04  0.20728573296E+04  0.25500000920E-02 0.  1.
       -2    1    3    3    0  502  0.15556028119E+04 -0.71059622595E+03  0.42274898455E+03  0.17616934491E+04  0.25500000920E-02 0. -1.
</event>
<event>
 5   0  0.3848431E-07  0.3685148E+04  0.7818609E-02  0.8071261E-01
       -1   -1    0    0    0  501  0.00000000000E+00  0.00000000000E+00  0.12369084172E+04  0.12369084172E+04  0.50400001928E-02 0. -1.
        1   -1    0    0  501    0  0.00000000000E+00  0.00000000000E+00 -0.27448109824E+04  0.27448109824E+04  0.50400001928E-02 0.  1.
    10030    2    1    2    0    0  0.00000000000E+00  0.00000000000E+00 -0.15079025652E+04  0.39817193996E+04  0.36851484680E+04 0.  0.
        2    1    3    3  502    0 -0.23211671709E+02  0.17565969641E+04 -0.13544752319E+04  0.22182819546E+04  0.25500000920E-02 0.  1.
       -2    1    3    3    0  502  0.23211671709E+02 -0.17565969641E+04 -0.15342733328E+03  0.17634374451E+04  0.25500000920E-02 0. -1.
</event>
<event>
 5   0  0.1066907E-06  0.3578822E+04  0.7818609E-02  0.8095360E-01
       -2   -1    0    0    0  501  0.00000000000E+00  0.00000000000E+00  0.13197623155E+04  0.13197623155E+04  0.25500000920E-02 0.  1.
        2   -1    0    0  501    0  0.00000000000E+00  0.00000000000E+00 -0.24261882361E+04  0.24261882361E+04  0.25500000920E-02 0. -1.
    10030    2    1    2    0    0  0.00000000000E+00  0.00000000000E+00 -0.11064259206E+04  0.37459505516E+04  0.35788220432E+04 0.  0.
        4    1    3    3  502    0 -0.46594602448E+03  0.95694618654E+02 -0.23588002202E+04  0.24062841166E+04  0.12699999809E+01 0. -1.
       -4    1    3    3    0  502  0.46594602448E+03 -0.95694618654E+02  0.12523742996E+04  0.13396664350E+04  0.12699999809E+01 0.  1.
</event>
<event>
 5   0  0.3682276E-07  0.2990572E+04  0.7818609E-02  0.8246428E-01
       -1   -1    0    0    0  501  0.00000000000E+00  0.00000000000E+00  0.12833964410E+04  0.12833964410E+04  0.50400001928E-02 0. -1.
        1   -1    0    0  501    0  0.00000000000E+00  0.00000000000E+00 -0.17421592148E+04  0.17421592148E+04  0.50400001928E-02 0.  1.
    10030    2    1    2    0    0  0.00000000000E+00  0.00000000000E+00 -0.45876277380E+03  0.30255556557E+04  0.29905724775E+04 0.  0.
        1    1    3    3  502    0  0.36655601010E+02  0.13180693378E+04  0.48401302725E+03  0.14046063587E+04  0.50400001928E-02 0. -1.
       -1    1    3    3    0  502 -0.36655601010E+02 -0.13180693378E+04 -0.94277580105E+03  0.16209492970E+04  0.50400001928E-02 0.  1.
</event>
<event>
 5   0  0.3682276E-07  0.3555670E+04  0.7818609E-02  0.8100722E-01
        1   -1    0    0  501    0  0.00000000000E+00  0.00000000000E+00  0.18762893128E+04  0.18762893128E+04  0.50400001928E-02 0. -1.
       -1   -1    0    0    0  501  0.00000000000E+00  0.00000000000E+00 -0.16845471050E+04  0.16845471050E+04  0.50400001928E-02 0.  1.
    10030    2    1    2    0    0  0.00000000000E+00  0.00000000000E+00  0.19174220778E+03  0.35608364179E+04  0.35556702491E+04 0.  0.
        1    1    3    3  502    0  0.89042673093E+03  0.13382556855E+03  0.16310460928E+04  0.18630835738E+04  0.50400001928E-02 0. -1.
       -1    1    3    3    0  502 -0.89042673093E+03 -0.13382556855E+03 -0.14393038851E+04  0.16977528441E+04  0.50400001928E-02 0.  1.
</event>
<event>
 5   0  0.1128530E-06  0.3759615E+04  0.7818609E-02  0.8054877E-01
       -2   -1    0    0    0  501  0.00000000000E+00  0.00000000000E+00  0.12961790848E+04  0.12961790848E+04  0.25500000920E-02 0. -1.
        2   -1    0    0  501    0  0.00000000000E+00  0.00000000000E+00 -0.27262259176E+04  0.27262259176E+04  0.25500000920E-02 0.  1.
    10030    2    1    2    0    0  0.00000000000E+00  0.00000000000E+00 -0.14300468328E+04  0.40224050024E+04  0.37596154137E+04 0.  0.
        5    1    3    3  502    0  0.13055693717E+04 -0.22256096640E+03  0.71224222942E+03  0.15037805197E+04  0.46999998093E+01 0. -1.
       -5    1    3    3    0  502 -0.13055693717E+04  0.22256096640E+03 -0.21422890623E+04  0.25186244826E+04  0.46999998093E+01 0.  1.
</event>
<event>
 5   0  0.1092116E-06  0.3316875E+04  0.7818609E-02  0.8158615E-01
       -2   -1    0    0    0  501  0.00000000000E+00  0.00000000000E+00  0.11242775951E+04  0.11242775951E+04  0.25500000920E-02 0. -1.
        2   -1    0    0  501    0  0.00000000000E+00  0.00000000000E+00 -0.24463848070E+04  0.24463848070E+04  0.25500000920E-02 0.  1.
    10030    2    1    2    0    0  0.00000000000E+00  0.00000000000E+00 -0.13221072120E+04  0.35706624021E+04  0.33168754136E+04 0.  0.
        1    1    3    3  502    0 -0.12633364962E+04 -0.94444449658E+03 -0.10958725022E+03  0.15811400555E+04  0.50400001928E-02 0. -1.
       -1    1    3    3    0  502  0.12633364962E+04  0.94444449658E+03 -0.12125199617E+04  0.19895223465E+04  0.50400001928E-02 0.  1.
</event>
<event>
 5   0  0.1092116E-06  0.3716661E+04  0.7818609E-02  0.8064280E-01
        2   -1    0    0  501    0  0.00000000000E+00  0.00000000000E+00  0.27143705805E+04  0.27143705805E+04  0.25500000920E-02 0. -1.
       -2   -1    0    0    0  501  0.00000000000E+00  0.00000000000E+00 -0.12722627276E+04  0.12722627276E+04  0.25500000920E-02 0.  1.
    10030    2    1    2    0    0  0.00000000000E+00  0.00000000000E+00  0.14421078529E+04  0.39866333082E+04  0.37166611460E+04 0.  0.
        1    1    3    3  502    0 -0.14442690488E+04 -0.37237905862E+03 -0.46798553942E+03  0.15631985523E+04  0.50400001928E-02 0.  1.
       -1    1    3    3    0  502  0.14442690488E+04  0.37237905862E+03  0.19100933923E+04  0.24234347559E+04  0.50400001928E-02 0. -1.
</event>
<event>
 5   0  0.3704306E-07  0.3733194E+04  0.7818609E-02  0.8060645E-01
        1   -1    0    0  501    0  0.00000000000E+00  0.00000000000E+00  0.20294391273E+04  0.20294391273E+04  0.50400001928E-02 0. -1.
       -1   -1    0    0    0  501  0.00000000000E+00  0.00000000000E+00 -0.17168209319E+04  0.17168209319E+04  0.50400001928E-02 0.  1.
    10030    2    1    2    0    0  0.00000000000E+00  0.00000000000E+00  0.31261819534E+03  0.37462600592E+04  0.37331935785E+04 0.  0.
        3    1    3    3  502    0  0.55478677412E+03 -0.51716930837E+03  0.18678375758E+04  0.20159537887E+04  0.10100000352E+00 0. -1.
       -3    1    3    3    0  502 -0.55478677412E+03  0.51716930837E+03 -0.15552193804E+04  0.17303062705E+04  0.10100000352E+00 0.  1.
</event>
<event>
 5   0  0.1128530E-06  0.3611441E+04  0.7818609E-02  0.8087876E-01
       -2   -1    0    0    0  501  0.00000000000E+00  0.00000000000E+00  0.14630960704E+04  0.14630960704E+04  0.25500000920E-02 0.  1.
        2   -1    0    0  501    0  0.00000000000E+00  0.00000000000E+00 -0.22285801649E+04  0.22285801649E+04  0.25500000920E-02 0. -1.
    10030    2    1    2    0    0  0.00000000000E+00  0.00000000000E+00 -0.76548409454E+03  0.36916762353E+04  0.36114411981E+04 0.  0.
        5    1    3    3  502    0  0.17711309383E+03  0.10173707747E+02 -0.22196439886E+04  0.22267272124E+04  0.46999998093E+01 0. -1.
       -5    1    3    3    0  502 -0.17711309383E+03 -0.10173707747E+02  0.14541598940E+04  0.14649490229E+04  0.46999998093E+01 0.  1.
</event>
<event>
 5   0  0.1051123E-06  0.3696183E+04  0.7818609E-02  0.8068808E-01
       -2   -1    0    0    0  501  0.00000000000E+00  0.00000000000E+00  0.23909448836E+04  0.23909448836E+04  0.25500000920E-02 0.  1.
        2   -1    0    0  501    0  0.00000000000E+00  0.00000000000E+00 -0.14284906399E+04  0.14284906399E+04  0.25500000920E-02 0. -1.
    10030    2    1    2    0    0  0.00000000000E+00  0.00000000000E+00  0.96245424374E+03  0.38194355235E+04  0.36961831052E+04 0.  0.
        2    1    3    3  502    0  0.38955707996E+02 -0.18456860974E+04  0.56992449776E+03  0.19320684901E+04  0.25500000920E-02 0.  1.
       -2    1    3    3    0  502 -0.38955707996E+02  0.18456860974E+04  0.39252974598E+03  0.18873670334E+04  0.25500000920E-02 0. -1.
</event>
<event>
 5   0  0.3490375E-07  0.2828328E+04  0.7818609E-02  0.8294527E-01
       -3   -1    0    0    0  501  0.00000000000E+00  0.00000000000E+00  0.17654454807E+04  0.17654454836E+04  0.10100000352E+00 0.  1.
        3   -1    0    0  501    0  0.00000000000E+00  0.00000000000E+00 -0.11327790616E+04  0.11327790662E+04  0.10100000352E+00 0. -1.
    10030    2    1    2    0    0  0.00000000000E+00  0.00000000000E+00  0.63266641905E+03  0.28982245497E+04  0.28283279058E+04 0.  0.
        1    1    3    3  502    0 -0.75259202862E+03 -0.41678038087E+01 -0.91052161823E+03  0.11812966390E+04  0.50400001928E-02 0. -1.
       -1    1    3    3    0  502  0.75259202862E+03  0.41678038087E+01  0.15431880373E+04  0.17169279107E+04  0.50400001928E-02 0.  1.
</event>
<event>
 5   0  0.1092116E-06  0.2793541E+04  0.7818609E-02  0.8305276E-01
       -2   -1    0    0    0  501  0.00000000000E+00  0.00000000000E+00  0.86761536424E+03  0.86761536425E+03  0.25500000920E-02 0.  1.
        2   -1    0    0  501    0  0.00000000000E+00  0.00000000000E+00 -0.22486550806E+04  0.22486550806E+04  0.25500000920E-02 0. -1.
    10030    2    1    2    0    0  0.00000000000E+00  0.00000000000E+00 -0.13810397163E+04  0.31162704448E+04  0.27935409049E+04 0.  0.
        1    1    3    3  502    0 -0.73574061569E+03  0.85350095528E+03 -0.16112112831E+04  0.19661586744E+04  0.50400001928E-02 0. -1.
       -1    1    3    3    0  502  0.73574061569E+03 -0.85350095528E+03  0.23017156675E+03  0.11501117704E+04  0.50400001928E-02 0.  1.
</event>
<event>
 5   0  0.1066907E-06  0.3866994E+04  0.7818609E-02  0.8031929E-01
       -2   -1    0    0    0  501  0.00000000000E+00  0.00000000000E+00  0.22184986384E+04  0.22184986384E+04  0.25500000920E-02 0. -1.
        2   -1    0    0  501    0  0.00000000000E+00  0.00000000000E+00 -0.16851081432E+04  0.16851081432E+04  0.25500000920E-02 0.  1.
    10030    2    1    2    0    0  0.00000000000E+00  0.00000000000E+00  0.53339049522E+03  0.39036067816E+04  0.38669937270E+04 0.  0.
        4    1    3    3  502    0  0.38377774212E+03 -0.18944235841E+04  0.21846805191E+03  0.19452136062E+04  0.12699999809E+01 0.  1.
       -4    1    3    3    0  502 -0.38377774212E+03  0.18944235841E+04  0.31492244331E+03  0.19583931754E+04  0.12699999809E+01 0. -1.
</event>
<event>
 5   0  0.1092116E-06  0.3706801E+04  0.7818609E-02  0.8066456E-01
        2   -1    0    0  501    0  0.00000000000E+00  0.00000000000E+00  0.21441361982E+04  0.21441361982E+04  0.25500000920E-02 0. -1.
       -2   -1    0    0    0  501  0.00000000000E+00  0.00000000000E+00 -0.16020875736E+04  0.16020875736E+04  0.25500000920E-02 0.  1.
    10030    2    1    2    0    0  0.00000000000E+00  0.00000000000E+00  0.54204862454E+03  0.37462237718E+04  0.37068012946E+04 0.  0.
        1    1    3    3  502    0 -0.14129810867E+03  0.66218876945E+03 -0.14726171575E+04  0.16208209076E+04  0.50400001928E-02 0.  1.
       -1    1    3    3    0  502  0.14129810867E+03 -0.66218876945E+03  0.20146657821E+04  0.21254028642E+04  0.50400001928E-02 0. -1.
</event>
<event>
 5   0  0.1051123E-06  0.3717530E+04  0.7818609E-02  0.8064088E-01
       -2   -1    0    0    0  501  0.00000000000E+00  0.00000000000E+00  0.13341024331E+04  0.13341024331E+04  0.25500000920E-02 0.  1.
        2   -1    0    0  501    0  0.00000000000E+00  0.00000000000E+00 -0.25897614233E+04  0.25897614233E+04  0.25500000920E-02 0. -1.
    10030    2    1    2    0    0  0.00000000000E+00  0.00000000000E+00 -0.12556589901E+04  0.39238638564E+04  0.37175298336E+04 0.  0.
        2    1    3    3  502    0  0.12727852698E+04 -0.19885784052E+03 -0.20421563316E+04  0.24145246460E+04  0.25500000920E-02 0. -1.
       -2    1    3    3    0  502 -0.12727852698E+04  0.19885784052E+03  0.78649734145E+03  0.15093392103E+04  0.25500000920E-02 0.  1.
</event>
<event>
 5   0  0.3848431E-07  0.3727413E+04  0.7818609E-02  0.8061914E-01
       -1   -1    0    0    0  501  0.00000000000E+00  0.00000000000E+00  0.12595671342E+04  0.12595671342E+04  0.50400001928E-02 0. -1.
        1   -1    0    0  501    0  0.00000000000E+00  0.00000000000E+00 -0.27576156656E+04  0.27576156656E+04  0.50400001928E-02 0.  1.
    10030    2    1    2    0    0  0.00000000000E+00  0.00000000000E+00 -0.14980485314E+04  0.40171827998E+04  0.37274130767E+04 0.  0.
        2    1    3    3  502    0  0.18041800186E+04  0.46677073705E+03 -0.72586912917E+03  0.19999566128E+04  0.25500000920E-02 0. -1.
       -2    1    3    3    0  502 -0.18041800186E+04 -0.46677073705E+03 -0.77217940223E+03  0.20172261870E+04  0.25500000920E-02 0.  1.
</event>
<event>
 5   0  0.3848431E-07  0.2594197E+04  0.7818609E-02  0.8370175E-01
        1   -1    0    0  501    0  0.00000000000E+00  0.00000000000E+00  0.14511651657E+04  0.14511651657E+04  0.50400001928E-02 0.  1.
       -1   -1    0    0    0  501  0.00000000000E+00  0.00000000000E+00 -0.11593888082E+04  0.11593888082E+04  0.50400001928E-02 0. -1.
    10030    2    1    2    0    0  0.00000000000E+00  0.00000000000E+00  0.29177635752E+03  0.26105539739E+04  0.25941971027E+04 0.  0.
        2    1    3    3  502    0 -0.12182429478E+04  0.37193379024E+03  0.39241041222E+03  0.13328302802E+04  0.25500000920E-02 0.  1.
       -2    1    3    3    0  502  0.12182429478E+04 -0.37193379024E+03 -0.10063405470E+03  0.12777236936E+04  0.25500000920E-02 0. -1.
</event>
<event>
 5   0  0.1092116E-06  0.3423661E+04  0.7818609E-02  0.8132123E-01
       -2   -1    0    0    0  501  0.00000000000E+00  0.00000000000E+00  0.14721706137E+04  0.14721706137E+04  0.25500000920E-02 0.  1.
        2   -1    0    0  501    0  0.00000000000E+00  0.00000000000E+00 -0.19905059822E+04  0.19905059822E+04  0.25500000920E-02 0. -1.
    10030    2    1    2    0    0  0.00000000000E+00  0.00000000000E+00 -0.51833536846E+03  0.34626765959E+04  0.34236614397E+04 0.  0.
        1    1    3    3  502    0 -0.12742514173E+04  0.11138690138E+04  0.55346219665E+00  0.16924600914E+04  0.50400001928E-02 0. -1.
       -1    1    3    3    0  502  0.12742514173E+04 -0.11138690138E+04 -0.51888883066E+03  0.17702165046E+04  0.50400001928E-02 0.  1.
</event>
<event>
 5   0  0.3704306E-07  0.2617036E+04  0.7818609E-02  0.8362437E-01
        1   -1    0    0  501    0  0.00000000000E+00  0.00000000000E+00  0.12979718433E+04  0.12979718433E+04  0.50400001928E-02 0.  1.
       -1   -1    0    0    0  501  0.00000000000E+00  0.00000000000E+00 -0.13191496756E+04  0.13191496756E+04  0.50400001928E-02 0. -1.
    10030    2    1    2    0    0  0.00000000000E+00  0.00000000000E+00 -0.21177832258E+02  0.26171215189E+04  0.26170358316E+04 0.  0.
        3    1    3    3  502    0 -0.50693974847E+03 -0.59814667835E+03 -0.10582165386E+04  0.13170381962E+04  0.10100000352E+00 0. -1.
       -3    1    3    3    0  502  0.50693974847E+03  0.59814667835E+03  0.10370387063E+04  0.13000833227E+04  0.10100000352E+00 0.  1.
</event>
<event>
 5   0  0.3675819E-07  0.3705219E+04  0.7818609E-02  0.8066806E-01
       -1   -1    0    0    0  501  0.00000000000E+00  0.00000000000E+00  0.16895923783E+04  0.16895923784E+04  0.50400001928E-02 0. -1.
        1   -1    0    0  501    0  0.00000000000E+00  0.00000000000E+00 -0.20313550133E+04  0.20313550133E+04  0.50400001928E-02 0.  1.
    10030    2    1    2    0    0  0.00000000000E+00  0.00000000000E+00 -0.34176263499E+03  0.37209473917E+04  0.37052189940E+04 0.  0.
        5    1    3    3  502    0  0.36684390970E+03  0.17610855310E+04  0.27387920150E+03  0.18196232051E+04  0.46999998093E+01 0. -1.
       -5    1    3    3    0  502 -0.36684390970E+03 -0.17610855310E+04 -0.61564183649E+03  0.19013241866E+04  0.46999998093E+01 0.  1.
</event>
<event>
 5   0  0.1092116E-06  0.3663864E+04  0.7818609E-02  0.8076017E-01
       -2   -1    0    0    0  501  0.00000000000E+00  0.00000000000E+00  0.15222273295E+04  0.15222273295E+04  0.25500000920E-02 0. -1.
        2   -1    0    0  501    0  0.00000000000E+00  0.00000000000E+00 -0.22046478677E+04  0.22046478677E+04  0.25500000920E-02 0.  1.
    10030    2    1    2    0    0  0.00000000000E+00  0.00000000000E+00 -0.68242053822E+03  0.37268751972E+04  0.36638642094E+04 0.  0.
        1    1    3    3  502    0 -0.14408119252E+04 -0.10525504688E+04  0.80864061800E+02  0.17861524262E+04  0.50400001928E-02 0. -1.
       -1    1    3    3    0  502  0.14408119252E+04  0.10525504688E+04 -0.76328460002E+03  0.19407227710E+04  0.50400001928E-02 0.  1.
</event>
<event>
 5   0  0.3764495E-07  0.3440420E+04  0.7818609E-02  0.8128056E-01
       -1   -1    0    0    0  501  0.00000000000E+00  0.00000000000E+00  0.17210221836E+04  0.17210221836E+04  0.50400001928E-02 0.  1.
        1   -1    0    0  501    0  0.00000000000E+00  0.00000000000E+00 -0.17193986118E+04  0.17193986118E+04  0.50400001928E-02 0. -1.
    10030    2    1    2    0    0  0.00000000000E+00  0.00000000000E+00  0.16235718218E+01  0.34404207955E+04  0.34404204124E+04 0.  0.
        4    1    3    3  502    0 -0.13710828838E+04 -0.84023998579E+03  0.61175377646E+03  0.17204987079E+04  0.12699999809E+01 0.  1.
       -4    1    3    3    0  502  0.13710828838E+04  0.84023998579E+03 -0.61013020464E+03  0.17199220876E+04  0.12699999809E+01 0. -1.
</event>
<event>
 5   0  0.1051123E-06  0.3625655E+04  0.7818609E-02  0.8084640E-01
       -2   -1    0    0    0  501  0.00000000000E+00  0.00000000000E+00  0.21514618233E+04  0.21514618233E+04  0.25500000920E-02 0.  1.
        2   -1    0    0  501    0  0.00000000000E+00  0.00000000000E+00 -0.15274930904E+04  0.15274930904E+04  0.25500000920E-02 0. -1.
    10030    2    1    2    0    0  0.00000000000E+00  0.00000000000E+00  0.62396873291E+03  0.36789549138E+04  0.36256547378E+04 0.  0.
        2    1    3    3  502    0 -0.77860987703E+03  0.13123561345E+04 -0.68109163925E+03  0.16710469130E+04  0.25500000920E-02 0. -1.
       -2    1    3    3    0  502  0.77860987703E+03 -0.13123561345E+04  0.13050603722E+04  0.20079080008E+04  0.25500000920E-02 0.  1.
</event>
<event>
 5   0  0.3682276E-07  0.2403228E+04  0.7818609E-02  0.8438296E-01
        1   -1    0    0  501    0  0.00000000000E+00  0.00000000000E+00  0.88650243713E+03  0.88650243715E+03  0.50400001928E-02 0.  1.
       -1   -1    0    0    0  501  0.00000000000E+00  0.00000000000E+00 -0.16287328777E+04  0.16287328777E+04  0.50400001928E-02 0. -1.
    10030    2    1    2    0    0  0.00000000000E+00  0.00000000000E+00 -0.74223044056E+03  0.25152353148E+04  0.24032275511E+04 0.  0.
        1    1    3    3  502    0 -0.10172213090E+04  0.62287275170E+03 -0.52338131811E+03  0.13025504445E+04  0.50400001928E-02 0.  1.
       -1    1    3    3    0  502  0.10172213090E+04 -0.62287275170E+03 -0.21884912244E+03  0.12126848703E+04  0.50400001928E-02 0. -1.
</event>
<event>
 5   0  0.3682276E-07  0.3698684E+04  0.7818609E-02  0.8068254E-01
       -1   -1    0    0    0  501  0.00000000000E+00  0.00000000000E+00  0.31980706915E+04  0.31980706916E+04  0.50400001928E-02 0. -1.
        1   -1    0    0  501    0  0.00000000000E+00  0.00000000000E+00 -0.10694151036E+04  0.10694151037E+04  0.50400001928E-02 0.  1.
    10030    2    1    2    0    0  0.00000000000E+00  0.00000000000E+00  0.21286555879E+04  0.42674857952E+04  0.36986836037E+04 0.  0.
        1    1    3    3  502    0  0.13443610236E+04  0.46355656143E+03 -0.29981204627E+03  0.14532991813E+04  0.50400001928E-02 0.  1.
       -1    1    3    3    0  502 -0.13443610236E+04 -0.46355656143E+03  0.24284676342E+04  0.28141866139E+04  0.50400001928E-02 0. -1.
</event>
<event>
 5   0  0.1128530E-06  0.3707344E+04  0.7818609E-02  0.8066336E-01
       -2   -1    0    0    0  501  0.00000000000E+00  0.00000000000E+00  0.13267405778E+04  0.13267405778E+04  0.25500000920E-02 0. -1.
        2   -1    0    0  501    0  0.00000000000E+00  0.00000000000E+00 -0.25898811049E+04  0.25898811049E+04  0.25500000920E-02 0.  1.
    10030    2    1    2    0    0  0.00000000000E+00  0.00000000000E+00 -0.12631405272E+04  0.39166216827E+04  0.37073442535E+04 0.  0.
        5    1    3    3  502    0 -0.76430206802E+03 -0.34936593971E+03 -0.23770677126E+04  0.25212471540E+04  0.46999998093E+01 0.  1.
       -5    1    3    3    0  502  0.76430206802E+03  0.34936593971E+03  0.11139271855E+04  0.13953745288E+04  0.46999998093E+01 0. -1.
</event>
<event>
 5   0  0.3704306E-07  0.2350439E+04  0.7818609E-02  0.8458295E-01
        1   -1    0    0  501    0  0.00000000000E+00  0.00000000000E+00  0.63702205125E+03  0.63702205127E+03  0.50400001928E-02 0.  1.
       -1   -1    0    0    0  501  0.00000000000E+00  0.00000000000E+00 -0.21681205852E+04  0.21681205852E+04  0.50400001928E-02 0. -1.
    10030    2    1    2    0    0  0.00000000000E+00  0.00000000000E+00 -0.15310985340E+04  0.28051426365E+04  0.23504387868E+04 0.  0.
        3    1    3    3  502    0 -0.42451181509E+03 -0.86395683896E+03 -0.15701440375E+04  0.18417339681E+04  0.10100000352E+00 0. -1.
       -3    1    3    3    0  502  0.42451181509E+03  0.86395683896E+03  0.39045503495E+02  0.96340866837E+03  0.10100000352E+00 0.  1.
</event>
<event>
 5   0  0.3675819E-07  0.3711946E+04  0.7818609E-02  0.8065320E-01
       -1   -1    0    0    0  501  0.00000000000E+00  0.00000000000E+00  0.17828865055E+04  0.17828865055E+04  0.50400001928E-02 0. -1.
        1   -1    0    0  501    0  0.00000000000E+00  0.00000000000E+00 -0.19320556442E+04  0.19320556442E+04  0.50400001928E-02 0.  1.
    10030    2    1    2    0    0  0.00000000000E+00  0.00000000000E+00 -0.14916913874E+03  0.37149421497E+04  0.37119460857E+04 0.  0.
        5    1    3    3  502    0  0.17616661357E+04  0.58363777293E+03 -0.97257258432E+02  0.18583814700E+04  0.46999998093E+01 0.  1.
       -5    1    3    3    0  502 -0.17616661357E+04 -0.58363777293E+03 -0.51911880310E+02  0.18565606796E+04  0.46999998093E+01 0. -1.
</event>
<event>
 5   0  0.1051123E-06  0.3311703E+04  0.7818609E-02  0.8159924E-01
       -2   -1    0    0    0  501  0.00000000000E+00  0.00000000000E+00  0.82995864289E+03  0.82995864289E+03  0.25500000920E-02 0. -1.
        2   -1    0    0  501    0  0.00000000000E+00  0.00000000000E+00 -0.33035914430E+04  0.33035914430E+04  0.25500000920E-02 0.  1.
    10030    2    1    2    0    0  0.00000000000E+00  0.00000000000E+00 -0.24736328001E+04  0.41335500859E+04  0.33117030487E+04 0.  0.
        2    1    3    3  502    0  0.54454410179E+03 -0.10490717747E+04 -0.26842375648E+04  0.29329526371E+04  0.25500000920E-02 0.  1.
       -2    1    3    3    0  502 -0.54454410179E+03  0.10490717747E+04  0.21060476461E+03  0.12005974488E+04  0.25500000920E-02 0. -1.
</event>
<event>
 5   0  0.1066907E-06  0.3139185E+04  0.7818609E-02  0.8205065E-01
        2   -1    0    0  501    0  0.00000000000E+00  0.00000000000E+00  0.12306572359E+04  0.12306572359E+04  0.25500000920E-02 0. -1.
       -2   -1    0    0    0  501  0.00000000000E+00  0.00000000000E+00 -0.20018739374E+04  0.20018739374E+04  0.25500000920E-02 0.  1.
    10030    2    1    2    0    0  0.00000000000E+00  0.00000000000E+00 -0.77121670157E+03  0.32325311733E+04  0.31391850194E+04 0.  0.
        4    1    3    3  502    0 -0.11925952366E+04 -0.80376767957E+03  0.26181066937E+03  0.14618044742E+04  0.12699999809E+01 0. -1.
       -4    1    3    3    0  502  0.11925952366E+04  0.80376767957E+03 -0.10330273709E+04  0.17707266992E+04  0.12699999809E+01 0.  1.
</event>
<event>
 5   0  0.3704306E-07  0.3593902E+04  0.7818609E-02  0.8091890E-01
       -1   -1    0    0    0  501  0.00000000000E+00  0.00000000000E+00  0.13991563172E+04  0.13991563173E+04  0.50400001928E-02 0.  1.
        1   -1    0    0  501    0  0.00000000000E+00  0.00000000000E+00 -0.23078423375E+04  0.23078423375E+04  0.50400001928E-02 0. -1.
    10030    2    1    2    0    0  0.00000000000E+00  0.00000000000E+00 -0.90868602029E+03  0.37069986548E+04  0.35939016046E+04 0.  0.
        3    1    3    3  502    0 -0.14522202388E+03  0.14788363385E+04 -0.14965790861E+04  0.21089796877E+04  0.10100000352E+00 0. -1.
       -3    1    3    3    0  502  0.14522202388E+03 -0.14788363385E+04  0.58789306577E+03  0.15980189671E+04  0.10100000352E+00 0.  1.
</event>
<event>
 5   0  0.1051123E-06  0.3774870E+04  0.7818609E-02  0.8051569E-01
       -2   -1    0    0    0  501  0.00000000000E+00  0.00000000000E+00  0.23577839793E+04  0.23577839793E+04  0.25500000920E-02 0.  1.
        2   -1    0    0  501    0  0.00000000000E+00  0.00000000000E+00 -0.15109147701E+04  0.15109147701E+04  0.25500000920E-02 0. -1.
    10030    2    1    2    0    0  0.00000000000E+00  0.00000000000E+00  0.84686920920E+03  0.38686987493E+04  0.37748698727E+04 0.  0.
        2    1    3    3  502    0  0.80646814644E+03  0.11097853900E+04 -0.90508744718E+03  0.16435321019E+04  0.25500000920E-02 0. -1.
       -2    1    3    3    0  502 -0.80646814644E+03 -0.11097853900E+04  0.17519566564E+04  0.22251666474E+04  0.25500000920E-02 0.  1.
</event>
<event>
 5   0  0.1066907E-06  0.2638429E+04  0.7818609E-02  0.8355264E-01
        2   -1    0    0  501    0  0.00000000000E+00  0.00000000000E+00  0.16673788263E+04  0.16673788263E+04  0.25500000920E-02 0.  1.
       -2   -1    0    0    0  501  0.00000000000E+00  0.00000000000E+00 -0.10437502840E+04  0.10437502840E+04  0.25500000920E-02 0. -1.
    10030    2    1    2    0    0  0.00000000000E+00  0.00000000000E+00  0.62362854232E+03  0.27111291104E+04  0.26384291717E+04 0.  0.
        4    1    3    3  502    0  0.12821148767E+04 -0.29629382988E+03  0.40775130509E+03  0.13776325092E+04  0.12699999809E+01 0.  1.
       -4    1    3    3    0  502 -0.12821148767E+04  0.29629382988E+03  0.21587723723E+03  0.13334966011E+04  0.12699999809E+01 0. -1.
</event>
<event>
 5   0  0.1128166E-06  0.3736762E+04  0.7818609E-02  0.8059863E-01
       -2   -1    0    0    0  501  0.00000000000E+00  0.00000000000E+00  0.18020175559E+04  0.18020175559E+04  0.25500000920E-02 0. -1.
        2   -1    0    0  501    0  0.00000000000E+00  0.00000000000E+00 -0.19371883217E+04  0.19371883217E+04  0.25500000920E-02 0.  1.
    10030    2    1    2    0    0  0.00000000000E+00  0.00000000000E+00 -0.13517076581E+03  0.37392058775E+04  0.37367618948E+04 0.  0.
        3    1    3    3  502    0 -0.10154204655E+04  0.14501223345E+04  0.53022802475E+03  0.18479922282E+04  0.10100000352E+00 0. -1.
       -3    1    3    3    0  502  0.10154204655E+04 -0.14501223345E+04 -0.66539879056E+03  0.18912136494E+04  0.10100000352E+00 0.  1.
</event>
<event>
 5   0  0.3675819E-07  0.3573087E+04  0.7818609E-02  0.8096684E-01
       -1   -1    0    0    0  501  0.00000000000E+00  0.00000000000E+00  0.11318169820E+04  0.11318169820E+04  0.50400001928E-02 0.  1.
        1   -1    0    0  501    0  0.00000000000E+00  0.00000000000E+00 -0.28200126385E+04  0.28200126385E+04  0.50400001928E-02 0. -1.
    10030    2    1    2    0    0  0.00000000000E+00  0.00000000000E+00 -0.16881956565E+04  0.39518296206E+04  0.35730872891E+04 0.  0.
        5    1    3    3  502    0 -0.48100504515E+03 -0.95809108105E+03 -0.24247133203E+04  0.26511433663E+04  0.46999998093E+01 0. -1.
       -5    1    3    3    0  502  0.48100504515E+03  0.95809108105E+03  0.73651766379E+03  0.13006862543E+04  0.46999998093E+01 0.  1.
</event>
<event>
 5   0  0.1051123E-06  0.2423806E+04  0.7818609E-02  0.8430645E-01
       -2   -1    0    0    0  501  0.00000000000E+00  0.00000000000E+00  0.59620718961E+03  0.59620718961E+03  0.25500000920E-02 0.  1.
        2   -1    0    0  501    0  0.00000000000E+00  0.00000000000E+00 -0.24634194967E+04  0.24634194967E+04  0.25500000920E-02 0. -1.
    10030    2    1    2    0    0  0.00000000000E+00  0.00000000000E+00 -0.18672123071E+04  0.30596266863E+04  0.24238056151E+04 0.  0.
        2    1    3    3  502    0  0.10827501326E+04  0.54370829933E+03 -0.96798797370E+03  0.15507956931E+04  0.25500000920E-02 0.  1.
       -2    1    3    3    0  502 -0.10827501326E+04 -0.54370829933E+03 -0.89922433337E+03  0.15088309932E+04  0.25500000920E-02 0. -1.
</event>
<event>
 5   0  0.3764495E-07  0.3227862E+04  0.7818609E-02  0.8181497E-01
        1   -1    0    0  501    0  0.00000000000E+00  0.00000000000E+00  0.24374538893E+04  0.24374538893E+04  0.50400001928E-02 0. -1.
       -1   -1    0    0    0  501  0.00000000000E+00  0.00000000000E+00 -0.10686449747E+04  0.10686449748E+04  0.50400001928E-02 0.  1.
    10030    2    1    2    0    0  0.00000000000E+00  0.00000000000E+00  0.13688089146E+04  0.35060988641E+04  0.32278617381E+04 0.  0.
        4    1    3    3  502    0  0.13169890825E+04 -0.50358123648E+03 -0.16860170816E+03  0.14200290328E+04  0.12699999809E+01 0. -1.
       -4    1    3    3    0  502 -0.13169890825E+04  0.50358123648E+03  0.15374106227E+04  0.20860698313E+04  0.12699999809E+01 0.  1.
</event>
<event>
 5   0  0.1051123E-06  0.3764823E+04  0.7818609E-02  0.8053746E-01
        2   -1    0    0  501    0  0.00000000000E+00  0.00000000000E+00  0.21629457147E+04  0.21629457147E+04  0.25500000920E-02 0. -1.
       -2   -1    0    0    0  501  0.00000000000E+00  0.00000000000E+00 -0.16382624229E+04  0.16382624229E+04  0.25500000920E-02 0.  1.
    10030    2    1    2    0    0  0.00000000000E+00  0.00000000000E+00  0.52468329178E+03  0.38012081376E+04  0.37648228044E+04 0.  0.
        2    1    3    3  502    0 -0.35542007326E+03 -0.17375708342E+04  0.89930864118E+03  0.19885250475E+04  0.25500000920E-02 0. -1.
       -2    1    3    3    0  502  0.35542007326E+03  0.17375708342E+04 -0.37462534941E+03  0.18126830900E+04  0.25500000920E-02 0.  1.
</event>
<event>
 5   0  0.3675819E-07  0.3675387E+04  0.7818609E-02  0.8073438E-01
       -1   -1    0    0    0  501  0.00000000000E+00  0.00000000000E+00  0.20601608070E+04  0.20601608070E+04  0.50400001928E-02 0. -1.
        1   -1    0    0  501    0  0.00000000000E+00  0.00000000000E+00 -0.16392496241E+04  0.16392496242E+04  0.50400001928E-02 0.  1.
    10030    2    1    2    0    0  0.00000000000E+00  0.00000000000E+00  0.42091118283E+03  0.36994104311E+04  0.36753872332E+04 0.  0.
        5    1    3    3  502    0 -0.11303782501E+04 -0.57472379570E+03  0.15491992279E+04  0.20020246670E+04  0.46999998093E+01 0. -1.
       -5    1    3    3    0  502  0.11303782501E+04  0.57472379570E+03 -0.11282880451E+04  0.16973857641E+04  0.46999998093E+01 0.  1.
</event>
<event>
 5   0  0.3675819E-07  0.3735889E+04  0.7818609E-02  0.8060055E-01
       -1   -1    0    0    0  501  0.00000000000E+00  0.00000000000E+00  0.19839989340E+04  0.19839989340E+04  0.50400001928E-02 0. -1.
        1   -1    0    0  501    0  0.00000000000E+00  0.00000000000E+00 -0.17586784471E+04  0.17586784471E+04  0.50400001928E-02 0.  1.
    10030    2    1    2    0    0  0.00000000000E+00  0.00000000000E+00  0.22532048689E+03  0.37426773810E+04  0.37358887372E+04 0.  0.
        5    1    3    3  502    0  0.80752377290E+03  0.62790362936E+03 -0.14531374750E+04  0.17770729368E+04  0.46999998093E+01 0.  1.
       -5    1    3    3    0  502 -0.80752377290E+03 -0.62790362936E+03  0.16784579618E+04  0.19656044442E+04  0.46999998093E+01 0. -1.
</event>
<event>
 5   0  0.3704306E-07  0.3352848E+04  0.7818609E-02  0.8149577E-01
       -1   -1    0    0    0  501  0.00000000000E+00  0.00000000000E+00  0.16852001111E+04  0.16852001111E+04  0.50400001928E-02 0.  1.
        1   -1    0    0  501    0  0.00000000000E+00  0.00000000000E+00 -0.16676932956E+04  0.16676932957E+04  0.50400001928E-02 0. -1.
    10030    2    1    2    0    0  0.00000000000E+00  0.00000000000E+00  0.17506815472E+02  0.33528934068E+04  0.33528477014E+04 0.  0.
        3    1    3    3  502    0  0.79813386317E+03  0.14545163397E+04  0.24909284655E+03  0.16777016130E+04  0.10100000352E+00 0. -1.
       -3    1    3    3    0  502 -0.79813386317E+03 -0.14545163397E+04 -0.23158603108E+03  0.16751917938E+04  0.10100000352E+00 0.  1.
</event>
<event>
 5   0  0.3848431E-07  0.2888883E+04  0.7818609E-02  0.8276193E-01
       -1   -1    0    0    0  501  0.00000000000E+00  0.00000000000E+00  0.12375005684E+04  0.12375005684E+04  0.50400001928E-02 0. -1.
        1   -1    0    0  501    0  0.00000000000E+00  0.00000000000E+00 -0.16859885732E+04  0.16859885732E+04  0.50400001928E-02 0.  1.
    10030    2    1    2    0    0  0.00000000000E+00  0.00000000000E+00 -0.44848800486E+03  0.29234891416E+04  0.28888833951E+04 0.  0.
        2    1    3    3  502    0  0.66427049646E+03  0.12605517064E+04 -0.46407643561E+03  0.14985368981E+04  0.25500000920E-02 0. -1.
       -2    1    3    3    0  502 -0.66427049646E+03 -0.12605517064E+04  0.15588430754E+02  0.14249522435E+04  0.25500000920E-02 0.  1.
</event>
<event>
 5   0  0.1128530E-06  0.3707469E+04  0.7818609E-02  0.8066309E-01
        2   -1    0    0  501    0  0.00000000000E+00  0.00000000000E+00  0.21450108480E+04  0.21450108480E+04  0.25500000920E-02 0. -1.
       -2   -1    0    0    0  501  0.00000000000E+00  0.00000000000E+00 -0.16020116562E+04  0.16020116562E+04  0.25500000920E-02 0.  1.
    10030    2    1    2    0    0  0.00000000000E+00  0.00000000000E+00  0.54299919183E+03  0.37470225042E+04  0.37074694233E+04 0.  0.
        5    1    3    3  502    0  0.11357423184E+04 -0.13231481685E+04 -0.36424108914E+03  0.17813829882E+04  0.46999998093E+01 0.  1.
       -5    1    3    3    0  502 -0.11357423184E+04  0.13231481685E+04  0.90724028097E+03  0.19656395160E+04  0.46999998093E+01 0. -1.
</event>
<event>
 5   0  0.3682276E-07  0.3766720E+04  0.7818609E-02  0.8053335E-01
        1   -1    0    0  501    0  0.00000000000E+00  0.00000000000E+00  0.16571624045E+04  0.16571624045E+04  0.50400001928E-02 0. -1.
       -1   -1    0    0    0  501  0.00000000000E+00  0.00000000000E+00 -0.21404326845E+04  0.21404326845E+04  0.50400001928E-02 0.  1.
    10030    2    1    2    0    0  0.00000000000E+00  0.00000000000E+00 -0.48327027997E+03  0.37975950890E+04  0.37667198325E+04 0.  0.
        1    1    3    3  502    0 -0.16286393720E+04 -0.76578321865E+03 -0.80130194353E+03  0.19700190219E+04  0.50400001928E-02 0.  1.
       -1    1    3    3    0  502  0.16286393720E+04  0.76578321865E+03  0.31803166356E+03  0.18275760671E+04  0.50400001928E-02 0. -1.
</event>
<event>
 5   0  0.3675819E-07  0.3707274E+04  0.7818609E-02  0.8066352E-01
        1   -1    0    0  501    0  0.00000000000E+00  0.00000000000E+00  0.25142282588E+04  0.25142282588E+04  0.50400001928E-02 0. -1.
       -1   -1    0    0    0  501  0.00000000000E+00  0.00000000000E+00 -0.13666104568E+04  0.13666104568E+04  0.50400001928E-02 0.  1.
    10030    2    1    2    0    0  0.00000000000E+00  0.00000000000E+00  0.11476178020E+04  0.38808387156E+04  0.37072742705E+04 0.  0.
        5    1    3    3  502    0 -0.85501406919E+03 -0.16077324081E+04  0.21103576376E+03  0.18331423126E+04  0.46999998093E+01 0.  1.
       -5    1    3    3    0  502  0.85501406919E+03  0.16077324081E+04  0.93658203821E+03  0.20476964030E+04  0.46999998093E+01 0. -1.
</event>
<event>
 5   0  0.1051123E-06  0.2595624E+04  0.7818609E-02  0.8369689E-01
        2   -1    0    0  501    0  0.00000000000E+00  0.00000000000E+00  0.12371642979E+04  0.12371642979E+04  0.25500000920E-02 0.  1.
       -2   -1    0    0    0  501  0.00000000000E+00  0.00000000000E+00 -0.13614325353E+04  0.13614325353E+04  0.25500000920E-02 0. -1.
    10030    2    1    2    0    0  0.00000000000E+00  0.00000000000E+00 -0.12426823744E+03  0.25985968332E+04  0.25956237992E+04 0.  0.
        2    1    3    3  502    0  0.11596697849E+04  0.17653188242E+03 -0.61803421093E+03  0.13258822729E+04  0.25500000920E-02 0. -1.
       -2    1    3    3    0  502 -0.11596697849E+04 -0.17653188242E+03  0.49376597349E+03  0.12727145604E+04  0.25500000920E-02 0.  1.
</event>
<event>
 5   0  0.3848431E-07  0.2881918E+04  0.7818609E-02  0.8278278E-01
       -1   -1    0    0    0  501  0.00000000000E+00  0.00000000000E+00  0.93490619050E+03  0.93490619051E+03  0.50400001928E-02 0. -1.
        1   -1    0    0  501    0  0.00000000000E+00  0.00000000000E+00 -0.22209311857E+04  0.22209311858E+04  0.50400001928E-02 0.  1.
    10030    2    1    2    0    0  0.00000000000E+00  0.00000000000E+00 -0.12860249952E+04  0.31558373763E+04  0.28819176354E+04 0.  0.
        2    1    3    3  502    0  0.11110468930E+04  0.44091318925E+03  0.23816600808E+03  0.12188325096E+04  0.25500000920E-02 0.  1.
       -2    1    3    3    0  502 -0.11110468930E+04 -0.44091318925E+03 -0.15241910033E+04  0.19370048667E+04  0.25500000920E-02 0. -1.
</event>
<event>
 5   0  0.1128530E-06  0.3698422E+04  0.7818609E-02  0.8068312E-01
       -2   -1    0    0    0  501  0.00000000000E+00  0.00000000000E+00  0.16269174002E+04  0.16269174002E+04  0.25500000920E-02 0.  1.
        2   -1    0    0  501    0  0.00000000000E+00  0.00000000000E+00 -0.21018777247E+04  0.21018777247E+04  0.25500000920E-02 0. -1.
    10030    2    1    2    0    0  0.00000000000E+00  0.00000000000E+00 -0.47496032448E+03  0.37287951249E+04  0.36984220654E+04 0.  0.
        5    1    3    3  502    0 -0.55735681284E+02  0.10145438009E+04  0.13202500661E+04  0.16659795668E+04  0.46999998093E+01 0.  1.
       -5    1    3    3    0  502  0.55735681284E+02 -0.10145438009E+04 -0.17952103906E+04  0.20628155581E+04  0.46999998093E+01 0. -1.
</event>
<event>
 5   0  0.3682276E-07  0.3697503E+04  0.7818609E-02  0.8068515E-01
        1   -1    0    0  501    0  0.00000000000E+00  0.00000000000E+00  0.15634905203E+04  0.15634905203E+04  0.50400001928E-02 0. -1.
       -1   -1    0    0    0  501  0.00000000000E+00  0.00000000000E+00 -0.21860587196E+04  0.21860587197E+04  0.50400001928E-02 0.  1.
    10030    2    1    2    0    0  0.00000000000E+00  0.00000000000E+00 -0.62256819939E+03  0.37495492399E+04  0.36975029871E+04 0.  0.
        1    1    3    3  502    0 -0.66112739931E+03 -0.81510803086E+03  0.12321088542E+04  0.16185125173E+04  0.50400001928E-02 0. -1.
       -1    1    3    3    0  502  0.66112739931E+03  0.81510803086E+03 -0.18546770536E+04  0.21310367226E+04  0.50400001928E-02 0.  1.
</event>
<event>
 5   0  0.1128166E-06  0.2422801E+04  0.7818609E-02  0.8431016E-01
        2   -1    0    0  501    0  0.00000000000E+00  0.00000000000E+00  0.22719439980E+04  0.22719439980E+04  0.25500000920E-02 0. -1.
       -2   -1    0    0    0  501  0.00000000000E+00  0.00000000000E+00 -0.64591884608E+03  0.64591884608E+03  0.25500000920E-02 0.  1.
    10030    2    1    2    0    0  0.00000000000E+00  0.00000000000E+00  0.16260251519E+04  0.29178628441E+04  0.24228012263E+04 0.  0.
        3    1    3    3  502    0 -0.20396755219E+03  0.35146817562E+03  0.21874102531E+04  0.22248362336E+04  0.10100000352E+00 0. -1.
       -3    1    3    3    0  502  0.20396755219E+03 -0.35146817562E+03 -0.56138510117E+03  0.69302661048E+03  0.10100000352E+00 0.  1.
</event>
<event>
 5   0  0.1128530E-06  0.3662760E+04  0.7818609E-02  0.8076265E-01
       -2   -1    0    0    0  501  0.00000000000E+00  0.00000000000E+00  0.15587418141E+04  0.15587418141E+04  0.25500000920E-02 0. -1.
        2   -1    0    0  501    0  0.00000000000E+00  0.00000000000E+00 -0.21517049631E+04  0.21517049631E+04  0.25500000920E-02 0.  1.
    10030    2    1    2    0    0  0.00000000000E+00  0.00000000000E+00 -0.59296314904E+03  0.37104467773E+04  0.36627598871E+04 0.  0.
        5    1    3    3  502    0  0.22700401640E+03  0.14842810178E+04 -0.13586117236E+04  0.20249614487E+04  0.46999998093E+01 0.  1.
       -5    1    3    3    0  502 -0.22700401640E+03 -0.14842810178E+04  0.76564857456E+03  0.16854853286E+04  0.46999998093E+01 0. -1.
</event>
<event>
 5   0  0.3682276E-07  0.3644229E+04  0.7818609E-02  0.8080435E-01
        1   -1    0    0  501    0  0.00000000000E+00  0.00000000000E+00  0.20370922696E+04  0.20370922696E+04  0.50400001928E-02 0. -1.
       -1   -1    0    0    0  501  0.00000000000E+00  0.00000000000E+00 -0.16298232623E+04  0.16298232623E+04  0.50400001928E-02 0.  1.
    10030    2    1    2    0    0  0.00000000000E+00  0.00000000000E+00  0.40726900729E+03  0.36669155319E+04  0.36442285156E+04 0.  0.
        1    1    3    3  502    0 -0.95863994177E+03 -0.68140637568E+01  0.17628175997E+04  0.20066297265E+04  0.50400001928E-02 0. -1.
       -1    1    3    3    0  502  0.95863994177E+03  0.68140637568E+01 -0.13555485924E+04  0.16602858055E+04  0.50400001928E-02 0.  1.
</event>
<event>
 5   0  0.1051123E-06  0.2933796E+04  0.7818609E-02  0.8262893E-01
       -2   -1    0    0    0  501  0.00000000000E+00  0.00000000000E+00  0.77369135087E+03  0.77369135088E+03  0.25500000920E-02 0.  1.
        2   -1    0    0  501    0  0.00000000000E+00  0.00000000000E+00 -0.27811990598E+04  0.27811990598E+04  0.25500000920E-02 0. -1.
    10030    2    1    2    0    0  0.00000000000E+00  0.00000000000E+00 -0.20075077089E+04  0.35548904107E+04  0.29337959422E+04 0.  0.
        2    1    3    3  502    0  0.73319324364E+03 -0.12855520727E+03  0.52783674460E+03  0.91252967228E+03  0.25500000920E-02 0.  1.
       -2    1    3    3    0  502 -0.73319324364E+03  0.12855520727E+03 -0.25353444535E+04  0.26423607384E+04  0.25500000920E-02 0. -1.
</event>
<event>
 5   0  0.1128530E-06  0.2294674E+04  0.7818609E-02  0.8480024E-01
        2   -1    0    0  501    0  0.00000000000E+00  0.00000000000E+00  0.25050174802E+04  0.25050174802E+04  0.25500000920E-02 0.  1.
       -2   -1    0    0    0  501  0.00000000000E+00  0.00000000000E+00 -0.52549819678E+03  0.52549819678E+03  0.25500000920E-02 0. -1.
    10030    2    1    2    0    0  0.00000000000E+00  0.00000000000E+00  0.19795192834E+04  0.30305156770E+04  0.22946739801E+04 0.  0.
        5    1    3    3  502    0 -0.16339315252E+02  0.10032554851E+04  0.25494795363E+03  0.10352821310E+04  0.46999998093E+01 0. -1.
       -5    1    3    3    0  502  0.16339315252E+02 -0.10032554851E+04  0.17245713298E+04  0.19952335460E+04  0.46999998093E+01 0.  1.
</event>
<event>
 5   0  0.3764495E-07  0.3628238E+04  0.7818609E-02  0.8084054E-01
       -1   -1    0    0    0  501  0.00000000000E+00  0.00000000000E+00  0.12402663917E+04  0.12402663917E+04  0.50400001928E-02 0.  1.
        1   -1    0    0  501    0  0.00000000000E+00  0.00000000000E+00 -0.26534841551E+04  0.26534841551E+04  0.50400001928E-02 0. -1.
    10030    2    1    2    0    0  0.00000000000E+00  0.00000000000E+00 -0.14132177634E+04  0.38937505468E+04  0.36282377091E+04 0.  0.
        4    1    3    3  502    0 -0.15582370339E+04  0.84716017854E+03 -0.11156051781E+04  0.20953184837E+04  0.12699999809E+01 0. -1.
       -4    1    3    3    0  502  0.15582370339E+04 -0.84716017854E+03 -0.29761258526E+03  0.17984320631E+04  0.12699999809E+01 0.  1.
</event>
<event>
 5   0  0.1128530E-06  0.3524006E+04  0.7818609E-02  0.8108124E-01
        2   -1    0    0  501    0  0.00000000000E+00  0.00000000000E+00  0.25565351748E+04  0.25565351748E+04  0.25500000920E-02 0. -1.
       -2   -1    0    0    0  501  0.00000000000E+00  0.00000000000E+00 -0.12143995610E+04  0.12143995610E+04  0.25500000920E-02 0.  1.
    10030    2    1    2    0    0  0.00000000000E+00  0.00000000000E+00  0.13421356139E+04  0.37709347358E+04  0.35240063530E+04 0.  0.
        5    1    3    3  502    0 -0.11206295939E+03 -0.97704407083E+03  0.22355164804E+04  0.24422795187E+04  0.46999998093E+01 0. -1.
       -5    1    3    3    0  502  0.11206295939E+03  0.97704407083E+03 -0.89338086658E+03  0.13286552171E+04  0.46999998093E+01 0.  1.
</event>
<event>
 5   0  0.3764495E-07  0.3750678E+04  0.7818609E-02  0.8056823E-01
        1   -1    0    0  501    0  0.00000000000E+00  0.00000000000E+00  0.27478566046E+04  0.27478566046E+04  0.50400001928E-02 0.  1.
       -1   -1    0    0    0  501  0.00000000000E+00  0.00000000000E+00 -0.12798686649E+04  0.12798686649E+04  0.50400001928E-02 0. -1.
    10030    2    1    2    0    0  0.00000000000E+00  0.00000000000E+00  0.14679879398E+04  0.40277252695E+04  0.37506775728E+04 0.  0.
        4    1    3    3  502    0 -0.13990815817E+03 -0.17705398855E+04  0.87433708229E+02  0.17782103489E+04  0.12699999809E+01 0. -1.
       -4    1    3    3    0  502  0.13990815817E+03  0.17705398855E+04  0.13805542315E+04  0.22495149206E+04  0.12699999809E+01 0.  1.
</event>
<event>
 5   0  0.3675819E-07  0.3665639E+04  0.7818609E-02  0.8075620E-01
       -1   -1    0    0    0  501  0.00000000000E+00  0.00000000000E+00  0.10736131945E+04  0.10736131945E+04  0.50400001928E-02 0. -1.
        1   -1    0    0  501    0  0.00000000000E+00  0.00000000000E+00 -0.31288989353E+04  0.31288989353E+04  0.50400001928E-02 0.  1.
    10030    2    1    2    0    0  0.00000000000E+00  0.00000000000E+00 -0.20552857408E+04  0.42025121298E+04  0.36656389245E+04 0.  0.
        5    1    3    3  502    0  0.42607177269E+03 -0.28035538388E+03 -0.30458925890E+04  0.30883037497E+04  0.46999998093E+01 0.  1.
       -5    1    3    3    0  502 -0.42607177269E+03  0.28035538388E+03  0.99060684818E+03  0.11142083802E+04  0.46999998093E+01 0. -1.
</event>
<event>
 5   0  0.3675819E-07  0.3201619E+04  0.7818609E-02  0.8188390E-01
        1   -1    0    0  501    0  0.00000000000E+00  0.00000000000E+00  0.12988916547E+04  0.12988916547E+04  0.50400001928E-02 0.  1.
       -1   -1    0    0    0  501  0.00000000000E+00  0.00000000000E+00 -0.19729060879E+04  0.19729060879E+04  0.50400001928E-02 0. -1.
    10030    2    1    2    0    0  0.00000000000E+00  0.00000000000E+00 -0.67401443314E+03  0.32717977426E+04  0.32016191236E+04 0.  0.
        5    1    3    3  502    0  0.50297212484E+03  0.15078008813E+04 -0.53123839715E+03  0.16759119251E+04  0.46999998093E+01 0. -1.
       -5    1    3    3    0  502 -0.50297212484E+03 -0.15078008813E+04 -0.14277603599E+03  0.15958858175E+04  0.46999998093E+01 0.  1.
</event>
<event>
 5   0  0.1128166E-06  0.3664643E+04  0.7818609E-02  0.8075843E-01
        2   -1    0    0  501    0  0.00000000000E+00  0.00000000000E+00  0.24021997222E+04  0.24021997222E+04  0.25500000920E-02 0.  1.
       -2   -1    0    0    0  501  0.00000000000E+00  0.00000000000E+00 -0.13976364775E+04  0.13976364775E+04  0.25500000920E-02 0. -1.
    10030    2    1    2    0    0  0.00000000000E+00  0.00000000000E+00  0.10045632447E+04  0.37998361997E+04  0.36646429338E+04 0.  0.
        3    1    3    3  502    0  0.12747004953E+04 -0.63668565413E+02 -0.86093934675E+03  0.15395231755E+04  0.10100000352E+00 0. -1.
       -3    1    3    3    0  502 -0.12747004953E+04  0.63668565413E+02  0.18655025914E+04  0.22603130242E+04  0.10100000352E+00 0.  1.
</event>
<event>
 5   0  0.3675819E-07  0.3702207E+04  0.7818609E-02  0.8067473E-01
        1   -1    0    0  501    0  0.00000000000E+00  0.00000000000E+00  0.17917786050E+04  0.17917786050E+04  0.50400001928E-02 0. -1.
       -1   -1    0    0    0  501  0.00000000000E+00  0.00000000000E+00 -0.19123930609E+04  0.19123930609E+04  0.50400001928E-02 0.  1.
    10030    2    1    2    0    0  0.00000000000E+00  0.00000000000E+00 -0.12061445586E+03  0.37041716659E+04  0.37022074339E+04 0.  0.
        5    1    3    3  502    0 -0.81045631118E+03 -0.10743104574E+04 -0.13320364678E+04  0.18934956120E+04  0.46999998093E+01 0.  1.
       -5    1    3    3    0  502  0.81045631118E+03  0.10743104574E+04  0.12114220119E+04  0.18106760539E+04  0.46999998093E+01 0. -1.
</event>
<event>
 5   0  0.3675819E-07  0.3652914E+04  0.7818609E-02  0.8078478E-01
       -1   -1    0    0    0  501  0.00000000000E+00  0.00000000000E+00  0.15967406597E+04  0.15967406597E+04  0.50400001928E-02 0.  1.
        1   -1    0    0  501    0  0.00000000000E+00  0.00000000000E+00 -0.20892214335E+04  0.20892214335E+04  0.50400001928E-02 0. -1.
    10030    2    1    2    0    0  0.00000000000E+00  0.00000000000E+00 -0.49248077380E+03  0.36859620932E+04  0.36529138013E+04 0.  0.
        5    1    3    3  502    0 -0.37415165194E+03  0.17684531660E+04  0.17865353439E+02  0.18076939231E+04  0.46999998093E+01 0.  1.
       -5    1    3    3    0  502  0.37415165194E+03 -0.17684531660E+04 -0.51034612724E+03  0.18782681700E+04  0.46999998093E+01 0. -1.
</event>
<event>
 5   0  0.1128166E-06  0.3616641E+04  0.7818609E-02  0.8086691E-01
        2   -1    0    0  501    0  0.00000000000E+00  0.00000000000E+00  0.22070805197E+04  0.22070805197E+04  0.25500000920E-02 0.  1.
       -2   -1    0    0    0  501  0.00000000000E+00  0.00000000000E+00 -0.14816053801E+04  0.14816053801E+04  0.25500000920E-02 0. -1.
    10030    2    1    2    0    0  0.00000000000E+00  0.00000000000E+00  0.72547513962E+03  0.36886858998E+04  0.36166406359E+04 0.  0.
        3    1    3    3  502    0  0.12162922881E+04  0.79338429301E+03  0.14617920787E+04  0.20605003417E+04  0.10100000352E+00 0. -1.
       -3    1    3    3    0  502 -0.12162922881E+04 -0.79338429301E+03 -0.73631693913E+03  0.16281855581E+04  0.10100000352E+00 0.  1.
</event>
<event>
 5   0  0.1092116E-06  0.3601196E+04  0.7818609E-02  0.8090218E-01
       -2   -1    0    0    0  501  0.00000000000E+00  0.00000000000E+00  0.21118688912E+04  0.21118688912E+04  0.25500000920E-02 0.  1.
        2   -1    0    0  501    0  0.00000000000E+00  0.00000000000E+00 -0.15352057781E+04  0.15352057781E+04  0.25500000920E-02 0. -1.
    10030    2    1    2    0    0  0.00000000000E+00  0.00000000000E+00  0.57666311320E+03  0.36470746693E+04  0.36011960926E+04 0.  0.
        1    1    3    3  502    0  0.12832260021E+04 -0.12556702963E+04  0.14955863595E+03  0.18015950297E+04  0.50400001928E-02 0.  1.
       -1    1    3    3    0  502 -0.12832260021E+04  0.12556702963E+04  0.42710447725E+03  0.18454796396E+04  0.50400001928E-02 0. -1.
</event>
<event>
 5   0  0.1066907E-06  0.3274488E+04  0.7818609E-02  0.8169417E-01
        2   -1    0    0  501    0  0.00000000000E+00  0.00000000000E+00  0.19592799064E+04  0.19592799064E+04  0.25500000920E-02 0. -1.
       -2   -1    0    0    0  501  0.00000000000E+00  0.00000000000E+00 -0.13681393800E+04  0.13681393800E+04  0.25500000920E-02 0.  1.
    10030    2    1    2    0    0  0.00000000000E+00  0.00000000000E+00  0.59114052642E+03  0.33274192864E+04  0.32744880494E+04 0.  0.
        4    1    3    3  502    0  0.16058203221E+04 -0.16032961235E+03  0.15061135591E+02  0.16138751321E+04  0.12699999809E+01 0.  1.
       -4    1    3    3    0  502 -0.16058203221E+04  0.16032961235E+03  0.57607939083E+03  0.17135441543E+04  0.12699999809E+01 0. -1.
</event>
<event>
 5   0  0.3764495E-07  0.3646145E+04  0.7818609E-02  0.8080003E-01
       -1   -1    0    0    0  501  0.00000000000E+00  0.00000000000E+00  0.21060157070E+04  0.21060157070E+04  0.50400001928E-02 0. -1.
        1   -1    0    0  501    0  0.00000000000E+00  0.00000000000E+00 -0.15781426384E+04  0.15781426384E+04  0.50400001928E-02 0.  1.
    10030    2    1    2    0    0  0.00000000000E+00  0.00000000000E+00  0.52787306859E+03  0.36841583454E+04  0.36461449145E+04 0.  0.
        4    1    3    3  502    0  0.10098696188E+04 -0.27121870557E+02  0.17973283957E+04  0.20617864142E+04  0.12699999809E+01 0. -1.
       -4    1    3    3    0  502 -0.10098696188E+04  0.27121870557E+02 -0.12694553271E+04  0.16223719312E+04  0.12699999809E+01 0.  1.
</event>
<event>
 5   0  0.1128530E-06  0.3734761E+04  0.7818609E-02  0.8060302E-01
        2   -1    0    0  501    0  0.00000000000E+00  0.00000000000E+00  0.23713216153E+04  0.23713216153E+04  0.25500000920E-02 0. -1.
       -2   -1    0    0    0  501  0.00000000000E+00  0.00000000000E+00 -0.14705342973E+04  0.14705342973E+04  0.25500000920E-02 0.  1.
    10030    2    1    2    0    0  0.00000000000E+00  0.00000000000E+00  0.90078731800E+03  0.38418559126E+04  0.37347609108E+04 0.  0.
        5    1    3    3  502    0  0.13639790506E+04  0.12496301328E+04  0.18798396771E+03  0.18594016192E+04  0.46999998093E+01 0.  1.
       -5    1    3    3    0  502 -0.13639790506E+04 -0.12496301328E+04  0.71280335030E+03  0.19824542934E+04  0.46999998093E+01 0. -1.
</event>
<event>
 5   0  0.3764495E-07  0.2849328E+04  0.7818609E-02  0.8288116E-01
        1   -1    0    0  501    0  0.00000000000E+00  0.00000000000E+00  0.19567890248E+04  0.19567890248E+04  0.50400001928E-02 0.  1.
       -1   -1    0    0    0  501  0.00000000000E+00  0.00000000000E+00 -0.10372436005E+04  0.10372436005E+04  0.50400001928E-02 0. -1.
    10030    2    1    2    0    0  0.00000000000E+00  0.00000000000E+00  0.91954542431E+03  0.29940326253E+04  0.28493275652E+04 0.  0.
        4    1    3    3  502    0  0.25930731511E+03  0.40505249673E+03 -0.94936085584E+03  0.10642346810E+04  0.12699999809E+01 0. -1.
       -4    1    3    3    0  502 -0.25930731511E+03 -0.40505249673E+03  0.18689062802E+04  0.19297979443E+04  0.12699999809E+01 0.  1.
</event>
<event>
 5   0  0.1092116E-06  0.2929323E+04  0.7818609E-02  0.8264206E-01
       -2   -1    0    0    0  501  0.00000000000E+00  0.00000000000E+00  0.11366807213E+04  0.11366807213E+04  0.25500000920E-02 0. -1.
        2   -1    0    0  501    0  0.00000000000E+00  0.00000000000E+00 -0.18872792369E+04  0.18872792369E+04  0.25500000920E-02 0.  1.
    10030    2    1    2    0    0  0.00000000000E+00  0.00000000000E+00 -0.75059851558E+03  0.30239599583E+04  0.29293234198E+04 0.  0.
        1    1    3    3  502    0  0.68362688743E+03 -0.12804612283E+04 -0.57734475535E+03  0.15621311229E+04  0.50400001928E-02 0. -1.
       -1    1    3    3    0  502 -0.68362688743E+03  0.12804612283E+04 -0.17325376023E+03  0.14618288354E+04  0.50400001928E-02 0.  1.
</event>
<event>
 5   0  0.1128530E-06  0.3727749E+04  0.7818609E-02  0.8061840E-01
       -2   -1    0    0    0  501  0.00000000000E+00  0.00000000000E+00  0.14665852960E+04  0.14665852960E+04  0.25500000920E-02 0.  1.
        2   -1    0    0  501    0  0.00000000000E+00  0.00000000000E+00 -0.23687871572E+04  0.23687871572E+04  0.25500000920E-02 0. -1.
    10030    2    1    2    0    0  0.00000000000E+00  0.00000000000E+00 -0.90220186115E+03  0.38353724532E+04  0.37277491408E+04 0.  0.
        5    1    3    3  502    0 -0.31676529004E+03  0.13552499788E+04 -0.17266367320E+04  0.22177329074E+04  0.46999998093E+01 0. -1.
       -5    1    3    3    0  502  0.31676529004E+03 -0.13552499788E+04  0.82443487084E+03  0.16176395459E+04  0.46999998093E+01 0.  1.
</event>
<event>
 5   0  0.1051123E-06  0.2396373E+04  0.7818609E-02  0.8440863E-01
       -2   -1    0    0    0  501  0.00000000000E+00  0.00000000000E+00  0.80627165255E+03  0.80627165256E+03  0.25500000920E-02 0. -1.
        2   -1    0    0  501    0  0.00000000000E+00  0.00000000000E+00 -0.17806048431E+04  0.17806048431E+04  0.25500000920E-02 0.  1.
    10030    2    1    2    0    0  0.00000000000E+00  0.00000000000E+00 -0.97433319058E+03  0.25868764957E+04  0.23963732676E+04 0.  0.
        2    1    3    3  502    0  0.10127747277E+04  0.42530802164E+03 -0.10038064887E+04  0.14880278993E+04  0.25500000920E-02 0.  1.
       -2    1    3    3    0  502 -0.10127747277E+04 -0.42530802164E+03  0.29473298142E+02  0.10988485964E+04  0.25500000920E-02 0. -1.
</event>
<event>
 5   0  0.3704306E-07  0.3675491E+04  0.7818609E-02  0.8073415E-01
       -1   -1    0    0    0  501  0.00000000000E+00  0.00000000000E+00  0.20674501111E+04  0.20674501111E+04  0.50400001928E-02 0.  1.
        1   -1    0    0  501    0  0.00000000000E+00  0.00000000000E+00 -0.16335618611E+04  0.16335618611E+04  0.50400001928E-02 0. -1.
    10030    2    1    2    0    0  0.00000000000E+00  0.00000000000E+00  0.43388825001E+03  0.37010119721E+04  0.36754905257E+04 0.  0.
        3    1    3    3  502    0 -0.94695638204E+03  0.38605247805E+03 -0.13205981256E+04  0.16702521740E+04  0.10100000352E+00 0. -1.
       -3    1    3    3    0  502  0.94695638204E+03 -0.38605247805E+03  0.17544863756E+04  0.20307597981E+04  0.10100000352E+00 0.  1.
</event>
<event>
 5   0  0.3764495E-07  0.3359404E+04  0.7818609E-02  0.8147943E-01
       -1   -1    0    0    0  501  0.00000000000E+00  0.00000000000E+00  0.14883312746E+04  0.14883312746E+04  0.50400001928E-02 0.  1.
        1   -1    0    0  501    0  0.00000000000E+00  0.00000000000E+00 -0.18956788052E+04  0.18956788052E+04  0.50400001928E-02 0. -1.
    10030    2    1    2    0    0  0.00000000000E+00  0.00000000000E+00 -0.40734753063E+03  0.33840100798E+04  0.33594035497E+04 0.  0.
        4    1    3    3  502    0  0.33990363573E+03  0.14853184214E+04  0.50839231425E+03  0.16062906501E+04  0.12699999809E+01 0. -1.
       -4    1    3    3    0  502 -0.33990363573E+03 -0.14853184214E+04 -0.91573984488E+03  0.17777194298E+04  0.12699999809E+01 0.  1.
</event>
<event>
 5   0  0.1051123E-06  0.3660860E+04  0.7818609E-02  0.8076691E-01
       -2   -1    0    0    0  501  0.00000000000E+00  0.00000000000E+00  0.21680926779E+04  0.21680926779E+04  0.25500000920E-02 0.  1.
        2   -1    0    0  501    0  0.00000000000E+00  0.00000000000E+00 -0.15453557438E+04  0.15453557438E+04  0.25500000920E-02 0. -1.
    10030    2    1    2    0    0  0.00000000000E+00  0.00000000000E+00  0.62273693413E+03  0.37134484217E+04  0.36608602666E+04 0.  0.
        2    1    3    3  502    0 -0.18264653328E+04  0.25534010357E+02  0.19200535549E+03  0.18367072860E+04  0.25500000920E-02 0.  1.
       -2    1    3    3    0  502  0.18264653328E+04 -0.25534010357E+02  0.43073157864E+03  0.18767411357E+04  0.25500000920E-02 0. -1.
</event>
<event>
 5   0  0.1128530E-06  0.2987814E+04  0.7818609E-02  0.8247219E-01
       -2   -1    0    0    0  501  0.00000000000E+00  0.00000000000E+00  0.19309972668E+04  0.19309972668E+04  0.25500000920E-02 0.  1.
        2   -1    0    0  501    0  0.00000000000E+00  0.00000000000E+00 -0.11557540892E+04  0.11557540892E+04  0.25500000920E-02 0. -1.
    10030    2    1    2    0    0  0.00000000000E+00  0.00000000000E+00  0.77524317761E+03  0.30867513560E+04  0.29878139081E+04 0.  0.
        5    1    3    3  502    0 -0.98424015764E+03 -0.93945803146E+03 -0.24958916103E+03  0.13833390474E+04  0.46999998093E+01 0. -1.
       -5    1    3    3    0  502  0.98424015764E+03  0.93945803146E+03  0.10248323386E+04  0.17034123086E+04  0.46999998093E+01 0.  1.
</event>
<event>
 5   0  0.3682276E-07  0.3332068E+04  0.7818609E-02  0.8154783E-01
        1   -1    0    0  501    0  0.00000000000E+00  0.00000000000E+00  0.23555458385E+04  0.23555458385E+04  0.50400001928E-02 0.  1.
       -1   -1    0    0    0  501  0.00000000000E+00  0.00000000000E+00 -0.11783551574E+04  0.11783551574E+04  0.50400001928E-02 0. -1.
    10030    2    1    2    0    0  0.00000000000E+00  0.00000000000E+00  0.11771906811E+04  0.35339009959E+04  0.33320681790E+04 0.  0.
        1    1    3    3  502    0  0.15454156804E+04 -0.58168093877E+03  0.82338050712E+03  0.18451606432E+04  0.50400001928E-02 0. -1.
       -1    1    3    3    0  502 -0.15454156804E+04  0.58168093877E+03  0.35381017399E+03  0.16887403527E+04  0.50400001928E-02 0.  1.
</event>
<event>
 5   0  0.3848431E-07  0.3661834E+04  0.7818609E-02  0.8076473E-01
        1   -1    0    0  501    0  0.00000000000E+00  0.00000000000E+00  0.11997682727E+04  0.11997682727E+04  0.50400001928E-02 0.  1.
       -1   -1    0    0    0  501  0.00000000000E+00  0.00000000000E+00 -0.27940869269E+04  0.27940869269E+04  0.50400001928E-02 0. -1.
    10030    2    1    2    0    0  0.00000000000E+00  0.00000000000E+00 -0.15943186542E+04  0.39938551996E+04  0.36618338827E+04 0.  0.
        2    1    3    3  502    0  0.17353442640E+04 -0.31018399351E+03 -0.25772032966E+03  0.17815873800E+04  0.25500000920E-02 0.  1.
       -2    1    3    3    0  502 -0.17353442640E+04  0.31018399351E+03 -0.13365983246E+04  0.22122678196E+04  0.25500000920E-02 0. -1.
</event>
<event>
 5   0  0.1066907E-06  0.3175718E+04  0.7818609E-02  0.8195260E-01
        2   -1    0    0  501    0  0.00000000000E+00  0.00000000000E+00  0.21909400452E+04  0.21909400452E+04  0.25500000920E-02 0.  1.
       -2   -1    0    0    0  501  0.00000000000E+00  0.00000000000E+00 -0.11507827225E+04  0.11507827225E+04  0.25500000920E-02 0. -1.
    10030    2    1    2    0    0  0.00000000000E+00  0.00000000000E+00  0.10401573227E+04  0.33417227677E+04  0.31757178401E+04 0.  0.
        4    1    3    3  502    0 -0.63521126749E+03 -0.92193081735E+02  0.20483407197E+04  0.21465540374E+04  0.12699999809E+01 0.  1.
       -4    1    3    3    0  502  0.63521126749E+03  0.92193081735E+02 -0.10081833971E+04  0.11951687302E+04  0.12699999809E+01 0. -1.
</event>
<event>
 5   0  0.1066907E-06  0.3672489E+04  0.7818609E-02  0.8074086E-01
       -2   -1    0    0    0  501  0.00000000000E+00  0.00000000000E+00  0.15457349429E+04  0.15457349429E+04  0.25500000920E-02 0. -1.
        2   -1    0    0  501    0  0.00000000000E+00  0.00000000000E+00 -0.21813536812E+04  0.21813536812E+04  0.25500000920E-02 0.  1.
    10030    2    1    2    0    0  0.00000000000E+00  0.00000000000E+00 -0.63561873829E+03  0.37270886241E+04  0.36724894052E+04 0.  0.
        4    1    3    3  502    0 -0.10027613747E+03 -0.14344900529E+04 -0.14767040347E+04  0.20611825330E+04  0.12699999809E+01 0.  1.
       -4    1    3    3    0  502  0.10027613747E+03  0.14344900529E+04  0.84108529641E+03  0.16659060911E+04  0.12699999809E+01 0. -1.
</event>
<event>
 5   0  0.1066907E-06  0.3802189E+04  0.7818609E-02  0.8045685E-01
       -2   -1    0    0    0  501  0.00000000000E+00  0.00000000000E+00  0.27762753838E+04  0.27762753838E+04  0.25500000920E-02 0.  1.
        2   -1    0    0  501    0  0.00000000000E+00  0.00000000000E+00 -0.13018018815E+04  0.13018018815E+04  0.25500000920E-02 0. -1.
    10030    2    1    2    0    0  0.00000000000E+00  0.00000000000E+00  0.14744735023E+04  0.40780772653E+04  0.38021891158E+04 0.  0.
        4    1    3    3  502    0 -0.12716190074E+04 -0.59706683779E+03  0.21110585235E+04  0.25357589418E+04  0.12699999809E+01 0.  1.
       -4    1    3    3    0  502  0.12716190074E+04  0.59706683779E+03 -0.63658502116E+03  0.15423183234E+04  0.12699999809E+01 0. -1.
</event>
<event>
 5   0  0.1128166E-06  0.3615503E+04  0.7818609E-02  0.8086950E-01
       -2   -1    0    0    0  501  0.00000000000E+00  0.00000000000E+00  0.16018102120E+04  0.16018102120E+04  0.25500000920E-02 0. -1.
        2   -1    0    0  501    0  0.00000000000E+00  0.00000000000E+00 -0.20401704982E+04  0.20401704982E+04  0.25500000920E-02 0.  1.
    10030    2    1    2    0    0  0.00000000000E+00  0.00000000000E+00 -0.43836028615E+03  0.36419807102E+04  0.36155032503E+04 0.  0.
        3    1    3    3  502    0 -0.12628237310E+04  0.67728180094E+02  0.10820441658E+04  0.16643708928E+04  0.10100000352E+00 0. -1.
       -3    1    3    3    0  502  0.12628237310E+04 -0.67728180094E+02 -0.15204044519E+04  0.19776098173E+04  0.10100000352E+00 0.  1.
</event>
<event>
 5   0  0.3848431E-07  0.3640698E+04  0.7818609E-02  0.8081232E-01
        1   -1    0    0  501    0  0.00000000000E+00  0.00000000000E+00  0.21435412934E+04  0.21435412934E+04  0.50400001928E-02 0.  1.
       -1   -1    0    0    0  501  0.00000000000E+00  0.00000000000E+00 -0.15458862791E+04  0.15458862791E+04  0.50400001928E-02 0. -1.
    10030    2    1    2    0    0  0.00000000000E+00  0.00000000000E+00  0.59765501430E+03  0.36894275726E+04  0.36406983255E+04 0.  0.
        2    1    3    3  502    0  0.24601672523E+02  0.16892028258E+04  0.98588405659E+03  0.19560109412E+04  0.25500000920E-02 0.  1.
       -2    1    3    3    0  502 -0.24601672523E+02 -0.16892028258E+04 -0.38822904229E+03  0.17334166314E+04  0.25500000920E-02 0. -1.
</event>
<event>
 5   0  0.3682276E-07  0.3733798E+04  0.7818609E-02  0.8060513E-01
       -1   -1    0    0    0  501  0.00000000000E+00  0.00000000000E+00  0.17723228104E+04  0.17723228104E+04  0.50400001928E-02 0.  1.
        1   -1    0    0  501    0  0.00000000000E+00  0.00000000000E+00 -0.19665224328E+04  0.19665224328E+04  0.50400001928E-02 0. -1.
    10030    2    1    2    0    0  0.00000000000E+00  0.00000000000E+00 -0.19419962244E+03  0.37388452433E+04  0.37337983689E+04 0.  0.
        1    1    3    3  502    0  0.71864662292E+03 -0.13502243141E+04  0.97474596142E+03  0.18137498053E+04  0.50400001928E-02 0.  1.
       -1    1    3    3    0  502 -0.71864662292E+03  0.13502243141E+04 -0.11689455839E+04  0.19250954379E+04  0.50400001928E-02 0. -1.
</event>
<event>
 5   0  0.1092116E-06  0.3711163E+04  0.7818609E-02  0.8065492E-01
        2   -1    0    0  501    0  0.00000000000E+00  0.00000000000E+00  0.12847484825E+04  0.12847484825E+04  0.25500000920E-02 0.  1.
       -2   -1    0    0    0  501  0.00000000000E+00  0.00000000000E+00 -0.26800442158E+04  0.26800442158E+04  0.25500000920E-02 0. -1.
    10030    2    1    2    0    0  0.00000000000E+00  0.00000000000E+00 -0.13952957333E+04  0.39647926982E+04  0.37111630194E+04 0.  0.
        1    1    3    3  502    0 -0.31588296514E+01 -0.34308175776E+03  0.12505668420E+04  0.12967777361E+04  0.50400001928E-02 0.  1.
       -1    1    3    3    0  502  0.31588296514E+01  0.34308175776E+03 -0.26458625753E+04  0.26680149621E+04  0.50400001928E-02 0. -1.
</event>
<event>
 5   0  0.1128530E-06  0.3274674E+04  0.7818609E-02  0.8169370E-01
       -2   -1    0    0    0  501  0.00000000000E+00  0.00000000000E+00  0.87737476921E+03  0.87737476922E+03  0.25500000920E-02 0. -1.
        2   -1    0    0  501    0  0.00000000000E+00  0.00000000000E+00 -0.30555608972E+04  0.30555608972E+04  0.25500000920E-02 0.  1.
    10030    2    1    2    0    0  0.00000000000E+00  0.00000000000E+00 -0.21781861280E+04  0.39329356664E+04  0.32746737468E+04 0.  0.
        5    1    3    3  502    0  0.10199159528E+04 -0.71516710028E+03 -0.23653145435E+04  0.26732802905E+04  0.46999998093E+01 0.  1.
       -5    1    3    3    0  502 -0.10199159528E+04  0.71516710028E+03  0.18712841548E+03  0.12596553759E+04  0.46999998093E+01 0. -1.
</event>
<event>
 5   0  0.1066907E-06  0.2609169E+04  0.7818609E-02  0.8365093E-01
       -2   -1    0    0    0  501  0.00000000000E+00  0.00000000000E+00  0.11075518814E+04  0.11075518814E+04  0.25500000920E-02 0. -1.
        2   -1    0    0  501    0  0.00000000000E+00  0.00000000000E+00 -0.15366689077E+04  0.15366689077E+04  0.25500000920E-02 0.  1.
    10030    2    1    2    0    0  0.00000000000E+00  0.00000000000E+00 -0.42911702634E+03  0.26442207891E+04  0.26091688637E+04 0.  0.
        4    1    3    3  502    0 -0.12408410086E+04 -0.32857625354E+03  0.21574171521E+02  0.12837896326E+04  0.12699999809E+01 0.  1.
       -4    1    3    3    0  502  0.12408410086E+04  0.32857625354E+03 -0.45069119786E+03  0.13604311565E+04  0.12699999809E+01 0. -1.
</event>
<event>
 5   0  0.3490375E-07  0.3659721E+04  0.7818609E-02  0.8076947E-01
        3   -1    0    0  501    0  0.00000000000E+00  0.00000000000E+00  0.20751968532E+04  0.20751968557E+04  0.10100000352E+00 0.  1.
       -3   -1    0    0    0  501  0.00000000000E+00  0.00000000000E+00 -0.16135288180E+04  0.16135288211E+04  0.10100000352E+00 0. -1.
    10030    2    1    2    0    0  0.00000000000E+00  0.00000000000E+00  0.46166803526E+03  0.36887256768E+04  0.36597212659E+04 0.  0.
        3    1    3    3  502    0  0.15047458377E+04 -0.23872037975E+03 -0.79067849919E+03  0.17165138960E+04  0.10100000352E+00 0. -1.
       -3    1    3    3    0  502 -0.15047458377E+04  0.23872037975E+03  0.12523465344E+04  0.19722117808E+04  0.10100000352E+00 0.  1.
</event>
<event>
 5   0  0.3704306E-07  0.3581886E+04  0.7818609E-02  0.8094654E-01
       -1   -1    0    0    0  501  0.00000000000E+00  0.00000000000E+00  0.17550068024E+04  0.17550068024E+04  0.50400001928E-02 0. -1.
        1   -1    0    0  501    0  0.00000000000E+00  0.00000000000E+00 -0.18276151338E+04  0.18276151338E+04  0.50400001928E-02 0.  1.
    10030    2    1    2    0    0  0.00000000000E+00  0.00000000000E+00 -0.72608331436E+02  0.35826219362E+04  0.35818860909E+04 0.  0.
        3    1    3    3  502    0 -0.83707741861E+03  0.80555237352E+03 -0.13996189386E+04  0.18189410147E+04  0.10100000352E+00 0.  1.
       -3    1    3    3    0  502  0.83707741861E+03 -0.80555237352E+03  0.13270106072E+04  0.17636809216E+04  0.10100000352E+00 0. -1.
</event>
<event>
 5   0  0.3848431E-07  0.3610139E+04  0.7818609E-02  0.8088173E-01
       -1   -1    0    0    0  501  0.00000000000E+00  0.00000000000E+00  0.16675965511E+04  0.16675965511E+04  0.50400001928E-02 0. -1.
        1   -1    0    0  501    0  0.00000000000E+00  0.00000000000E+00 -0.19538755681E+04  0.19538755681E+04  0.50400001928E-02 0.  1.
    10030    2    1    2    0    0  0.00000000000E+00  0.00000000000E+00 -0.28627901697E+03  0.36214721192E+04  0.36101391434E+04 0.  0.
        2    1    3    3  502    0  0.42526414007E+03  0.16300690676E+04  0.50720222725E+03  0.17593262498E+04  0.25500000920E-02 0.  1.
       -2    1    3    3    0  502 -0.42526414007E+03 -0.16300690676E+04 -0.79348124422E+03  0.18621458694E+04  0.25500000920E-02 0. -1.
</event>
<event>
 5   0  0.3848431E-07  0.3358057E+04  0.7818609E-02  0.8148278E-01
       -1   -1    0    0    0  501  0.00000000000E+00  0.00000000000E+00  0.12824787536E+04  0.12824787536E+04  0.50400001928E-02 0. -1.
        1   -1    0    0  501    0  0.00000000000E+00  0.00000000000E+00 -0.21981943441E+04  0.21981943441E+04  0.50400001928E-02 0.  1.
    10030    2    1    2    0    0  0.00000000000E+00  0.00000000000E+00 -0.91571559055E+03  0.34806730977E+04  0.33580574996E+04 0.  0.
        2    1    3    3  502    0 -0.22085916598E+03  0.47794867116E+03 -0.21104145187E+04  0.21751007205E+04  0.25500000920E-02 0.  1.
       -2    1    3    3    0  502  0.22085916598E+03 -0.47794867116E+03  0.11946989281E+04  0.13055723773E+04  0.25500000920E-02 0. -1.
</event>
<event>
 5   0  0.3675819E-07  0.2911028E+04  0.7818609E-02  0.8269604E-01
        1   -1    0    0  501    0  0.00000000000E+00  0.00000000000E+00  0.15586911364E+04  0.15586911364E+04  0.50400001928E-02 0.  1.
       -1   -1    0    0    0  501  0.00000000000E+00  0.00000000000E+00 -0.13591663933E+04  0.13591663933E+04  0.50400001928E-02 0. -1.
    10030    2    1    2    0    0  0.00000000000E+00  0.00000000000E+00  0.19952474310E+03  0.29178575297E+04  0.29110277292E+04 0.  0.
        5    1    3    3  502    0  0.13277222573E+04  0.20530081282E+03 -0.46146530323E+03  0.14205517000E+04  0.46999998093E+01 0. -1.
       -5    1    3    3    0  502 -0.13277222573E+04 -0.20530081282E+03  0.66099004633E+03  0.14973058297E+04  0.46999998093E+01 0.  1.
</event>
<event>
 5   0  0.1092116E-06  0.3774142E+04  0.7818609E-02  0.8051727E-01
       -2   -1    0    0    0  501  0.00000000000E+00  0.00000000000E+00  0.14923481077E+04  0.14923481077E+04  0.25500000920E-02 0. -1.
        2   -1    0    0  501    0  0.00000000000E+00  0.00000000000E+00 -0.23861966404E+04  0.23861966404E+04  0.25500000920E-02 0.  1.
    10030    2    1    2    0    0  0.00000000000E+00  0.00000000000E+00 -0.89384853264E+03  0.38785447481E+04  0.37741415134E+04 0.  0.
        1    1    3    3  502    0 -0.99296086187E+03 -0.76394923181E+03 -0.18971477399E+04  0.22734905430E+04  0.50400001928E-02 0.  1.
       -1    1    3    3    0  502  0.99296086187E+03  0.76394923181E+03  0.10032992073E+04  0.16050542051E+04  0.50400001928E-02 0. -1.
</event>
<event>
 5   0  0.3764495E-07  0.3660453E+04  0.7818609E-02  0.8076783E-01
        1   -1    0    0  501    0  0.00000000000E+00  0.00000000000E+00  0.20405981021E+04  0.20405981021E+04  0.50400001928E-02 0. -1.
       -1   -1    0    0    0  501  0.00000000000E+00  0.00000000000E+00 -0.16415427824E+04  0.16415427824E+04  0.50400001928E-02 0.  1.
    10030    2    1    2    0    0  0.00000000000E+00  0.00000000000E+00  0.39905531971E+03  0.36821408845E+04  0.36604530246E+04 0.  0.
        4    1    3    3  502    0 -0.10038040044E+04 -0.69749208892E+03 -0.11707509861E+04  0.16925652654E+04  0.12699999809E+01 0.  1.
       -4    1    3    3    0  502  0.10038040044E+04  0.69749208892E+03  0.15698063058E+04  0.19895756191E+04  0.12699999809E+01 0. -1.
</event>
<event>
 5   0  0.3682276E-07  0.3653992E+04  0.7818609E-02  0.8078235E-01
       -1   -1    0    0    0  501  0.00000000000E+00  0.00000000000E+00  0.21407955935E+04  0.21407955935E+04  0.50400001928E-02 0. -1.
        1   -1    0    0  501    0  0.00000000000E+00  0.00000000000E+00 -0.15591938152E+04  0.15591938152E+04  0.50400001928E-02 0.  1.
    10030    2    1    2    0    0  0.00000000000E+00  0.00000000000E+00  0.58160177826E+03  0.36999894087E+04  0.36539924734E+04 0.  0.
        1    1    3    3  502    0  0.15001861859E+04  0.25821973464E+03  0.13138052148E+04  0.20108008768E+04  0.50400001928E-02 0. -1.
       -1    1    3    3    0  502 -0.15001861859E+04 -0.25821973464E+03 -0.73220343654E+03  0.16891885319E+04  0.50400001928E-02 0.  1.
</event>
<event>
 5   0  0.1066907E-06  0.2918976E+04  0.7818609E-02  0.8267254E-01
       -2   -1    0    0    0  501  0.00000000000E+00  0.00000000000E+00  0.16965790623E+04  0.16965790623E+04  0.25500000920E-02 0. -1.
        2   -1    0    0  501    0  0.00000000000E+00  0.00000000000E+00 -0.12555299858E+04  0.12555299858E+04  0.25500000920E-02 0.  1.
    10030    2    1    2    0    0  0.00000000000E+00  0.00000000000E+00  0.44104907647E+03  0.29521090482E+04  0.29189764549E+04 0.  0.
        4    1    3    3  502    0  0.11069916054E+04  0.40201464915E+03 -0.65126807467E+03  0.13458075310E+04  0.12699999809E+01 0.  1.
       -4    1    3    3    0  502 -0.11069916054E+04 -0.40201464915E+03  0.10923171511E+04  0.16063015172E+04  0.12699999809E+01 0. -1.
</event>
<event>
 5   0  0.3675819E-07  0.3612590E+04  0.7818609E-02  0.8087614E-01
        1   -1    0    0  501    0  0.00000000000E+00  0.00000000000E+00  0.15914141406E+04  0.15914141406E+04  0.50400001928E-02 0.  1.
       -1   -1    0    0    0  501  0.00000000000E+00  0.00000000000E+00 -0.20501906268E+04  0.20501906268E+04  0.50400001928E-02 0. -1.
    10030    2    1    2    0    0  0.00000000000E+00  0.00000000000E+00 -0.45877648611E+03  0.36416047674E+04  0.36125904027E+04 0.  0.
        5    1    3    3  502    0  0.44611701722E+03  0.12525901560E+04  0.10030009269E+04  0.16655435874E+04  0.46999998093E+01 0.  1.
       -5    1    3    3    0  502 -0.44611701722E+03 -0.12525901560E+04 -0.14617774130E+04  0.19760611800E+04  0.46999998093E+01 0. -1.
</event>
<event>
 5   0  0.3490375E-07  0.2718984E+04  0.7818609E-02  0.8328872E-01
       -3   -1    0    0    0  501  0.00000000000E+00  0.00000000000E+00  0.12229866127E+04  0.12229866168E+04  0.10100000352E+00 0.  1.
        3   -1    0    0  501    0  0.00000000000E+00  0.00000000000E+00 -0.15112332268E+04  0.15112332302E+04  0.10100000352E+00 0. -1.
    10030    2    1    2    0    0  0.00000000000E+00  0.00000000000E+00 -0.28824661417E+03  0.27342198470E+04  0.27189836449E+04 0.  0.
        5    1    3    3  502    0 -0.35975879604E+03 -0.12901235188E+04 -0.37856236503E+03  0.13918249313E+04  0.46999998093E+01 0. -1.
       -5    1    3    3    0  502  0.35975879604E+03  0.12901235188E+04  0.90315750857E+02  0.13423949158E+04  0.46999998093E+01 0.  1.
</event>
<event>
 5   0  0.3764495E-07  0.3737384E+04  0.7818609E-02  0.8059727E-01
       -1   -1    0    0    0  501  0.00000000000E+00  0.00000000000E+00  0.14308724182E+04  0.14308724182E+04  0.50400001928E-02 0.  1.
        1   -1    0    0  501    0  0.00000000000E+00  0.00000000000E+00 -0.24404756902E+04  0.24404756902E+04  0.50400001928E-02 0. -1.
    10030    2    1    2    0    0  0.00000000000E+00  0.00000000000E+00 -0.10096032720E+04  0.38713481084E+04  0.37373837654E+04 0.  0.
        4    1    3    3  502    0  0.13683205595E+04  0.23944227595E+02 -0.18228635976E+04  0.22794095262E+04  0.12699999809E+01 0. -1.
       -4    1    3    3    0  502 -0.13683205595E+04 -0.23944227595E+02  0.81326032561E+03  0.15919385823E+04  0.12699999809E+01 0.  1.
</event>
<event>
 5   0  0.1092116E-06  0.2954478E+04  0.7818609E-02  0.8256851E-01
        2   -1    0    0  501    0  0.00000000000E+00  0.00000000000E+00  0.14919947236E+04  0.14919947236E+04  0.25500000920E-02 0.  1.
       -2   -1    0    0    0  501  0.00000000000E+00  0.00000000000E+00 -0.14626289671E+04  0.14626289671E+04  0.25500000920E-02 0. -1.
    10030    2    1    2    0    0  0.00000000000E+00  0.00000000000E+00  0.29365756543E+02  0.29546236907E+04  0.29544777552E+04 0.  0.
        1    1    3    3  502    0  0.19047672164E+02 -0.90270341118E+03  0.11839277146E+04  0.14889328715E+04  0.50400001928E-02 0.  1.
       -1    1    3    3    0  502 -0.19047672164E+02  0.90270341118E+03 -0.11545619581E+04  0.14656908192E+04  0.50400001928E-02 0. -1.
</event>
<event>
 5   0  0.3764495E-07  0.3670837E+04  0.7818609E-02  0.8074456E-01
        1   -1    0    0  501    0  0.00000000000E+00  0.00000000000E+00  0.15649902358E+04  0.15649902358E+04  0.50400001928E-02 0. -1.
       -1   -1    0    0    0  501  0.00000000000E+00  0.00000000000E+00 -0.21525758473E+04  0.21525758473E+04  0.50400001928E-02 0.  1.
    10030    2    1    2    0    0  0.00000000000E+00  0.00000000000E+00 -0.58758561153E+03  0.37175660831E+04  0.36708365165E+04 0.  0.
        4    1    3    3  502    0 -0.17359244122E+04 -0.43860557253E+00  0.30988668544E+03  0.17633675533E+04  0.12699999809E+01 0. -1.
       -4    1    3    3    0  502  0.17359244122E+04  0.43860557253E+00 -0.89747229697E+03  0.19541985298E+04  0.12699999809E+01 0.  1.
</event>
<event>
 5   0  0.1092116E-06  0.2326332E+04  0.7818609E-02  0.8467610E-01
       -2   -1    0    0    0  501  0.00000000000E+00  0.00000000000E+00  0.72151599774E+03  0.72151599774E+03  0.25500000920E-02 0. -1.
        2   -1    0    0  501    0  0.00000000000E+00  0.00000000000E+00 -0.18751565276E+04  0.18751565276E+04  0.25500000920E-02 0.  1.
    10030    2    1    2    0    0  0.00000000000E+00  0.00000000000E+00 -0.11536405299E+04  0.25966725254E+04  0.23263322488E+04 0.  0.
        1    1    3    3  502    0  0.23166774404E+03 -0.13428862778E+03 -0.18402838487E+04  0.18596634166E+04  0.50400001928E-02 0.  1.
       -1    1    3    3    0  502 -0.23166774404E+03  0.13428862778E+03  0.68664331879E+03  0.73700910880E+03  0.50400001928E-02 0. -1.
</event>
<event>
 5   0  0.1128166E-06  0.2734687E+04  0.7818609E-02  0.8323837E-01
        2   -1    0    0  501    0  0.00000000000E+00  0.00000000000E+00  0.25392090885E+04  0.25392090885E+04  0.25500000920E-02 0.  1.
       -2   -1    0    0    0  501  0.00000000000E+00  0.00000000000E+00 -0.73630350645E+03  0.73630350645E+03  0.25500000920E-02 0. -1.
    10030    2    1    2    0    0  0.00000000000E+00  0.00000000000E+00  0.18029055820E+04  0.32755125949E+04  0.27346872256E+04 0.  0.
        3    1    3    3  502    0 -0.11098603930E+04  0.55021685147E+03  0.15948127235E+04  0.20193950353E+04  0.10100000352E+00 0.  1.
       -3    1    3    3    0  502  0.11098603930E+04 -0.55021685147E+03  0.20809285854E+03  0.12561175596E+04  0.10100000352E+00 0. -1.
</event>
<event>
 5   0  0.1128166E-06  0.3611070E+04  0.7818609E-02  0.8087961E-01
        2   -1    0    0  501    0  0.00000000000E+00  0.00000000000E+00  0.16440014201E+04  0.16440014201E+04  0.25500000920E-02 0.  1.
       -2   -1    0    0    0  501  0.00000000000E+00  0.00000000000E+00 -0.19829407084E+04  0.19829407084E+04  0.25500000920E-02 0. -1.
    10030    2    1    2    0    0  0.00000000000E+00  0.00000000000E+00 -0.33893928827E+03  0.36269421285E+04  0.36110703901E+04 0.  0.
        3    1    3    3  502    0  0.17477382102E+04 -0.44345224536E+03 -0.75685876110E+02  0.18047069311E+04  0.10100000352E+00 0. -1.
       -3    1    3    3    0  502 -0.17477382102E+04  0.44345224536E+03 -0.26325341216E+03  0.18222351974E+04  0.10100000352E+00 0.  1.
</event>
<event>
 5   0  0.3682276E-07  0.3632679E+04  0.7818609E-02  0.8083047E-01
       -1   -1    0    0    0  501  0.00000000000E+00  0.00000000000E+00  0.10549729736E+04  0.10549729736E+04  0.50400001928E-02 0. -1.
        1   -1    0    0  501    0  0.00000000000E+00  0.00000000000E+00 -0.31271789598E+04  0.31271789598E+04  0.50400001928E-02 0.  1.
    10030    2    1    2    0    0  0.00000000000E+00  0.00000000000E+00 -0.20722059862E+04  0.41821519334E+04  0.36326790589E+04 0.  0.
        1    1    3    3  502    0  0.16155759532E+04 -0.54241265741E+03 -0.17594672106E+04  0.24494942369E+04  0.50400001928E-02 0. -1.
       -1    1    3    3    0  502 -0.16155759532E+04  0.54241265741E+03 -0.31273877560E+03  0.17326576965E+04  0.50400001928E-02 0.  1.
</event>
<event>
 5   0  0.3675819E-07  0.3677536E+04  0.7818609E-02  0.8072958E-01
        1   -1    0    0  501    0  0.00000000000E+00  0.00000000000E+00  0.21546083637E+04  0.21546083637E+04  0.50400001928E-02 0.  1.
       -1   -1    0    0    0  501  0.00000000000E+00  0.00000000000E+00 -0.15692259496E+04  0.15692259496E+04  0.50400001928E-02 0. -1.
    10030    2    1    2    0    0  0.00000000000E+00  0.00000000000E+00  0.58538241409E+03  0.37238343133E+04  0.36775357813E+04 0.  0.
        5    1    3    3  502    0 -0.51234632712E+03  0.81387200622E+03 -0.12942530398E+04  0.16124513706E+04  0.46999998093E+01 0. -1.
       -5    1    3    3    0  502  0.51234632712E+03 -0.81387200622E+03  0.18796354539E+04  0.21113829428E+04  0.46999998093E+01 0.  1.
</event>
<event>
 5   0  0.1128166E-06  0.3738913E+04  0.7818609E-02  0.8059393E-01
        2   -1    0    0  501    0  0.00000000000E+00  0.00000000000E+00  0.19852553465E+04  0.19852553465E+04  0.25500000920E-02 0.  1.
       -2   -1    0    0    0  501  0.00000000000E+00  0.00000000000E+00 -0.17604121430E+04  0.17604121430E+04  0.25500000920E-02 0. -1.
    10030    2    1    2    0    0  0.00000000000E+00  0.00000000000E+00  0.22484320347E+03  0.37456674895E+04  0.37389130072E+04 0.  0.
        3    1    3    3  502    0 -0.85086611916E+03 -0.10743031425E+04  0.13862402654E+04  0.19492979450E+04  0.10100000352E+00 0.  1.
       -3    1    3    3    0  502  0.85086611916E+03  0.10743031425E+04 -0.11613970620E+04  0.17963695445E+04  0.10100000352E+00 0. -1.
</event>
<event>
 5   0  0.3675819E-07  0.3721974E+04  0.7818609E-02  0.8063109E-01
       -1   -1    0    0    0  501  0.00000000000E+00  0.00000000000E+00  0.15069595591E+04  0.15069595591E+04  0.50400001928E-02 0.  1.
        1   -1    0    0  501    0  0.00000000000E+00  0.00000000000E+00 -0.22981857647E+04  0.22981857647E+04  0.50400001928E-02 0. -1.
    10030    2    1    2    0    0  0.00000000000E+00  0.00000000000E+00 -0.79122620568E+03  0.38051453238E+04  0.37219742109E+04 0.  0.
        5    1    3    3  502    0 -0.46282701054E+02 -0.18576109386E+04 -0.29140184804E+03  0.18809034039E+04  0.46999998093E+01 0.  1.
       -5    1    3    3    0  502  0.46282701054E+02  0.18576109386E+04 -0.49982435765E+03  0.19242419199E+04  0.46999998093E+01 0. -1.
</event>
<event>
 5   0  0.1051123E-06  0.3730819E+04  0.7818609E-02  0.8061166E-01
       -2   -1    0    0    0  501  0.00000000000E+00  0.00000000000E+00  0.18945640665E+04  0.18945640665E+04  0.25500000920E-02 0. -1.
        2   -1    0    0  501    0  0.00000000000E+00  0.00000000000E+00 -0.18367034000E+04  0.18367034000E+04  0.25500000920E-02 0.  1.
    10030    2    1    2    0    0  0.00000000000E+00  0.00000000000E+00  0.57860666439E+02  0.37312674665E+04  0.37308188176E+04 0.  0.
        2    1    3    3  502    0 -0.43830730287E+03  0.16704398922E+04 -0.67632787665E+03  0.18546973127E+04  0.25500000920E-02 0.  1.
       -2    1    3    3    0  502  0.43830730287E+03 -0.16704398922E+04  0.73418854309E+03  0.18765701537E+04  0.25500000920E-02 0. -1.
</event>
<event>
 5   0  0.3704306E-07  0.3576160E+04  0.7818609E-02  0.8095974E-01
        1   -1    0    0  501    0  0.00000000000E+00  0.00000000000E+00  0.16049069823E+04  0.16049069824E+04  0.50400001928E-02 0. -1.
       -1   -1    0    0    0  501  0.00000000000E+00  0.00000000000E+00 -0.19921590887E+04  0.19921590887E+04  0.50400001928E-02 0.  1.
    10030    2    1    2    0    0  0.00000000000E+00  0.00000000000E+00 -0.38725210637E+03  0.35970660711E+04  0.35761599693E+04 0.  0.
        3    1    3    3  502    0  0.47956660719E+03 -0.15269618145E+04 -0.99555311434E+03  0.18848667134E+04  0.10100000352E+00 0.  1.
       -3    1    3    3    0  502 -0.47956660719E+03  0.15269618145E+04  0.60830100797E+03  0.17121993576E+04  0.10100000352E+00 0. -1.
</event>
<event>
 5   0  0.3704306E-07  0.3704297E+04  0.7818609E-02  0.8067010E-01
       -1   -1    0    0    0  501  0.00000000000E+00  0.00000000000E+00  0.13443821190E+04  0.13443821190E+04  0.50400001928E-02 0. -1.
        1   -1    0    0  501    0  0.00000000000E+00  0.00000000000E+00 -0.25516951316E+04  0.25516951316E+04  0.50400001928E-02 0.  1.
    10030    2    1    2    0    0  0.00000000000E+00  0.00000000000E+00 -0.12073130126E+04  0.38960772506E+04  0.37042965907E+04 0.  0.
        3    1    3    3  502    0 -0.93245459276E+03  0.40165426460E+03 -0.22329385224E+04  0.24529191122E+04  0.10100000352E+00 0.  1.
       -3    1    3    3    0  502  0.93245459276E+03 -0.40165426460E+03  0.10256255098E+04  0.14431581384E+04  0.10100000352E+00 0. -1.
</event>
<event>
 5   0  0.3764495E-07  0.3647845E+04  0.7818609E-02  0.8079619E-01
        1   -1    0    0  501    0  0.00000000000E+00  0.00000000000E+00  0.22673307272E+04  0.22673307272E+04  0.50400001928E-02 0.  1.
       -1   -1    0    0    0  501  0.00000000000E+00  0.00000000000E+00 -0.14672287167E+04  0.14672287167E+04  0.50400001928E-02 0. -1.
    10030    2    1    2    0    0  0.00000000000E+00  0.00000000000E+00  0.80010201054E+03  0.37345594440E+04  0.36478447079E+04 0.  0.
        4    1    3    3  502    0 -0.63923933717E+03 -0.14294878499E+04  0.13574983438E+04  0.20724058023E+04  0.12699999809E+01 0.  1.
       -4    1    3    3    0  502  0.63923933717E+03  0.14294878499E+04 -0.55739633327E+03  0.16621536416E+04  0.12699999809E+01 0. -1.
</event>
<event>
 5   0  0.1066907E-06  0.3700029E+04  0.7818609E-02  0.8067955E-01
       -2   -1    0    0    0  501  0.00000000000E+00  0.00000000000E+00  0.11929962265E+04  0.11929962265E+04  0.25500000920E-02 0.  1.
        2   -1    0    0  501    0  0.00000000000E+00  0.00000000000E+00 -0.28688716445E+04  0.28688716445E+04  0.25500000920E-02 0. -1.
    10030    2    1    2    0    0  0.00000000000E+00  0.00000000000E+00 -0.16758754180E+04  0.40618678710E+04  0.37000286735E+04 0.  0.
        4    1    3    3  502    0 -0.99724798229E+03 -0.92111984313E+02 -0.25455496954E+04  0.27354730890E+04  0.12699999809E+01 0. -1.
       -4    1    3    3    0  502  0.99724798229E+03  0.92111984313E+02  0.86967427749E+03  0.13263947820E+04  0.12699999809E+01 0.  1.
</event>
<event>
 5   0  0.3675819E-07  0.3804570E+04  0.7818609E-02  0.8045175E-01
       -1   -1    0    0    0  501  0.00000000000E+00  0.00000000000E+00  0.20654875431E+04  0.20654875431E+04  0.50400001928E-02 0. -1.
        1   -1    0    0  501    0  0.00000000000E+00  0.00000000000E+00 -0.17519779037E+04  0.17519779037E+04  0.50400001928E-02 0.  1.
    10030    2    1    2    0    0  0.00000000000E+00  0.00000000000E+00  0.31350963941E+03  0.38174654468E+04  0.38045701654E+04 0.  0.
        5    1    3    3  502    0  0.12822693229E+04 -0.14029932795E+04  0.78634092432E+02  0.19023170527E+04  0.46999998093E+01 0.  1.
       -5    1    3    3    0  502 -0.12822693229E+04  0.14029932795E+04  0.23487554698E+03  0.19151483941E+04  0.46999998093E+01 0. -1.
</event>
<event>
 5   0  0.3490375E-07  0.3621254E+04  0.7818609E-02  0.8085640E-01
       -3   -1    0    0    0  501  0.00000000000E+00  0.00000000000E+00  0.15135280914E+04  0.15135280947E+04  0.10100000352E+00 0. -1.
        3   -1    0    0  501    0  0.00000000000E+00  0.00000000000E+00 -0.21660454523E+04  0.21660454546E+04  0.10100000352E+00 0.  1.
    10030    2    1    2    0    0  0.00000000000E+00  0.00000000000E+00 -0.65251736091E+03  0.36795735494E+04  0.36212542853E+04 0.  0.
        4    1    3    3  502    0  0.98373317965E+03 -0.11227871562E+04  0.71493240632E+03  0.16551471008E+04  0.12699999809E+01 0. -1.
       -4    1    3    3    0  502 -0.98373317965E+03  0.11227871562E+04 -0.13674497672E+04  0.20244264486E+04  0.12699999809E+01 0.  1.
</event>
<event>
 5   0  0.3764495E-07  0.3715507E+04  0.7818609E-02  0.8064534E-01
        1   -1    0    0  501    0  0.00000000000E+00  0.00000000000E+00  0.19136421881E+04  0.19136421881E+04  0.50400001928E-02 0. -1.
       -1   -1    0    0    0  501  0.00000000000E+00  0.00000000000E+00 -0.18034971851E+04  0.18034971851E+04  0.50400001928E-02 0.  1.
    10030    2    1    2    0    0  0.00000000000E+00  0.00000000000E+00  0.11014500298E+03  0.37171393732E+04  0.37155071253E+04 0.  0.
        4    1    3    3  502    0  0.18080631235E+04  0.36391042663E+03  0.27815841973E+03  0.18651800922E+04  0.12699999809E+01 0. -1.
       -4    1    3    3    0  502 -0.18080631235E+04 -0.36391042663E+03 -0.16801341676E+03  0.18519592809E+04  0.12699999809E+01 0.  1.
</event>
<event>
 5   0  0.1051123E-06  0.3763304E+04  0.7818609E-02  0.8054076E-01
       -2   -1    0    0    0  501  0.00000000000E+00  0.00000000000E+00  0.22397481764E+04  0.22397481764E+04  0.25500000920E-02 0.  1.
        2   -1    0    0  501    0  0.00000000000E+00  0.00000000000E+00 -0.15808094276E+04  0.15808094276E+04  0.25500000920E-02 0. -1.
    10030    2    1    2    0    0  0.00000000000E+00  0.00000000000E+00  0.65893874880E+03  0.38205576039E+04  0.37633044164E+04 0.  0.
        2    1    3    3  502    0  0.32108098949E+03 -0.12673185866E+04 -0.10444208894E+04  0.16733213666E+04  0.25500000920E-02 0. -1.
       -2    1    3    3    0  502 -0.32108098949E+03  0.12673185866E+04  0.17033596382E+04  0.21472362373E+04  0.25500000920E-02 0.  1.
</event>
<event>
 5   0  0.1066907E-06  0.3730075E+04  0.7818609E-02  0.8061329E-01
        2   -1    0    0  501    0  0.00000000000E+00  0.00000000000E+00  0.20304534349E+04  0.20304534349E+04  0.25500000920E-02 0.  1.
       -2   -1    0    0    0  501  0.00000000000E+00  0.00000000000E+00 -0.17130980002E+04  0.17130980002E+04  0.25500000920E-02 0. -1.
    10030    2    1    2    0    0  0.00000000000E+00  0.00000000000E+00  0.31735543469E+03  0.37435514351E+04  0.37300754517E+04 0.  0.
        4    1    3    3  502    0 -0.15899025826E+04  0.42237709533E+03 -0.72322984027E+03  0.17970129792E+04  0.12699999809E+01 0. -1.
       -4    1    3    3    0  502  0.15899025826E+04 -0.42237709533E+03  0.10405852750E+04  0.19465384559E+04  0.12699999809E+01 0.  1.
</event>
<event>
 5   0  0.1066907E-06  0.3592739E+04  0.7818609E-02  0.8092157E-01
        2   -1    0    0  501    0  0.00000000000E+00  0.00000000000E+00  0.18031941069E+04  0.18031941069E+04  0.25500000920E-02 0.  1.
       -2   -1    0    0    0  501  0.00000000000E+00  0.00000000000E+00 -0.17895705417E+04  0.17895705417E+04  0.25500000920E-02 0. -1.
    10030    2    1    2    0    0  0.00000000000E+00  0.00000000000E+00  0.13623565266E+02  0.35927646486E+04  0.35927388186E+04 0.  0.
        4    1    3    3  502    0  0.13630370864E+04  0.45757197357E+03 -0.10700892839E+04  0.17922987749E+04  0.12699999809E+01 0. -1.
       -4    1    3    3    0  502 -0.13630370864E+04 -0.45757197357E+03  0.10837128492E+04  0.18004658737E+04  0.12699999809E+01 0.  1.
</event>
<event>
 5   0  0.3764495E-07  0.3664180E+04  0.7818609E-02  0.8075947E-01
       -1   -1    0    0    0  501  0.00000000000E+00  0.00000000000E+00  0.12863940272E+04  0.12863940272E+04  0.50400001928E-02 0.  1.
        1   -1    0    0  501    0  0.00000000000E+00  0.00000000000E+00 -0.26092740170E+04  0.26092740170E+04  0.50400001928E-02 0. -1.
    10030    2    1    2    0    0  0.00000000000E+00  0.00000000000E+00 -0.13228799898E+04  0.38956680442E+04  0.36641804054E+04 0.  0.
        4    1    3    3  502    0  0.12959884393E+04  0.12909899779E+04 -0.76940203250E+03  0.19844954670E+04  0.12699999809E+01 0.  1.
       -4    1    3    3    0  502 -0.12959884393E+04 -0.12909899779E+04 -0.55347795727E+03  0.19111725773E+04  0.12699999809E+01 0. -1.
</event>
<event>
 5   0  0.1051123E-06  0.3553482E+04  0.7818609E-02  0.8101231E-01
       -2   -1    0    0    0  501  0.00000000000E+00  0.00000000000E+00  0.13922159358E+04  0.13922159358E+04  0.25500000920E-02 0. -1.
        2   -1    0    0  501    0  0.00000000000E+00  0.00000000000E+00 -0.22674702550E+04  0.22674702550E+04  0.25500000920E-02 0.  1.
    10030    2    1    2    0    0  0.00000000000E+00  0.00000000000E+00 -0.87525431924E+03  0.36596861908E+04  0.35534817984E+04 0.  0.
        2    1    3    3  502    0  0.16271435214E+04  0.69696424055E+03 -0.27990626140E+03  0.17921224029E+04  0.25500000920E-02 0.  1.
       -2    1    3    3    0  502 -0.16271435214E+04 -0.69696424055E+03 -0.59534805784E+03  0.18675637879E+04  0.25500000920E-02 0. -1.
</event>
<event>
 5   0  0.1066907E-06  0.3586150E+04  0.7818609E-02  0.8093671E-01
        2   -1    0    0  501    0  0.00000000000E+00  0.00000000000E+00  0.21690495112E+04  0.21690495112E+04  0.25500000920E-02 0. -1.
       -2   -1    0    0    0  501  0.00000000000E+00  0.00000000000E+00 -0.14822707922E+04  0.14822707922E+04  0.25500000920E-02 0.  1.
    10030    2    1    2    0    0  0.00000000000E+00  0.00000000000E+00  0.68677871901E+03  0.36513203033E+04  0.35861504359E+04 0.  0.
        4    1    3    3  502    0  0.21522966023E+03 -0.15231191117E+04  0.12814913898E+04  0.20021082464E+04  0.12699999809E+01 0. -1.
       -4    1    3    3    0  502 -0.21522966023E+03  0.15231191117E+04 -0.59471267080E+03  0.16492120570E+04  0.12699999809E+01 0.  1.
</event>
<event>
 5   0  0.1128530E-06  0.4030092E+04  0.7818609E-02  0.7998503E-01
        2   -1    0    0  501    0  0.00000000000E+00  0.00000000000E+00  0.21696975429E+04  0.21696975429E+04  0.25500000920E-02 0. -1.
       -2   -1    0    0    0  501  0.00000000000E+00  0.00000000000E+00 -0.18714174600E+04  0.18714174600E+04  0.25500000920E-02 0.  1.
    10030    2    1    2    0    0  0.00000000000E+00  0.00000000000E+00  0.29828008284E+03  0.40411150029E+04  0.40300917432E+04 0.  0.
        5    1    3    3  502    0 -0.11055983566E+04  0.36113621776E+02  0.18380081158E+04  0.21452151043E+04  0.46999998093E+01 0. -1.
       -5    1    3    3    0  502  0.11055983566E+04 -0.36113621776E+02 -0.15397280330E+04  0.18958998986E+04  0.46999998093E+01 0.  1.
</event>
<event>
 5   0  0.3848431E-07  0.3757937E+04  0.7818609E-02  0.8055242E-01
        1   -1    0    0  501    0  0.00000000000E+00  0.00000000000E+00  0.28163546875E+04  0.28163546875E+04  0.50400001928E-02 0. -1.
       -1   -1    0    0    0  501  0.00000000000E+00  0.00000000000E+00 -0.12535791617E+04  0.12535791617E+04  0.50400001928E-02 0.  1.
    10030    2    1    2    0    0  0.00000000000E+00  0.00000000000E+00  0.15627755259E+04  0.40699338492E+04  0.37579374919E+04 0.  0.
        2    1    3    3  502    0  0.85826146260E+03 -0.15395850809E+04  0.14862592196E+04  0.23056238694E+04  0.25500000920E-02 0. -1.
       -2    1    3    3    0  502 -0.85826146260E+03  0.15395850809E+04  0.76516306294E+02  0.17643099798E+04  0.25500000920E-02 0.  1.
</event>
<event>
 5   0  0.1128530E-06  0.3747297E+04  0.7818609E-02  0.8057560E-01
       -2   -1    0    0    0  501  0.00000000000E+00  0.00000000000E+00  0.14426925894E+04  0.14426925894E+04  0.25500000920E-02 0. -1.
        2   -1    0    0  501    0  0.00000000000E+00  0.00000000000E+00 -0.24333381965E+04  0.24333381965E+04  0.25500000920E-02 0.  1.
    10030    2    1    2    0    0  0.00000000000E+00  0.00000000000E+00 -0.99064560716E+03  0.38760307859E+04  0.37472971505E+04 0.  0.
        5    1    3    3  502    0 -0.61173550400E+03 -0.31512161529E+02 -0.23268369071E+04  0.24061183316E+04  0.46999998093E+01 0.  1.
       -5    1    3    3    0  502  0.61173550400E+03  0.31512161529E+02  0.13361913000E+04  0.14699124543E+04  0.46999998093E+01 0. -1.
</event>
<event>
 5   0  0.5688659E-07  0.2262820E+04  0.7818609E-02  0.8492727E-01
        1   -1    0    0  501    0  0.00000000000E+00  0.00000000000E+00  0.95240898479E+03  0.95240898481E+03  0.50400001928E-02 0.  1.
       -1   -1    0    0    0  501  0.00000000000E+00  0.00000000000E+00 -0.13440536783E+04  0.13440536783E+04  0.50400001928E-02 0. -1.
    10030    2    1    2    0    0  0.00000000000E+00  0.00000000000E+00 -0.39164469353E+03  0.22964626631E+04  0.22628201867E+04 0.  0.
        2    1    3    3  502    0 -0.65982606276E+03  0.48269818690E+03 -0.98957643982E+03  0.12836002115E+04  0.25500000920E-02 0. -1.
       -2    1    3    3    0  502  0.65982606276E+03 -0.48269818690E+03  0.59793174628E+03  0.10128624516E+04  0.25500000920E-02 0.  1.
</event>
<event>
 5   0  0.1092116E-06  0.3898002E+04  0.7818609E-02  0.8025445E-01
        2   -1    0    0  501    0  0.00000000000E+00  0.00000000000E+00  0.20530377676E+04  0.20530377676E+04  0.25500000920E-02 0.  1.
       -2   -1    0    0    0  501  0.00000000000E+00  0.00000000000E+00 -0.18502365926E+04  0.18502365926E+04  0.25500000920E-02 0. -1.
    10030    2    1    2    0    0  0.00000000000E+00  0.00000000000E+00  0.20280117507E+03  0.39032743602E+04  0.38980023621E+04 0.  0.
        1    1    3    3  502    0  0.17777466510E+04 -0.69090546651E+03  0.50303167952E+03  0.19725045981E+04  0.50400001928E-02 0.  1.
       -1    1    3    3    0  502 -0.17777466510E+04  0.69090546651E+03 -0.30023050445E+03  0.19307697622E+04  0.50400001928E-02 0. -1.
</event>
<event>
 5   0  0.3682276E-07  0.3699743E+04  0.7818609E-02  0.8068019E-01
        1   -1    0    0  501    0  0.00000000000E+00  0.00000000000E+00  0.20839742596E+04  0.20839742596E+04  0.50400001928E-02 0.  1.
       -1   -1    0    0    0  501  0.00000000000E+00  0.00000000000E+00 -0.16420667327E+04  0.16420667327E+04  0.50400001928E-02 0. -1.
    10030    2    1    2    0    0  0.00000000000E+00  0.00000000000E+00  0.44190752693E+03  0.37260409924E+04  0.36997431282E+04 0.  0.
        1    1    3    3  502    0 -0.46109210170E+03  0.26339153152E+03 -0.15636586430E+04  0.16513659125E+04  0.50400001928E-02 0. -1.
       -1    1    3    3    0  502  0.46109210170E+03 -0.26339153152E+03  0.20055661699E+04  0.20746750799E+04  0.50400001928E-02 0.  1.
</event>
<event>
 5   0  0.1128166E-06  0.3762214E+04  0.7818609E-02  0.8054313E-01
        2   -1    0    0  501    0  0.00000000000E+00  0.00000000000E+00  0.18646658834E+04  0.18646658834E+04  0.25500000920E-02 0. -1.
       -2   -1    0    0    0  501  0.00000000000E+00  0.00000000000E+00 -0.18976934139E+04  0.18976934139E+04  0.25500000920E-02 0.  1.
    10030    2    1    2    0    0  0.00000000000E+00  0.00000000000E+00 -0.33027530558E+02  0.37623592973E+04  0.37622143299E+04 0.  0.
        3    1    3    3  502    0  0.18499998354E+04  0.25097540363E+03  0.21387764483E+03  0.18791571785E+04  0.10100000352E+00 0. -1.
       -3    1    3    3    0  502 -0.18499998354E+04 -0.25097540363E+03 -0.24690517539E+03  0.18832021188E+04  0.10100000352E+00 0.  1.
</event>
<event>
 5   0  0.3675819E-07  0.3460969E+04  0.7818609E-02  0.8123102E-01
        1   -1    0    0  501    0  0.00000000000E+00  0.00000000000E+00  0.17393678155E+04  0.17393678155E+04  0.50400001928E-02 0.  1.
       -1   -1    0    0    0  501  0.00000000000E+00  0.00000000000E+00 -0.17216469393E+04  0.17216469393E+04  0.50400001928E-02 0. -1.
    10030    2    1    2    0    0  0.00000000000E+00  0.00000000000E+00  0.17720876250E+02  0.34610147548E+04  0.34609693878E+04 0.  0.
        5    1    3    3  502    0  0.40827410102E+01 -0.16554540303E+04 -0.49514068268E+03  0.17279268217E+04  0.46999998093E+01 0. -1.
       -5    1    3    3    0  502 -0.40827410102E+01  0.16554540303E+04  0.51286155893E+03  0.17330879331E+04  0.46999998093E+01 0.  1.
</event>
<event>
 5   0  0.3704306E-07  0.3715550E+04  0.7818609E-02  0.8064524E-01
       -1   -1    0    0    0  501  0.00000000000E+00  0.00000000000E+00  0.31603734581E+04  0.31603734581E+04  0.50400001928E-02 0. -1.
        1   -1    0    0  501    0  0.00000000000E+00  0.00000000000E+00 -0.10920633182E+04  0.10920633182E+04  0.50400001928E-02 0.  1.
    10030    2    1    2    0    0  0.00000000000E+00  0.00000000000E+00  0.20683101399E+04  0.42524367764E+04  0.37155499865E+04 0.  0.
        3    1    3    3  502    0  0.50801098062E+02 -0.10144073375E+04 -0.74616363738E+03  0.12603028136E+04  0.10100000352E+00 0.  1.
       -3    1    3    3    0  502 -0.50801098062E+02  0.10144073375E+04  0.28144737773E+04  0.29921339628E+04  0.10100000352E+00 0. -1.
</event>
<event>
 5   0  0.1051123E-06  0.3657815E+04  0.7818609E-02  0.8077375E-01
        2   -1    0    0  501    0  0.00000000000E+00  0.00000000000E+00  0.23167881875E+04  0.23167881875E+04  0.25500000920E-02 0. -1.
       -2   -1    0    0    0  501  0.00000000000E+00  0.00000000000E+00 -0.14437674302E+04  0.14437674302E+04  0.25500000920E-02 0.  1.
    10030    2    1    2    0    0  0.00000000000E+00  0.00000000000E+00  0.87302075727E+03  0.37605556177E+04  0.36578153741E+04 0.  0.
        2    1    3    3  502    0  0.73366186786E+03  0.14361013798E+04 -0.45042408269E+03  0.16743741409E+04  0.25500000920E-02 0.  1.
       -2    1    3    3    0  502 -0.73366186786E+03 -0.14361013798E+04  0.13234448400E+04  0.20861814768E+04  0.25500000920E-02 0. -1.
</event>
<event>
 5   0  0.1128530E-06  0.3641321E+04  0.7818609E-02  0.8081092E-01
       -2   -1    0    0    0  501  0.00000000000E+00  0.00000000000E+00  0.11863478018E+04  0.11863478018E+04  0.25500000920E-02 0. -1.
        2   -1    0    0  501    0  0.00000000000E+00  0.00000000000E+00 -0.27941260460E+04  0.27941260460E+04  0.25500000920E-02 0.  1.
    10030    2    1    2    0    0  0.00000000000E+00  0.00000000000E+00 -0.16077782442E+04  0.39804738479E+04  0.36413213496E+04 0.  0.
        5    1    3    3  502    0  0.43494578078E+03  0.32868947178E+03  0.10950207115E+04  0.12232363017E+04  0.46999998093E+01 0. -1.
       -5    1    3    3    0  502 -0.43494578078E+03 -0.32868947178E+03 -0.27027989557E+04  0.27572375462E+04  0.46999998093E+01 0.  1.
</event>
<event>
 5   0  0.3682276E-07  0.3692300E+04  0.7818609E-02  0.8069670E-01
       -1   -1    0    0    0  501  0.00000000000E+00  0.00000000000E+00  0.20316743446E+04  0.20316743446E+04  0.50400001928E-02 0.  1.
        1   -1    0    0  501    0  0.00000000000E+00  0.00000000000E+00 -0.16775668274E+04  0.16775668274E+04  0.50400001928E-02 0. -1.
    10030    2    1    2    0    0  0.00000000000E+00  0.00000000000E+00  0.35410751718E+03  0.37092411720E+04  0.36922998169E+04 0.  0.
        1    1    3    3  502    0  0.92248038030E+03  0.40917008229E+03 -0.13759628298E+04  0.17063598440E+04  0.50400001928E-02 0. -1.
       -1    1    3    3    0  502 -0.92248038030E+03 -0.40917008229E+03  0.17300703470E+04  0.20028813279E+04  0.50400001928E-02 0.  1.
</event>
<event>
 5   0  0.1066907E-06  0.3953307E+04  0.7818609E-02  0.8014033E-01
        2   -1    0    0  501    0  0.00000000000E+00  0.00000000000E+00  0.16962498699E+04  0.16962498699E+04  0.25500000920E-02 0.  1.
       -2   -1    0    0    0  501  0.00000000000E+00  0.00000000000E+00 -0.23034104942E+04  0.23034104942E+04  0.25500000920E-02 0. -1.
    10030    2    1    2    0    0  0.00000000000E+00  0.00000000000E+00 -0.60716062430E+03  0.39996603642E+04  0.39533073502E+04 0.  0.
        4    1    3    3  502    0  0.50323539681E+03 -0.13888085305E+04 -0.16324199819E+04  0.22015520910E+04  0.12699999809E+01 0. -1.
       -4    1    3    3    0  502 -0.50323539681E+03  0.13888085305E+04  0.10252593576E+04  0.17981082732E+04  0.12699999809E+01 0.  1.
</event>
<event>
 5   0  0.3675819E-07  0.3682837E+04  0.7818609E-02  0.8071776E-01
        1   -1    0    0  501    0  0.00000000000E+00  0.00000000000E+00  0.13532117035E+04  0.13532117035E+04  0.50400001928E-02 0. -1.
       -1   -1    0    0    0  501  0.00000000000E+00  0.00000000000E+00 -0.25057583267E+04  0.25057583267E+04  0.50400001928E-02 0.  1.
    10030    2    1    2    0    0  0.00000000000E+00  0.00000000000E+00 -0.11525466232E+04  0.38589700302E+04  0.36828366751E+04 0.  0.
        5    1    3    3  502    0  0.16494657320E+04 -0.58191267571E+03 -0.11795149380E+04  0.21096533227E+04  0.46999998093E+01 0. -1.
       -5    1    3    3    0  502 -0.16494657320E+04  0.58191267571E+03  0.26968314789E+02  0.17493167075E+04  0.46999998093E+01 0.  1.
</event>
<event>
 5   0  0.1051123E-06  0.3566964E+04  0.7818609E-02  0.8098101E-01
       -2   -1    0    0    0  501  0.00000000000E+00  0.00000000000E+00  0.16848432085E+04  0.16848432085E+04  0.25500000920E-02 0.  1.
        2   -1    0    0  501    0  0.00000000000E+00  0.00000000000E+00 -0.18878959771E+04  0.18878959771E+04  0.25500000920E-02 0. -1.
    10030    2    1    2    0    0  0.00000000000E+00  0.00000000000E+00 -0.20305276862E+03  0.35727391856E+04  0.35669643762E+04 0.  0.
        2    1    3    3  502    0  0.50701002230E+03 -0.15961181334E+03  0.16036614810E+04  0.16894570842E+04  0.25500000920E-02 0.  1.
       -2    1    3    3    0  502 -0.50701002230E+03  0.15961181334E+03 -0.18067142496E+04  0.18832821014E+04  0.25500000920E-02 0. -1.
</event>
<event>
 5   0  0.1128166E-06  0.3592573E+04  0.7818609E-02  0.8092195E-01
       -2   -1    0    0    0  501  0.00000000000E+00  0.00000000000E+00  0.12129194746E+04  0.12129194746E+04  0.25500000920E-02 0. -1.
        2   -1    0    0  501    0  0.00000000000E+00  0.00000000000E+00 -0.26602303525E+04  0.26602303525E+04  0.25500000920E-02 0.  1.
    10030    2    1    2    0    0  0.00000000000E+00  0.00000000000E+00 -0.14473108779E+04  0.38731498272E+04  0.35925730064E+04 0.  0.
        3    1    3    3  502    0  0.44579966009E+02  0.17944178579E+04 -0.64956900824E+03  0.19088904444E+04  0.10100000352E+00 0. -1.
       -3    1    3    3    0  502 -0.44579966009E+02 -0.17944178579E+04 -0.79774186967E+03  0.19642593828E+04  0.10100000352E+00 0.  1.
</event>
<event>
 5   0  0.3764495E-07  0.3513248E+04  0.7818609E-02  0.8110657E-01
        1   -1    0    0  501    0  0.00000000000E+00  0.00000000000E+00  0.12236764959E+04  0.12236764959E+04  0.50400001928E-02 0. -1.
       -1   -1    0    0    0  501  0.00000000000E+00  0.00000000000E+00 -0.25216860777E+04  0.25216860777E+04  0.50400001928E-02 0.  1.
    10030    2    1    2    0    0  0.00000000000E+00  0.00000000000E+00 -0.12980095818E+04  0.37453625736E+04  0.35132480603E+04 0.  0.
        4    1    3    3  502    0 -0.29249462930E+03  0.73887729567E+02 -0.24938618313E+04  0.25120431826E+04  0.12699999809E+01 0.  1.
       -4    1    3    3    0  502  0.29249462930E+03 -0.73887729567E+02  0.11958522495E+04  0.12333193910E+04  0.12699999809E+01 0. -1.
</event>
<event>
 5   0  0.3675819E-07  0.3420709E+04  0.7818609E-02  0.8132842E-01
       -1   -1    0    0    0  501  0.00000000000E+00  0.00000000000E+00  0.14345703908E+04  0.14345703908E+04  0.50400001928E-02 0. -1.
        1   -1    0    0  501    0  0.00000000000E+00  0.00000000000E+00 -0.20391562757E+04  0.20391562757E+04  0.50400001928E-02 0.  1.
    10030    2    1    2    0    0  0.00000000000E+00  0.00000000000E+00 -0.60458588486E+03  0.34737266665E+04  0.34207094091E+04 0.  0.
        5    1    3    3  502    0 -0.16182726939E+04  0.13971825394E+03 -0.84628521742E+03  0.18315426453E+04  0.46999998093E+01 0.  1.
       -5    1    3    3    0  502  0.16182726939E+04 -0.13971825394E+03  0.24169933256E+03  0.16421840212E+04  0.46999998093E+01 0. -1.
</event>
<event>
 5   0  0.1128166E-06  0.3684232E+04  0.7818609E-02  0.8071465E-01
       -2   -1    0    0    0  501  0.00000000000E+00  0.00000000000E+00  0.32940916068E+04  0.32940916068E+04  0.25500000920E-02 0.  1.
        2   -1    0    0  501    0  0.00000000000E+00  0.00000000000E+00 -0.10301446926E+04  0.10301446926E+04  0.25500000920E-02 0. -1.
    10030    2    1    2    0    0  0.00000000000E+00  0.00000000000E+00  0.22639469142E+04  0.43242362994E+04  0.36842317981E+04 0.  0.
        3    1    3    3  502    0 -0.67134719285E+03 -0.11803934164E+04 -0.32898539165E+03  0.13972355095E+04  0.10100000352E+00 0. -1.
       -3    1    3    3    0  502  0.67134719285E+03  0.11803934164E+04  0.25929323059E+04  0.29270007899E+04  0.10100000352E+00 0.  1.
</event>
<event>
 5   0  0.1128166E-06  0.3656089E+04  0.7818609E-02  0.8077763E-01
        2   -1    0    0  501    0  0.00000000000E+00  0.00000000000E+00  0.19512452950E+04  0.19512452950E+04  0.25500000920E-02 0. -1.
       -2   -1    0    0    0  501  0.00000000000E+00  0.00000000000E+00 -0.17126221220E+04  0.17126221220E+04  0.25500000920E-02 0.  1.
    10030    2    1    2    0    0  0.00000000000E+00  0.00000000000E+00  0.23862317297E+03  0.36638674171E+04  0.36560885426E+04 0.  0.
        3    1    3    3  502    0 -0.68190005127E+03  0.15592182647E+04 -0.54963888580E+03  0.17883657881E+04  0.10100000352E+00 0.  1.
       -3    1    3    3    0  502  0.68190005127E+03 -0.15592182647E+04  0.78826205877E+03  0.18755016290E+04  0.10100000352E+00 0. -1.
</event>
<event>
 5   0  0.1051123E-06  0.3748741E+04  0.7818609E-02  0.8057245E-01
        2   -1    0    0  501    0  0.00000000000E+00  0.00000000000E+00  0.25809585345E+04  0.25809585345E+04  0.25500000920E-02 0. -1.
       -2   -1    0    0    0  501  0.00000000000E+00  0.00000000000E+00 -0.13612247980E+04  0.13612247980E+04  0.25500000920E-02 0.  1.
    10030    2    1    2    0    0  0.00000000000E+00  0.00000000000E+00  0.12197337366E+04  0.39421833325E+04  0.37487409939E+04 0.  0.
        2    1    3    3  502    0 -0.15092573908E+04  0.71759562210E+03 -0.28273408643E+03  0.16949159012E+04  0.25500000920E-02 0.  1.
       -2    1    3    3    0  502  0.15092573908E+04 -0.71759562210E+03  0.15024678230E+04  0.22472674313E+04  0.25500000920E-02 0. -1.
</event>
<event>
 5   0  0.3682276E-07  0.3245043E+04  0.7818609E-02  0.8177022E-01
        1   -1    0    0  501    0  0.00000000000E+00  0.00000000000E+00  0.25301695802E+04  0.25301695803E+04  0.50400001928E-02 0.  1.
       -1   -1    0    0    0  501  0.00000000000E+00  0.00000000000E+00 -0.10404738681E+04  0.10404738681E+04  0.50400001928E-02 0. -1.
    10030    2    1    2    0    0  0.00000000000E+00  0.00000000000E+00  0.14896957121E+04  0.35706434484E+04  0.32450425761E+04 0.  0.
        1    1    3    3  502    0  0.24840999214E+03 -0.42041446326E+03  0.24473944126E+04  0.24956352410E+04  0.50400001928E-02 0.  1.
       -1    1    3    3    0  502 -0.24840999214E+03  0.42041446326E+03 -0.95769870047E+03  0.10750082074E+04  0.50400001928E-02 0. -1.
</event>
<event>
 5   0  0.1066907E-06  0.3680340E+04  0.7818609E-02  0.8072333E-01
        2   -1    0    0  501    0  0.00000000000E+00  0.00000000000E+00  0.22113692926E+04  0.22113692926E+04  0.25500000920E-02 0.  1.
       -2   -1    0    0    0  501  0.00000000000E+00  0.00000000000E+00 -0.15312797597E+04  0.15312797597E+04  0.25500000920E-02 0. -1.
    10030    2    1    2    0    0  0.00000000000E+00  0.00000000000E+00  0.68008953293E+03  0.37426490523E+04  0.36803396794E+04 0.  0.
        4    1    3    3  502    0  0.14405976937E+04 -0.81249544246E+03 -0.48030535419E+03  0.17222559059E+04  0.12699999809E+01 0. -1.
       -4    1    3    3    0  502 -0.14405976937E+04  0.81249544246E+03  0.11603948871E+04  0.20203931464E+04  0.12699999809E+01 0.  1.
</event>
<event>
 5   0  0.1128166E-06  0.2379542E+04  0.7818609E-02  0.8447203E-01
        2   -1    0    0  501    0  0.00000000000E+00  0.00000000000E+00  0.80134548319E+03  0.80134548320E+03  0.25500000920E-02 0. -1.
       -2   -1    0    0    0  501  0.00000000000E+00  0.00000000000E+00 -0.17664729384E+04  0.17664729384E+04  0.25500000920E-02 0.  1.
    10030    2    1    2    0    0  0.00000000000E+00  0.00000000000E+00 -0.96512745523E+03  0.25678184216E+04  0.23795420655E+04 0.  0.
        3    1    3    3  502    0 -0.10209028800E+04  0.49775665762E+03 -0.10019661927E+03  0.11401946120E+04  0.10100000352E+00 0. -1.
       -3    1    3    3    0  502  0.10209028800E+04 -0.49775665762E+03 -0.86493083597E+03  0.14276238096E+04  0.10100000352E+00 0.  1.
</event>
<event>
 5   0  0.3848431E-07  0.3748562E+04  0.7818609E-02  0.8057284E-01
       -1   -1    0    0    0  501  0.00000000000E+00  0.00000000000E+00  0.15455062553E+04  0.15455062553E+04  0.50400001928E-02 0.  1.
        1   -1    0    0  501    0  0.00000000000E+00  0.00000000000E+00 -0.22729956091E+04  0.22729956091E+04  0.50400001928E-02 0. -1.
    10030    2    1    2    0    0  0.00000000000E+00  0.00000000000E+00 -0.72748935386E+03  0.38185018644E+04  0.37485618214E+04 0.  0.
        2    1    3    3  502    0 -0.17858520847E+04  0.44772368743E+03 -0.72129903750E+03  0.19773711008E+04  0.25500000920E-02 0. -1.
       -2    1    3    3    0  502  0.17858520847E+04 -0.44772368743E+03 -0.61903163638E+01  0.18411307636E+04  0.25500000920E-02 0.  1.
</event>
<event>
 5   0  0.3682276E-07  0.3691453E+04  0.7818609E-02  0.8069859E-01
        1   -1    0    0  501    0  0.00000000000E+00  0.00000000000E+00  0.23660620735E+04  0.23660620735E+04  0.50400001928E-02 0.  1.
       -1   -1    0    0    0  501  0.00000000000E+00  0.00000000000E+00 -0.14398213193E+04  0.14398213193E+04  0.50400001928E-02 0. -1.
    10030    2    1    2    0    0  0.00000000000E+00  0.00000000000E+00  0.92624075416E+03  0.38058833929E+04  0.36914531645E+04 0.  0.
        1    1    3    3  502    0  0.52847420758E+03 -0.14621527221E+04 -0.56246737903E+03  0.16533436193E+04  0.50400001928E-02 0. -1.
       -1    1    3    3    0  502 -0.52847420758E+03  0.14621527221E+04  0.14887081332E+04  0.21525397736E+04  0.50400001928E-02 0.  1.
</event>
<event>
 5   0  0.1092116E-06  0.3610630E+04  0.7818609E-02  0.8088061E-01
        2   -1    0    0  501    0  0.00000000000E+00  0.00000000000E+00  0.17055780215E+04  0.17055780215E+04  0.25500000920E-02 0.  1.
       -2   -1    0    0    0  501  0.00000000000E+00  0.00000000000E+00 -0.19108843159E+04  0.19108843159E+04  0.25500000920E-02 0. -1.
    10030    2    1    2    0    0  0.00000000000E+00  0.00000000000E+00 -0.20530629440E+03  0.36164623373E+04  0.36106300230E+04 0.  0.
        1    1    3    3  502    0 -0.55706030488E+03 -0.15200551644E+04 -0.90286694042E+03  0.18536592454E+04  0.50400001928E-02 0.  1.
       -1    1    3    3    0  502  0.55706030488E+03  0.15200551644E+04  0.69756064602E+03  0.17628030919E+04  0.50400001928E-02 0. -1.
</event>
<event>
 5   0  0.3675819E-07  0.3641561E+04  0.7818609E-02  0.8081037E-01
       -1   -1    0    0    0  501  0.00000000000E+00  0.00000000000E+00  0.13278207531E+04  0.13278207531E+04  0.50400001928E-02 0.  1.
        1   -1    0    0  501    0  0.00000000000E+00  0.00000000000E+00 -0.24967543896E+04  0.24967543896E+04  0.50400001928E-02 0. -1.
    10030    2    1    2    0    0  0.00000000000E+00  0.00000000000E+00 -0.11689336365E+04  0.38245751427E+04  0.36415613651E+04 0.  0.
        5    1    3    3  502    0 -0.10014320892E+04 -0.14686615052E+04 -0.17046389636E+03  0.17857527477E+04  0.46999998093E+01 0. -1.
       -5    1    3    3    0  502  0.10014320892E+04  0.14686615052E+04 -0.99846974017E+03  0.20388223950E+04  0.46999998093E+01 0.  1.
</event>
<event>
 5   0  0.3682276E-07  0.3665105E+04  0.7818609E-02  0.8075739E-01
        1   -1    0    0  501    0  0.00000000000E+00  0.00000000000E+00  0.24430697890E+04  0.24430697890E+04  0.50400001928E-02 0.  1.
       -1   -1    0    0    0  501  0.00000000000E+00  0.00000000000E+00 -0.13746018761E+04  0.13746018761E+04  0.50400001928E-02 0. -1.
    10030    2    1    2    0    0  0.00000000000E+00  0.00000000000E+00  0.10684679129E+04  0.38176716651E+04  0.36651048091E+04 0.  0.
        1    1    3    3  502    0 -0.49326936926E+02 -0.17666896228E+04  0.29691848242E+02  0.17676274992E+04  0.50400001928E-02 0.  1.
       -1    1    3    3    0  502  0.49326936926E+02  0.17666896228E+04  0.10387760646E+04  0.20500441660E+04  0.50400001928E-02 0. -1.
</event>
<event>
 5   0  0.1128166E-06  0.3718194E+04  0.7818609E-02  0.8063942E-01
        2   -1    0    0  501    0  0.00000000000E+00  0.00000000000E+00  0.12111730287E+04  0.12111730287E+04  0.25500000920E-02 0.  1.
       -2   -1    0    0    0  501  0.00000000000E+00  0.00000000000E+00 -0.28536315670E+04  0.28536315670E+04  0.25500000920E-02 0. -1.
    10030    2    1    2    0    0  0.00000000000E+00  0.00000000000E+00 -0.16424585383E+04  0.40648045957E+04  0.37181939637E+04 0.  0.
        3    1    3    3  502    0  0.95700209963E+03 -0.11715418263E+04 -0.20026550058E+04  0.25097789448E+04  0.10100000352E+00 0. -1.
       -3    1    3    3    0  502 -0.95700209963E+03  0.11715418263E+04  0.36019646750E+03  0.15550256509E+04  0.10100000352E+00 0.  1.
</event>
<event>
 5   0  0.3682276E-07  0.3731797E+04  0.7818609E-02  0.8060952E-01
       -1   -1    0    0    0  501  0.00000000000E+00  0.00000000000E+00  0.17281382327E+04  0.17281382328E+04  0.50400001928E-02 0.  1.
        1   -1    0    0  501    0  0.00000000000E+00  0.00000000000E+00 -0.20146399441E+04  0.20146399441E+04  0.50400001928E-02 0. -1.
    10030    2    1    2    0    0  0.00000000000E+00  0.00000000000E+00 -0.28650171135E+03  0.37427781769E+04  0.37317965178E+04 0.  0.
        1    1    3    3  502    0 -0.14719505090E+02  0.21921343050E+03  0.17151197781E+04  0.17291347678E+04  0.50400001928E-02 0.  1.
       -1    1    3    3    0  502  0.14719505090E+02 -0.21921343050E+03 -0.20016214894E+04  0.20136434091E+04  0.50400001928E-02 0. -1.
</event>
<event>
 5   0  0.3682276E-07  0.3931914E+04  0.7818609E-02  0.8018424E-01
       -1   -1    0    0    0  501  0.00000000000E+00  0.00000000000E+00  0.16217733345E+04  0.16217733345E+04  0.50400001928E-02 0.  1.
        1   -1    0    0  501    0  0.00000000000E+00  0.00000000000E+00 -0.23831856291E+04  0.23831856291E+04  0.50400001928E-02 0. -1.
    10030    2    1    2    0    0  0.00000000000E+00  0.00000000000E+00 -0.76141229463E+03  0.40049589636E+04  0.39319139891E+04 0.  0.
        1    1    3    3  502    0  0.20214935465E+03  0.37752936063E+03 -0.23350996743E+04  0.23740436535E+04  0.50400001928E-02 0. -1.
       -1    1    3    3    0  502 -0.20214935465E+03 -0.37752936063E+03  0.15736873797E+04  0.16309153101E+04  0.50400001928E-02 0.  1.
</event>
<event>
 5   0  0.3848431E-07  0.3792218E+04  0.7818609E-02  0.8047827E-01
       -1   -1    0    0    0  501  0.00000000000E+00  0.00000000000E+00  0.12531397336E+04  0.12531397336E+04  0.50400001928E-02 0.  1.
        1   -1    0    0  501    0  0.00000000000E+00  0.00000000000E+00 -0.28689772709E+04  0.28689772709E+04  0.50400001928E-02 0. -1.
    10030    2    1    2    0    0  0.00000000000E+00  0.00000000000E+00 -0.16158375373E+04  0.41221170046E+04  0.37922180386E+04 0.  0.
        2    1    3    3  502    0  0.14720134157E+04  0.79860406010E+03  0.15861206271E+03  0.16821859966E+04  0.25500000920E-02 0.  1.
       -2    1    3    3    0  502 -0.14720134157E+04 -0.79860406010E+03 -0.17744496000E+04  0.24399310080E+04  0.25500000920E-02 0. -1.
</event>
<event>
 5   0  0.1092116E-06  0.3408890E+04  0.7818609E-02  0.8135728E-01
        2   -1    0    0  501    0  0.00000000000E+00  0.00000000000E+00  0.16422424155E+04  0.16422424155E+04  0.25500000920E-02 0. -1.
       -2   -1    0    0    0  501  0.00000000000E+00  0.00000000000E+00 -0.17690038898E+04  0.17690038898E+04  0.25500000920E-02 0.  1.
    10030    2    1    2    0    0  0.00000000000E+00  0.00000000000E+00 -0.12676147427E+03  0.34112463053E+04  0.34088902717E+04 0.  0.
        1    1    3    3  502    0 -0.10337278559E+04 -0.29523985855E+03 -0.13869336601E+04  0.17548062092E+04  0.50400001928E-02 0.  1.
       -1    1    3    3    0  502  0.10337278559E+04  0.29523985855E+03  0.12601721859E+04  0.16564400962E+04  0.50400001928E-02 0. -1.
</event>
<event>
 5   0  0.1128166E-06  0.3630377E+04  0.7818609E-02  0.8083569E-01
        2   -1    0    0  501    0  0.00000000000E+00  0.00000000000E+00  0.12924268485E+04  0.12924268485E+04  0.25500000920E-02 0. -1.
       -2   -1    0    0    0  501  0.00000000000E+00  0.00000000000E+00 -0.25493971598E+04  0.25493971598E+04  0.25500000920E-02 0.  1.
    10030    2    1    2    0    0  0.00000000000E+00  0.00000000000E+00 -0.12569703113E+04  0.38418240082E+04  0.36303770254E+04 0.  0.
        3    1    3    3  502    0  0.29019605561E+02 -0.14644288224E+04  0.50611577503E+03  0.15496925828E+04  0.10100000352E+00 0. -1.
       -3    1    3    3    0  502 -0.29019605561E+02  0.14644288224E+04 -0.17630860864E+04  0.22921314254E+04  0.10100000352E+00 0.  1.
</event>
<event>
 5   0  0.1051123E-06  0.3735237E+04  0.7818609E-02  0.8060197E-01
        2   -1    0    0  501    0  0.00000000000E+00  0.00000000000E+00  0.21447094122E+04  0.21447094122E+04  0.25500000920E-02 0.  1.
       -2   -1    0    0    0  501  0.00000000000E+00  0.00000000000E+00 -0.16263273332E+04  0.16263273332E+04  0.25500000920E-02 0. -1.
    10030    2    1    2    0    0  0.00000000000E+00  0.00000000000E+00  0.51838207907E+03  0.37710367454E+04  0.37352373627E+04 0.  0.
        2    1    3    3  502    0  0.76433782729E+03  0.12761457691E+04 -0.88089699147E+03  0.17287972258E+04  0.25500000920E-02 0. -1.
       -2    1    3    3    0  502 -0.76433782729E+03 -0.12761457691E+04  0.13992790705E+04  0.20422395196E+04  0.25500000920E-02 0.  1.
</event>
<event>
 5   0  0.1066907E-06  0.3755322E+04  0.7818609E-02  0.8055811E-01
        2   -1    0    0  501    0  0.00000000000E+00  0.00000000000E+00  0.24965583268E+04  0.24965583268E+04  0.25500000920E-02 0.  1.
       -2   -1    0    0    0  501  0.00000000000E+00  0.00000000000E+00 -0.14121887935E+04  0.14121887935E+04  0.25500000920E-02 0. -1.
    10030    2    1    2    0    0  0.00000000000E+00  0.00000000000E+00  0.10843695333E+04  0.39087471202E+04  0.37553224582E+04 0.  0.
        4    1    3    3  502    0 -0.22209885599E+03 -0.18947103705E+01 -0.13984670646E+04  0.14159954927E+04  0.12699999809E+01 0. -1.
       -4    1    3    3    0  502  0.22209885599E+03  0.18947103705E+01  0.24828365979E+04  0.24927516275E+04  0.12699999809E+01 0.  1.
</event>
<event>
 5   0  0.1128166E-06  0.3359988E+04  0.7818609E-02  0.8147797E-01
        2   -1    0    0  501    0  0.00000000000E+00  0.00000000000E+00  0.22977386396E+04  0.22977386396E+04  0.25500000920E-02 0.  1.
       -2   -1    0    0    0  501  0.00000000000E+00  0.00000000000E+00 -0.12283296841E+04  0.12283296841E+04  0.25500000920E-02 0. -1.
    10030    2    1    2    0    0  0.00000000000E+00  0.00000000000E+00  0.10694089555E+04  0.35260683236E+04  0.33599884388E+04 0.  0.
        3    1    3    3  502    0 -0.15424646438E+04 -0.12091829642E+03  0.12217094004E+04  0.19713934871E+04  0.10100000352E+00 0.  1.
       -3    1    3    3    0  502  0.15424646438E+04  0.12091829642E+03 -0.15230044484E+03  0.15546748366E+04  0.10100000352E+00 0. -1.
</event>
<event>
 5   0  0.3704306E-07  0.3673686E+04  0.7818609E-02  0.8073818E-01
        1   -1    0    0  501    0  0.00000000000E+00  0.00000000000E+00  0.21004930893E+04  0.21004930893E+04  0.50400001928E-02 0.  1.
       -1   -1    0    0    0  501  0.00000000000E+00  0.00000000000E+00 -0.16062858912E+04  0.16062858912E+04  0.50400001928E-02 0. -1.
    10030    2    1    2    0    0  0.00000000000E+00  0.00000000000E+00  0.49420719801E+03  0.37067789805E+04  0.36736861129E+04 0.  0.
        3    1    3    3  502    0  0.10513321861E+04  0.89653477273E+03  0.14683445758E+04  0.20162117368E+04  0.10100000352E+00 0.  1.
       -3    1    3    3    0  502 -0.10513321861E+04 -0.89653477273E+03 -0.97413737778E+03  0.16905672437E+04  0.10100000352E+00 0. -1.
</event>
<event>
 5   0  0.1066907E-06  0.3606079E+04  0.7818609E-02  0.8089101E-01
       -2   -1    0    0    0  501  0.00000000000E+00  0.00000000000E+00  0.26230352927E+04  0.26230352927E+04  0.25500000920E-02 0.  1.
        2   -1    0    0  501    0  0.00000000000E+00  0.00000000000E+00 -0.12393852254E+04  0.12393852254E+04  0.25500000920E-02 0. -1.
    10030    2    1    2    0    0  0.00000000000E+00  0.00000000000E+00  0.13836500673E+04  0.38624205181E+04  0.36060788608E+04 0.  0.
        4    1    3    3  502    0  0.11905067627E+04 -0.75615468721E+03  0.18950094910E+04  0.23622317513E+04  0.12699999809E+01 0.  1.
       -4    1    3    3    0  502 -0.11905067627E+04  0.75615468721E+03 -0.51135942371E+03  0.15001887668E+04  0.12699999809E+01 0. -1.
</event>
<event>
 5   0  0.1051123E-06  0.3653849E+04  0.7818609E-02  0.8078267E-01
        2   -1    0    0  501    0  0.00000000000E+00  0.00000000000E+00  0.24410701557E+04  0.24410701557E+04  0.25500000920E-02 0. -1.
       -2   -1    0    0    0  501  0.00000000000E+00  0.00000000000E+00 -0.13672908568E+04  0.13672908568E+04  0.25500000920E-02 0.  1.
    10030    2    1    2    0    0  0.00000000000E+00  0.00000000000E+00  0.10737792989E+04  0.38083610125E+04  0.36538488774E+04 0.  0.
        2    1    3    3  502    0 -0.17649698098E+04  0.40128398946E+03  0.27839891363E+03  0.18312982348E+04  0.25500000920E-02 0.  1.
       -2    1    3    3    0  502  0.17649698098E+04 -0.40128398946E+03  0.79538038526E+03  0.19770627777E+04  0.25500000920E-02 0. -1.
</event>
<event>
 5   0  0.3848431E-07  0.2464925E+04  0.7818609E-02  0.8415589E-01
       -1   -1    0    0    0  501  0.00000000000E+00  0.00000000000E+00  0.71748347212E+03  0.71748347214E+03  0.50400001928E-02 0.  1.
        1   -1    0    0  501    0  0.00000000000E+00  0.00000000000E+00 -0.21170711660E+04  0.21170711660E+04  0.50400001928E-02 0. -1.
    10030    2    1    2    0    0  0.00000000000E+00  0.00000000000E+00 -0.13995876939E+04  0.28345546381E+04  0.24649248029E+04 0.  0.
        2    1    3    3  502    0 -0.70171087430E+03  0.10000608012E+04 -0.51279315945E+03  0.13249439918E+04  0.25500000920E-02 0.  1.
       -2    1    3    3    0  502  0.70171087430E+03 -0.10000608012E+04 -0.88679453442E+03  0.15096106463E+04  0.25500000920E-02 0. -1.
</event>
<event>
 5   0  0.3848431E-07  0.3655565E+04  0.7818609E-02  0.8077881E-01
        1   -1    0    0  501    0  0.00000000000E+00  0.00000000000E+00  0.13083387328E+04  0.13083387328E+04  0.50400001928E-02 0.  1.
       -1   -1    0    0    0  501  0.00000000000E+00  0.00000000000E+00 -0.25534586041E+04  0.25534586041E+04  0.50400001928E-02 0. -1.
    10030    2    1    2    0    0  0.00000000000E+00  0.00000000000E+00 -0.12451198713E+04  0.38617973369E+04  0.36555649601E+04 0.  0.
        2    1    3    3  502    0  0.12311526773E+04  0.83874729037E+03  0.49622145580E+03  0.15701814116E+04  0.25500000920E-02 0.  1.
       -2    1    3    3    0  502 -0.12311526773E+04 -0.83874729037E+03 -0.17413413271E+04  0.22916159254E+04  0.25500000920E-02 0. -1.
</event>
<event>
 5   0  0.1092116E-06  0.3876937E+04  0.7818609E-02  0.8029843E-01
       -2   -1    0    0    0  501  0.00000000000E+00  0.00000000000E+00  0.25852269959E+04  0.25852269959E+04  0.25500000920E-02 0. -1.
        2   -1    0    0  501    0  0.00000000000E+00  0.00000000000E+00 -0.14535127079E+04  0.14535127079E+04  0.25500000920E-02 0.  1.
    10030    2    1    2    0    0  0.00000000000E+00  0.00000000000E+00  0.11317142880E+04  0.40387397038E+04  0.38769370856E+04 0.  0.
        1    1    3    3  502    0 -0.17531705849E+03  0.85383573133E+03 -0.12378451918E+04  0.15139459191E+04  0.50400001928E-02 0.  1.
       -1    1    3    3    0  502  0.17531705849E+03 -0.85383573133E+03  0.23695594798E+04  0.25247937848E+04  0.50400001928E-02 0. -1.
</event>
<event>
 5   0  0.3682276E-07  0.3773996E+04  0.7818609E-02  0.8051758E-01
       -1   -1    0    0    0  501  0.00000000000E+00  0.00000000000E+00  0.15060817333E+04  0.15060817333E+04  0.50400001928E-02 0.  1.
        1   -1    0    0  501    0  0.00000000000E+00  0.00000000000E+00 -0.23642553177E+04  0.23642553177E+04  0.50400001928E-02 0. -1.
    10030    2    1    2    0    0  0.00000000000E+00  0.00000000000E+00 -0.85817358437E+03  0.38703370510E+04  0.37739961563E+04 0.  0.
        1    1    3    3  502    0 -0.59256550597E+03  0.10685725854E+04 -0.19037727725E+04  0.22621520768E+04  0.50400001928E-02 0. -1.
       -1    1    3    3    0  502  0.59256550597E+03 -0.10685725854E+04  0.10455991881E+04  0.16081849742E+04  0.50400001928E-02 0.  1.
</event>
<event>
 5   0  0.3490375E-07  0.3895264E+04  0.7818609E-02  0.8026015E-01
       -3   -1    0    0    0  501  0.00000000000E+00  0.00000000000E+00  0.16618859316E+04  0.16618859346E+04  0.10100000352E+00 0. -1.
        3   -1    0    0  501    0  0.00000000000E+00  0.00000000000E+00 -0.22825094923E+04  0.22825094946E+04  0.10100000352E+00 0.  1.
    10030    2    1    2    0    0  0.00000000000E+00  0.00000000000E+00 -0.62062356076E+03  0.39443954292E+04  0.38952640087E+04 0.  0.
        2    1    3    3  502    0 -0.53308232701E+03 -0.56647446354E+03  0.14977628419E+04  0.16877095768E+04  0.25500000920E-02 0. -1.
       -2    1    3    3    0  502  0.53308232701E+03  0.56647446354E+03 -0.21183864027E+04  0.22566858524E+04  0.25500000920E-02 0.  1.
</event>
<event>
 5   0  0.3682276E-07  0.3677114E+04  0.7818609E-02  0.8073053E-01
       -1   -1    0    0    0  501  0.00000000000E+00  0.00000000000E+00  0.25278958333E+04  0.25278958333E+04  0.50400001928E-02 0. -1.
        1   -1    0    0  501    0  0.00000000000E+00  0.00000000000E+00 -0.13371961009E+04  0.13371961009E+04  0.50400001928E-02 0.  1.
    10030    2    1    2    0    0  0.00000000000E+00  0.00000000000E+00  0.11906997323E+04  0.38650919342E+04  0.36771143315E+04 0.  0.
        1    1    3    3  502    0 -0.23583350381E+03 -0.15816086922E+02  0.25118592749E+04  0.25229555301E+04  0.50400001928E-02 0. -1.
       -1    1    3    3    0  502  0.23583350381E+03  0.15816086922E+02 -0.13211595426E+04  0.13421364041E+04  0.50400001928E-02 0.  1.
</event>
<event>
 5   0  0.3704306E-07  0.3747880E+04  0.7818609E-02  0.8057433E-01
        1   -1    0    0  501    0  0.00000000000E+00  0.00000000000E+00  0.25665814579E+04  0.25665814579E+04  0.50400001928E-02 0.  1.
       -1   -1    0    0    0  501  0.00000000000E+00  0.00000000000E+00 -0.13682211951E+04  0.13682211952E+04  0.50400001928E-02 0. -1.
    10030    2    1    2    0    0  0.00000000000E+00  0.00000000000E+00  0.11983602628E+04  0.39348026531E+04  0.37478800140E+04 0.  0.
        3    1    3    3  502    0  0.18464909568E+04 -0.28500287774E+03  0.75094287718E+03  0.20136212923E+04  0.10100000352E+00 0. -1.
       -3    1    3    3    0  502 -0.18464909568E+04  0.28500287774E+03  0.44741738561E+03  0.19211813608E+04  0.10100000352E+00 0.  1.
</event>
<event>
 5   0  0.1092116E-06  0.2841953E+04  0.7818609E-02  0.8290361E-01
       -2   -1    0    0    0  501  0.00000000000E+00  0.00000000000E+00  0.13680999858E+04  0.13680999858E+04  0.25500000920E-02 0. -1.
        2   -1    0    0  501    0  0.00000000000E+00  0.00000000000E+00 -0.14758963068E+04  0.14758963068E+04  0.25500000920E-02 0.  1.
    10030    2    1    2    0    0  0.00000000000E+00  0.00000000000E+00 -0.10779632091E+03  0.28439962926E+04  0.28419526501E+04 0.  0.
        1    1    3    3  502    0  0.10370922445E+02  0.82683793470E+03 -0.12103264786E+04  0.14658303828E+04  0.50400001928E-02 0.  1.
       -1    1    3    3    0  502 -0.10370922445E+02 -0.82683793470E+03  0.11025301577E+04  0.13781659098E+04  0.50400001928E-02 0. -1.
</event>
<event>
 5   0  0.1092116E-06  0.2464638E+04  0.7818609E-02  0.8415693E-01
       -2   -1    0    0    0  501  0.00000000000E+00  0.00000000000E+00  0.77501559862E+03  0.77501559863E+03  0.25500000920E-02 0. -1.
        2   -1    0    0  501    0  0.00000000000E+00  0.00000000000E+00 -0.19594579686E+04  0.19594579686E+04  0.25500000920E-02 0.  1.
    10030    2    1    2    0    0  0.00000000000E+00  0.00000000000E+00 -0.11844423700E+04  0.27344735672E+04  0.24646383025E+04 0.  0.
        1    1    3    3  502    0 -0.99148641317E+03 -0.64540226864E+03 -0.97498643805E+03  0.15330322731E+04  0.50400001928E-02 0.  1.
       -1    1    3    3    0  502  0.99148641317E+03  0.64540226864E+03 -0.20945593192E+03  0.12014412942E+04  0.50400001928E-02 0. -1.
</event>
<event>
 5   0  0.1066907E-06  0.3585529E+04  0.7818609E-02  0.8093814E-01
        2   -1    0    0  501    0  0.00000000000E+00  0.00000000000E+00  0.22199701593E+04  0.22199701593E+04  0.25500000920E-02 0. -1.
       -2   -1    0    0    0  501  0.00000000000E+00  0.00000000000E+00 -0.14477695732E+04  0.14477695732E+04  0.25500000920E-02 0.  1.
    10030    2    1    2    0    0  0.00000000000E+00  0.00000000000E+00  0.77220058611E+03  0.36677397325E+04  0.35855293891E+04 0.  0.
        4    1    3    3  502    0 -0.33814544046E+03 -0.13317176969E+04  0.15641075855E+04  0.20818858074E+04  0.12699999809E+01 0. -1.
       -4    1    3    3    0  502  0.33814544046E+03  0.13317176969E+04 -0.79190699944E+03  0.15858539251E+04  0.12699999809E+01 0.  1.
</event>
<event>
 5   0  0.3848431E-07  0.3890759E+04  0.7818609E-02  0.8026954E-01
       -1   -1    0    0    0  501  0.00000000000E+00  0.00000000000E+00  0.27510754685E+04  0.27510754685E+04  0.50400001928E-02 0. -1.
        1   -1    0    0  501    0  0.00000000000E+00  0.00000000000E+00 -0.13756439935E+04  0.13756439935E+04  0.50400001928E-02 0.  1.
    10030    2    1    2    0    0  0.00000000000E+00  0.00000000000E+00  0.13754314751E+04  0.41267194620E+04  0.38907585090E+04 0.  0.
        2    1    3    3  502    0 -0.88608110692E+03 -0.11274518431E+04  0.20820577440E+04  0.25280925291E+04  0.25500000920E-02 0. -1.
       -2    1    3    3    0  502  0.88608110692E+03  0.11274518431E+04 -0.70662626892E+03  0.15986269329E+04  0.25500000920E-02 0.  1.
</event>
<event>
 5   0  0.1128530E-06  0.3124870E+04  0.7818609E-02  0.8208945E-01
       -2   -1    0    0    0  501  0.00000000000E+00  0.00000000000E+00  0.17402423600E+04  0.17402423600E+04  0.25500000920E-02 0. -1.
        2   -1    0    0  501    0  0.00000000000E+00  0.00000000000E+00 -0.14027953573E+04  0.14027953573E+04  0.25500000920E-02 0.  1.
    10030    2    1    2    0    0  0.00000000000E+00  0.00000000000E+00  0.33744700275E+03  0.31430377173E+04  0.31248704953E+04 0.  0.
        5    1    3    3  502    0 -0.13206874729E+02 -0.90497339631E+03  0.14497174648E+04  0.17090506391E+04  0.46999998093E+01 0. -1.
       -5    1    3    3    0  502  0.13206874729E+02  0.90497339631E+03 -0.11122704620E+04  0.14339870781E+04  0.46999998093E+01 0.  1.
</event>
<event>
 5   0  0.1128530E-06  0.3667764E+04  0.7818609E-02  0.8075143E-01
        2   -1    0    0  501    0  0.00000000000E+00  0.00000000000E+00  0.14816429703E+04  0.14816429703E+04  0.25500000920E-02 0. -1.
       -2   -1    0    0    0  501  0.00000000000E+00  0.00000000000E+00 -0.22698612102E+04  0.22698612102E+04  0.25500000920E-02 0.  1.
    10030    2    1    2    0    0  0.00000000000E+00  0.00000000000E+00 -0.78821823989E+03  0.37515041806E+04  0.36677643904E+04 0.  0.
        5    1    3    3  502    0  0.40651094241E+03  0.72042246606E+03  0.12799761151E+04  0.15240146394E+04  0.46999998093E+01 0. -1.
       -5    1    3    3    0  502 -0.40651094241E+03 -0.72042246606E+03 -0.20681943550E+04  0.22274895412E+04  0.46999998093E+01 0.  1.
</event>
<event>
 5   0  0.1128166E-06  0.3292511E+04  0.7818609E-02  0.8164803E-01
        2   -1    0    0  501    0  0.00000000000E+00  0.00000000000E+00  0.25438689492E+04  0.25438689492E+04  0.25500000920E-02 0. -1.
       -2   -1    0    0    0  501  0.00000000000E+00  0.00000000000E+00 -0.10653685178E+04  0.10653685178E+04  0.25500000920E-02 0.  1.
    10030    2    1    2    0    0  0.00000000000E+00  0.00000000000E+00  0.14785004314E+04  0.36092374670E+04  0.32925114377E+04 0.  0.
        3    1    3    3  502    0 -0.78714303667E+03  0.56469476464E+03  0.21983373917E+04  0.24023242153E+04  0.10100000352E+00 0. -1.
       -3    1    3    3    0  502  0.78714303667E+03 -0.56469476464E+03 -0.71983696030E+03  0.12069132516E+04  0.10100000352E+00 0.  1.
</event>
<event>
 5   0  0.1128530E-06  0.3789389E+04  0.7818609E-02  0.8048436E-01
       -2   -1    0    0    0  501  0.00000000000E+00  0.00000000000E+00  0.14290986880E+04  0.14290986880E+04  0.25500000920E-02 0. -1.
        2   -1    0    0  501    0  0.00000000000E+00  0.00000000000E+00 -0.25119795575E+04  0.25119795575E+04  0.25500000920E-02 0.  1.
    10030    2    1    2    0    0  0.00000000000E+00  0.00000000000E+00 -0.10828808695E+04  0.39410782455E+04  0.37893887053E+04 0.  0.
        5    1    3    3  502    0  0.14831595895E+04  0.44962694245E+03 -0.16749863183E+04  0.22820008790E+04  0.46999998093E+01 0.  1.
       -5    1    3    3    0  502 -0.14831595895E+04 -0.44962694245E+03  0.59210544884E+03  0.16590773665E+04  0.46999998093E+01 0. -1.
</event>
<event>
 5   0  0.1051123E-06  0.3685807E+04  0.7818609E-02  0.8071114E-01
       -2   -1    0    0    0  501  0.00000000000E+00  0.00000000000E+00  0.15195713618E+04  0.15195713618E+04  0.25500000920E-02 0. -1.
        2   -1    0    0  501    0  0.00000000000E+00  0.00000000000E+00 -0.22350335928E+04  0.22350335928E+04  0.25500000920E-02 0.  1.
    10030    2    1    2    0    0  0.00000000000E+00  0.00000000000E+00 -0.71546223101E+03  0.37546049546E+04  0.36858068535E+04 0.  0.
        2    1    3    3  502    0  0.71335278476E+03 -0.16449187062E+04 -0.79190657159E+03  0.19600371842E+04  0.25500000920E-02 0. -1.
       -2    1    3    3    0  502 -0.71335278476E+03  0.16449187062E+04  0.76444340576E+02  0.17945677704E+04  0.25500000920E-02 0.  1.
</event>
<event>
 5   0  0.1128530E-06  0.3078288E+04  0.7818609E-02  0.8221722E-01
        2   -1    0    0  501    0  0.00000000000E+00  0.00000000000E+00  0.29215664446E+04  0.29215664446E+04  0.25500000920E-02 0.  1.
       -2   -1    0    0    0  501  0.00000000000E+00  0.00000000000E+00 -0.81085440174E+03  0.81085440175E+03  0.25500000920E-02 0. -1.
    10030    2    1    2    0    0  0.00000000000E+00  0.00000000000E+00  0.21107120429E+04  0.37324208464E+04  0.30782884931E+04 0.  0.
        5    1    3    3  502    0 -0.14824229105E+04  0.21412911264E+03  0.14849194518E+04  0.21091317718E+04  0.46999998093E+01 0.  1.
       -5    1    3    3    0  502  0.14824229105E+04 -0.21412911264E+03  0.62579259108E+03  0.16232890746E+04  0.46999998093E+01 0. -1.
</event>
<event>
 5   0  0.1051123E-06  0.3660716E+04  0.7818609E-02  0.8076724E-01
       -2   -1    0    0    0  501  0.00000000000E+00  0.00000000000E+00  0.13335770651E+04  0.13335770651E+04  0.25500000920E-02 0. -1.
        2   -1    0    0  501    0  0.00000000000E+00  0.00000000000E+00 -0.25121983214E+04  0.25121983214E+04  0.25500000920E-02 0.  1.
    10030    2    1    2    0    0  0.00000000000E+00  0.00000000000E+00 -0.11786212562E+04  0.38457753865E+04  0.36607158122E+04 0.  0.
        2    1    3    3  502    0  0.11514905705E+03 -0.10568247171E+04  0.97600332730E+03  0.14431632905E+04  0.25500000920E-02 0. -1.
       -2    1    3    3    0  502 -0.11514905705E+03  0.10568247171E+04 -0.21546245835E+04  0.24026120960E+04  0.25500000920E-02 0.  1.
</event>
<event>
 5   0  0.1066907E-06  0.3706781E+04  0.7818609E-02  0.8066461E-01
       -2   -1    0    0    0  501  0.00000000000E+00  0.00000000000E+00  0.25093020043E+04  0.25093020043E+04  0.25500000920E-02 0.  1.
        2   -1    0    0  501    0  0.00000000000E+00  0.00000000000E+00 -0.13689287976E+04  0.13689287976E+04  0.25500000920E-02 0. -1.
    10030    2    1    2    0    0  0.00000000000E+00  0.00000000000E+00  0.11403732067E+04  0.38782308020E+04  0.37067806926E+04 0.  0.
        4    1    3    3  502    0  0.23340659342E+03  0.12894188260E+04 -0.80115335390E+03  0.15358801568E+04  0.12699999809E+01 0. -1.
       -4    1    3    3    0  502 -0.23340659342E+03 -0.12894188260E+04  0.19415265606E+04  0.23423506452E+04  0.12699999809E+01 0.  1.
</event>
<event>
 5   0  0.1092116E-06  0.3511591E+04  0.7818609E-02  0.8111049E-01
       -2   -1    0    0    0  501  0.00000000000E+00  0.00000000000E+00  0.15074375708E+04  0.15074375709E+04  0.25500000920E-02 0.  1.
        2   -1    0    0  501    0  0.00000000000E+00  0.00000000000E+00 -0.20450714195E+04  0.20450714195E+04  0.25500000920E-02 0. -1.
    10030    2    1    2    0    0  0.00000000000E+00  0.00000000000E+00 -0.53763384861E+03  0.35525089903E+04  0.35115908035E+04 0.  0.
        1    1    3    3  502    0 -0.96447371539E+03  0.92420183142E+03 -0.14215941548E+04  0.19507148725E+04  0.50400001928E-02 0. -1.
       -1    1    3    3    0  502  0.96447371539E+03 -0.92420183142E+03  0.88396030618E+03  0.16017941178E+04  0.50400001928E-02 0.  1.
</event>
<event>
 5   0  0.3682276E-07  0.3756787E+04  0.7818609E-02  0.8055492E-01
        1   -1    0    0  501    0  0.00000000000E+00  0.00000000000E+00  0.19600761491E+04  0.19600761491E+04  0.50400001928E-02 0. -1.
       -1   -1    0    0    0  501  0.00000000000E+00  0.00000000000E+00 -0.18001151472E+04  0.18001151472E+04  0.50400001928E-02 0.  1.
    10030    2    1    2    0    0  0.00000000000E+00  0.00000000000E+00  0.15996100194E+03  0.37601912963E+04  0.37567873327E+04 0.  0.
        1    1    3    3  502    0  0.76375459077E+03  0.10580353134E+04 -0.12723925109E+04  0.18225648140E+04  0.50400001928E-02 0.  1.
       -1    1    3    3    0  502 -0.76375459077E+03 -0.10580353134E+04  0.14323535129E+04  0.19376264824E+04  0.50400001928E-02 0. -1.
</event>
<event>
 5   0  0.3675819E-07  0.3650427E+04  0.7818609E-02  0.8079037E-01
        1   -1    0    0  501    0  0.00000000000E+00  0.00000000000E+00  0.29908466320E+04  0.29908466320E+04  0.50400001928E-02 0.  1.
       -1   -1    0    0    0  501  0.00000000000E+00  0.00000000000E+00 -0.11138668074E+04  0.11138668074E+04  0.50400001928E-02 0. -1.
    10030    2    1    2    0    0  0.00000000000E+00  0.00000000000E+00  0.18769798246E+04  0.41047134394E+04  0.36504272568E+04 0.  0.
        5    1    3    3  502    0 -0.17088093946E+01  0.10168036872E+04 -0.76588825953E+03  0.12729884424E+04  0.46999998093E+01 0. -1.
       -5    1    3    3    0  502  0.17088093946E+01 -0.10168036872E+04  0.26428680842E+04  0.28317249970E+04  0.46999998093E+01 0.  1.
</event>
<event>
 5   0  0.3848431E-07  0.2630312E+04  0.7818609E-02  0.8357977E-01
        1   -1    0    0  501    0  0.00000000000E+00  0.00000000000E+00  0.93236412667E+03  0.93236412669E+03  0.50400001928E-02 0. -1.
       -1   -1    0    0    0  501  0.00000000000E+00  0.00000000000E+00 -0.18551074386E+04  0.18551074386E+04  0.50400001928E-02 0.  1.
    10030    2    1    2    0    0  0.00000000000E+00  0.00000000000E+00 -0.92274331195E+03  0.27874715653E+04  0.26303122453E+04 0.  0.
        2    1    3    3  502    0  0.29768705812E+03  0.11530700722E+04 -0.10527910057E+04  0.15895147303E+04  0.25500000920E-02 0.  1.
       -2    1    3    3    0  502 -0.29768705812E+03 -0.11530700722E+04  0.13004769377E+03  0.11979568351E+04  0.25500000920E-02 0. -1.
</event>
<event>
 5   0  0.3490375E-07  0.3706556E+04  0.7818609E-02  0.8066511E-01
        3   -1    0    0  501    0  0.00000000000E+00  0.00000000000E+00  0.17911729585E+04  0.17911729614E+04  0.10100000352E+00 0. -1.
       -3   -1    0    0    0  501  0.00000000000E+00  0.00000000000E+00 -0.19175360496E+04  0.19175360523E+04  0.10100000352E+00 0.  1.
    10030    2    1    2    0    0  0.00000000000E+00  0.00000000000E+00 -0.12636309107E+03  0.37087090137E+04  0.37065556676E+04 0.  0.
        5    1    3    3  502    0  0.82486169136E+03 -0.16508254422E+04 -0.23356020746E+03  0.18601596467E+04  0.46999998093E+01 0. -1.
       -5    1    3    3    0  502 -0.82486169136E+03  0.16508254422E+04  0.10719711639E+03  0.18485493670E+04  0.46999998093E+01 0.  1.
</event>
<event>
 5   0  0.1092116E-06  0.3742750E+04  0.7818609E-02  0.8058553E-01
        2   -1    0    0  501    0  0.00000000000E+00  0.00000000000E+00  0.21276021762E+04  0.21276021762E+04  0.25500000920E-02 0. -1.
       -2   -1    0    0    0  501  0.00000000000E+00  0.00000000000E+00 -0.16460052764E+04  0.16460052764E+04  0.25500000920E-02 0.  1.
    10030    2    1    2    0    0  0.00000000000E+00  0.00000000000E+00  0.48159689985E+03  0.37736074526E+04  0.37427500093E+04 0.  0.
        1    1    3    3  502    0 -0.13199529136E+04 -0.12473019050E+04  0.69619326963E+03  0.19449223134E+04  0.50400001928E-02 0.  1.
       -1    1    3    3    0  502  0.13199529136E+04  0.12473019050E+04 -0.21459636978E+03  0.18286851392E+04  0.50400001928E-02 0. -1.
</event>
<event>
 5   0  0.1066907E-06  0.3807849E+04  0.7818609E-02  0.8044473E-01
        2   -1    0    0  501    0  0.00000000000E+00  0.00000000000E+00  0.19369812337E+04  0.19369812337E+04  0.25500000920E-02 0. -1.
       -2   -1    0    0    0  501  0.00000000000E+00  0.00000000000E+00 -0.18714321246E+04  0.18714321246E+04  0.25500000920E-02 0.  1.
    10030    2    1    2    0    0  0.00000000000E+00  0.00000000000E+00  0.65549109093E+02  0.38084133583E+04  0.38078492121E+04 0.  0.
        4    1    3    3  502    0  0.17977030472E+04 -0.39085047340E+03 -0.45763160332E+03  0.18957659760E+04  0.12699999809E+01 0.  1.
       -4    1    3    3    0  502 -0.17977030472E+04  0.39085047340E+03  0.52318071241E+03  0.19126473823E+04  0.12699999809E+01 0. -1.
</event>
<event>
 5   0  0.3764495E-07  0.3643515E+04  0.7818609E-02  0.8080596E-01
        1   -1    0    0  501    0  0.00000000000E+00  0.00000000000E+00  0.21771569578E+04  0.21771569578E+04  0.50400001928E-02 0. -1.
       -1   -1    0    0    0  501  0.00000000000E+00  0.00000000000E+00 -0.15243737186E+04  0.15243737186E+04  0.50400001928E-02 0.  1.
    10030    2    1    2    0    0  0.00000000000E+00  0.00000000000E+00  0.65278323922E+03  0.37015306764E+04  0.36435152519E+04 0.  0.
        4    1    3    3  502    0 -0.15386335133E+04 -0.18151371946E+03 -0.64723094019E+03  0.16790621851E+04  0.12699999809E+01 0.  1.
       -4    1    3    3    0  502  0.15386335133E+04  0.18151371946E+03  0.13000141794E+04  0.20224684913E+04  0.12699999809E+01 0. -1.
</event>
<event>
 5   0  0.3848431E-07  0.3052942E+04  0.7818609E-02  0.8228773E-01
       -1   -1    0    0    0  501  0.00000000000E+00  0.00000000000E+00  0.12985820743E+04  0.12985820743E+04  0.50400001928E-02 0.  1.
        1   -1    0    0  501    0  0.00000000000E+00  0.00000000000E+00 -0.17943521175E+04  0.17943521175E+04  0.50400001928E-02 0. -1.
    10030    2    1    2    0    0  0.00000000000E+00  0.00000000000E+00 -0.49577004316E+03  0.30929341918E+04  0.30529418565E+04 0.  0.
        2    1    3    3  502    0  0.13826867003E+03 -0.95337971718E+03 -0.14474832491E+04  0.17387521004E+04  0.25500000920E-02 0. -1.
       -2    1    3    3    0  502 -0.13826867003E+03  0.95337971718E+03  0.95171320593E+03  0.13541820914E+04  0.25500000920E-02 0.  1.
</event>
<event>
 5   0  0.3848431E-07  0.3736830E+04  0.7818609E-02  0.8059849E-01
       -1   -1    0    0    0  501  0.00000000000E+00  0.00000000000E+00  0.27569350686E+04  0.27569350686E+04  0.50400001928E-02 0.  1.
        1   -1    0    0  501    0  0.00000000000E+00  0.00000000000E+00 -0.12662519056E+04  0.12662519056E+04  0.50400001928E-02 0. -1.
    10030    2    1    2    0    0  0.00000000000E+00  0.00000000000E+00  0.14906831631E+04  0.40231869742E+04  0.37368298245E+04 0.  0.
        2    1    3    3  502    0 -0.13334206384E+04  0.26404377332E+03 -0.63478207175E+03  0.15002259802E+04  0.25500000920E-02 0. -1.
       -2    1    3    3    0  502  0.13334206384E+04 -0.26404377332E+03  0.21254652348E+04  0.25229609940E+04  0.25500000920E-02 0.  1.
</event>
<event>
 5   0  0.1051123E-06  0.3556080E+04  0.7818609E-02  0.8100627E-01
       -2   -1    0    0    0  501  0.00000000000E+00  0.00000000000E+00  0.13185922704E+04  0.13185922704E+04  0.25500000920E-02 0.  1.
        2   -1    0    0  501    0  0.00000000000E+00  0.00000000000E+00 -0.23975767186E+04  0.23975767186E+04  0.25500000920E-02 0. -1.
    10030    2    1    2    0    0  0.00000000000E+00  0.00000000000E+00 -0.10789844482E+04  0.37161689890E+04  0.35560799366E+04 0.  0.
        2    1    3    3  502    0  0.16568940223E+04 -0.13542551777E+03  0.11960566259E+03  0.16667163485E+04  0.25500000920E-02 0.  1.
       -2    1    3    3    0  502 -0.16568940223E+04  0.13542551777E+03 -0.11985901108E+04  0.20494526405E+04  0.25500000920E-02 0. -1.
</event>
<event>
 5   0  0.3682276E-07  0.3728751E+04  0.7818609E-02  0.8061620E-01
        1   -1    0    0  501    0  0.00000000000E+00  0.00000000000E+00  0.23272970188E+04  0.23272970189E+04  0.50400001928E-02 0.  1.
       -1   -1    0    0    0  501  0.00000000000E+00  0.00000000000E+00 -0.14935333998E+04  0.14935333998E+04  0.50400001928E-02 0. -1.
    10030    2    1    2    0    0  0.00000000000E+00  0.00000000000E+00  0.83376361903E+03  0.38208304187E+04  0.37287509056E+04 0.  0.
        1    1    3    3  502    0 -0.64112385114E+03 -0.17461228527E+04  0.54613563313E+03  0.19386203700E+04  0.50400001928E-02 0.  1.
       -1    1    3    3    0  502  0.64112385114E+03  0.17461228527E+04  0.28762798590E+03  0.18822100487E+04  0.50400001928E-02 0. -1.
</event>
<event>
 5   0  0.3764495E-07  0.3498820E+04  0.7818609E-02  0.8114070E-01
        1   -1    0    0  501    0  0.00000000000E+00  0.00000000000E+00  0.20808150765E+04  0.20808150765E+04  0.50400001928E-02 0.  1.
       -1   -1    0    0    0  501  0.00000000000E+00  0.00000000000E+00 -0.14707869521E+04  0.14707869521E+04  0.50400001928E-02 0. -1.
    10030    2    1    2    0    0  0.00000000000E+00  0.00000000000E+00  0.61002812441E+03  0.35516020286E+04  0.34988201808E+04 0.  0.
        4    1    3    3  502    0  0.36302796673E+03 -0.15551703247E+04 -0.41996602936E+03  0.16512774213E+04  0.12699999809E+01 0. -1.
       -4    1    3    3    0  502 -0.36302796673E+03  0.15551703247E+04  0.10299941538E+04  0.19003246073E+04  0.12699999809E+01 0.  1.
</event>
<event>
 5   0  0.3704306E-07  0.2298883E+04  0.7818609E-02  0.8478362E-01
       -1   -1    0    0    0  501  0.00000000000E+00  0.00000000000E+00  0.57325648654E+03  0.57325648656E+03  0.50400001928E-02 0.  1.
        1   -1    0    0  501    0  0.00000000000E+00  0.00000000000E+00 -0.23047543738E+04  0.23047543738E+04  0.50400001928E-02 0. -1.
    10030    2    1    2    0    0  0.00000000000E+00  0.00000000000E+00 -0.17314978873E+04  0.28780108604E+04  0.22988826805E+04 0.  0.
        3    1    3    3  502    0  0.72397328483E+03  0.80169638535E+03 -0.37388569495E+03  0.11430857074E+04  0.10100000352E+00 0.  1.
       -3    1    3    3    0  502 -0.72397328483E+03 -0.80169638535E+03 -0.13576121923E+04  0.17349251529E+04  0.10100000352E+00 0. -1.
</event>
<event>
 5   0  0.3764495E-07  0.3646962E+04  0.7818609E-02  0.8079818E-01
       -1   -1    0    0    0  501  0.00000000000E+00  0.00000000000E+00  0.22719954895E+04  0.22719954895E+04  0.50400001928E-02 0. -1.
        1   -1    0    0  501    0  0.00000000000E+00  0.00000000000E+00 -0.14635077657E+04  0.14635077657E+04  0.50400001928E-02 0.  1.
    10030    2    1    2    0    0  0.00000000000E+00  0.00000000000E+00  0.80848772383E+03  0.37355032552E+04  0.36469620466E+04 0.  0.
        4    1    3    3  502    0  0.53064270108E+03  0.16424921439E+04 -0.19801014020E+03  0.17374037376E+04  0.12699999809E+01 0. -1.
       -4    1    3    3    0  502 -0.53064270108E+03 -0.16424921439E+04  0.10064978640E+04  0.19980995176E+04  0.12699999809E+01 0.  1.
</event>
<event>
 5   0  0.1066907E-06  0.2541291E+04  0.7818609E-02  0.8388421E-01
       -2   -1    0    0    0  501  0.00000000000E+00  0.00000000000E+00  0.95983687619E+03  0.95983687620E+03  0.25500000920E-02 0.  1.
        2   -1    0    0  501    0  0.00000000000E+00  0.00000000000E+00 -0.16820980998E+04  0.16820980998E+04  0.25500000920E-02 0. -1.
    10030    2    1    2    0    0  0.00000000000E+00  0.00000000000E+00 -0.72226122359E+03  0.26419349760E+04  0.25412908417E+04 0.  0.
        4    1    3    3  502    0 -0.32919981226E+03  0.69397471992E+03  0.69116426711E+03  0.10332875134E+04  0.12699999809E+01 0.  1.
       -4    1    3    3    0  502  0.32919981226E+03 -0.69397471992E+03 -0.14134254907E+04  0.16086474626E+04  0.12699999809E+01 0. -1.
</event>
<event>
 5   0  0.1051123E-06  0.3639073E+04  0.7818609E-02  0.8081600E-01
       -2   -1    0    0    0  501  0.00000000000E+00  0.00000000000E+00  0.29638639285E+04  0.29638639285E+04  0.25500000920E-02 0.  1.
        2   -1    0    0  501    0  0.00000000000E+00  0.00000000000E+00 -0.11170259934E+04  0.11170259934E+04  0.25500000920E-02 0. -1.
    10030    2    1    2    0    0  0.00000000000E+00  0.00000000000E+00  0.18468379351E+04  0.40808899219E+04  0.36390729858E+04 0.  0.
        2    1    3    3  502    0  0.77395000128E+03  0.10052873543E+04  0.23860357094E+04  0.27023633501E+04  0.25500000920E-02 0.  1.
       -2    1    3    3    0  502 -0.77395000128E+03 -0.10052873543E+04 -0.53919777439E+03  0.13785265718E+04  0.25500000920E-02 0. -1.
</event>
<event>
 5   0  0.1128530E-06  0.3696842E+04  0.7818609E-02  0.8068662E-01
        2   -1    0    0  501    0  0.00000000000E+00  0.00000000000E+00  0.21972623513E+04  0.21972623513E+04  0.25500000920E-02 0.  1.
       -2   -1    0    0    0  501  0.00000000000E+00  0.00000000000E+00 -0.15549626238E+04  0.15549626238E+04  0.25500000920E-02 0. -1.
    10030    2    1    2    0    0  0.00000000000E+00  0.00000000000E+00  0.64229972745E+03  0.37522249751E+04  0.36968423450E+04 0.  0.
        5    1    3    3  502    0  0.90306617760E+03  0.14639530717E+04  0.10080090979E+04  0.19936879266E+04  0.46999998093E+01 0.  1.
       -5    1    3    3    0  502 -0.90306617760E+03 -0.14639530717E+04 -0.36570937044E+03  0.17585370485E+04  0.46999998093E+01 0. -1.
</event>
<event>
 5   0  0.1128166E-06  0.3753339E+04  0.7818609E-02  0.8056243E-01
        2   -1    0    0  501    0  0.00000000000E+00  0.00000000000E+00  0.18812688945E+04  0.18812688945E+04  0.25500000920E-02 0.  1.
       -2   -1    0    0    0  501  0.00000000000E+00  0.00000000000E+00 -0.18720812708E+04  0.18720812708E+04  0.25500000920E-02 0. -1.
    10030    2    1    2    0    0  0.00000000000E+00  0.00000000000E+00  0.91876237582E+01  0.37533501653E+04  0.37533389203E+04 0.  0.
        3    1    3    3  502    0  0.14887847661E+04 -0.63505820398E+03  0.95439097750E+03  0.18790000400E+04  0.10100000352E+00 0.  1.
       -3    1    3    3    0  502 -0.14887847661E+04  0.63505820398E+03 -0.94520335374E+03  0.18743501253E+04  0.10100000352E+00 0. -1.
</event>
<event>
 5   0  0.1092116E-06  0.3307082E+04  0.7818609E-02  0.8161096E-01
        2   -1    0    0  501    0  0.00000000000E+00  0.00000000000E+00  0.28885031888E+04  0.28885031888E+04  0.25500000920E-02 0. -1.
       -2   -1    0    0    0  501  0.00000000000E+00  0.00000000000E+00 -0.94657957533E+03  0.94657957533E+03  0.25500000920E-02 0.  1.
    10030    2    1    2    0    0  0.00000000000E+00  0.00000000000E+00  0.19419236135E+04  0.38350827642E+04  0.33070821712E+04 0.  0.
        1    1    3    3  502    0 -0.41458571403E+02  0.15689745729E+04  0.36749614927E+03  0.16119719114E+04  0.50400001928E-02 0.  1.
       -1    1    3    3    0  502  0.41458571403E+02 -0.15689745729E+04  0.15744274642E+04  0.22231108528E+04  0.50400001928E-02 0. -1.
</event>
<event>
 5   0  0.3675819E-07  0.3687678E+04  0.7818609E-02  0.8070698E-01
        1   -1    0    0  501    0  0.00000000000E+00  0.00000000000E+00  0.13427130428E+04  0.13427130428E+04  0.50400001928E-02 0.  1.
       -1   -1    0    0    0  501  0.00000000000E+00  0.00000000000E+00 -0.25319948004E+04  0.25319948004E+04  0.50400001928E-02 0. -1.
    10030    2    1    2    0    0  0.00000000000E+00  0.00000000000E+00 -0.11892817576E+04  0.38747078433E+04  0.36876781003E+04 0.  0.
        5    1    3    3  502    0 -0.11638031105E+04 -0.39450700180E+03  0.84972189664E+03  0.14940290647E+04  0.46999998093E+01 0.  1.
       -5    1    3    3    0  502  0.11638031105E+04  0.39450700180E+03 -0.20390036543E+04  0.23806787786E+04  0.46999998093E+01 0. -1.
</event>
<event>
 5   0  0.3704306E-07  0.3651579E+04  0.7818609E-02  0.8078778E-01
        1   -1    0    0  501    0  0.00000000000E+00  0.00000000000E+00  0.14372546573E+04  0.14372546573E+04  0.50400001928E-02 0. -1.
       -1   -1    0    0    0  501  0.00000000000E+00  0.00000000000E+00 -0.23193572530E+04  0.23193572530E+04  0.50400001928E-02 0.  1.
    10030    2    1    2    0    0  0.00000000000E+00  0.00000000000E+00 -0.88210259571E+03  0.37566119103E+04  0.36515788442E+04 0.  0.
        3    1    3    3  502    0 -0.17846684378E+04 -0.24903053772E+03 -0.13857138109E+03  0.18072796351E+04  0.10100000352E+00 0.  1.
       -3    1    3    3    0  502  0.17846684378E+04  0.24903053772E+03 -0.74353121462E+03  0.19493322752E+04  0.10100000352E+00 0. -1.
</event>
<event>
 5   0  0.1128530E-06  0.3827722E+04  0.7818609E-02  0.8040232E-01
        2   -1    0    0  501    0  0.00000000000E+00  0.00000000000E+00  0.18867796547E+04  0.18867796547E+04  0.25500000920E-02 0.  1.
       -2   -1    0    0    0  501  0.00000000000E+00  0.00000000000E+00 -0.19413315502E+04  0.19413315502E+04  0.25500000920E-02 0. -1.
    10030    2    1    2    0    0  0.00000000000E+00  0.00000000000E+00 -0.54551895543E+02  0.38281112049E+04  0.38277224936E+04 0.  0.
        5    1    3    3  502    0  0.15504153331E+04  0.73679090317E+02 -0.11470442706E+04  0.19300126845E+04  0.46999998093E+01 0. -1.
       -5    1    3    3    0  502 -0.15504153331E+04 -0.73679090317E+02  0.10924923751E+04  0.18980985204E+04  0.46999998093E+01 0.  1.
</event>
<event>
 5   0  0.3764495E-07  0.3702116E+04  0.7818609E-02  0.8067493E-01
        1   -1    0    0  501    0  0.00000000000E+00  0.00000000000E+00  0.22333145934E+04  0.22333145934E+04  0.50400001928E-02 0. -1.
       -1   -1    0    0    0  501  0.00000000000E+00  0.00000000000E+00 -0.15342288162E+04  0.15342288163E+04  0.50400001928E-02 0.  1.
    10030    2    1    2    0    0  0.00000000000E+00  0.00000000000E+00  0.69908577714E+03  0.37675434097E+04  0.37021159382E+04 0.  0.
        4    1    3    3  502    0 -0.26497412085E+03  0.30942673030E+03 -0.14880425544E+04  0.15427988990E+04  0.12699999809E+01 0.  1.
       -4    1    3    3    0  502  0.26497412085E+03 -0.30942673030E+03  0.21871283315E+04  0.22247445107E+04  0.12699999809E+01 0. -1.
</event>
<event>
 5   0  0.1092116E-06  0.3368122E+04  0.7818609E-02  0.8145775E-01
       -2   -1    0    0    0  501  0.00000000000E+00  0.00000000000E+00  0.11581082776E+04  0.11581082776E+04  0.25500000920E-02 0. -1.
        2   -1    0    0  501    0  0.00000000000E+00  0.00000000000E+00 -0.24488737910E+04  0.24488737910E+04  0.25500000920E-02 0.  1.
    10030    2    1    2    0    0  0.00000000000E+00  0.00000000000E+00 -0.12907655134E+04  0.36069820686E+04  0.33681217366E+04 0.  0.
        1    1    3    3  502    0 -0.60569589842E+02 -0.16469720944E+04 -0.27459876837E+03  0.16708052665E+04  0.50400001928E-02 0. -1.
       -1    1    3    3    0  502  0.60569589842E+02  0.16469720944E+04 -0.10161667450E+04  0.19361768021E+04  0.50400001928E-02 0.  1.
</event>
<event>
 5   0  0.1128166E-06  0.2350529E+04  0.7818609E-02  0.8458261E-01
        2   -1    0    0  501    0  0.00000000000E+00  0.00000000000E+00  0.15524681933E+04  0.15524681933E+04  0.25500000920E-02 0. -1.
       -2   -1    0    0    0  501  0.00000000000E+00  0.00000000000E+00 -0.88970979335E+03  0.88970979336E+03  0.25500000920E-02 0.  1.
    10030    2    1    2    0    0  0.00000000000E+00  0.00000000000E+00  0.66275839999E+03  0.24421779867E+04  0.23505285835E+04 0.  0.
        3    1    3    3  502    0  0.22578204932E+02  0.21397752188E+03 -0.86907134670E+03  0.89531065618E+03  0.10100000352E+00 0.  1.
       -3    1    3    3    0  502 -0.22578204932E+02 -0.21397752188E+03  0.15318297467E+04  0.15468673305E+04  0.10100000352E+00 0. -1.
</event>
<event>
 5   0  0.3704306E-07  0.3656488E+04  0.7818609E-02  0.8077674E-01
        1   -1    0    0  501    0  0.00000000000E+00  0.00000000000E+00  0.15033127805E+04  0.15033127805E+04  0.50400001928E-02 0.  1.
       -1   -1    0    0    0  501  0.00000000000E+00  0.00000000000E+00 -0.22234065419E+04  0.22234065419E+04  0.50400001928E-02 0. -1.
    10030    2    1    2    0    0  0.00000000000E+00  0.00000000000E+00 -0.72009376141E+03  0.37267193224E+04  0.36564876429E+04 0.  0.
        3    1    3    3  502    0 -0.63075367668E+03 -0.11707535037E+04  0.91862650738E+03  0.16162885378E+04  0.10100000352E+00 0.  1.
       -3    1    3    3    0  502  0.63075367668E+03  0.11707535037E+04 -0.16387202688E+04  0.21104307846E+04  0.10100000352E+00 0. -1.
</event>
<event>
 5   0  0.1128166E-06  0.2814645E+04  0.7818609E-02  0.8298736E-01
        2   -1    0    0  501    0  0.00000000000E+00  0.00000000000E+00  0.19987380243E+04  0.19987380243E+04  0.25500000920E-02 0.  1.
       -2   -1    0    0    0  501  0.00000000000E+00  0.00000000000E+00 -0.99090365642E+03  0.99090365642E+03  0.25500000920E-02 0. -1.
    10030    2    1    2    0    0  0.00000000000E+00  0.00000000000E+00  0.10078343679E+04  0.29896416807E+04  0.28146451403E+04 0.  0.
        3    1    3    3  502    0 -0.38140838103E+02 -0.79753710246E+03 -0.72703001337E+03  0.10798577702E+04  0.10100000352E+00 0. -1.
       -3    1    3    3    0  502  0.38140838103E+02  0.79753710246E+03  0.17348643812E+04  0.19097839105E+04  0.10100000352E+00 0.  1.
</event>
<event>
 5   0  0.1092116E-06  0.3858292E+04  0.7818609E-02  0.8033760E-01
       -2   -1    0    0    0  501  0.00000000000E+00  0.00000000000E+00  0.21110991023E+04  0.21110991023E+04  0.25500000920E-02 0. -1.
        2   -1    0    0  501    0  0.00000000000E+00  0.00000000000E+00 -0.17628751489E+04  0.17628751489E+04  0.25500000920E-02 0.  1.
    10030    2    1    2    0    0  0.00000000000E+00  0.00000000000E+00  0.34822395339E+03  0.38739742512E+04  0.38582919248E+04 0.  0.
        1    1    3    3  502    0 -0.15805883155E+04  0.10451625951E+04 -0.18927045371E+03  0.19043233911E+04  0.50400001928E-02 0.  1.
       -1    1    3    3    0  502  0.15805883155E+04 -0.10451625951E+04  0.53749440711E+03  0.19696508601E+04  0.50400001928E-02 0. -1.
</event>
<event>
 5   0  0.3764495E-07  0.2635397E+04  0.7818609E-02  0.8356276E-01
        1   -1    0    0  501    0  0.00000000000E+00  0.00000000000E+00  0.12349160260E+04  0.12349160260E+04  0.50400001928E-02 0. -1.
       -1   -1    0    0    0  501  0.00000000000E+00  0.00000000000E+00 -0.14060301759E+04  0.14060301760E+04  0.50400001928E-02 0.  1.
    10030    2    1    2    0    0  0.00000000000E+00  0.00000000000E+00 -0.17111414997E+03  0.26409462019E+04  0.26353968941E+04 0.  0.
        4    1    3    3  502    0  0.69434905796E+03  0.11581684712E+03 -0.12018116886E+04  0.13927982999E+04  0.12699999809E+01 0.  1.
       -4    1    3    3    0  502 -0.69434905796E+03 -0.11581684712E+03  0.10306975386E+04  0.12481479021E+04  0.12699999809E+01 0. -1.
</event>
<event>
 5   0  0.1066907E-06  0.2873319E+04  0.7818609E-02  0.8280861E-01
        2   -1    0    0  501    0  0.00000000000E+00  0.00000000000E+00  0.14935769603E+04  0.14935769603E+04  0.25500000920E-02 0.  1.
       -2   -1    0    0    0  501  0.00000000000E+00  0.00000000000E+00 -0.13819105853E+04  0.13819105853E+04  0.25500000920E-02 0. -1.
    10030    2    1    2    0    0  0.00000000000E+00  0.00000000000E+00  0.11166637498E+03  0.28754875456E+04  0.28733185075E+04 0.  0.
        4    1    3    3  502    0 -0.12817779456E+04 -0.58147562664E+03 -0.23234181109E+03  0.14265528158E+04  0.12699999809E+01 0. -1.
       -4    1    3    3    0  502  0.12817779456E+04  0.58147562664E+03  0.34400818607E+03  0.14489347298E+04  0.12699999809E+01 0.  1.
</event>
<event>
 5   0  0.1051123E-06  0.3728426E+04  0.7818609E-02  0.8061691E-01
        2   -1    0    0  501    0  0.00000000000E+00  0.00000000000E+00  0.27718005296E+04  0.27718005296E+04  0.25500000920E-02 0.  1.
       -2   -1    0    0    0  501  0.00000000000E+00  0.00000000000E+00 -0.12538021922E+04  0.12538021922E+04  0.25500000920E-02 0. -1.
    10030    2    1    2    0    0  0.00000000000E+00  0.00000000000E+00  0.15179983374E+04  0.40256027218E+04  0.37284257162E+04 0.  0.
        2    1    3    3  502    0 -0.37926111352E+03  0.12588436467E+04  0.21859941404E+04  0.25509011547E+04  0.25500000920E-02 0.  1.
       -2    1    3    3    0  502  0.37926111352E+03 -0.12588436467E+04 -0.66799580301E+03  0.14747015671E+04  0.25500000920E-02 0. -1.
</event>
<event>
 5   0  0.3704306E-07  0.3810083E+04  0.7818609E-02  0.8043995E-01
       -1   -1    0    0    0  501  0.00000000000E+00  0.00000000000E+00  0.32122836683E+04  0.32122836683E+04  0.50400001928E-02 0. -1.
        1   -1    0    0  501    0  0.00000000000E+00  0.00000000000E+00 -0.11297825925E+04  0.11297825925E+04  0.50400001928E-02 0.  1.
    10030    2    1    2    0    0  0.00000000000E+00  0.00000000000E+00  0.20825010758E+04  0.43420662608E+04  0.38100825034E+04 0.  0.
        3    1    3    3  502    0 -0.18751829413E+04 -0.30633103514E+03  0.11984708948E+04  0.22464376827E+04  0.10100000352E+00 0. -1.
       -3    1    3    3    0  502  0.18751829413E+04  0.30633103514E+03  0.88403018097E+03  0.20956285781E+04  0.10100000352E+00 0.  1.
</event>
<event>
 5   0  0.3764495E-07  0.3747508E+04  0.7818609E-02  0.8057514E-01
       -1   -1    0    0    0  501  0.00000000000E+00  0.00000000000E+00  0.30423604141E+04  0.30423604141E+04  0.50400001928E-02 0.  1.
        1   -1    0    0  501    0  0.00000000000E+00  0.00000000000E+00 -0.11540232919E+04  0.11540232919E+04  0.50400001928E-02 0. -1.
    10030    2    1    2    0    0  0.00000000000E+00  0.00000000000E+00  0.18883371221E+04  0.41963837060E+04  0.37475083884E+04 0.  0.
        4    1    3    3  502    0 -0.10483726175E+04  0.36706614959E+03 -0.74559731354E+03  0.13378115226E+04  0.12699999809E+01 0. -1.
       -4    1    3    3    0  502  0.10483726175E+04 -0.36706614959E+03  0.26339344357E+04  0.28585721834E+04  0.12699999809E+01 0.  1.
</event>
<event>
 5   0  0.3490375E-07  0.3401647E+04  0.7818609E-02  0.8137502E-01
       -3   -1    0    0    0  501  0.00000000000E+00  0.00000000000E+00  0.16127855561E+04  0.16127855593E+04  0.10100000352E+00 0.  1.
        3   -1    0    0  501    0  0.00000000000E+00  0.00000000000E+00 -0.17936672626E+04  0.17936672655E+04  0.10100000352E+00 0. -1.
    10030    2    1    2    0    0  0.00000000000E+00  0.00000000000E+00 -0.18088170649E+03  0.34064528247E+04  0.34016470504E+04 0.  0.
        2    1    3    3  502    0  0.46427809718E+02 -0.15551545715E+04 -0.77853559986E+03  0.17397640538E+04  0.25500000920E-02 0.  1.
       -2    1    3    3    0  502 -0.46427809718E+02  0.15551545715E+04  0.59765389336E+03  0.16666887709E+04  0.25500000920E-02 0. -1.
</event>
<event>
 5   0  0.3764495E-07  0.3666065E+04  0.7818609E-02  0.8075524E-01
        1   -1    0    0  501    0  0.00000000000E+00  0.00000000000E+00  0.15852230613E+04  0.15852230613E+04  0.50400001928E-02 0.  1.
       -1   -1    0    0    0  501  0.00000000000E+00  0.00000000000E+00 -0.21195805548E+04  0.21195805548E+04  0.50400001928E-02 0. -1.
    10030    2    1    2    0    0  0.00000000000E+00  0.00000000000E+00 -0.53435749352E+03  0.37048036161E+04  0.36660649071E+04 0.  0.
        4    1    3    3  502    0  0.10217303346E+02 -0.86583107355E+03 -0.18998740349E+04  0.20878914729E+04  0.12699999809E+01 0. -1.
       -4    1    3    3    0  502 -0.10217303346E+02  0.86583107355E+03  0.13655165414E+04  0.16169121432E+04  0.12699999809E+01 0.  1.
</event>
<event>
 5   0  0.3682276E-07  0.2344637E+04  0.7818609E-02  0.8460526E-01
        1   -1    0    0  501    0  0.00000000000E+00  0.00000000000E+00  0.10262567915E+04  0.10262567915E+04  0.50400001928E-02 0.  1.
       -1   -1    0    0    0  501  0.00000000000E+00  0.00000000000E+00 -0.13391682941E+04  0.13391682941E+04  0.50400001928E-02 0. -1.
    10030    2    1    2    0    0  0.00000000000E+00  0.00000000000E+00 -0.31291150259E+03  0.23654250855E+04  0.23446369073E+04 0.  0.
        1    1    3    3  502    0 -0.40114228545E+03 -0.76636146003E+03 -0.95473965641E+03  0.12883139494E+04  0.50400001928E-02 0. -1.
       -1    1    3    3    0  502  0.40114228545E+03  0.76636146003E+03  0.64182815383E+03  0.10771111362E+04  0.50400001928E-02 0.  1.
</event>
<event>
 5   0  0.1128530E-06  0.2444631E+04  0.7818609E-02  0.8422981E-01
       -2   -1    0    0    0  501  0.00000000000E+00  0.00000000000E+00  0.69118995196E+03  0.69118995196E+03  0.25500000920E-02 0.  1.
        2   -1    0    0  501    0  0.00000000000E+00  0.00000000000E+00 -0.21615704135E+04  0.21615704135E+04  0.25500000920E-02 0. -1.
    10030    2    1    2    0    0  0.00000000000E+00  0.00000000000E+00 -0.14703804615E+04  0.28527603654E+04  0.24446314653E+04 0.  0.
        5    1    3    3  502    0 -0.59360392347E+03 -0.36549571360E+03  0.43646434613E+03  0.82248158038E+03  0.46999998093E+01 0.  1.
       -5    1    3    3    0  502  0.59360392347E+03  0.36549571360E+03 -0.19068448077E+04  0.20302787851E+04  0.46999998093E+01 0. -1.
</event>
<event>
 5   0  0.3764495E-07  0.3688576E+04  0.7818609E-02  0.8070498E-01
        1   -1    0    0  501    0  0.00000000000E+00  0.00000000000E+00  0.26783747093E+04  0.26783747093E+04  0.50400001928E-02 0.  1.
       -1   -1    0    0    0  501  0.00000000000E+00  0.00000000000E+00 -0.12699483925E+04  0.12699483925E+04  0.50400001928E-02 0. -1.
    10030    2    1    2    0    0  0.00000000000E+00  0.00000000000E+00  0.14084263168E+04  0.39483231018E+04  0.36885756908E+04 0.  0.
        4    1    3    3  502    0  0.97844074422E+02 -0.10868863886E+04 -0.88725993211E+03  0.14064591301E+04  0.12699999809E+01 0. -1.
       -4    1    3    3    0  502 -0.97844074422E+02  0.10868863886E+04  0.22956862489E+04  0.25418639718E+04  0.12699999809E+01 0.  1.
</event>
<event>
 5   0  0.3490375E-07  0.3623816E+04  0.7818609E-02  0.8085058E-01
        4   -1    0    0  501    0  0.00000000000E+00  0.00000000000E+00  0.19249902482E+04  0.19249906671E+04  0.12699999809E+01 0.  1.
       -4   -1    0    0    0  501  0.00000000000E+00  0.00000000000E+00 -0.17054682179E+04  0.17054686908E+04  0.12699999809E+01 0. -1.
    10030    2    1    2    0    0  0.00000000000E+00  0.00000000000E+00  0.21952203028E+03  0.36304593579E+04  0.36238163899E+04 0.  0.
        4    1    3    3  502    0  0.73039047444E+03 -0.12564615381E+04 -0.97427792854E+03  0.17496813815E+04  0.12699999809E+01 0. -1.
       -4    1    3    3    0  502 -0.73039047444E+03  0.12564615381E+04  0.11937999588E+04  0.18807779764E+04  0.12699999809E+01 0.  1.
</event>
<event>
 5   0  0.1128166E-06  0.2526979E+04  0.7818609E-02  0.8393437E-01
        2   -1    0    0  501    0  0.00000000000E+00  0.00000000000E+00  0.84060756340E+03  0.84060756340E+03  0.25500000920E-02 0. -1.
       -2   -1    0    0    0  501  0.00000000000E+00  0.00000000000E+00 -0.18991095888E+04  0.18991095888E+04  0.25500000920E-02 0.  1.
    10030    2    1    2    0    0  0.00000000000E+00  0.00000000000E+00 -0.10585020254E+04  0.27397171522E+04  0.25269791326E+04 0.  0.
        3    1    3    3  502    0  0.21471675141E+03  0.11718350297E+04 -0.72983239271E+02  0.11935774728E+04  0.10100000352E+00 0. -1.
       -3    1    3    3    0  502 -0.21471675141E+03 -0.11718350297E+04 -0.98551878616E+03  0.15461396794E+04  0.10100000352E+00 0.  1.
</event>
<event>
 5   0  0.1128166E-06  0.3763464E+04  0.7818609E-02  0.8054041E-01
        2   -1    0    0  501    0  0.00000000000E+00  0.00000000000E+00  0.30811380024E+04  0.30811380024E+04  0.25500000920E-02 0.  1.
       -2   -1    0    0    0  501  0.00000000000E+00  0.00000000000E+00 -0.11492234449E+04  0.11492234449E+04  0.25500000920E-02 0. -1.
    10030    2    1    2    0    0  0.00000000000E+00  0.00000000000E+00  0.19319145575E+04  0.42303614473E+04  0.37634643770E+04 0.  0.
        3    1    3    3  502    0  0.31905776168E+03 -0.17805377975E+04  0.15487404154E+04  0.23813251748E+04  0.10100000352E+00 0.  1.
       -3    1    3    3    0  502 -0.31905776168E+03  0.17805377975E+04  0.38317414215E+03  0.18490362725E+04  0.10100000352E+00 0. -1.
</event>
<event>
 5   0  0.3675819E-07  0.3702407E+04  0.7818609E-02  0.8067429E-01
        1   -1    0    0  501    0  0.00000000000E+00  0.00000000000E+00  0.16977031923E+04  0.16977031923E+04  0.50400001928E-02 0.  1.
       -1   -1    0    0    0  501  0.00000000000E+00  0.00000000000E+00 -0.20185822317E+04  0.20185822317E+04  0.50400001928E-02 0. -1.
    10030    2    1    2    0    0  0.00000000000E+00  0.00000000000E+00 -0.32087903940E+03  0.37162854241E+04  0.37024065140E+04 0.  0.
        5    1    3    3  502    0  0.37682502925E+02 -0.18150925472E+04  0.20278780567E+03  0.18267802030E+04  0.46999998093E+01 0. -1.
       -5    1    3    3    0  502 -0.37682502925E+02  0.18150925472E+04 -0.52366684507E+03  0.18895052211E+04  0.46999998093E+01 0.  1.
</event>
<event>
 5   0  0.1128530E-06  0.3737097E+04  0.7818609E-02  0.8059790E-01
        2   -1    0    0  501    0  0.00000000000E+00  0.00000000000E+00  0.11396683970E+04  0.11396683970E+04  0.25500000920E-02 0. -1.
       -2   -1    0    0    0  501  0.00000000000E+00  0.00000000000E+00 -0.30635871136E+04  0.30635871136E+04  0.25500000920E-02 0.  1.
    10030    2    1    2    0    0  0.00000000000E+00  0.00000000000E+00 -0.19239187167E+04  0.42032555106E+04  0.37370969561E+04 0.  0.
        5    1    3    3  502    0  0.13285191897E+04  0.19957224240E+03  0.49875423426E+03  0.14330283296E+04  0.46999998093E+01 0. -1.
       -5    1    3    3    0  502 -0.13285191897E+04 -0.19957224240E+03 -0.24226729509E+04  0.27702271810E+04  0.46999998093E+01 0.  1.
</event>
<event>
 5   0  0.1128166E-06  0.3707914E+04  0.7818609E-02  0.8066210E-01
       -2   -1    0    0    0  501  0.00000000000E+00  0.00000000000E+00  0.17591817334E+04  0.17591817334E+04  0.25500000920E-02 0.  1.
        2   -1    0    0  501    0  0.00000000000E+00  0.00000000000E+00 -0.19538378134E+04  0.19538378134E+04  0.25500000920E-02 0. -1.
    10030    2    1    2    0    0  0.00000000000E+00  0.00000000000E+00 -0.19465608003E+03  0.37130195468E+04  0.37079135865E+04 0.  0.
        3    1    3    3  502    0  0.14301611123E+04  0.87073295315E+03 -0.89442611585E+03  0.18982978612E+04  0.10100000352E+00 0. -1.
       -3    1    3    3    0  502 -0.14301611123E+04 -0.87073295315E+03  0.69977003581E+03  0.18147216856E+04  0.10100000352E+00 0.  1.
</event>
<event>
 5   0  0.3704306E-07  0.3725543E+04  0.7818609E-02  0.8062325E-01
        1   -1    0    0  501    0  0.00000000000E+00  0.00000000000E+00  0.14326381219E+04  0.14326381220E+04  0.50400001928E-02 0.  1.
       -1   -1    0    0    0  501  0.00000000000E+00  0.00000000000E+00 -0.24220469773E+04  0.24220469773E+04  0.50400001928E-02 0. -1.
    10030    2    1    2    0    0  0.00000000000E+00  0.00000000000E+00 -0.98940885539E+03  0.38546850993E+04  0.37255425553E+04 0.  0.
        3    1    3    3  502    0  0.77851999500E+02 -0.18522803838E+04 -0.30699551954E+03  0.18791619976E+04  0.10100000352E+00 0.  1.
       -3    1    3    3    0  502 -0.77851999500E+02  0.18522803838E+04 -0.68241333585E+03  0.19755231017E+04  0.10100000352E+00 0. -1.
</event>
<event>
 5   0  0.3704306E-07  0.3683894E+04  0.7818609E-02  0.8071541E-01
        1   -1    0    0  501    0  0.00000000000E+00  0.00000000000E+00  0.23987066021E+04  0.23987066021E+04  0.50400001928E-02 0.  1.
       -1   -1    0    0    0  501  0.00000000000E+00  0.00000000000E+00 -0.14144157152E+04  0.14144157152E+04  0.50400001928E-02 0. -1.
    10030    2    1    2    0    0  0.00000000000E+00  0.00000000000E+00  0.98429088695E+03  0.38131223173E+04  0.36838937629E+04 0.  0.
        3    1    3    3  502    0 -0.18364669845E+04 -0.29503669891E+02  0.63589427179E+03  0.19436674065E+04  0.10100000352E+00 0. -1.
       -3    1    3    3    0  502  0.18364669845E+04  0.29503669891E+02  0.34839661516E+03  0.18694549108E+04  0.10100000352E+00 0.  1.
</event>
<event>
 5   0  0.3764495E-07  0.3708729E+04  0.7818609E-02  0.8066030E-01
       -1   -1    0    0    0  501  0.00000000000E+00  0.00000000000E+00  0.15882237064E+04  0.15882237064E+04  0.50400001928E-02 0.  1.
        1   -1    0    0  501    0  0.00000000000E+00  0.00000000000E+00 -0.21651028593E+04  0.21651028594E+04  0.50400001928E-02 0. -1.
    10030    2    1    2    0    0  0.00000000000E+00  0.00000000000E+00 -0.57687915291E+03  0.37533265658E+04  0.37087289942E+04 0.  0.
        4    1    3    3  502    0 -0.17805268594E+04  0.48440601997E+03 -0.10254353681E+03  0.18480914152E+04  0.12699999809E+01 0.  1.
       -4    1    3    3    0  502  0.17805268594E+04 -0.48440601997E+03 -0.47433561610E+03  0.19052351505E+04  0.12699999809E+01 0. -1.
</event>
<event>
 5   0  0.1092116E-06  0.3606181E+04  0.7818609E-02  0.8089077E-01
       -2   -1    0    0    0  501  0.00000000000E+00  0.00000000000E+00  0.24204000129E+04  0.24204000129E+04  0.25500000920E-02 0. -1.
        2   -1    0    0  501    0  0.00000000000E+00  0.00000000000E+00 -0.13432220002E+04  0.13432220003E+04  0.25500000920E-02 0.  1.
    10030    2    1    2    0    0  0.00000000000E+00  0.00000000000E+00  0.10771780127E+04  0.37636220132E+04  0.36061805539E+04 0.  0.
        1    1    3    3  502    0 -0.14096876207E+04 -0.99060437647E+03  0.10934174207E+04  0.20406072318E+04  0.50400001928E-02 0. -1.
       -1    1    3    3    0  502  0.14096876207E+04  0.99060437647E+03 -0.16239408021E+02  0.17230147814E+04  0.50400001928E-02 0.  1.
</event>
<event>
 5   0  0.1128530E-06  0.3645941E+04  0.7818609E-02  0.8080049E-01
        2   -1    0    0  501    0  0.00000000000E+00  0.00000000000E+00  0.21347099763E+04  0.21347099763E+04  0.25500000920E-02 0. -1.
       -2   -1    0    0    0  501  0.00000000000E+00  0.00000000000E+00 -0.15567550781E+04  0.15567550781E+04  0.25500000920E-02 0.  1.
    10030    2    1    2    0    0  0.00000000000E+00  0.00000000000E+00  0.57795489817E+03  0.36914650543E+04  0.36459405348E+04 0.  0.
        5    1    3    3  502    0 -0.17367538877E+04  0.26074925407E+03 -0.20589359509E+03  0.17682529521E+04  0.46999998093E+01 0.  1.
       -5    1    3    3    0  502  0.17367538877E+04 -0.26074925407E+03  0.78384849327E+03  0.19232121023E+04  0.46999998093E+01 0. -1.
</event>
<event>
 5   0  0.1051123E-06  0.3717593E+04  0.7818609E-02  0.8064074E-01
       -2   -1    0    0    0  501  0.00000000000E+00  0.00000000000E+00  0.26781340048E+04  0.26781340048E+04  0.25500000920E-02 0. -1.
        2   -1    0    0  501    0  0.00000000000E+00  0.00000000000E+00 -0.12901237789E+04  0.12901237789E+04  0.25500000920E-02 0.  1.
    10030    2    1    2    0    0  0.00000000000E+00  0.00000000000E+00  0.13880102260E+04  0.39682577837E+04  0.37175929646E+04 0.  0.
        2    1    3    3  502    0  0.16832979452E+04 -0.73597508275E+03  0.39214208928E+03  0.18785437745E+04  0.25500000920E-02 0. -1.
       -2    1    3    3    0  502 -0.16832979452E+04  0.73597508275E+03  0.99586813668E+03  0.20897140092E+04  0.25500000920E-02 0.  1.
</event>
<event>
 5   0  0.1128166E-06  0.2402635E+04  0.7818609E-02  0.8438518E-01
        2   -1    0    0  501    0  0.00000000000E+00  0.00000000000E+00  0.17333870431E+04  0.17333870432E+04  0.25500000920E-02 0. -1.
       -2   -1    0    0    0  501  0.00000000000E+00  0.00000000000E+00 -0.83256832892E+03  0.83256832892E+03  0.25500000920E-02 0.  1.
    10030    2    1    2    0    0  0.00000000000E+00  0.00000000000E+00  0.90081871423E+03  0.25659553721E+04  0.24026345156E+04 0.  0.
        3    1    3    3  502    0 -0.30394805387E+03 -0.66533438749E+03 -0.56731541931E+03  0.92568950616E+03  0.10100000352E+00 0.  1.
       -3    1    3    3    0  502  0.30394805387E+03  0.66533438749E+03  0.14681341335E+04  0.16402658659E+04  0.10100000352E+00 0. -1.
</event>
<event>
 5   0  0.3764495E-07  0.3689506E+04  0.7818609E-02  0.8070291E-01
        1   -1    0    0  501    0  0.00000000000E+00  0.00000000000E+00  0.22811595163E+04  0.22811595164E+04  0.50400001928E-02 0. -1.
       -1   -1    0    0    0  501  0.00000000000E+00  0.00000000000E+00 -0.14918349724E+04  0.14918349724E+04  0.50400001928E-02 0.  1.
    10030    2    1    2    0    0  0.00000000000E+00  0.00000000000E+00  0.78932454400E+03  0.37729944887E+04  0.36895059529E+04 0.  0.
        4    1    3    3  502    0 -0.10209484586E+04 -0.24572690859E+03 -0.11563638500E+04  0.15620167846E+04  0.12699999809E+01 0.  1.
       -4    1    3    3    0  502  0.10209484586E+04  0.24572690859E+03  0.19456883940E+04  0.22109777041E+04  0.12699999809E+01 0. -1.
</event>
<event>
 5   0  0.3704306E-07  0.3412860E+04  0.7818609E-02  0.8134757E-01
       -1   -1    0    0    0  501  0.00000000000E+00  0.00000000000E+00  0.14505608606E+04  0.14505608606E+04  0.50400001928E-02 0.  1.
        1   -1    0    0  501    0  0.00000000000E+00  0.00000000000E+00 -0.20074328748E+04  0.20074328748E+04  0.50400001928E-02 0. -1.
    10030    2    1    2    0    0  0.00000000000E+00  0.00000000000E+00 -0.55687201419E+03  0.34579937354E+04  0.34128601252E+04 0.  0.
        3    1    3    3  502    0  0.16538586645E+04 -0.39260304449E+03 -0.12639182499E+03  0.17045118176E+04  0.10100000352E+00 0. -1.
       -3    1    3    3    0  502 -0.16538586645E+04  0.39260304449E+03 -0.43048018921E+03  0.17534819178E+04  0.10100000352E+00 0.  1.
</event>
<event>
 5   0  0.1128166E-06  0.3394835E+04  0.7818609E-02  0.8139175E-01
       -2   -1    0    0    0  501  0.00000000000E+00  0.00000000000E+00  0.20956547536E+04  0.20956547536E+04  0.25500000920E-02 0.  1.
        2   -1    0    0  501    0  0.00000000000E+00  0.00000000000E+00 -0.13748574185E+04  0.13748574185E+04  0.25500000920E-02 0. -1.
    10030    2    1    2    0    0  0.00000000000E+00  0.00000000000E+00  0.72079733511E+03  0.34705121721E+04  0.33948351857E+04 0.  0.
        3    1    3    3  502    0  0.33051251924E+03  0.33492659581E+02 -0.13412999810E+04  0.13818270271E+04  0.10100000352E+00 0. -1.
       -3    1    3    3    0  502 -0.33051251924E+03 -0.33492659581E+02  0.20620973161E+04  0.20886851450E+04  0.10100000352E+00 0.  1.
</event>
<event>
 5   0  0.1128530E-06  0.2416181E+04  0.7818609E-02  0.8433470E-01
        2   -1    0    0  501    0  0.00000000000E+00  0.00000000000E+00  0.22013384070E+04  0.22013384070E+04  0.25500000920E-02 0.  1.
       -2   -1    0    0    0  501  0.00000000000E+00  0.00000000000E+00 -0.66299780729E+03  0.66299780729E+03  0.25500000920E-02 0. -1.
    10030    2    1    2    0    0  0.00000000000E+00  0.00000000000E+00  0.15383405997E+04  0.28643362143E+04  0.24161809013E+04 0.  0.
        5    1    3    3  502    0  0.57907992471E+03  0.78839308888E+03 -0.71237162047E+02  0.98081295111E+03  0.46999998093E+01 0. -1.
       -5    1    3    3    0  502 -0.57907992471E+03 -0.78839308888E+03  0.16095777617E+04  0.18835232632E+04  0.46999998093E+01 0.  1.
</event>
<event>
 5   0  0.3704306E-07  0.2943119E+04  0.7818609E-02  0.8260163E-01
        1   -1    0    0  501    0  0.00000000000E+00  0.00000000000E+00  0.93068389766E+03  0.93068389767E+03  0.50400001928E-02 0.  1.
       -1   -1    0    0    0  501  0.00000000000E+00  0.00000000000E+00 -0.23267704376E+04  0.23267704376E+04  0.50400001928E-02 0. -1.
    10030    2    1    2    0    0  0.00000000000E+00  0.00000000000E+00 -0.13960865399E+04  0.32574543352E+04  0.29431192839E+04 0.  0.
        3    1    3    3  502    0  0.29751272836E+03  0.12595138215E+04 -0.14732789413E+04  0.19609792807E+04  0.10100000352E+00 0. -1.
       -3    1    3    3    0  502 -0.29751272836E+03 -0.12595138215E+04  0.77192401358E+02  0.12964750546E+04  0.10100000352E+00 0.  1.
</event>
<event>
 5   0  0.3764495E-07  0.3747938E+04  0.7818609E-02  0.8057421E-01
        1   -1    0    0  501    0  0.00000000000E+00  0.00000000000E+00  0.20779882495E+04  0.20779882495E+04  0.50400001928E-02 0. -1.
       -1   -1    0    0    0  501  0.00000000000E+00  0.00000000000E+00 -0.16899802229E+04  0.16899802229E+04  0.50400001928E-02 0.  1.
    10030    2    1    2    0    0  0.00000000000E+00  0.00000000000E+00  0.38800802664E+03  0.37679684724E+04  0.37479375903E+04 0.  0.
        4    1    3    3  502    0 -0.85614036198E+03 -0.14869825106E+04  0.95146563708E+03  0.19619841431E+04  0.12699999809E+01 0. -1.
       -4    1    3    3    0  502  0.85614036198E+03  0.14869825106E+04 -0.56345761044E+03  0.18059843294E+04  0.12699999809E+01 0.  1.
</event>
<event>
 5   0  0.3848431E-07  0.3749979E+04  0.7818609E-02  0.8056975E-01
        1   -1    0    0  501    0  0.00000000000E+00  0.00000000000E+00  0.24719366421E+04  0.24719366421E+04  0.50400001928E-02 0.  1.
       -1   -1    0    0    0  501  0.00000000000E+00  0.00000000000E+00 -0.14221987256E+04  0.14221987256E+04  0.50400001928E-02 0. -1.
    10030    2    1    2    0    0  0.00000000000E+00  0.00000000000E+00  0.10497379165E+04  0.38941353677E+04  0.37499787424E+04 0.  0.
        2    1    3    3  502    0 -0.18027766697E+03  0.61259600291E+02  0.24618715289E+04  0.24692234003E+04  0.25500000920E-02 0.  1.
       -2    1    3    3    0  502  0.18027766697E+03 -0.61259600291E+02 -0.14121336123E+04  0.14249119674E+04  0.25500000920E-02 0. -1.
</event>
<event>
 5   0  0.1066907E-06  0.3686886E+04  0.7818609E-02  0.8070874E-01
       -2   -1    0    0    0  501  0.00000000000E+00  0.00000000000E+00  0.23020163019E+04  0.23020163019E+04  0.25500000920E-02 0. -1.
        2   -1    0    0  501    0  0.00000000000E+00  0.00000000000E+00 -0.14762200610E+04  0.14762200610E+04  0.25500000920E-02 0.  1.
    10030    2    1    2    0    0  0.00000000000E+00  0.00000000000E+00  0.82579624089E+03  0.37782363629E+04  0.36868862991E+04 0.  0.
        4    1    3    3  502    0  0.74359317490E+03  0.11279959418E+04  0.16981561961E+04  0.21700326573E+04  0.12699999809E+01 0. -1.
       -4    1    3    3    0  502 -0.74359317490E+03 -0.11279959418E+04 -0.87235995518E+03  0.16082037056E+04  0.12699999809E+01 0.  1.
</event>
<event>
 5   0  0.3675819E-07  0.3437781E+04  0.7818609E-02  0.8128695E-01
        1   -1    0    0  501    0  0.00000000000E+00  0.00000000000E+00  0.32214892791E+04  0.32214892791E+04  0.50400001928E-02 0.  1.
       -1   -1    0    0    0  501  0.00000000000E+00  0.00000000000E+00 -0.91714885246E+03  0.91714885248E+03  0.50400001928E-02 0. -1.
    10030    2    1    2    0    0  0.00000000000E+00  0.00000000000E+00  0.23043404266E+04  0.41386381316E+04  0.34377813750E+04 0.  0.
        5    1    3    3  502    0  0.11556043448E+04 -0.10092610912E+04  0.20850977491E+04  0.25887611063E+04  0.46999998093E+01 0.  1.
       -5    1    3    3    0  502 -0.11556043448E+04  0.10092610912E+04  0.21924267749E+03  0.15498770253E+04  0.46999998093E+01 0. -1.
</event>
<event>
 5   0  0.1128530E-06  0.3713048E+04  0.7818609E-02  0.8065076E-01
       -2   -1    0    0    0  501  0.00000000000E+00  0.00000000000E+00  0.21938044829E+04  0.21938044829E+04  0.25500000920E-02 0. -1.
        2   -1    0    0  501    0  0.00000000000E+00  0.00000000000E+00 -0.15710975141E+04  0.15710975141E+04  0.25500000920E-02 0.  1.
    10030    2    1    2    0    0  0.00000000000E+00  0.00000000000E+00  0.62270696874E+03  0.37649019970E+04  0.37130476806E+04 0.  0.
        5    1    3    3  502    0  0.11026648278E+04  0.13031622294E+04 -0.42860314240E+03  0.17600637097E+04  0.46999998093E+01 0.  1.
       -5    1    3    3    0  502 -0.11026648278E+04 -0.13031622294E+04  0.10513101111E+04  0.20048382873E+04  0.46999998093E+01 0. -1.
</event>
<event>
 5   0  0.3848431E-07  0.3543027E+04  0.7818609E-02  0.8103668E-01
        1   -1    0    0  501    0  0.00000000000E+00  0.00000000000E+00  0.16650741096E+04  0.16650741096E+04  0.50400001928E-02 0. -1.
       -1   -1    0    0    0  501  0.00000000000E+00  0.00000000000E+00 -0.18847567707E+04  0.18847567707E+04  0.50400001928E-02 0.  1.
    10030    2    1    2    0    0  0.00000000000E+00  0.00000000000E+00 -0.21968266112E+03  0.35498308802E+04  0.35430267861E+04 0.  0.
        2    1    3    3  502    0  0.12414487834E+03  0.12104833555E+04 -0.13997833433E+04  0.18547440020E+04  0.25500000920E-02 0.  1.
       -2    1    3    3    0  502 -0.12414487834E+03 -0.12104833555E+04  0.11801006822E+04  0.16950868783E+04  0.25500000920E-02 0. -1.
</event>
<event>
 5   0  0.1092116E-06  0.3434397E+04  0.7818609E-02  0.8129515E-01
       -2   -1    0    0    0  501  0.00000000000E+00  0.00000000000E+00  0.11736808616E+04  0.11736808616E+04  0.25500000920E-02 0. -1.
        2   -1    0    0  501    0  0.00000000000E+00  0.00000000000E+00 -0.25124134010E+04  0.25124134010E+04  0.25500000920E-02 0.  1.
    10030    2    1    2    0    0  0.00000000000E+00  0.00000000000E+00 -0.13387325394E+04  0.36860942626E+04  0.34343974873E+04 0.  0.
        1    1    3    3  502    0 -0.12203939799E+04 -0.16490693364E+03  0.61509230943E+03  0.13765516016E+04  0.50400001928E-02 0. -1.
       -1    1    3    3    0  502  0.12203939799E+04  0.16490693364E+03 -0.19538248488E+04  0.23095426610E+04  0.50400001928E-02 0.  1.
</event>
<event>
 5   0  0.3675819E-07  0.3408409E+04  0.7818609E-02  0.8135846E-01
        1   -1    0    0  501    0  0.00000000000E+00  0.00000000000E+00  0.15380164473E+04  0.15380164473E+04  0.50400001928E-02 0. -1.
       -1   -1    0    0    0  501  0.00000000000E+00  0.00000000000E+00 -0.18883493619E+04  0.18883493619E+04  0.50400001928E-02 0.  1.
    10030    2    1    2    0    0  0.00000000000E+00  0.00000000000E+00 -0.35033291461E+03  0.34263658092E+04  0.34084086474E+04 0.  0.
        5    1    3    3  502    0 -0.77976808415E+03  0.90725910105E+03  0.10449549314E+04  0.15884301181E+04  0.46999998093E+01 0. -1.
       -5    1    3    3    0  502  0.77976808415E+03 -0.90725910105E+03 -0.13952878460E+04  0.18379356911E+04  0.46999998093E+01 0.  1.
</event>
<event>
 5   0  0.3848431E-07  0.3775519E+04  0.7818609E-02  0.8051429E-01
        1   -1    0    0  501    0  0.00000000000E+00  0.00000000000E+00  0.20028240133E+04  0.20028240133E+04  0.50400001928E-02 0.  1.
       -1   -1    0    0    0  501  0.00000000000E+00  0.00000000000E+00 -0.17793054923E+04  0.17793054923E+04  0.50400001928E-02 0. -1.
    10030    2    1    2    0    0  0.00000000000E+00  0.00000000000E+00  0.22351852097E+03  0.37821295056E+04  0.37755189137E+04 0.  0.
        2    1    3    3  502    0 -0.82726647885E+03 -0.78565563452E+03 -0.13948724968E+04  0.18020249403E+04  0.25500000920E-02 0.  1.
       -2    1    3    3    0  502  0.82726647885E+03  0.78565563452E+03  0.16183910178E+04  0.19801045653E+04  0.25500000920E-02 0. -1.
</event>
<event>
 5   0  0.1051123E-06  0.3011899E+04  0.7818609E-02  0.8240341E-01
        2   -1    0    0  501    0  0.00000000000E+00  0.00000000000E+00  0.26867859966E+04  0.26867859966E+04  0.25500000920E-02 0. -1.
       -2   -1    0    0    0  501  0.00000000000E+00  0.00000000000E+00 -0.84408826692E+03  0.84408826693E+03  0.25500000920E-02 0.  1.
    10030    2    1    2    0    0  0.00000000000E+00  0.00000000000E+00  0.18426977297E+04  0.35308742636E+04  0.30118994243E+04 0.  0.
        2    1    3    3  502    0  0.97322657059E+03 -0.75363376750E+03 -0.95759854375E+02  0.12346269732E+04  0.25500000920E-02 0.  1.
       -2    1    3    3    0  502 -0.97322657059E+03  0.75363376750E+03  0.19384575841E+04  0.22962472904E+04  0.25500000920E-02 0. -1.
</event>
<event>
 5   0  0.1051123E-06  0.3682002E+04  0.7818609E-02  0.8071962E-01
       -2   -1    0    0    0  501  0.00000000000E+00  0.00000000000E+00  0.18341861502E+04  0.18341861502E+04  0.25500000920E-02 0.  1.
        2   -1    0    0  501    0  0.00000000000E+00  0.00000000000E+00 -0.18478410861E+04  0.18478410861E+04  0.25500000920E-02 0. -1.
    10030    2    1    2    0    0  0.00000000000E+00  0.00000000000E+00 -0.13654935940E+02  0.36820272363E+04  0.36820019163E+04 0.  0.
        2    1    3    3  502    0 -0.13420695317E+02 -0.15201088713E+04  0.10316272800E+04  0.18371624698E+04  0.25500000920E-02 0.  1.
       -2    1    3    3    0  502  0.13420695317E+02  0.15201088713E+04 -0.10452822160E+04  0.18448647665E+04  0.25500000920E-02 0. -1.
</event>
<event>
 5   0  0.1066907E-06  0.3778931E+04  0.7818609E-02  0.8050691E-01
        2   -1    0    0  501    0  0.00000000000E+00  0.00000000000E+00  0.21270511872E+04  0.21270511872E+04  0.25500000920E-02 0.  1.
       -2   -1    0    0    0  501  0.00000000000E+00  0.00000000000E+00 -0.16784173539E+04  0.16784173539E+04  0.25500000920E-02 0. -1.
    10030    2    1    2    0    0  0.00000000000E+00  0.00000000000E+00  0.44863383333E+03  0.38054685411E+04  0.37789308675E+04 0.  0.
        4    1    3    3  502    0  0.30611118368E+03 -0.60316070906E+03 -0.15523206075E+04  0.16932831362E+04  0.12699999809E+01 0. -1.
       -4    1    3    3    0  502 -0.30611118368E+03  0.60316070906E+03  0.20009544409E+04  0.21121854050E+04  0.12699999809E+01 0.  1.
</event>
<event>
 5   0  0.1051123E-06  0.3699396E+04  0.7818609E-02  0.8068096E-01
       -2   -1    0    0    0  501  0.00000000000E+00  0.00000000000E+00  0.14410590261E+04  0.14410590261E+04  0.25500000920E-02 0. -1.
        2   -1    0    0  501    0  0.00000000000E+00  0.00000000000E+00 -0.23742140207E+04  0.23742140207E+04  0.25500000920E-02 0.  1.
    10030    2    1    2    0    0  0.00000000000E+00  0.00000000000E+00 -0.93315499458E+03  0.38152730469E+04  0.36993959207E+04 0.  0.
        2    1    3    3  502    0  0.82772851099E+03  0.48195828517E+03 -0.20985351107E+04  0.23067873520E+04  0.25500000920E-02 0.  1.
       -2    1    3    3    0  502 -0.82772851099E+03 -0.48195828517E+03  0.11653801161E+04  0.15084856949E+04  0.25500000920E-02 0. -1.
</event>
<event>
 5   0  0.1051123E-06  0.3808709E+04  0.7818609E-02  0.8044288E-01
       -2   -1    0    0    0  501  0.00000000000E+00  0.00000000000E+00  0.17337836268E+04  0.17337836268E+04  0.25500000920E-02 0. -1.
        2   -1    0    0  501    0  0.00000000000E+00  0.00000000000E+00 -0.20917064544E+04  0.20917064544E+04  0.25500000920E-02 0.  1.
    10030    2    1    2    0    0  0.00000000000E+00  0.00000000000E+00 -0.35792282760E+03  0.38254900812E+04  0.38087091791E+04 0.  0.
        2    1    3    3  502    0 -0.18797886953E+04  0.27021089729E+03 -0.32081729720E+03  0.19260174470E+04  0.25500000920E-02 0.  1.
       -2    1    3    3    0  502  0.18797886953E+04 -0.27021089729E+03 -0.37105530396E+02  0.18994726342E+04  0.25500000920E-02 0. -1.
</event>
<event>
 5   0  0.1128166E-06  0.3768471E+04  0.7818609E-02  0.8052955E-01
       -2   -1    0    0    0  501  0.00000000000E+00  0.00000000000E+00  0.18499520426E+04  0.18499520426E+04  0.25500000920E-02 0.  1.
        2   -1    0    0  501    0  0.00000000000E+00  0.00000000000E+00 -0.19191541472E+04  0.19191541472E+04  0.25500000920E-02 0. -1.
    10030    2    1    2    0    0  0.00000000000E+00  0.00000000000E+00 -0.69202104618E+02  0.37691061898E+04  0.37684708488E+04 0.  0.
        3    1    3    3  502    0 -0.97580453118E+03 -0.14218985204E+04 -0.79390836473E+03  0.18984942420E+04  0.10100000352E+00 0. -1.
       -3    1    3    3    0  502  0.97580453118E+03  0.14218985204E+04  0.72470626011E+03  0.18706119477E+04  0.10100000352E+00 0.  1.
</event>
<event>
 5   0  0.3764495E-07  0.2559733E+04  0.7818609E-02  0.8382009E-01
       -1   -1    0    0    0  501  0.00000000000E+00  0.00000000000E+00  0.11601143528E+04  0.11601143528E+04  0.50400001928E-02 0. -1.
        1   -1    0    0  501    0  0.00000000000E+00  0.00000000000E+00 -0.14119803260E+04  0.14119803260E+04  0.50400001928E-02 0.  1.
    10030    2    1    2    0    0  0.00000000000E+00  0.00000000000E+00 -0.25186597327E+03  0.25720946788E+04  0.25597333002E+04 0.  0.
        4    1    3    3  502    0  0.96849349449E+03 -0.19566310349E+02 -0.96644993488E+03  0.13683528708E+04  0.12699999809E+01 0.  1.
       -4    1    3    3    0  502 -0.96849349449E+03  0.19566310349E+02  0.71458396161E+03  0.12037418081E+04  0.12699999809E+01 0. -1.
</event>
<event>
 5   0  0.3682276E-07  0.3605620E+04  0.7818609E-02  0.8089205E-01
        1   -1    0    0  501    0  0.00000000000E+00  0.00000000000E+00  0.13453875314E+04  0.13453875314E+04  0.50400001928E-02 0.  1.
       -1   -1    0    0    0  501  0.00000000000E+00  0.00000000000E+00 -0.24157535882E+04  0.24157535882E+04  0.50400001928E-02 0. -1.
    10030    2    1    2    0    0  0.00000000000E+00  0.00000000000E+00 -0.10703660569E+04  0.37611411196E+04  0.36056204772E+04 0.  0.
        1    1    3    3  502    0 -0.11309341746E+04  0.11605722952E+04  0.28894776314E+03  0.16460349235E+04  0.50400001928E-02 0.  1.
       -1    1    3    3    0  502  0.11309341746E+04 -0.11605722952E+04 -0.13593138200E+04  0.21151061961E+04  0.50400001928E-02 0. -1.
</event>
<event>
 5   0  0.3704306E-07  0.3781877E+04  0.7818609E-02  0.8050055E-01
       -1   -1    0    0    0  501  0.00000000000E+00  0.00000000000E+00  0.30075845953E+04  0.30075845953E+04  0.50400001928E-02 0.  1.
        1   -1    0    0  501    0  0.00000000000E+00  0.00000000000E+00 -0.11888769625E+04  0.11888769625E+04  0.50400001928E-02 0. -1.
    10030    2    1    2    0    0  0.00000000000E+00  0.00000000000E+00  0.18187076329E+04  0.41964615578E+04  0.37818768029E+04 0.  0.
        3    1    3    3  502    0 -0.24696924123E+03 -0.46147580261E+03  0.29256034529E+04  0.29720547263E+04  0.10100000352E+00 0.  1.
       -3    1    3    3    0  502  0.24696924123E+03  0.46147580261E+03 -0.11068958200E+04  0.12244068315E+04  0.10100000352E+00 0. -1.
</event>
<event>
 5   0  0.3848431E-07  0.3705239E+04  0.7818609E-02  0.8066802E-01
       -1   -1    0    0    0  501  0.00000000000E+00  0.00000000000E+00  0.11794375454E+04  0.11794375455E+04  0.50400001928E-02 0. -1.
        1   -1    0    0  501    0  0.00000000000E+00  0.00000000000E+00 -0.29100307176E+04  0.29100307176E+04  0.50400001928E-02 0.  1.
    10030    2    1    2    0    0  0.00000000000E+00  0.00000000000E+00 -0.17305931722E+04  0.40894682631E+04  0.37052392564E+04 0.  0.
        2    1    3    3  502    0  0.17286170420E+04  0.30576218273E+03 -0.21178747605E+03  0.17681802299E+04  0.25500000920E-02 0. -1.
       -2    1    3    3    0  502 -0.17286170420E+04 -0.30576218273E+03 -0.15188056961E+04  0.23212880332E+04  0.25500000920E-02 0.  1.
</event>
<event>
 5   0  0.3704306E-07  0.2393248E+04  0.7818609E-02  0.8442036E-01
        1   -1    0    0  501    0  0.00000000000E+00  0.00000000000E+00  0.11638326142E+04  0.11638326142E+04  0.50400001928E-02 0. -1.
       -1   -1    0    0    0  501  0.00000000000E+00  0.00000000000E+00 -0.12303393546E+04  0.12303393546E+04  0.50400001928E-02 0.  1.
    10030    2    1    2    0    0  0.00000000000E+00  0.00000000000E+00 -0.66506740345E+02  0.23941719688E+04  0.23932480585E+04 0.  0.
        3    1    3    3  502    0  0.82532540829E+03 -0.56067528016E+03 -0.69410680223E+03  0.12154435661E+04  0.10100000352E+00 0.  1.
       -3    1    3    3    0  502 -0.82532540829E+03  0.56067528016E+03  0.62760006189E+03  0.11787284027E+04  0.10100000352E+00 0. -1.
</event>
<event>
 5   0  0.1066907E-06  0.3426380E+04  0.7818609E-02  0.8131462E-01
       -2   -1    0    0    0  501  0.00000000000E+00  0.00000000000E+00  0.13795544041E+04  0.13795544042E+04  0.25500000920E-02 0.  1.
        2   -1    0    0  501    0  0.00000000000E+00  0.00000000000E+00 -0.21275127712E+04  0.21275127712E+04  0.25500000920E-02 0. -1.
    10030    2    1    2    0    0  0.00000000000E+00  0.00000000000E+00 -0.74795836704E+03  0.35070671753E+04  0.34263797883E+04 0.  0.
        4    1    3    3  502    0  0.34466845287E+03 -0.50014698528E+03 -0.20135992632E+04  0.21032182376E+04  0.12699999809E+01 0. -1.
       -4    1    3    3    0  502 -0.34466845287E+03  0.50014698528E+03  0.12656408961E+04  0.14038489378E+04  0.12699999809E+01 0.  1.
</event>
<event>
 5   0  0.1066907E-06  0.3386259E+04  0.7818609E-02  0.8141287E-01
        2   -1    0    0  501    0  0.00000000000E+00  0.00000000000E+00  0.20350867900E+04  0.20350867900E+04  0.25500000920E-02 0. -1.
       -2   -1    0    0    0  501  0.00000000000E+00  0.00000000000E+00 -0.14086312080E+04  0.14086312080E+04  0.25500000920E-02 0.  1.
    10030    2    1    2    0    0  0.00000000000E+00  0.00000000000E+00  0.62645558202E+03  0.34437179980E+04  0.33862585627E+04 0.  0.
        4    1    3    3  502    0  0.92416356326E+03 -0.59266718782E+03  0.16240335899E+04  0.19603110471E+04  0.12699999809E+01 0. -1.
       -4    1    3    3    0  502 -0.92416356326E+03  0.59266718782E+03 -0.99757800790E+03  0.14834069509E+04  0.12699999809E+01 0.  1.
</event>
<event>
 5   0  0.1051123E-06  0.3720999E+04  0.7818609E-02  0.8063324E-01
        2   -1    0    0  501    0  0.00000000000E+00  0.00000000000E+00  0.22614388193E+04  0.22614388194E+04  0.25500000920E-02 0. -1.
       -2   -1    0    0    0  501  0.00000000000E+00  0.00000000000E+00 -0.15306440948E+04  0.15306440948E+04  0.25500000920E-02 0.  1.
    10030    2    1    2    0    0  0.00000000000E+00  0.00000000000E+00  0.73079472457E+03  0.37920829141E+04  0.37209987770E+04 0.  0.
        2    1    3    3  502    0 -0.11137405840E+04  0.32813812269E+03 -0.11161160218E+04  0.16105302512E+04  0.25500000920E-02 0.  1.
       -2    1    3    3    0  502  0.11137405840E+04 -0.32813812269E+03  0.18469107464E+04  0.21815526629E+04  0.25500000920E-02 0. -1.
</event>
<event>
 5   0  0.3682276E-07  0.3486137E+04  0.7818609E-02  0.8117083E-01
       -1   -1    0    0    0  501  0.00000000000E+00  0.00000000000E+00  0.14508882643E+04  0.14508882643E+04  0.50400001928E-02 0. -1.
        1   -1    0    0  501    0  0.00000000000E+00  0.00000000000E+00 -0.20940875947E+04  0.20940875947E+04  0.50400001928E-02 0.  1.
    10030    2    1    2    0    0  0.00000000000E+00  0.00000000000E+00 -0.64319933041E+03  0.35449758590E+04  0.34861366098E+04 0.  0.
        1    1    3    3  502    0 -0.12002922077E+04 -0.69338138221E+03  0.75302829655E+03  0.15775077624E+04  0.50400001928E-02 0. -1.
       -1    1    3    3    0  502  0.12002922077E+04  0.69338138221E+03 -0.13962276270E+04  0.19674680966E+04  0.50400001928E-02 0.  1.
</event>
<event>
 5   0  0.3704306E-07  0.2924266E+04  0.7818609E-02  0.8265694E-01
        1   -1    0    0  501    0  0.00000000000E+00  0.00000000000E+00  0.10532559251E+04  0.10532559251E+04  0.50400001928E-02 0.  1.
       -1   -1    0    0    0  501  0.00000000000E+00  0.00000000000E+00 -0.20297378401E+04  0.20297378401E+04  0.50400001928E-02 0. -1.
    10030    2    1    2    0    0  0.00000000000E+00  0.00000000000E+00 -0.97648191497E+03  0.30829937652E+04  0.29242663398E+04 0.  0.
        3    1    3    3  502    0  0.14711802007E+03  0.14141940858E+04 -0.84769422541E+03  0.16553471341E+04  0.10100000352E+00 0.  1.
       -3    1    3    3    0  502 -0.14711802007E+03 -0.14141940858E+04 -0.12878768956E+03  0.14276466311E+04  0.10100000352E+00 0. -1.
</event>
<event>
 5   0  0.3764495E-07  0.3809851E+04  0.7818609E-02  0.8044044E-01
        1   -1    0    0  501    0  0.00000000000E+00  0.00000000000E+00  0.29664766400E+04  0.29664766400E+04  0.50400001928E-02 0. -1.
       -1   -1    0    0    0  501  0.00000000000E+00  0.00000000000E+00 -0.12232493588E+04  0.12232493588E+04  0.50400001928E-02 0.  1.
    10030    2    1    2    0    0  0.00000000000E+00  0.00000000000E+00  0.17432272812E+04  0.41897259988E+04  0.38098507308E+04 0.  0.
        4    1    3    3  502    0 -0.15396503951E+04 -0.85253560487E+03  0.69957874485E+02  0.17613165570E+04  0.12699999809E+01 0.  1.
       -4    1    3    3    0  502  0.15396503951E+04  0.85253560487E+03  0.16732694068E+04  0.24284094418E+04  0.12699999809E+01 0. -1.
</event>
<event>
 5   0  0.3764495E-07  0.2442747E+04  0.7818609E-02  0.8423671E-01
        1   -1    0    0  501    0  0.00000000000E+00  0.00000000000E+00  0.11061314841E+04  0.11061314841E+04  0.50400001928E-02 0.  1.
       -1   -1    0    0    0  501  0.00000000000E+00  0.00000000000E+00 -0.13486215762E+04  0.13486215763E+04  0.50400001928E-02 0. -1.
    10030    2    1    2    0    0  0.00000000000E+00  0.00000000000E+00 -0.24249009213E+03  0.24547530604E+04  0.24427466391E+04 0.  0.
        4    1    3    3  502    0  0.52940899433E+03 -0.11390026963E+03  0.97889793655E+03  0.11187001107E+04  0.12699999809E+01 0.  1.
       -4    1    3    3    0  502 -0.52940899433E+03  0.11390026963E+03 -0.12213880287E+04  0.13360529496E+04  0.12699999809E+01 0. -1.
</event>
<event>
 5   0  0.1092116E-06  0.3856416E+04  0.7818609E-02  0.8034155E-01
       -2   -1    0    0    0  501  0.00000000000E+00  0.00000000000E+00  0.14046827677E+04  0.14046827677E+04  0.25500000920E-02 0. -1.
        2   -1    0    0  501    0  0.00000000000E+00  0.00000000000E+00 -0.26468508004E+04  0.26468508004E+04  0.25500000920E-02 0.  1.
    10030    2    1    2    0    0  0.00000000000E+00  0.00000000000E+00 -0.12421680328E+04  0.40515335681E+04  0.38564158012E+04 0.  0.
        1    1    3    3  502    0 -0.45412474228E+03 -0.93559175126E+02  0.13452434657E+04  0.14229063859E+04  0.50400001928E-02 0. -1.
       -1    1    3    3    0  502  0.45412474228E+03  0.93559175126E+02 -0.25874114985E+04  0.26286271823E+04  0.50400001928E-02 0.  1.
</event>
<event>
 5   0  0.1051123E-06  0.3687675E+04  0.7818609E-02  0.8070699E-01
       -2   -1    0    0    0  501  0.00000000000E+00  0.00000000000E+00  0.13611014408E+04  0.13611014408E+04  0.25500000920E-02 0.  1.
        2   -1    0    0  501    0  0.00000000000E+00  0.00000000000E+00 -0.24977834657E+04  0.24977834657E+04  0.25500000920E-02 0. -1.
    10030    2    1    2    0    0  0.00000000000E+00  0.00000000000E+00 -0.11366820249E+04  0.38588849065E+04  0.36876749715E+04 0.  0.
        2    1    3    3  502    0 -0.62318432456E+03  0.15393775686E+04 -0.14065907128E+04  0.21763592154E+04  0.25500000920E-02 0. -1.
       -2    1    3    3    0  502  0.62318432456E+03 -0.15393775686E+04  0.26990868793E+03  0.16825256910E+04  0.25500000920E-02 0.  1.
</event>
<event>
 5   0  0.1128166E-06  0.3577707E+04  0.7818609E-02  0.8095617E-01
       -2   -1    0    0    0  501  0.00000000000E+00  0.00000000000E+00  0.11579604660E+04  0.11579604660E+04  0.25500000920E-02 0.  1.
        2   -1    0    0  501    0  0.00000000000E+00  0.00000000000E+00 -0.27634772572E+04  0.27634772572E+04  0.25500000920E-02 0. -1.
    10030    2    1    2    0    0  0.00000000000E+00  0.00000000000E+00 -0.16055167912E+04  0.39214377231E+04  0.35777073175E+04 0.  0.
        3    1    3    3  502    0  0.47476673184E+03  0.52337600217E+03 -0.26040183538E+04  0.26981915214E+04  0.10100000352E+00 0. -1.
       -3    1    3    3    0  502 -0.47476673184E+03 -0.52337600217E+03  0.99850156256E+03  0.12232462017E+04  0.10100000352E+00 0.  1.
</event>
<event>
 5   0  0.1128530E-06  0.3662580E+04  0.7818609E-02  0.8076306E-01
        2   -1    0    0  501    0  0.00000000000E+00  0.00000000000E+00  0.17564024676E+04  0.17564024676E+04  0.25500000920E-02 0.  1.
       -2   -1    0    0    0  501  0.00000000000E+00  0.00000000000E+00 -0.19093702689E+04  0.19093702689E+04  0.25500000920E-02 0. -1.
    10030    2    1    2    0    0  0.00000000000E+00  0.00000000000E+00 -0.15296780129E+03  0.36657727366E+04  0.36625797750E+04 0.  0.
        5    1    3    3  502    0 -0.77248107329E+03 -0.56306938041E+03  0.14868721885E+04  0.17676496063E+04  0.46999998093E+01 0.  1.
       -5    1    3    3    0  502  0.77248107329E+03  0.56306938041E+03 -0.16398399898E+04  0.18981231303E+04  0.46999998093E+01 0. -1.
</event>
<event>
 5   0  0.3675819E-07  0.3253416E+04  0.7818609E-02  0.8174851E-01
        1   -1    0    0  501    0  0.00000000000E+00  0.00000000000E+00  0.22177489794E+04  0.22177489794E+04  0.50400001928E-02 0.  1.
       -1   -1    0    0    0  501  0.00000000000E+00  0.00000000000E+00 -0.11931826880E+04  0.11931826880E+04  0.50400001928E-02 0. -1.
    10030    2    1    2    0    0  0.00000000000E+00  0.00000000000E+00  0.10245662914E+04  0.34109316674E+04  0.32534164741E+04 0.  0.
        5    1    3    3  502    0 -0.12988276436E+03 -0.16213713762E+04  0.49021839028E+03  0.16988380830E+04  0.46999998093E+01 0. -1.
       -5    1    3    3    0  502  0.12988276436E+03  0.16213713762E+04  0.53434790111E+03  0.17120935844E+04  0.46999998093E+01 0.  1.
</event>
<event>
 5   0  0.3848431E-07  0.3715052E+04  0.7818609E-02  0.8064634E-01
       -1   -1    0    0    0  501  0.00000000000E+00  0.00000000000E+00  0.12210321305E+04  0.12210321305E+04  0.50400001928E-02 0. -1.
        1   -1    0    0  501    0  0.00000000000E+00  0.00000000000E+00 -0.28258091081E+04  0.28258091081E+04  0.50400001928E-02 0.  1.
    10030    2    1    2    0    0  0.00000000000E+00  0.00000000000E+00 -0.16047769776E+04  0.40468412385E+04  0.37150524710E+04 0.  0.
        2    1    3    3  502    0  0.28082421262E+03 -0.95628740246E+03 -0.25098807018E+04  0.27005275358E+04  0.25500000920E-02 0.  1.
       -2    1    3    3    0  502 -0.28082421262E+03  0.95628740246E+03  0.90510372421E+03  0.13463137027E+04  0.25500000920E-02 0. -1.
</event>
<event>
 5   0  0.3675819E-07  0.3686067E+04  0.7818609E-02  0.8071057E-01
       -1   -1    0    0    0  501  0.00000000000E+00  0.00000000000E+00  0.14069200350E+04  0.14069200350E+04  0.50400001928E-02 0. -1.
        1   -1    0    0  501    0  0.00000000000E+00  0.00000000000E+00 -0.24143321078E+04  0.24143321078E+04  0.50400001928E-02 0.  1.
    10030    2    1    2    0    0  0.00000000000E+00  0.00000000000E+00 -0.10074120728E+04  0.38212521429E+04  0.36860668544E+04 0.  0.
        5    1    3    3  502    0 -0.16056733493E+04 -0.54030616745E+03  0.24860303989E+03  0.17122918036E+04  0.46999998093E+01 0. -1.
       -5    1    3    3    0  502  0.16056733493E+04  0.54030616745E+03 -0.12560151127E+04  0.21089603393E+04  0.46999998093E+01 0.  1.
</event>
<event>
 5   0  0.1051123E-06  0.3609305E+04  0.7818609E-02  0.8088364E-01
       -2   -1    0    0    0  501  0.00000000000E+00  0.00000000000E+00  0.13763762495E+04  0.13763762495E+04  0.25500000920E-02 0.  1.
        2   -1    0    0  501    0  0.00000000000E+00  0.00000000000E+00 -0.23661921527E+04  0.23661921527E+04  0.25500000920E-02 0. -1.
    10030    2    1    2    0    0  0.00000000000E+00  0.00000000000E+00 -0.98981590320E+03  0.37425684021E+04  0.36093050193E+04 0.  0.
        2    1    3    3  502    0  0.87281682593E+03  0.15121767898E+04 -0.96813863000E+03  0.19964419005E+04  0.25500000920E-02 0. -1.
       -2    1    3    3    0  502 -0.87281682593E+03 -0.15121767898E+04 -0.21677273193E+02  0.17461265016E+04  0.25500000920E-02 0.  1.
</event>
<event>
 5   0  0.1092116E-06  0.3614370E+04  0.7818609E-02  0.8087208E-01
       -2   -1    0    0    0  501  0.00000000000E+00  0.00000000000E+00  0.19257613288E+04  0.19257613288E+04  0.25500000920E-02 0.  1.
        2   -1    0    0  501    0  0.00000000000E+00  0.00000000000E+00 -0.16959094740E+04  0.16959094740E+04  0.25500000920E-02 0. -1.
    10030    2    1    2    0    0  0.00000000000E+00  0.00000000000E+00  0.22985185487E+03  0.36216708028E+04  0.36143695894E+04 0.  0.
        1    1    3    3  502    0 -0.13744145400E+04 -0.91092089672E+03  0.85609888104E+03  0.18578744581E+04  0.50400001928E-02 0. -1.
       -1    1    3    3    0  502  0.13744145400E+04  0.91092089672E+03 -0.62624702617E+03  0.17637963447E+04  0.50400001928E-02 0.  1.
</event>
<event>
 5   0  0.1092116E-06  0.3323868E+04  0.7818609E-02  0.8156849E-01
        2   -1    0    0  501    0  0.00000000000E+00  0.00000000000E+00  0.21450274597E+04  0.21450274597E+04  0.25500000920E-02 0. -1.
       -2   -1    0    0    0  501  0.00000000000E+00  0.00000000000E+00 -0.12876407960E+04  0.12876407960E+04  0.25500000920E-02 0.  1.
    10030    2    1    2    0    0  0.00000000000E+00  0.00000000000E+00  0.85738666365E+03  0.34326682557E+04  0.33238681476E+04 0.  0.
        1    1    3    3  502    0  0.12090698198E+03 -0.90806986494E+03  0.18607389472E+04  0.20740199632E+04  0.50400001928E-02 0. -1.
       -1    1    3    3    0  502 -0.12090698198E+03  0.90806986494E+03 -0.10033522836E+04  0.13586482925E+04  0.50400001928E-02 0.  1.
</event>
<event>
 5   0  0.1128166E-06  0.3569414E+04  0.7818609E-02  0.8097534E-01
        2   -1    0    0  501    0  0.00000000000E+00  0.00000000000E+00  0.19762766230E+04  0.19762766230E+04  0.25500000920E-02 0.  1.
       -2   -1    0    0    0  501  0.00000000000E+00  0.00000000000E+00 -0.16117074526E+04  0.16117074526E+04  0.25500000920E-02 0. -1.
    10030    2    1    2    0    0  0.00000000000E+00  0.00000000000E+00  0.36456917044E+03  0.35879840756E+04  0.35694143843E+04 0.  0.
        3    1    3    3  502    0  0.20249290934E+03 -0.95151149984E+03  0.16863315711E+04  0.19468157824E+04  0.10100000352E+00 0.  1.
       -3    1    3    3    0  502 -0.20249290934E+03  0.95151149984E+03 -0.13217624006E+04  0.16411682932E+04  0.10100000352E+00 0. -1.
</event>
<event>
 5   0  0.3764495E-07  0.3030761E+04  0.7818609E-02  0.8235001E-01
       -1   -1    0    0    0  501  0.00000000000E+00  0.00000000000E+00  0.13041925861E+04  0.13041925861E+04  0.50400001928E-02 0.  1.
        1   -1    0    0  501    0  0.00000000000E+00  0.00000000000E+00 -0.17607658325E+04  0.17607658325E+04  0.50400001928E-02 0. -1.
    10030    2    1    2    0    0  0.00000000000E+00  0.00000000000E+00 -0.45657324642E+03  0.30649584185E+04  0.30307607920E+04 0.  0.
        4    1    3    3  502    0 -0.66516521150E+03  0.61162636957E+03  0.10019282588E+04  0.13492195608E+04  0.12699999809E+01 0.  1.
       -4    1    3    3    0  502  0.66516521150E+03 -0.61162636957E+03 -0.14585015052E+04  0.17157388578E+04  0.12699999809E+01 0. -1.
</event>
<event>
 5   0  0.1092116E-06  0.3601243E+04  0.7818609E-02  0.8090207E-01
        2   -1    0    0  501    0  0.00000000000E+00  0.00000000000E+00  0.15813732655E+04  0.15813732655E+04  0.25500000920E-02 0. -1.
       -2   -1    0    0    0  501  0.00000000000E+00  0.00000000000E+00 -0.20502668074E+04  0.20502668074E+04  0.25500000920E-02 0.  1.
    10030    2    1    2    0    0  0.00000000000E+00  0.00000000000E+00 -0.46889354186E+03  0.36316400729E+04  0.36012426279E+04 0.  0.
        1    1    3    3  502    0  0.95556357340E+03 -0.57911733979E+03  0.11894768394E+04  0.16319723611E+04  0.50400001928E-02 0. -1.
       -1    1    3    3    0  502 -0.95556357340E+03  0.57911733979E+03 -0.16583703812E+04  0.19996677117E+04  0.50400001928E-02 0.  1.
</event>
<event>
 5   0  0.3848431E-07  0.3642319E+04  0.7818609E-02  0.8080866E-01
        1   -1    0    0  501    0  0.00000000000E+00  0.00000000000E+00  0.15790167991E+04  0.15790167991E+04  0.50400001928E-02 0. -1.
       -1   -1    0    0    0  501  0.00000000000E+00  0.00000000000E+00 -0.21004347768E+04  0.21004347768E+04  0.50400001928E-02 0.  1.
    10030    2    1    2    0    0  0.00000000000E+00  0.00000000000E+00 -0.52141797769E+03  0.36794515759E+04  0.36423189305E+04 0.  0.
        2    1    3    3  502    0  0.40946468293E+03  0.16713768262E+04 -0.86299180776E+03  0.19250757601E+04  0.25500000920E-02 0. -1.
       -2    1    3    3    0  502 -0.40946468293E+03 -0.16713768262E+04  0.34157383007E+03  0.17543758158E+04  0.25500000920E-02 0.  1.
</event>
<event>
 5   0  0.1128530E-06  0.3701505E+04  0.7818609E-02  0.8067628E-01
        2   -1    0    0  501    0  0.00000000000E+00  0.00000000000E+00  0.19094045815E+04  0.19094045815E+04  0.25500000920E-02 0. -1.
       -2   -1    0    0    0  501  0.00000000000E+00  0.00000000000E+00 -0.17939018525E+04  0.17939018525E+04  0.25500000920E-02 0.  1.
    10030    2    1    2    0    0  0.00000000000E+00  0.00000000000E+00  0.11550272902E+03  0.37033064340E+04  0.37015047837E+04 0.  0.
        5    1    3    3  502    0  0.37468493251E+03  0.88708108300E+03  0.16390144542E+04  0.19009713616E+04  0.46999998093E+01 0. -1.
       -5    1    3    3    0  502 -0.37468493251E+03 -0.88708108300E+03 -0.15235117252E+04  0.18023350724E+04  0.46999998093E+01 0.  1.
</event>
<event>
 5   0  0.1128166E-06  0.3681920E+04  0.7818609E-02  0.8071980E-01
        2   -1    0    0  501    0  0.00000000000E+00  0.00000000000E+00  0.15090573448E+04  0.15090573448E+04  0.25500000920E-02 0.  1.
       -2   -1    0    0    0  501  0.00000000000E+00  0.00000000000E+00 -0.22458616439E+04  0.22458616439E+04  0.25500000920E-02 0. -1.
    10030    2    1    2    0    0  0.00000000000E+00  0.00000000000E+00 -0.73680429914E+03  0.37549189887E+04  0.36819201562E+04 0.  0.
        3    1    3    3  502    0  0.19847247377E+03 -0.55102717817E+03 -0.21483165608E+04  0.22267209816E+04  0.10100000352E+00 0. -1.
       -3    1    3    3    0  502 -0.19847247377E+03  0.55102717817E+03  0.14115122617E+04  0.15281980072E+04  0.10100000352E+00 0.  1.
</event>
<event>
 5   0  0.3848431E-07  0.3726154E+04  0.7818609E-02  0.8062190E-01
       -1   -1    0    0    0  501  0.00000000000E+00  0.00000000000E+00  0.16083419732E+04  0.16083419732E+04  0.50400001928E-02 0.  1.
        1   -1    0    0  501    0  0.00000000000E+00  0.00000000000E+00 -0.21581577349E+04  0.21581577349E+04  0.50400001928E-02 0. -1.
    10030    2    1    2    0    0  0.00000000000E+00  0.00000000000E+00 -0.54981576177E+03  0.37664997081E+04  0.37261538722E+04 0.  0.
        2    1    3    3  502    0 -0.33866218215E+03  0.53948466961E+03  0.14948548876E+04  0.16249082796E+04  0.25500000920E-02 0.  1.
       -2    1    3    3    0  502  0.33866218215E+03 -0.53948466961E+03 -0.20446706493E+04  0.21415914285E+04  0.25500000920E-02 0. -1.
</event>
<event>
 5   0  0.3848431E-07  0.3563155E+04  0.7818609E-02  0.8098984E-01
       -1   -1    0    0    0  501  0.00000000000E+00  0.00000000000E+00  0.14055700173E+04  0.14055700173E+04  0.50400001928E-02 0.  1.
        1   -1    0    0  501    0  0.00000000000E+00  0.00000000000E+00 -0.22581711944E+04  0.22581711944E+04  0.50400001928E-02 0. -1.
    10030    2    1    2    0    0  0.00000000000E+00  0.00000000000E+00 -0.85260117704E+03  0.36637412117E+04  0.35631546275E+04 0.  0.
        2    1    3    3  502    0  0.55855941506E+03 -0.15265778225E+04 -0.11759845466E+04  0.20063320070E+04  0.25500000920E-02 0.  1.
       -2    1    3    3    0  502 -0.55855941506E+03  0.15265778225E+04  0.32338336954E+03  0.16574092048E+04  0.25500000920E-02 0. -1.
</event>
<event>
 5   0  0.1051123E-06  0.2596036E+04  0.7818609E-02  0.8369549E-01
       -2   -1    0    0    0  501  0.00000000000E+00  0.00000000000E+00  0.11060280004E+04  0.11060280004E+04  0.25500000920E-02 0.  1.
        2   -1    0    0  501    0  0.00000000000E+00  0.00000000000E+00 -0.15233343931E+04  0.15233343931E+04  0.25500000920E-02 0. -1.
    10030    2    1    2    0    0  0.00000000000E+00  0.00000000000E+00 -0.41730639268E+03  0.26293623935E+04  0.25960358185E+04 0.  0.
        2    1    3    3  502    0  0.10901412120E+04  0.67653284681E+03 -0.40802000439E+03  0.13463227246E+04  0.25500000920E-02 0. -1.
       -2    1    3    3    0  502 -0.10901412120E+04 -0.67653284681E+03 -0.92863882883E+01  0.12830396689E+04  0.25500000920E-02 0.  1.
</event>
<event>
 5   0  0.1051123E-06  0.3528544E+04  0.7818609E-02  0.8107058E-01
        2   -1    0    0  501    0  0.00000000000E+00  0.00000000000E+00  0.18361144139E+04  0.18361144139E+04  0.25500000920E-02 0.  1.
       -2   -1    0    0    0  501  0.00000000000E+00  0.00000000000E+00 -0.16952407369E+04  0.16952407369E+04  0.25500000920E-02 0. -1.
    10030    2    1    2    0    0  0.00000000000E+00  0.00000000000E+00  0.14087367702E+03  0.35313551508E+04  0.35285441485E+04 0.  0.
        2    1    3    3  502    0  0.49309147236E+03 -0.16938362915E+04  0.91318973085E+02  0.17665106106E+04  0.25500000920E-02 0.  1.
       -2    1    3    3    0  502 -0.49309147236E+03  0.16938362915E+04  0.49554703935E+02  0.17648445402E+04  0.25500000920E-02 0. -1.
</event>
<event>
 5   0  0.3704306E-07  0.3966085E+04  0.7818609E-02  0.8011423E-01
       -1   -1    0    0    0  501  0.00000000000E+00  0.00000000000E+00  0.23595947725E+04  0.23595947725E+04  0.50400001928E-02 0. -1.
        1   -1    0    0  501    0  0.00000000000E+00  0.00000000000E+00 -0.16665818427E+04  0.16665818427E+04  0.50400001928E-02 0.  1.
    10030    2    1    2    0    0  0.00000000000E+00  0.00000000000E+00  0.69301292982E+03  0.40261766152E+04  0.39660851246E+04 0.  0.
        3    1    3    3  502    0  0.59915885005E+03 -0.18352590706E+04 -0.11344852357E+03  0.19339177235E+04  0.10100000352E+00 0.  1.
       -3    1    3    3    0  502 -0.59915885005E+03  0.18352590706E+04  0.80646145338E+03  0.20922588916E+04  0.10100000352E+00 0. -1.
</event>
<event>
 5   0  0.1066907E-06  0.3768023E+04  0.7818609E-02  0.8053052E-01
       -2   -1    0    0    0  501  0.00000000000E+00  0.00000000000E+00  0.26305145119E+04  0.26305145119E+04  0.25500000920E-02 0.  1.
        2   -1    0    0  501    0  0.00000000000E+00  0.00000000000E+00 -0.13493555460E+04  0.13493555460E+04  0.25500000920E-02 0. -1.
    10030    2    1    2    0    0  0.00000000000E+00  0.00000000000E+00  0.12811589660E+04  0.39798700579E+04  0.37680230070E+04 0.  0.
        4    1    3    3  502    0 -0.75474452485E+03  0.14602934609E+04 -0.33171975708E+03  0.16769424259E+04  0.12699999809E+01 0. -1.
       -4    1    3    3    0  502  0.75474452485E+03 -0.14602934609E+04  0.16128787231E+04  0.23029276320E+04  0.12699999809E+01 0.  1.
</event>
<event>
 5   0  0.3682276E-07  0.3620785E+04  0.7818609E-02  0.8085747E-01
        1   -1    0    0  501    0  0.00000000000E+00  0.00000000000E+00  0.20060535310E+04  0.20060535310E+04  0.50400001928E-02 0. -1.
       -1   -1    0    0    0  501  0.00000000000E+00  0.00000000000E+00 -0.16338152075E+04  0.16338152075E+04  0.50400001928E-02 0.  1.
    10030    2    1    2    0    0  0.00000000000E+00  0.00000000000E+00  0.37223832343E+03  0.36398687385E+04  0.36207848685E+04 0.  0.
        1    1    3    3  502    0 -0.26348153537E+03  0.15495965295E+04 -0.71686283323E+03  0.17275891425E+04  0.50400001928E-02 0.  1.
       -1    1    3    3    0  502  0.26348153537E+03 -0.15495965295E+04  0.10891011567E+04  0.19122795960E+04  0.50400001928E-02 0. -1.
</event>
<event>
 5   0  0.1051123E-06  0.3707818E+04  0.7818609E-02  0.8066231E-01
        2   -1    0    0  501    0  0.00000000000E+00  0.00000000000E+00  0.34205741600E+04  0.34205741600E+04  0.25500000920E-02 0.  1.
       -2   -1    0    0    0  501  0.00000000000E+00  0.00000000000E+00 -0.10047960314E+04  0.10047960315E+04  0.25500000920E-02 0. -1.
    10030    2    1    2    0    0  0.00000000000E+00  0.00000000000E+00  0.24157781286E+04  0.44253701915E+04  0.37078184105E+04 0.  0.
        2    1    3    3  502    0  0.38671913371E+03  0.68486189185E+03 -0.79580695884E+03  0.11188816805E+04  0.25500000920E-02 0. -1.
       -2    1    3    3    0  502 -0.38671913371E+03 -0.68486189185E+03  0.32115850874E+04  0.33064885110E+04  0.25500000920E-02 0.  1.
</event>
<event>
 5   0  0.3675819E-07  0.3735805E+04  0.7818609E-02  0.8060073E-01
        1   -1    0    0  501    0  0.00000000000E+00  0.00000000000E+00  0.33344454568E+04  0.33344454568E+04  0.50400001928E-02 0.  1.
       -1   -1    0    0    0  501  0.00000000000E+00  0.00000000000E+00 -0.10463689723E+04  0.10463689723E+04  0.50400001928E-02 0. -1.
    10030    2    1    2    0    0  0.00000000000E+00  0.00000000000E+00  0.22880764845E+04  0.43808144292E+04  0.37358052765E+04 0.  0.
        5    1    3    3  502    0 -0.18540450205E+03  0.15856841443E+04  0.22811331570E+04  0.27843059467E+04  0.46999998093E+01 0.  1.
       -5    1    3    3    0  502  0.18540450205E+03 -0.15856841443E+04  0.69433275069E+01  0.15965084825E+04  0.46999998093E+01 0. -1.
</event>
<event>
 5   0  0.1092116E-06  0.3716719E+04  0.7818609E-02  0.8064267E-01
        2   -1    0    0  501    0  0.00000000000E+00  0.00000000000E+00  0.13432276239E+04  0.13432276239E+04  0.25500000920E-02 0. -1.
       -2   -1    0    0    0  501  0.00000000000E+00  0.00000000000E+00 -0.25710455180E+04  0.25710455180E+04  0.25500000920E-02 0.  1.
    10030    2    1    2    0    0  0.00000000000E+00  0.00000000000E+00 -0.12278178941E+04  0.39142731420E+04  0.37167186400E+04 0.  0.
        1    1    3    3  502    0 -0.16671755986E+04 -0.82011957670E+03 -0.65371708848E+03  0.19696234738E+04  0.50400001928E-02 0. -1.
       -1    1    3    3    0  502  0.16671755986E+04  0.82011957670E+03 -0.57410080562E+03  0.19446496682E+04  0.50400001928E-02 0.  1.
</event>
<event>
 5   0  0.1128530E-06  0.3482998E+04  0.7818609E-02  0.8117831E-01
        2   -1    0    0  501    0  0.00000000000E+00  0.00000000000E+00  0.19933929048E+04  0.19933929048E+04  0.25500000920E-02 0. -1.
       -2   -1    0    0    0  501  0.00000000000E+00  0.00000000000E+00 -0.15214352228E+04  0.15214352228E+04  0.25500000920E-02 0.  1.
    10030    2    1    2    0    0  0.00000000000E+00  0.00000000000E+00  0.47195768203E+03  0.35148281277E+04  0.34829976620E+04 0.  0.
        5    1    3    3  502    0  0.17398612696E+04  0.19987940024E+01  0.31199892089E+03  0.17676217495E+04  0.46999998093E+01 0.  1.
       -5    1    3    3    0  502 -0.17398612696E+04 -0.19987940024E+01  0.15995876114E+03  0.17472063782E+04  0.46999998093E+01 0. -1.
</event>
<event>
 5   0  0.3704306E-07  0.3652844E+04  0.7818609E-02  0.8078493E-01
       -1   -1    0    0    0  501  0.00000000000E+00  0.00000000000E+00  0.15575988820E+04  0.15575988820E+04  0.50400001928E-02 0. -1.
        1   -1    0    0  501    0  0.00000000000E+00  0.00000000000E+00 -0.21416409207E+04  0.21416409207E+04  0.50400001928E-02 0.  1.
    10030    2    1    2    0    0  0.00000000000E+00  0.00000000000E+00 -0.58404203865E+03  0.36992398027E+04  0.36528440994E+04 0.  0.
        3    1    3    3  502    0 -0.15164564818E+03 -0.10464889545E+04  0.12160818970E+04  0.16115181429E+04  0.10100000352E+00 0. -1.
       -3    1    3    3    0  502  0.15164564818E+03  0.10464889545E+04 -0.18001239357E+04  0.20877216597E+04  0.10100000352E+00 0.  1.
</event>
<event>
 5   0  0.3764495E-07  0.2752651E+04  0.7818609E-02  0.8318121E-01
       -1   -1    0    0    0  501  0.00000000000E+00  0.00000000000E+00  0.10136648354E+04  0.10136648354E+04  0.50400001928E-02 0. -1.
        1   -1    0    0  501    0  0.00000000000E+00  0.00000000000E+00 -0.18687364213E+04  0.18687364213E+04  0.50400001928E-02 0.  1.
    10030    2    1    2    0    0  0.00000000000E+00  0.00000000000E+00 -0.85507158586E+03  0.28824012568E+04  0.27526513742E+04 0.  0.
        4    1    3    3  502    0  0.75087525730E+02 -0.10440779170E+04 -0.13632644285E+04  0.17187868827E+04  0.12699999809E+01 0.  1.
       -4    1    3    3    0  502 -0.75087525730E+02  0.10440779170E+04  0.50819284267E+03  0.11636143740E+04  0.12699999809E+01 0. -1.
</event>
<event>
 5   0  0.3682276E-07  0.3728566E+04  0.7818609E-02  0.8061661E-01
       -1   -1    0    0    0  501  0.00000000000E+00  0.00000000000E+00  0.28358078459E+04  0.28358078459E+04  0.50400001928E-02 0.  1.
        1   -1    0    0  501    0  0.00000000000E+00  0.00000000000E+00 -0.12255944297E+04  0.12255944297E+04  0.50400001928E-02 0. -1.
    10030    2    1    2    0    0  0.00000000000E+00  0.00000000000E+00  0.16102134162E+04  0.40614022756E+04  0.37285655685E+04 0.  0.
        1    1    3    3  502    0 -0.87825087244E+03 -0.16442327143E+04  0.77578770802E+03  0.20190771114E+04  0.50400001928E-02 0.  1.
       -1    1    3    3    0  502  0.87825087244E+03  0.16442327143E+04  0.83442570817E+03  0.20423251642E+04  0.50400001928E-02 0. -1.
</event>
<event>
 5   0  0.1051123E-06  0.3702987E+04  0.7818609E-02  0.8067300E-01
        2   -1    0    0  501    0  0.00000000000E+00  0.00000000000E+00  0.12078083493E+04  0.12078083493E+04  0.25500000920E-02 0.  1.
       -2   -1    0    0    0  501  0.00000000000E+00  0.00000000000E+00 -0.28382221718E+04  0.28382221719E+04  0.25500000920E-02 0. -1.
    10030    2    1    2    0    0  0.00000000000E+00  0.00000000000E+00 -0.16304138225E+04  0.40460305212E+04  0.37029871382E+04 0.  0.
        2    1    3    3  502    0  0.85884122485E+03  0.74039518835E+03  0.78402159187E+03  0.13785801177E+04  0.25500000920E-02 0.  1.
       -2    1    3    3    0  502 -0.85884122485E+03 -0.74039518835E+03 -0.24144354144E+04  0.26674504034E+04  0.25500000920E-02 0. -1.
</event>
<event>
 5   0  0.1051123E-06  0.3665458E+04  0.7818609E-02  0.8075660E-01
        2   -1    0    0  501    0  0.00000000000E+00  0.00000000000E+00  0.25102826191E+04  0.25102826191E+04  0.25500000920E-02 0. -1.
       -2   -1    0    0    0  501  0.00000000000E+00  0.00000000000E+00 -0.13380550112E+04  0.13380550112E+04  0.25500000920E-02 0.  1.
    10030    2    1    2    0    0  0.00000000000E+00  0.00000000000E+00  0.11722276079E+04  0.38483376303E+04  0.36654583550E+04 0.  0.
        2    1    3    3  502    0  0.17101504069E+04 -0.58177878590E+03  0.91109799673E+03  0.20231610241E+04  0.25500000920E-02 0. -1.
       -2    1    3    3    0  502 -0.17101504069E+04  0.58177878590E+03  0.26112961115E+03  0.18251766062E+04  0.25500000920E-02 0.  1.
</event>
<event>
 5   0  0.1066907E-06  0.3764137E+04  0.7818609E-02  0.8053895E-01
        2   -1    0    0  501    0  0.00000000000E+00  0.00000000000E+00  0.21695002003E+04  0.21695002003E+04  0.25500000920E-02 0. -1.
       -2   -1    0    0    0  501  0.00000000000E+00  0.00000000000E+00 -0.16327179204E+04  0.16327179204E+04  0.25500000920E-02 0.  1.
    10030    2    1    2    0    0  0.00000000000E+00  0.00000000000E+00  0.53678227992E+03  0.38022181207E+04  0.37641370089E+04 0.  0.
        4    1    3    3  502    0 -0.13512290132E+04 -0.93382911128E+03 -0.65977573642E+03  0.17700740918E+04  0.12699999809E+01 0.  1.
       -4    1    3    3    0  502  0.13512290132E+04  0.93382911128E+03  0.11965580163E+04  0.20321440290E+04  0.12699999809E+01 0. -1.
</event>
<event>
 5   0  0.1128530E-06  0.3735581E+04  0.7818609E-02  0.8060122E-01
        2   -1    0    0  501    0  0.00000000000E+00  0.00000000000E+00  0.10756294645E+04  0.10756294645E+04  0.25500000920E-02 0. -1.
       -2   -1    0    0    0  501  0.00000000000E+00  0.00000000000E+00 -0.32433487024E+04  0.32433487024E+04  0.25500000920E-02 0.  1.
    10030    2    1    2    0    0  0.00000000000E+00  0.00000000000E+00 -0.21677192380E+04  0.43189781669E+04  0.37355810407E+04 0.  0.
        5    1    3    3  502    0 -0.95944597095E+03 -0.15686177875E+04 -0.70474589994E+03  0.19692097928E+04  0.46999998093E+01 0.  1.
       -5    1    3    3    0  502  0.95944597095E+03  0.15686177875E+04 -0.14629733380E+04  0.23497683742E+04  0.46999998093E+01 0. -1.
</event>
<event>
 5   0  0.1051123E-06  0.3712017E+04  0.7818609E-02  0.8065304E-01
        2   -1    0    0  501    0  0.00000000000E+00  0.00000000000E+00  0.17111811540E+04  0.17111811540E+04  0.25500000920E-02 0. -1.
       -2   -1    0    0    0  501  0.00000000000E+00  0.00000000000E+00 -0.20130931965E+04  0.20130931965E+04  0.25500000920E-02 0.  1.
    10030    2    1    2    0    0  0.00000000000E+00  0.00000000000E+00 -0.30191204241E+03  0.37242743505E+04  0.37120167775E+04 0.  0.
        2    1    3    3  502    0 -0.13814234793E+04  0.78116536304E+03  0.81462363290E+03  0.17838614904E+04  0.25500000920E-02 0. -1.
       -2    1    3    3    0  502  0.13814234793E+04 -0.78116536304E+03 -0.11165356753E+04  0.19404128601E+04  0.25500000920E-02 0.  1.
</event>
<event>
 5   0  0.1092116E-06  0.3488569E+04  0.7818609E-02  0.8116504E-01
        2   -1    0    0  501    0  0.00000000000E+00  0.00000000000E+00  0.23828531992E+04  0.23828531992E+04  0.25500000920E-02 0. -1.
       -2   -1    0    0    0  501  0.00000000000E+00  0.00000000000E+00 -0.12768422478E+04  0.12768422478E+04  0.25500000920E-02 0.  1.
    10030    2    1    2    0    0  0.00000000000E+00  0.00000000000E+00  0.11060109515E+04  0.36596954470E+04  0.34885685517E+04 0.  0.
        1    1    3    3  502    0 -0.15459142251E+04 -0.60857717330E+03 -0.43872914969E+01  0.16613958636E+04  0.50400001928E-02 0.  1.
       -1    1    3    3    0  502  0.15459142251E+04  0.60857717330E+03  0.11103982430E+04  0.19982995834E+04  0.50400001928E-02 0. -1.
</event>
<event>
 5   0  0.1066907E-06  0.3750409E+04  0.7818609E-02  0.8056881E-01
       -2   -1    0    0    0  501  0.00000000000E+00  0.00000000000E+00  0.22783675693E+04  0.22783675693E+04  0.25500000920E-02 0.  1.
        2   -1    0    0  501    0  0.00000000000E+00  0.00000000000E+00 -0.15433825785E+04  0.15433825785E+04  0.25500000920E-02 0. -1.
    10030    2    1    2    0    0  0.00000000000E+00  0.00000000000E+00  0.73498499079E+03  0.38217501477E+04  0.37504094783E+04 0.  0.
        4    1    3    3  502    0  0.67875666891E+03 -0.15636335284E+04  0.11638507857E+04  0.20640277835E+04  0.12699999809E+01 0.  1.
       -4    1    3    3    0  502 -0.67875666891E+03  0.15636335284E+04 -0.42886579488E+03  0.17577223642E+04  0.12699999809E+01 0. -1.
</event>
<event>
 5   0  0.1066907E-06  0.3137883E+04  0.7818609E-02  0.8205418E-01
        2   -1    0    0  501    0  0.00000000000E+00  0.00000000000E+00  0.17998954538E+04  0.17998954538E+04  0.25500000920E-02 0.  1.
       -2   -1    0    0    0  501  0.00000000000E+00  0.00000000000E+00 -0.13676223801E+04  0.13676223801E+04  0.25500000920E-02 0. -1.
    10030    2    1    2    0    0  0.00000000000E+00  0.00000000000E+00  0.43227307368E+03  0.31675178339E+04  0.31378829197E+04 0.  0.
        4    1    3    3  502    0  0.15017119685E+03  0.56308319548E+03 -0.12543162867E+04  0.13830853312E+04  0.12699999809E+01 0. -1.
       -4    1    3    3    0  502 -0.15017119685E+03 -0.56308319548E+03  0.16865893604E+04  0.17844325027E+04  0.12699999809E+01 0.  1.
</event>
<event>
 5   0  0.1128530E-06  0.3081645E+04  0.7818609E-02  0.8220793E-01
       -2   -1    0    0    0  501  0.00000000000E+00  0.00000000000E+00  0.12461265058E+04  0.12461265058E+04  0.25500000920E-02 0. -1.
        2   -1    0    0  501    0  0.00000000000E+00  0.00000000000E+00 -0.19052115352E+04  0.19052115352E+04  0.25500000920E-02 0.  1.
    10030    2    1    2    0    0  0.00000000000E+00  0.00000000000E+00 -0.65908502948E+03  0.31513380410E+04  0.30816454002E+04 0.  0.
        5    1    3    3  502    0  0.77431351891E+03 -0.96500503058E+03 -0.12686333307E+04  0.17720747028E+04  0.46999998093E+01 0.  1.
       -5    1    3    3    0  502 -0.77431351891E+03  0.96500503058E+03  0.60954830120E+03  0.13792633382E+04  0.46999998093E+01 0. -1.
</event>
<event>
 5   0  0.3764495E-07  0.3731034E+04  0.7818609E-02  0.8061119E-01
       -1   -1    0    0    0  501  0.00000000000E+00  0.00000000000E+00  0.98170164603E+03  0.98170164604E+03  0.50400001928E-02 0. -1.
        1   -1    0    0  501    0  0.00000000000E+00  0.00000000000E+00 -0.35450215252E+04  0.35450215252E+04  0.50400001928E-02 0.  1.
    10030    2    1    2    0    0  0.00000000000E+00  0.00000000000E+00 -0.25633198792E+04  0.45267231713E+04  0.37310338870E+04 0.  0.
        4    1    3    3  502    0  0.53020497170E+03 -0.43504560127E+03  0.82319120397E+03  0.10714603858E+04  0.12699999809E+01 0. -1.
       -4    1    3    3    0  502 -0.53020497170E+03  0.43504560127E+03 -0.33865110832E+04  0.34552627855E+04  0.12699999809E+01 0.  1.
</event>
<event>
 5   0  0.1128530E-06  0.3584993E+04  0.7818609E-02  0.8093938E-01
       -2   -1    0    0    0  501  0.00000000000E+00  0.00000000000E+00  0.14639704682E+04  0.14639704682E+04  0.25500000920E-02 0.  1.
        2   -1    0    0  501    0  0.00000000000E+00  0.00000000000E+00 -0.21947468389E+04  0.21947468389E+04  0.25500000920E-02 0. -1.
    10030    2    1    2    0    0  0.00000000000E+00  0.00000000000E+00 -0.73077637077E+03  0.36587173071E+04  0.35849934769E+04 0.  0.
        5    1    3    3  502    0  0.10542477240E+04 -0.82067132989E+03 -0.15849875094E+04  0.20729561477E+04  0.46999998093E+01 0. -1.
       -5    1    3    3    0  502 -0.10542477240E+04  0.82067132989E+03  0.85421113866E+03  0.15857611594E+04  0.46999998093E+01 0.  1.
</event>
<event>
 5   0  0.1128166E-06  0.3692416E+04  0.7818609E-02  0.8069645E-01
       -2   -1    0    0    0  501  0.00000000000E+00  0.00000000000E+00  0.19672871844E+04  0.19672871844E+04  0.25500000920E-02 0.  1.
        2   -1    0    0  501    0  0.00000000000E+00  0.00000000000E+00 -0.17325811473E+04  0.17325811473E+04  0.25500000920E-02 0. -1.
    10030    2    1    2    0    0  0.00000000000E+00  0.00000000000E+00  0.23470603709E+03  0.36998683317E+04  0.36924163834E+04 0.  0.
        3    1    3    3  502    0 -0.13593080092E+04  0.11927290921E+04  0.48980699729E+03  0.18735612762E+04  0.10100000352E+00 0. -1.
       -3    1    3    3    0  502  0.13593080092E+04 -0.11927290921E+04 -0.25510096020E+03  0.18263070555E+04  0.10100000352E+00 0.  1.
</event>
<event>
 5   0  0.3490375E-07  0.3744622E+04  0.7818609E-02  0.8058144E-01
       -4   -1    0    0    0  501  0.00000000000E+00  0.00000000000E+00  0.19709724641E+04  0.19709728733E+04  0.12699999809E+01 0. -1.
        4   -1    0    0  501    0  0.00000000000E+00  0.00000000000E+00 -0.17785879030E+04  0.17785883564E+04  0.12699999809E+01 0.  1.
    10030    2    1    2    0    0  0.00000000000E+00  0.00000000000E+00  0.19238456112E+03  0.37495612297E+04  0.37446224905E+04 0.  0.
        3    1    3    3  502    0  0.15848918692E+03  0.18531501155E+04  0.31156946978E+03  0.18858313068E+04  0.10100000352E+00 0.  1.
       -3    1    3    3    0  502 -0.15848918692E+03 -0.18531501155E+04 -0.11918490866E+03  0.18637299229E+04  0.10100000352E+00 0. -1.
</event>
<event>
 5   0  0.3682276E-07  0.3664021E+04  0.7818609E-02  0.8075982E-01
        1   -1    0    0  501    0  0.00000000000E+00  0.00000000000E+00  0.21720066252E+04  0.21720066252E+04  0.50400001928E-02 0. -1.
       -1   -1    0    0    0  501  0.00000000000E+00  0.00000000000E+00 -0.15452358342E+04  0.15452358342E+04  0.50400001928E-02 0.  1.
    10030    2    1    2    0    0  0.00000000000E+00  0.00000000000E+00  0.62677079101E+03  0.37172424594E+04  0.36640209985E+04 0.  0.
        1    1    3    3  502    0  0.92434188791E+03  0.86100168018E+03 -0.10327375601E+04  0.16316490698E+04  0.50400001928E-02 0.  1.
       -1    1    3    3    0  502 -0.92434188791E+03 -0.86100168018E+03  0.16595083511E+04  0.20855933895E+04  0.50400001928E-02 0. -1.
</event>
<event>
 5   0  0.3490375E-07  0.3703159E+04  0.7818609E-02  0.8067262E-01
        3   -1    0    0  501    0  0.00000000000E+00  0.00000000000E+00  0.14414294686E+04  0.14414294721E+04  0.10100000352E+00 0.  1.
       -3   -1    0    0    0  501  0.00000000000E+00  0.00000000000E+00 -0.23784347691E+04  0.23784347713E+04  0.10100000352E+00 0. -1.
    10030    2    1    2    0    0  0.00000000000E+00  0.00000000000E+00 -0.93700530054E+03  0.38198642434E+04  0.37031586389E+04 0.  0.
        4    1    3    3  502    0 -0.13162687984E+04  0.83814224995E+02  0.87197341088E+03  0.15811159401E+04  0.12699999809E+01 0.  1.
       -4    1    3    3    0  502  0.13162687984E+04 -0.83814224995E+02 -0.18089787114E+04  0.22387483032E+04  0.12699999809E+01 0. -1.
</event>
<event>
 5   0  0.3675819E-07  0.3544818E+04  0.7818609E-02  0.8103250E-01
       -1   -1    0    0    0  501  0.00000000000E+00  0.00000000000E+00  0.23888143003E+04  0.23888143003E+04  0.50400001928E-02 0. -1.
        1   -1    0    0  501    0  0.00000000000E+00  0.00000000000E+00 -0.13150598295E+04  0.13150598295E+04  0.50400001928E-02 0.  1.
    10030    2    1    2    0    0  0.00000000000E+00  0.00000000000E+00  0.10737544708E+04  0.37038741299E+04  0.35448180357E+04 0.  0.
        5    1    3    3  502    0  0.91451847472E+03 -0.44265066414E+02 -0.10488169861E+04  0.13922437276E+04  0.46999998093E+01 0.  1.
       -5    1    3    3    0  502 -0.91451847472E+03  0.44265066414E+02  0.21225714569E+04  0.23116304022E+04  0.46999998093E+01 0. -1.
</event>
<event>
 5   0  0.1092116E-06  0.3777092E+04  0.7818609E-02  0.8051089E-01
        2   -1    0    0  501    0  0.00000000000E+00  0.00000000000E+00  0.19492531217E+04  0.19492531217E+04  0.25500000920E-02 0. -1.
       -2   -1    0    0    0  501  0.00000000000E+00  0.00000000000E+00 -0.18297297505E+04  0.18297297505E+04  0.25500000920E-02 0.  1.
    10030    2    1    2    0    0  0.00000000000E+00  0.00000000000E+00  0.11952337125E+03  0.37789828722E+04  0.37770922297E+04 0.  0.
        1    1    3    3  502    0 -0.67091817996E+03 -0.16747197827E+04  0.61842176684E+03  0.19071609886E+04  0.50400001928E-02 0. -1.
       -1    1    3    3    0  502  0.67091817996E+03  0.16747197827E+04 -0.49889839559E+03  0.18718218836E+04  0.50400001928E-02 0.  1.
</event>
<event>
 5   0  0.1092116E-06  0.3647465E+04  0.7818609E-02  0.8079705E-01
       -2   -1    0    0    0  501  0.00000000000E+00  0.00000000000E+00  0.11911802544E+04  0.11911802544E+04  0.25500000920E-02 0. -1.
        2   -1    0    0  501    0  0.00000000000E+00  0.00000000000E+00 -0.27921894916E+04  0.27921894916E+04  0.25500000920E-02 0.  1.
    10030    2    1    2    0    0  0.00000000000E+00  0.00000000000E+00 -0.16010092372E+04  0.39833697460E+04  0.36474654153E+04 0.  0.
        1    1    3    3  502    0 -0.10713757777E+04 -0.11226497767E+04  0.24574762152E+03  0.15711716875E+04  0.50400001928E-02 0.  1.
       -1    1    3    3    0  502  0.10713757777E+04  0.11226497767E+04 -0.18467568588E+04  0.24121980585E+04  0.50400001928E-02 0. -1.
</event>
<event>
 5   0  0.3682276E-07  0.3687134E+04  0.7818609E-02  0.8070819E-01
        1   -1    0    0  501    0  0.00000000000E+00  0.00000000000E+00  0.20288160940E+04  0.20288160940E+04  0.50400001928E-02 0. -1.
       -1   -1    0    0    0  501  0.00000000000E+00  0.00000000000E+00 -0.16752331063E+04  0.16752331063E+04  0.50400001928E-02 0.  1.
    10030    2    1    2    0    0  0.00000000000E+00  0.00000000000E+00  0.35358298767E+03  0.37040492003E+04  0.36871343275E+04 0.  0.
        1    1    3    3  502    0  0.77339247580E+03  0.44169404302E+03 -0.14447728537E+04  0.16972324968E+04  0.50400001928E-02 0.  1.
       -1    1    3    3    0  502 -0.77339247580E+03 -0.44169404302E+03  0.17983558414E+04  0.20068167035E+04  0.50400001928E-02 0. -1.
</event>
<event>
 5   0  0.1195804E-06  0.2280208E+04  0.7818609E-02  0.8485766E-01
        2   -1    0    0  501    0  0.00000000000E+00  0.00000000000E+00  0.13872293210E+04  0.13872293210E+04  0.25500000920E-02 0.  1.
       -2   -1    0    0    0  501  0.00000000000E+00  0.00000000000E+00 -0.93700242664E+03  0.93700242665E+03  0.25500000920E-02 0. -1.
    10030    2    1    2    0    0  0.00000000000E+00  0.00000000000E+00  0.45022689440E+03  0.23242317477E+04  0.22802080959E+04 0.  0.
        2    1    3    3  502    0 -0.27225448570E+03  0.12072636707E+03  0.13468789961E+04  0.13794130603E+04  0.25500000920E-02 0.  1.
       -2    1    3    3    0  502  0.27225448570E+03 -0.12072636707E+03 -0.89665210168E+03  0.94481868745E+03  0.25500000920E-02 0. -1.
</event>
<event>
 5   0  0.1128530E-06  0.2517382E+04  0.7818609E-02  0.8396819E-01
       -2   -1    0    0    0  501  0.00000000000E+00  0.00000000000E+00  0.69832697253E+03  0.69832697253E+03  0.25500000920E-02 0. -1.
        2   -1    0    0  501    0  0.00000000000E+00  0.00000000000E+00 -0.22687130269E+04  0.22687130269E+04  0.25500000920E-02 0.  1.
    10030    2    1    2    0    0  0.00000000000E+00  0.00000000000E+00 -0.15703860543E+04  0.29670399994E+04  0.25173823703E+04 0.  0.
        5    1    3    3  502    0  0.97196430285E+03 -0.32360584773E+03  0.76769954439E+02  0.10273028115E+04  0.46999998093E+01 0. -1.
       -5    1    3    3    0  502 -0.97196430285E+03  0.32360584773E+03 -0.16471560088E+04  0.19397371879E+04  0.46999998093E+01 0.  1.
</event>
<event>
 5   0  0.1128530E-06  0.2546268E+04  0.7818609E-02  0.8386685E-01
       -2   -1    0    0    0  501  0.00000000000E+00  0.00000000000E+00  0.12209236010E+04  0.12209236010E+04  0.25500000920E-02 0. -1.
        2   -1    0    0  501    0  0.00000000000E+00  0.00000000000E+00 -0.13275768900E+04  0.13275768900E+04  0.25500000920E-02 0.  1.
    10030    2    1    2    0    0  0.00000000000E+00  0.00000000000E+00 -0.10665328908E+03  0.25485004910E+04  0.25462678234E+04 0.  0.
        5    1    3    3  502    0 -0.11648163818E+04  0.42492769613E+03  0.23586808327E+03  0.12621476114E+04  0.46999998093E+01 0. -1.
       -5    1    3    3    0  502  0.11648163818E+04 -0.42492769613E+03 -0.34252137235E+03  0.12863528796E+04  0.46999998093E+01 0.  1.
</event>
<event>
 5   0  0.3682276E-07  0.2882426E+04  0.7818609E-02  0.8278125E-01
       -1   -1    0    0    0  501  0.00000000000E+00  0.00000000000E+00  0.17122957750E+04  0.17122957750E+04  0.50400001928E-02 0.  1.
        1   -1    0    0  501    0  0.00000000000E+00  0.00000000000E+00 -0.12130469103E+04  0.12130469103E+04  0.50400001928E-02 0. -1.
    10030    2    1    2    0    0  0.00000000000E+00  0.00000000000E+00  0.49924886472E+03  0.29253426853E+04  0.28824261305E+04 0.  0.
        1    1    3    3  502    0  0.49445964707E+03 -0.60904173744E+02  0.16221264779E+04  0.16969071782E+04  0.50400001928E-02 0.  1.
       -1    1    3    3    0  502 -0.49445964707E+03  0.60904173744E+02 -0.11228776132E+04  0.12284355071E+04  0.50400001928E-02 0. -1.
</event>
<event>
 5   0  0.3764495E-07  0.3625566E+04  0.7818609E-02  0.8084660E-01
       -1   -1    0    0    0  501  0.00000000000E+00  0.00000000000E+00  0.27811618124E+04  0.27811618124E+04  0.50400001928E-02 0.  1.
        1   -1    0    0  501    0  0.00000000000E+00  0.00000000000E+00 -0.11815861562E+04  0.11815861562E+04  0.50400001928E-02 0. -1.
    10030    2    1    2    0    0  0.00000000000E+00  0.00000000000E+00  0.15995756562E+04  0.39627479686E+04  0.36255660500E+04 0.  0.
        4    1    3    3  502    0 -0.14980880253E+04 -0.24050377247E+03  0.18840487919E+04  0.24190393257E+04  0.12699999809E+01 0.  1.
       -4    1    3    3    0  502  0.14980880253E+04  0.24050377247E+03 -0.28447313576E+03  0.15437086429E+04  0.12699999809E+01 0. -1.
</event>
<event>
 5   0  0.1128166E-06  0.3158885E+04  0.7818609E-02  0.8199761E-01
        2   -1    0    0  501    0  0.00000000000E+00  0.00000000000E+00  0.18459791496E+04  0.18459791496E+04  0.25500000920E-02 0. -1.
       -2   -1    0    0    0  501  0.00000000000E+00  0.00000000000E+00 -0.13513902019E+04  0.13513902019E+04  0.25500000920E-02 0.  1.
    10030    2    1    2    0    0  0.00000000000E+00  0.00000000000E+00  0.49458894768E+03  0.31973693516E+04  0.31588846992E+04 0.  0.
        3    1    3    3  502    0 -0.19823430292E+01 -0.83687046695E+03 -0.11085328619E+04  0.13889568835E+04  0.10100000352E+00 0.  1.
       -3    1    3    3    0  502  0.19823430292E+01  0.83687046695E+03  0.16031218096E+04  0.18084124681E+04  0.10100000352E+00 0. -1.
</event>
<event>
 5   0  0.1092116E-06  0.3541400E+04  0.7818609E-02  0.8104048E-01
        2   -1    0    0  501    0  0.00000000000E+00  0.00000000000E+00  0.97659450212E+03  0.97659450213E+03  0.25500000920E-02 0.  1.
       -2   -1    0    0    0  501  0.00000000000E+00  0.00000000000E+00 -0.32105232100E+04  0.32105232100E+04  0.25500000920E-02 0. -1.
    10030    2    1    2    0    0  0.00000000000E+00  0.00000000000E+00 -0.22339287079E+04  0.41871177121E+04  0.35414004664E+04 0.  0.
        1    1    3    3  502    0 -0.50268217401E+03 -0.55212809961E+03  0.78135156296E+03  0.10807613388E+04  0.50400001928E-02 0.  1.
       -1    1    3    3    0  502  0.50268217401E+03  0.55212809961E+03 -0.30152802708E+04  0.31063563733E+04  0.50400001928E-02 0. -1.
</event>
<event>
 5   0  0.1128530E-06  0.3546950E+04  0.7818609E-02  0.8102753E-01
        2   -1    0    0  501    0  0.00000000000E+00  0.00000000000E+00  0.21788026584E+04  0.21788026584E+04  0.25500000920E-02 0.  1.
       -2   -1    0    0    0  501  0.00000000000E+00  0.00000000000E+00 -0.14435512300E+04  0.14435512300E+04  0.25500000920E-02 0. -1.
    10030    2    1    2    0    0  0.00000000000E+00  0.00000000000E+00  0.73525142838E+03  0.36223538884E+04  0.35469498207E+04 0.  0.
        5    1    3    3  502    0  0.13070355297E+04  0.60675625283E+02 -0.85497416137E+03  0.15630183345E+04  0.46999998093E+01 0. -1.
       -5    1    3    3    0  502 -0.13070355297E+04 -0.60675625283E+02  0.15902255898E+04  0.20593355539E+04  0.46999998093E+01 0.  1.
</event>
<event>
 5   0  0.3848431E-07  0.2467329E+04  0.7818609E-02  0.8414718E-01
        1   -1    0    0  501    0  0.00000000000E+00  0.00000000000E+00  0.11184425958E+04  0.11184425958E+04  0.50400001928E-02 0. -1.
       -1   -1    0    0    0  501  0.00000000000E+00  0.00000000000E+00 -0.13607568993E+04  0.13607568993E+04  0.50400001928E-02 0.  1.
    10030    2    1    2    0    0  0.00000000000E+00  0.00000000000E+00 -0.24231430356E+03  0.24791994951E+04  0.24673293081E+04 0.  0.
        2    1    3    3  502    0  0.79216197024E+01  0.99624592856E+03  0.60991430213E+03  0.11681456066E+04  0.25500000920E-02 0. -1.
       -2    1    3    3    0  502 -0.79216197024E+01 -0.99624592856E+03 -0.85222860569E+03  0.13110538885E+04  0.25500000920E-02 0.  1.
</event>
<event>
 5   0  0.1128166E-06  0.3670345E+04  0.7818609E-02  0.8074566E-01
       -2   -1    0    0    0  501  0.00000000000E+00  0.00000000000E+00  0.14897466293E+04  0.14897466293E+04  0.25500000920E-02 0.  1.
        2   -1    0    0  501    0  0.00000000000E+00  0.00000000000E+00 -0.22606917115E+04  0.22606917115E+04  0.25500000920E-02 0. -1.
    10030    2    1    2    0    0  0.00000000000E+00  0.00000000000E+00 -0.77094508212E+03  0.37504383408E+04  0.36703448651E+04 0.  0.
        3    1    3    3  502    0 -0.98289530500E+03 -0.15356980478E+04 -0.17258467814E+03  0.18314576588E+04  0.10100000352E+00 0.  1.
       -3    1    3    3    0  502  0.98289530500E+03  0.15356980478E+04 -0.59836040399E+03  0.19189806820E+04  0.10100000352E+00 0. -1.
</event>
<event>
 5   0  0.1066907E-06  0.3640864E+04  0.7818609E-02  0.8081195E-01
       -2   -1    0    0    0  501  0.00000000000E+00  0.00000000000E+00  0.16210914823E+04  0.16210914823E+04  0.25500000920E-02 0. -1.
        2   -1    0    0  501    0  0.00000000000E+00  0.00000000000E+00 -0.20442848725E+04  0.20442848725E+04  0.25500000920E-02 0.  1.
    10030    2    1    2    0    0  0.00000000000E+00  0.00000000000E+00 -0.42319339021E+03  0.36653763547E+04  0.36408640700E+04 0.  0.
        4    1    3    3  502    0  0.16329315696E+04 -0.65875430826E+03 -0.67682089941E+03  0.18864015724E+04  0.12699999809E+01 0.  1.
       -4    1    3    3    0  502 -0.16329315696E+04  0.65875430826E+03  0.25362750920E+03  0.17789747823E+04  0.12699999809E+01 0. -1.
</event>
<event>
 5   0  0.1128166E-06  0.3683108E+04  0.7818609E-02  0.8071716E-01
       -2   -1    0    0    0  501  0.00000000000E+00  0.00000000000E+00  0.14601200360E+04  0.14601200360E+04  0.25500000920E-02 0. -1.
        2   -1    0    0  501    0  0.00000000000E+00  0.00000000000E+00 -0.23226323064E+04  0.23226323064E+04  0.25500000920E-02 0.  1.
    10030    2    1    2    0    0  0.00000000000E+00  0.00000000000E+00 -0.86251227036E+03  0.37827523424E+04  0.36831084517E+04 0.  0.
        3    1    3    3  502    0 -0.17275615261E+03 -0.16870172629E+04  0.30611593473E+03  0.17232466188E+04  0.10100000352E+00 0. -1.
       -3    1    3    3    0  502  0.17275615261E+03  0.16870172629E+04 -0.11686282051E+04  0.20595057236E+04  0.10100000352E+00 0.  1.
</event>
<event>
 5   0  0.1066907E-06  0.3684061E+04  0.7818609E-02  0.8071503E-01
        2   -1    0    0  501    0  0.00000000000E+00  0.00000000000E+00  0.19824510666E+04  0.19824510666E+04  0.25500000920E-02 0. -1.
       -2   -1    0    0    0  501  0.00000000000E+00  0.00000000000E+00 -0.17115564200E+04  0.17115564200E+04  0.25500000920E-02 0.  1.
    10030    2    1    2    0    0  0.00000000000E+00  0.00000000000E+00  0.27089464657E+03  0.36940074867E+04  0.36840612647E+04 0.  0.
        4    1    3    3  502    0  0.31594825120E+03 -0.79431725681E+03  0.17715117632E+04  0.19669821407E+04  0.12699999809E+01 0. -1.
       -4    1    3    3    0  502 -0.31594825120E+03  0.79431725681E+03 -0.15006171166E+04  0.17270253459E+04  0.12699999809E+01 0.  1.
</event>
<event>
 5   0  0.1092116E-06  0.3664397E+04  0.7818609E-02  0.8075898E-01
       -2   -1    0    0    0  501  0.00000000000E+00  0.00000000000E+00  0.12619934815E+04  0.12619934815E+04  0.25500000920E-02 0.  1.
        2   -1    0    0  501    0  0.00000000000E+00  0.00000000000E+00 -0.26600387281E+04  0.26600387281E+04  0.25500000920E-02 0. -1.
    10030    2    1    2    0    0  0.00000000000E+00  0.00000000000E+00 -0.13980452467E+04  0.39220322096E+04  0.36643971048E+04 0.  0.
        1    1    3    3  502    0  0.59348229840E+03 -0.12530827378E+04 -0.19809428866E+04  0.24179686322E+04  0.50400001928E-02 0. -1.
       -1    1    3    3    0  502 -0.59348229840E+03  0.12530827378E+04  0.58289763999E+03  0.15040635774E+04  0.50400001928E-02 0.  1.
</event>
<event>
 5   0  0.3764495E-07  0.3742213E+04  0.7818609E-02  0.8058671E-01
       -1   -1    0    0    0  501  0.00000000000E+00  0.00000000000E+00  0.16225717126E+04  0.16225717126E+04  0.50400001928E-02 0. -1.
        1   -1    0    0  501    0  0.00000000000E+00  0.00000000000E+00 -0.21577105743E+04  0.21577105743E+04  0.50400001928E-02 0.  1.
    10030    2    1    2    0    0  0.00000000000E+00  0.00000000000E+00 -0.53513886172E+03  0.37802822869E+04  0.37422133246E+04 0.  0.
        4    1    3    3  502    0 -0.69514479232E+03  0.38268854557E+03 -0.19793167009E+04  0.21324570384E+04  0.12699999809E+01 0.  1.
       -4    1    3    3    0  502  0.69514479232E+03 -0.38268854557E+03  0.14441778392E+04  0.16478252484E+04  0.12699999809E+01 0. -1.
</event>
<event>
 5   0  0.1128166E-06  0.3726470E+04  0.7818609E-02  0.8062121E-01
        2   -1    0    0  501    0  0.00000000000E+00  0.00000000000E+00  0.12128022003E+04  0.12128022003E+04  0.25500000920E-02 0.  1.
       -2   -1    0    0    0  501  0.00000000000E+00  0.00000000000E+00 -0.28624981221E+04  0.28624981221E+04  0.25500000920E-02 0. -1.
    10030    2    1    2    0    0  0.00000000000E+00  0.00000000000E+00 -0.16496959218E+04  0.40753003225E+04  0.37264696542E+04 0.  0.
        3    1    3    3  502    0  0.14558286953E+04 -0.11628218425E+04 -0.81694794295E+03  0.20344522061E+04  0.10100000352E+00 0.  1.
       -3    1    3    3    0  502 -0.14558286953E+04  0.11628218425E+04 -0.83274797885E+03  0.20408481163E+04  0.10100000352E+00 0. -1.
</event>
<event>
 5   0  0.1128530E-06  0.2378214E+04  0.7818609E-02  0.8447705E-01
       -2   -1    0    0    0  501  0.00000000000E+00  0.00000000000E+00  0.76286719379E+03  0.76286719379E+03  0.25500000920E-02 0. -1.
        2   -1    0    0  501    0  0.00000000000E+00  0.00000000000E+00 -0.18535010372E+04  0.18535010372E+04  0.25500000920E-02 0.  1.
    10030    2    1    2    0    0  0.00000000000E+00  0.00000000000E+00 -0.10906338434E+04  0.26163682310E+04  0.23782137288E+04 0.  0.
        5    1    3    3  502    0 -0.64184162614E+03  0.82408962777E+03 -0.11704333739E+04  0.15687640869E+04  0.46999998093E+01 0. -1.
       -5    1    3    3    0  502  0.64184162614E+03 -0.82408962777E+03  0.79799530475E+02  0.10476041441E+04  0.46999998093E+01 0.  1.
</event>
<event>
 5   0  0.3704306E-07  0.3713737E+04  0.7818609E-02  0.8064924E-01
       -1   -1    0    0    0  501  0.00000000000E+00  0.00000000000E+00  0.14517662730E+04  0.14517662730E+04  0.50400001928E-02 0. -1.
        1   -1    0    0  501    0  0.00000000000E+00  0.00000000000E+00 -0.23750107112E+04  0.23750107112E+04  0.50400001928E-02 0.  1.
    10030    2    1    2    0    0  0.00000000000E+00  0.00000000000E+00 -0.92324443819E+03  0.38267769841E+04  0.37137369042E+04 0.  0.
        3    1    3    3  502    0 -0.14780128248E+04  0.10870650831E+04 -0.16703931258E+03  0.18423177108E+04  0.10100000352E+00 0. -1.
       -3    1    3    3    0  502  0.14780128248E+04 -0.10870650831E+04 -0.75620512561E+03  0.19844592733E+04  0.10100000352E+00 0.  1.
</event>
<event>
 5   0  0.3764495E-07  0.3673278E+04  0.7818609E-02  0.8073910E-01
       -1   -1    0    0    0  501  0.00000000000E+00  0.00000000000E+00  0.12652190274E+04  0.12652190274E+04  0.50400001928E-02 0. -1.
        1   -1    0    0  501    0  0.00000000000E+00  0.00000000000E+00 -0.26661334433E+04  0.26661334433E+04  0.50400001928E-02 0.  1.
    10030    2    1    2    0    0  0.00000000000E+00  0.00000000000E+00 -0.14009144159E+04  0.39313524707E+04  0.36732779705E+04 0.  0.
        4    1    3    3  502    0  0.11123329752E+02 -0.15208986856E+04  0.40143209817E+03  0.15730244380E+04  0.12699999809E+01 0. -1.
       -4    1    3    3    0  502 -0.11123329752E+02  0.15208986856E+04 -0.18023465140E+04  0.23583280327E+04  0.12699999809E+01 0.  1.
</event>
<event>
 5   0  0.1066907E-06  0.3677222E+04  0.7818609E-02  0.8073029E-01
        2   -1    0    0  501    0  0.00000000000E+00  0.00000000000E+00  0.16946845532E+04  0.16946845532E+04  0.25500000920E-02 0. -1.
       -2   -1    0    0    0  501  0.00000000000E+00  0.00000000000E+00 -0.19947609029E+04  0.19947609029E+04  0.25500000920E-02 0.  1.
    10030    2    1    2    0    0  0.00000000000E+00  0.00000000000E+00 -0.30007634972E+03  0.36894454561E+04  0.36772220436E+04 0.  0.
        4    1    3    3  502    0 -0.80383033105E+03 -0.10301025119E+04 -0.14478736571E+04  0.19502805249E+04  0.12699999809E+01 0.  1.
       -4    1    3    3    0  502  0.80383033105E+03  0.10301025119E+04  0.11477973074E+04  0.17391649312E+04  0.12699999809E+01 0. -1.
</event>
<event>
 5   0  0.3704306E-07  0.3698082E+04  0.7818609E-02  0.8068387E-01
        1   -1    0    0  501    0  0.00000000000E+00  0.00000000000E+00  0.22693110209E+04  0.22693110210E+04  0.50400001928E-02 0. -1.
       -1   -1    0    0    0  501  0.00000000000E+00  0.00000000000E+00 -0.15066035846E+04  0.15066035846E+04  0.50400001928E-02 0.  1.
    10030    2    1    2    0    0  0.00000000000E+00  0.00000000000E+00  0.76270743637E+03  0.37759146055E+04  0.36980817291E+04 0.  0.
        3    1    3    3  502    0  0.15153157276E+04  0.35126707751E+03  0.14020848854E+04  0.20941376149E+04  0.10100000352E+00 0. -1.
       -3    1    3    3    0  502 -0.15153157276E+04 -0.35126707751E+03 -0.63937744902E+03  0.16817769907E+04  0.10100000352E+00 0.  1.
</event>
<event>
 5   0  0.1128530E-06  0.3708595E+04  0.7818609E-02  0.8066060E-01
        2   -1    0    0  501    0  0.00000000000E+00  0.00000000000E+00  0.21326453780E+04  0.21326453780E+04  0.25500000920E-02 0. -1.
       -2   -1    0    0    0  501  0.00000000000E+00  0.00000000000E+00 -0.16122791261E+04  0.16122791261E+04  0.25500000920E-02 0.  1.
    10030    2    1    2    0    0  0.00000000000E+00  0.00000000000E+00  0.52036625194E+03  0.37449245041E+04  0.37085952199E+04 0.  0.
        5    1    3    3  502    0  0.11692828440E+02  0.16719983634E+04  0.10697109827E+04  0.19849480915E+04  0.46999998093E+01 0. -1.
       -5    1    3    3    0  502 -0.11692828440E+02 -0.16719983634E+04 -0.54934473079E+03  0.17599764126E+04  0.46999998093E+01 0.  1.
</event>
<event>
 5   0  0.1051123E-06  0.3625115E+04  0.7818609E-02  0.8084763E-01
       -2   -1    0    0    0  501  0.00000000000E+00  0.00000000000E+00  0.25326654677E+04  0.25326654677E+04  0.25500000920E-02 0.  1.
        2   -1    0    0  501    0  0.00000000000E+00  0.00000000000E+00 -0.12971962330E+04  0.12971962330E+04  0.25500000920E-02 0. -1.
    10030    2    1    2    0    0  0.00000000000E+00  0.00000000000E+00  0.12354692347E+04  0.38298617008E+04  0.36251146764E+04 0.  0.
        2    1    3    3  502    0  0.11632475262E+04 -0.92797826311E+03 -0.47564610651E+03  0.15622188332E+04  0.25500000920E-02 0. -1.
       -2    1    3    3    0  502 -0.11632475262E+04  0.92797826311E+03  0.17111153412E+04  0.22676428676E+04  0.25500000920E-02 0.  1.
</event>
<event>
 5   0  0.1128530E-06  0.3706591E+04  0.7818609E-02  0.8066503E-01
       -2   -1    0    0    0  501  0.00000000000E+00  0.00000000000E+00  0.15221910598E+04  0.15221910598E+04  0.25500000920E-02 0.  1.
        2   -1    0    0  501    0  0.00000000000E+00  0.00000000000E+00 -0.22564208264E+04  0.22564208264E+04  0.25500000920E-02 0. -1.
    10030    2    1    2    0    0  0.00000000000E+00  0.00000000000E+00 -0.73422976659E+03  0.37786118862E+04  0.37065906755E+04 0.  0.
        5    1    3    3  502    0  0.76859145792E+03 -0.13148880944E+04  0.70934684670E+03  0.16801364733E+04  0.46999998093E+01 0.  1.
       -5    1    3    3    0  502 -0.76859145792E+03  0.13148880944E+04 -0.14435766133E+04  0.20984754129E+04  0.46999998093E+01 0. -1.
</event>
<event>
 5   0  0.3675819E-07  0.3732816E+04  0.7818609E-02  0.8060728E-01
       -1   -1    0    0    0  501  0.00000000000E+00  0.00000000000E+00  0.14928206647E+04  0.14928206647E+04  0.50400001928E-02 0. -1.
        1   -1    0    0  501    0  0.00000000000E+00  0.00000000000E+00 -0.23334874174E+04  0.23334874174E+04  0.50400001928E-02 0.  1.
    10030    2    1    2    0    0  0.00000000000E+00  0.00000000000E+00 -0.84066675276E+03  0.38263080821E+04  0.37328156866E+04 0.  0.
        5    1    3    3  502    0 -0.94427871359E+03  0.15457035714E+04  0.41044780184E+02  0.18117860204E+04  0.46999998093E+01 0.  1.
       -5    1    3    3    0  502  0.94427871359E+03 -0.15457035714E+04 -0.88171153295E+03  0.20145220617E+04  0.46999998093E+01 0. -1.
</event>
<event>
 5   0  0.3764495E-07  0.3644212E+04  0.7818609E-02  0.8080439E-01
        1   -1    0    0  501    0  0.00000000000E+00  0.00000000000E+00  0.19488853484E+04  0.19488853484E+04  0.50400001928E-02 0. -1.
       -1   -1    0    0    0  501  0.00000000000E+00  0.00000000000E+00 -0.17035736640E+04  0.17035736640E+04  0.50400001928E-02 0.  1.
    10030    2    1    2    0    0  0.00000000000E+00  0.00000000000E+00  0.24531168438E+03  0.36524590124E+04  0.36442117137E+04 0.  0.
        4    1    3    3  502    0 -0.16016535291E+04 -0.21666075323E+03  0.96588752996E+03  0.18828638407E+04  0.12699999809E+01 0. -1.
       -4    1    3    3    0  502  0.16016535291E+04  0.21666075323E+03 -0.72057584558E+03  0.17695951716E+04  0.12699999809E+01 0.  1.
</event>
<event>
 5   0  0.1128166E-06  0.2472819E+04  0.7818609E-02  0.8412733E-01
        2   -1    0    0  501    0  0.00000000000E+00  0.00000000000E+00  0.19187560487E+04  0.19187560488E+04  0.25500000920E-02 0. -1.
       -2   -1    0    0    0  501  0.00000000000E+00  0.00000000000E+00 -0.79671870073E+03  0.79671870074E+03  0.25500000920E-02 0.  1.
    10030    2    1    2    0    0  0.00000000000E+00  0.00000000000E+00  0.11220373480E+04  0.27154747495E+04  0.24728193029E+04 0.  0.
        3    1    3    3  502    0  0.78151400749E+03 -0.52569026740E+03 -0.31857819325E+03  0.99428691863E+03  0.10100000352E+00 0.  1.
       -3    1    3    3    0  502 -0.78151400749E+03  0.52569026740E+03  0.14406155413E+04  0.17211878309E+04  0.10100000352E+00 0. -1.
</event>
<event>
 5   0  0.3848431E-07  0.3713915E+04  0.7818609E-02  0.8064885E-01
        1   -1    0    0  501    0  0.00000000000E+00  0.00000000000E+00  0.21446695185E+04  0.21446695185E+04  0.50400001928E-02 0.  1.
       -1   -1    0    0    0  501  0.00000000000E+00  0.00000000000E+00 -0.16078429821E+04  0.16078429821E+04  0.50400001928E-02 0. -1.
    10030    2    1    2    0    0  0.00000000000E+00  0.00000000000E+00  0.53682653638E+03  0.37525125006E+04  0.37139153648E+04 0.  0.
        2    1    3    3  502    0 -0.14271644381E+04 -0.14216216621E+03  0.14601983638E+04  0.20467505164E+04  0.25500000920E-02 0. -1.
       -2    1    3    3    0  502  0.14271644381E+04  0.14216216621E+03 -0.92337182742E+03  0.17057619841E+04  0.25500000920E-02 0.  1.
</event>
<event>
 5   0  0.1066907E-06  0.3762701E+04  0.7818609E-02  0.8054207E-01
       -2   -1    0    0    0  501  0.00000000000E+00  0.00000000000E+00  0.20861419754E+04  0.20861419754E+04  0.25500000920E-02 0.  1.
        2   -1    0    0  501    0  0.00000000000E+00  0.00000000000E+00 -0.16966631563E+04  0.16966631563E+04  0.25500000920E-02 0. -1.
    10030    2    1    2    0    0  0.00000000000E+00  0.00000000000E+00  0.38947881905E+03  0.37828051317E+04  0.37627012789E+04 0.  0.
        4    1    3    3  502    0  0.49846454177E+03 -0.13720440847E+04  0.13878856967E+04  0.20142492869E+04  0.12699999809E+01 0.  1.
       -4    1    3    3    0  502 -0.49846454177E+03  0.13720440847E+04 -0.99840687765E+03  0.17685558448E+04  0.12699999809E+01 0. -1.
</event>
<event>
 5   0  0.3764495E-07  0.3653182E+04  0.7818609E-02  0.8078417E-01
       -1   -1    0    0    0  501  0.00000000000E+00  0.00000000000E+00  0.22475198775E+04  0.22475198775E+04  0.50400001928E-02 0. -1.
        1   -1    0    0  501    0  0.00000000000E+00  0.00000000000E+00 -0.14844960285E+04  0.14844960285E+04  0.50400001928E-02 0.  1.
    10030    2    1    2    0    0  0.00000000000E+00  0.00000000000E+00  0.76302384904E+03  0.37320159061E+04  0.36531818089E+04 0.  0.
        4    1    3    3  502    0  0.15425825918E+04 -0.93436852956E+03  0.85734878924E+02  0.18055352901E+04  0.12699999809E+01 0.  1.
       -4    1    3    3    0  502 -0.15425825918E+04  0.93436852956E+03  0.67728897011E+03  0.19264806159E+04  0.12699999809E+01 0. -1.
</event>
<event>
 5   0  0.3682276E-07  0.3631138E+04  0.7818609E-02  0.8083396E-01
        1   -1    0    0  501    0  0.00000000000E+00  0.00000000000E+00  0.15995814024E+04  0.15995814024E+04  0.50400001928E-02 0. -1.
       -1   -1    0    0    0  501  0.00000000000E+00  0.00000000000E+00 -0.20607210699E+04  0.20607210699E+04  0.50400001928E-02 0.  1.
    10030    2    1    2    0    0  0.00000000000E+00  0.00000000000E+00 -0.46113966755E+03  0.36603024723E+04  0.36311381681E+04 0.  0.
        1    1    3    3  502    0  0.26040196367E+03 -0.13072466516E+04 -0.14731864130E+04  0.19867010843E+04  0.50400001928E-02 0.  1.
       -1    1    3    3    0  502 -0.26040196367E+03  0.13072466516E+04  0.10120467455E+04  0.16736013880E+04  0.50400001928E-02 0. -1.
</event>
<event>
 5   0  0.3675819E-07  0.3743188E+04  0.7818609E-02  0.8058458E-01
        1   -1    0    0  501    0  0.00000000000E+00  0.00000000000E+00  0.23024509043E+04  0.23024509043E+04  0.50400001928E-02 0. -1.
       -1   -1    0    0    0  501  0.00000000000E+00  0.00000000000E+00 -0.15213629380E+04  0.15213629380E+04  0.50400001928E-02 0.  1.
    10030    2    1    2    0    0  0.00000000000E+00  0.00000000000E+00  0.78108796624E+03  0.38238138423E+04  0.37431876642E+04 0.  0.
        5    1    3    3  502    0  0.55642372988E+03 -0.17090819237E+04 -0.14249309908E+03  0.18030237831E+04  0.46999998093E+01 0.  1.
       -5    1    3    3    0  502 -0.55642372988E+03  0.17090819237E+04  0.92358106531E+03  0.20207900592E+04  0.46999998093E+01 0. -1.
</event>
<event>
 5   0  0.3704306E-07  0.3535846E+04  0.7818609E-02  0.8105347E-01
       -1   -1    0    0    0  501  0.00000000000E+00  0.00000000000E+00  0.10783893341E+04  0.10783893341E+04  0.50400001928E-02 0. -1.
        1   -1    0    0  501    0  0.00000000000E+00  0.00000000000E+00 -0.28983510741E+04  0.28983510741E+04  0.50400001928E-02 0.  1.
    10030    2    1    2    0    0  0.00000000000E+00  0.00000000000E+00 -0.18199617401E+04  0.39767404082E+04  0.35358455197E+04 0.  0.
        3    1    3    3  502    0  0.51607352049E+03 -0.73234628339E+03  0.80416622566E+03  0.12038879873E+04  0.10100000352E+00 0. -1.
       -3    1    3    3    0  502 -0.51607352049E+03  0.73234628339E+03 -0.26241279657E+04  0.27728524209E+04  0.10100000352E+00 0.  1.
</event>
<event>
 5   0  0.1051123E-06  0.2435132E+04  0.7818609E-02  0.8426467E-01
        2   -1    0    0  501    0  0.00000000000E+00  0.00000000000E+00  0.12552001141E+04  0.12552001141E+04  0.25500000920E-02 0. -1.
       -2   -1    0    0    0  501  0.00000000000E+00  0.00000000000E+00 -0.11810603166E+04  0.11810603166E+04  0.25500000920E-02 0.  1.
    10030    2    1    2    0    0  0.00000000000E+00  0.00000000000E+00  0.74139797472E+02  0.24362604308E+04  0.24351320656E+04 0.  0.
        2    1    3    3  502    0  0.46968561573E+02  0.30272782902E+03  0.12160118153E+04  0.12540075435E+04  0.25500000920E-02 0. -1.
       -2    1    3    3    0  502 -0.46968561573E+02 -0.30272782902E+03 -0.11418720178E+04  0.11822528872E+04  0.25500000920E-02 0.  1.
</event>
<event>
 5   0  0.3764495E-07  0.3692956E+04  0.7818609E-02  0.8069525E-01
       -1   -1    0    0    0  501  0.00000000000E+00  0.00000000000E+00  0.14754359544E+04  0.14754359544E+04  0.50400001928E-02 0.  1.
        1   -1    0    0  501    0  0.00000000000E+00  0.00000000000E+00 -0.23108300849E+04  0.23108300850E+04  0.50400001928E-02 0. -1.
    10030    2    1    2    0    0  0.00000000000E+00  0.00000000000E+00 -0.83539413051E+03  0.37862660394E+04  0.36929564265E+04 0.  0.
        4    1    3    3  502    0  0.10586756813E+04  0.12629366181E+04 -0.12716139776E+04  0.20815395313E+04  0.12699999809E+01 0. -1.
       -4    1    3    3    0  502 -0.10586756813E+04 -0.12629366181E+04  0.43621984708E+03  0.17047265081E+04  0.12699999809E+01 0.  1.
</event>
<event>
 5   0  0.1128166E-06  0.3689685E+04  0.7818609E-02  0.8070252E-01
       -2   -1    0    0    0  501  0.00000000000E+00  0.00000000000E+00  0.15982695229E+04  0.15982695229E+04  0.25500000920E-02 0. -1.
        2   -1    0    0  501    0  0.00000000000E+00  0.00000000000E+00 -0.21294551168E+04  0.21294551168E+04  0.25500000920E-02 0.  1.
    10030    2    1    2    0    0  0.00000000000E+00  0.00000000000E+00 -0.53118559397E+03  0.37277246397E+04  0.36896846551E+04 0.  0.
        3    1    3    3  502    0  0.18085157517E+04 -0.24596492266E+03  0.59066763704E+01  0.18251747496E+04  0.10100000352E+00 0. -1.
       -3    1    3    3    0  502 -0.18085157517E+04  0.24596492266E+03 -0.53709227034E+03  0.19025498901E+04  0.10100000352E+00 0.  1.
</event>
<event>
 5   0  0.1066907E-06  0.3730709E+04  0.7818609E-02  0.8061190E-01
       -2   -1    0    0    0  501  0.00000000000E+00  0.00000000000E+00  0.18304085764E+04  0.18304085764E+04  0.25500000920E-02 0.  1.
        2   -1    0    0  501    0  0.00000000000E+00  0.00000000000E+00 -0.19009677065E+04  0.19009677065E+04  0.25500000920E-02 0. -1.
    10030    2    1    2    0    0  0.00000000000E+00  0.00000000000E+00 -0.70559130081E+02  0.37313762829E+04  0.37307090980E+04 0.  0.
        4    1    3    3  502    0 -0.18554945192E+04  0.74661772226E+00 -0.22684844232E+03  0.18693106475E+04  0.12699999809E+01 0. -1.
       -4    1    3    3    0  502  0.18554945192E+04 -0.74661772226E+00  0.15628931223E+03  0.18620656353E+04  0.12699999809E+01 0.  1.
</event>
<event>
 5   0  0.3704306E-07  0.3707846E+04  0.7818609E-02  0.8066225E-01
        1   -1    0    0  501    0  0.00000000000E+00  0.00000000000E+00  0.10512792369E+04  0.10512792369E+04  0.50400001928E-02 0.  1.
       -1   -1    0    0    0  501  0.00000000000E+00  0.00000000000E+00 -0.32693790371E+04  0.32693790371E+04  0.50400001928E-02 0. -1.
    10030    2    1    2    0    0  0.00000000000E+00  0.00000000000E+00 -0.22180998003E+04  0.43206582740E+04  0.37078458972E+04 0.  0.
        3    1    3    3  502    0 -0.40770363950E+03 -0.86124382978E+02  0.99600183294E+03  0.10796570420E+04  0.10100000352E+00 0.  1.
       -3    1    3    3    0  502  0.40770363950E+03  0.86124382978E+02 -0.32141016332E+04  0.32410012320E+04  0.10100000352E+00 0. -1.
</event>
<event>
 5   0  0.1128530E-06  0.3376322E+04  0.7818609E-02  0.8143742E-01
       -2   -1    0    0    0  501  0.00000000000E+00  0.00000000000E+00  0.99292000335E+03  0.99292000336E+03  0.25500000920E-02 0. -1.
        2   -1    0    0  501    0  0.00000000000E+00  0.00000000000E+00 -0.28702094661E+04  0.28702094661E+04  0.25500000920E-02 0.  1.
    10030    2    1    2    0    0  0.00000000000E+00  0.00000000000E+00 -0.18772894627E+04  0.38631294694E+04  0.33763224921E+04 0.  0.
        5    1    3    3  502    0 -0.11587710253E+04  0.11522947466E+04 -0.14231798316E+04  0.21670247796E+04  0.46999998093E+01 0.  1.
       -5    1    3    3    0  502  0.11587710253E+04 -0.11522947466E+04 -0.45410963109E+03  0.16961046899E+04  0.46999998093E+01 0. -1.
</event>
<event>
 5   0  0.1092116E-06  0.3627753E+04  0.7818609E-02  0.8084164E-01
        2   -1    0    0  501    0  0.00000000000E+00  0.00000000000E+00  0.11524403076E+04  0.11524403076E+04  0.25500000920E-02 0.  1.
       -2   -1    0    0    0  501  0.00000000000E+00  0.00000000000E+00 -0.28549392969E+04  0.28549392969E+04  0.25500000920E-02 0. -1.
    10030    2    1    2    0    0  0.00000000000E+00  0.00000000000E+00 -0.17024989893E+04  0.40073796046E+04  0.36277525393E+04 0.  0.
        1    1    3    3  502    0  0.18462716166E+03 -0.15987948931E+04  0.72906796291E+02  0.16110703585E+04  0.50400001928E-02 0.  1.
       -1    1    3    3    0  502 -0.18462716166E+03  0.15987948931E+04 -0.17754057856E+04  0.23963092461E+04  0.50400001928E-02 0. -1.
</event>
<event>
 5   0  0.1128166E-06  0.3568831E+04  0.7818609E-02  0.8097669E-01
        2   -1    0    0  501    0  0.00000000000E+00  0.00000000000E+00  0.11521593709E+04  0.11521593709E+04  0.25500000920E-02 0.  1.
       -2   -1    0    0    0  501  0.00000000000E+00  0.00000000000E+00 -0.27636269035E+04  0.27636269035E+04  0.25500000920E-02 0. -1.
    10030    2    1    2    0    0  0.00000000000E+00  0.00000000000E+00 -0.16114675326E+04  0.39157862743E+04  0.35688309763E+04 0.  0.
        3    1    3    3  502    0  0.58278240412E+03  0.50221401722E+03  0.96085034883E+03  0.12308889685E+04  0.10100000352E+00 0.  1.
       -3    1    3    3    0  502 -0.58278240412E+03 -0.50221401722E+03 -0.25723178815E+04  0.26848973059E+04  0.10100000352E+00 0. -1.
</event>
<event>
 5   0  0.3682276E-07  0.3733340E+04  0.7818609E-02  0.8060613E-01
        1   -1    0    0  501    0  0.00000000000E+00  0.00000000000E+00  0.12459771911E+04  0.12459771911E+04  0.50400001928E-02 0. -1.
       -1   -1    0    0    0  501  0.00000000000E+00  0.00000000000E+00 -0.27965654926E+04  0.27965654926E+04  0.50400001928E-02 0.  1.
    10030    2    1    2    0    0  0.00000000000E+00  0.00000000000E+00 -0.15505883015E+04  0.40425426837E+04  0.37333399616E+04 0.  0.
        1    1    3    3  502    0 -0.64778131594E+03  0.10913984719E+04 -0.22574894446E+04  0.25897933991E+04  0.50400001928E-02 0.  1.
       -1    1    3    3    0  502  0.64778131594E+03 -0.10913984719E+04  0.70690114308E+03  0.14527492846E+04  0.50400001928E-02 0. -1.
</event>
<event>
 5   0  0.3848431E-07  0.2483207E+04  0.7818609E-02  0.8408993E-01
        1   -1    0    0  501    0  0.00000000000E+00  0.00000000000E+00  0.55062171275E+03  0.55062171277E+03  0.50400001928E-02 0.  1.
       -1   -1    0    0    0  501  0.00000000000E+00  0.00000000000E+00 -0.27997072345E+04  0.27997072345E+04  0.50400001928E-02 0. -1.
    10030    2    1    2    0    0  0.00000000000E+00  0.00000000000E+00 -0.22490855217E+04  0.33503289472E+04  0.24832072750E+04 0.  0.
        2    1    3    3  502    0  0.54705842434E+03  0.11131956312E+04 -0.10493966410E+04  0.16247186658E+04  0.25500000920E-02 0. -1.
       -2    1    3    3    0  502 -0.54705842434E+03 -0.11131956312E+04 -0.11996888808E+04  0.17256102815E+04  0.25500000920E-02 0.  1.
</event>
<event>
 5   0  0.1092116E-06  0.3649439E+04  0.7818609E-02  0.8079260E-01
        2   -1    0    0  501    0  0.00000000000E+00  0.00000000000E+00  0.11213768685E+04  0.11213768685E+04  0.25500000920E-02 0. -1.
       -2   -1    0    0    0  501  0.00000000000E+00  0.00000000000E+00 -0.29692073450E+04  0.29692073450E+04  0.25500000920E-02 0.  1.
    10030    2    1    2    0    0  0.00000000000E+00  0.00000000000E+00 -0.18478304765E+04  0.40905842135E+04  0.36494385511E+04 0.  0.
        1    1    3    3  502    0 -0.13545662561E+03  0.12625952092E+04 -0.23926985982E+04  0.27087823356E+04  0.50400001928E-02 0.  1.
       -1    1    3    3    0  502  0.13545662561E+03 -0.12625952092E+04  0.54486812174E+03  0.13818018779E+04  0.50400001928E-02 0. -1.
</event>
<event>
 5   0  0.1128166E-06  0.3612040E+04  0.7818609E-02  0.8087739E-01
        2   -1    0    0  501    0  0.00000000000E+00  0.00000000000E+00  0.14181446991E+04  0.14181446991E+04  0.25500000920E-02 0.  1.
       -2   -1    0    0    0  501  0.00000000000E+00  0.00000000000E+00 -0.22999822413E+04  0.22999822413E+04  0.25500000920E-02 0. -1.
    10030    2    1    2    0    0  0.00000000000E+00  0.00000000000E+00 -0.88183754223E+03  0.37181269404E+04  0.36120396585E+04 0.  0.
        3    1    3    3  502    0  0.16881499124E+03 -0.16948932818E+04 -0.10590091292E+04  0.20056575190E+04  0.10100000352E+00 0. -1.
       -3    1    3    3    0  502 -0.16881499124E+03  0.16948932818E+04  0.17717158693E+03  0.17124694214E+04  0.10100000352E+00 0.  1.
</event>
<event>
 5   0  0.3675819E-07  0.3698577E+04  0.7818609E-02  0.8068277E-01
       -1   -1    0    0    0  501  0.00000000000E+00  0.00000000000E+00  0.15346962127E+04  0.15346962127E+04  0.50400001928E-02 0.  1.
        1   -1    0    0  501    0  0.00000000000E+00  0.00000000000E+00 -0.22283677217E+04  0.22283677217E+04  0.50400001928E-02 0. -1.
    10030    2    1    2    0    0  0.00000000000E+00  0.00000000000E+00 -0.69367150907E+03  0.37630639344E+04  0.36985767549E+04 0.  0.
        5    1    3    3  502    0  0.18371724666E+04 -0.18827593107E+03 -0.44439778157E+03  0.18995162480E+04  0.46999998093E+01 0. -1.
       -5    1    3    3    0  502 -0.18371724666E+04  0.18827593107E+03 -0.24927372750E+03  0.18635476864E+04  0.46999998093E+01 0.  1.
</event>
<event>
 5   0  0.1128166E-06  0.3737836E+04  0.7818609E-02  0.8059628E-01
        2   -1    0    0  501    0  0.00000000000E+00  0.00000000000E+00  0.21547479664E+04  0.21547479664E+04  0.25500000920E-02 0.  1.
       -2   -1    0    0    0  501  0.00000000000E+00  0.00000000000E+00 -0.16210038637E+04  0.16210038637E+04  0.25500000920E-02 0. -1.
    10030    2    1    2    0    0  0.00000000000E+00  0.00000000000E+00  0.53374410268E+03  0.37757518300E+04  0.37378361541E+04 0.  0.
        3    1    3    3  502    0  0.15013224228E+04 -0.59463597104E+03 -0.68357274172E+03  0.17535200765E+04  0.10100000352E+00 0. -1.
       -3    1    3    3    0  502 -0.15013224228E+04  0.59463597104E+03  0.12173168444E+04  0.20222317535E+04  0.10100000352E+00 0.  1.
</event>
<event>
 5   0  0.3764495E-07  0.3704515E+04  0.7818609E-02  0.8066962E-01
        1   -1    0    0  501    0  0.00000000000E+00  0.00000000000E+00  0.16556847563E+04  0.16556847563E+04  0.50400001928E-02 0. -1.
       -1   -1    0    0    0  501  0.00000000000E+00  0.00000000000E+00 -0.20721683654E+04  0.20721683654E+04  0.50400001928E-02 0.  1.
    10030    2    1    2    0    0  0.00000000000E+00  0.00000000000E+00 -0.41648360906E+03  0.37278531217E+04  0.37045148536E+04 0.  0.
        4    1    3    3  502    0  0.11710269916E+04 -0.49267645136E+02  0.12350619284E+04  0.17026776253E+04  0.12699999809E+01 0. -1.
       -4    1    3    3    0  502 -0.11710269916E+04  0.49267645136E+02 -0.16515455374E+04  0.20251754964E+04  0.12699999809E+01 0.  1.
</event>
<event>
 5   0  0.3764495E-07  0.3770104E+04  0.7818609E-02  0.8052601E-01
       -1   -1    0    0    0  501  0.00000000000E+00  0.00000000000E+00  0.14993968715E+04  0.14993968715E+04  0.50400001928E-02 0. -1.
        1   -1    0    0  501    0  0.00000000000E+00  0.00000000000E+00 -0.23699004539E+04  0.23699004539E+04  0.50400001928E-02 0.  1.
    10030    2    1    2    0    0  0.00000000000E+00  0.00000000000E+00 -0.87050358238E+03  0.38692973253E+04  0.37701041504E+04 0.  0.
        4    1    3    3  502    0 -0.11221505757E+04  0.14956289529E+04 -0.68090651383E+03  0.19899153683E+04  0.12699999809E+01 0.  1.
       -4    1    3    3    0  502  0.11221505757E+04 -0.14956289529E+04 -0.18959706855E+03  0.18793819571E+04  0.12699999809E+01 0. -1.
</event>
<event>
 5   0  0.1128166E-06  0.3564939E+04  0.7818609E-02  0.8098570E-01
       -2   -1    0    0    0  501  0.00000000000E+00  0.00000000000E+00  0.13628721983E+04  0.13628721983E+04  0.25500000920E-02 0.  1.
        2   -1    0    0  501    0  0.00000000000E+00  0.00000000000E+00 -0.23312511019E+04  0.23312511019E+04  0.25500000920E-02 0. -1.
    10030    2    1    2    0    0  0.00000000000E+00  0.00000000000E+00 -0.96837890367E+03  0.36941233002E+04  0.35649388853E+04 0.  0.
        3    1    3    3  502    0  0.75557640718E+03  0.82842205824E+03 -0.19200491421E+04  0.22234584619E+04  0.10100000352E+00 0. -1.
       -3    1    3    3    0  502 -0.75557640718E+03 -0.82842205824E+03  0.95167023841E+03  0.14706648383E+04  0.10100000352E+00 0.  1.
</event>
<event>
 5   0  0.3675819E-07  0.3701603E+04  0.7818609E-02  0.8067607E-01
        1   -1    0    0  501    0  0.00000000000E+00  0.00000000000E+00  0.17642591199E+04  0.17642591199E+04  0.50400001928E-02 0.  1.
       -1   -1    0    0    0  501  0.00000000000E+00  0.00000000000E+00 -0.19415895412E+04  0.19415895412E+04  0.50400001928E-02 0. -1.
    10030    2    1    2    0    0  0.00000000000E+00  0.00000000000E+00 -0.17733042127E+03  0.37058486612E+04  0.37016034662E+04 0.  0.
        5    1    3    3  502    0 -0.24474057916E+03 -0.17597124815E+04 -0.60787255192E+03  0.18777691812E+04  0.46999998093E+01 0.  1.
       -5    1    3    3    0  502  0.24474057916E+03  0.17597124815E+04  0.43054213065E+03  0.18280794799E+04  0.46999998093E+01 0. -1.
</event>
<event>
 5   0  0.3682276E-07  0.2608189E+04  0.7818609E-02  0.8365425E-01
        1   -1    0    0  501    0  0.00000000000E+00  0.00000000000E+00  0.16447953417E+04  0.16447953417E+04  0.50400001928E-02 0. -1.
       -1   -1    0    0    0  501  0.00000000000E+00  0.00000000000E+00 -0.10339656846E+04  0.10339656846E+04  0.50400001928E-02 0.  1.
    10030    2    1    2    0    0  0.00000000000E+00  0.00000000000E+00  0.61082965705E+03  0.26787610263E+04  0.26081885987E+04 0.  0.
        1    1    3    3  502    0  0.40772811662E+03  0.32444850532E+03 -0.92240410408E+03  0.10594047295E+04  0.50400001928E-02 0.  1.
       -1    1    3    3    0  502 -0.40772811662E+03 -0.32444850532E+03  0.15332337611E+04  0.16193562968E+04  0.50400001928E-02 0. -1.
</event>
<event>
 5   0  0.3764495E-07  0.2493390E+04  0.7818609E-02  0.8405344E-01
        1   -1    0    0  501    0  0.00000000000E+00  0.00000000000E+00  0.13665796909E+04  0.13665796910E+04  0.50400001928E-02 0. -1.
       -1   -1    0    0    0  501  0.00000000000E+00  0.00000000000E+00 -0.11373268682E+04  0.11373268683E+04  0.50400001928E-02 0.  1.
    10030    2    1    2    0    0  0.00000000000E+00  0.00000000000E+00  0.22925282270E+03  0.25039065592E+04  0.24933895004E+04 0.  0.
        4    1    3    3  502    0  0.54621512056E+03  0.10311279964E+04 -0.32616727035E+03  0.12115950660E+04  0.12699999809E+01 0.  1.
       -4    1    3    3    0  502 -0.54621512056E+03 -0.10311279964E+04  0.55542009306E+03  0.12923114932E+04  0.12699999809E+01 0. -1.
</event>
<event>
 5   0  0.1051123E-06  0.2714843E+04  0.7818609E-02  0.8330205E-01
       -2   -1    0    0    0  501  0.00000000000E+00  0.00000000000E+00  0.94536913989E+03  0.94536913989E+03  0.25500000920E-02 0.  1.
        2   -1    0    0  501    0  0.00000000000E+00  0.00000000000E+00 -0.19490732085E+04  0.19490732085E+04  0.25500000920E-02 0. -1.
    10030    2    1    2    0    0  0.00000000000E+00  0.00000000000E+00 -0.10037040686E+04  0.28944423484E+04  0.27148433934E+04 0.  0.
        2    1    3    3  502    0 -0.13447021580E+04 -0.31642161687E+02 -0.30709697828E+03  0.13796860781E+04  0.25500000920E-02 0.  1.
       -2    1    3    3    0  502  0.13447021580E+04  0.31642161687E+02 -0.69660709031E+03  0.15147562703E+04  0.25500000920E-02 0. -1.
</event>
<event>
 5   0  0.1051123E-06  0.3731545E+04  0.7818609E-02  0.8061007E-01
        2   -1    0    0  501    0  0.00000000000E+00  0.00000000000E+00  0.16075413346E+04  0.16075413346E+04  0.25500000920E-02 0.  1.
       -2   -1    0    0    0  501  0.00000000000E+00  0.00000000000E+00 -0.21654854950E+04  0.21654854950E+04  0.25500000920E-02 0. -1.
    10030    2    1    2    0    0  0.00000000000E+00  0.00000000000E+00 -0.55794416042E+03  0.37730268295E+04  0.37315452255E+04 0.  0.
        2    1    3    3  502    0  0.15083160797E+04  0.84182944605E+03 -0.99208753726E+03  0.19919668406E+04  0.25500000920E-02 0. -1.
       -2    1    3    3    0  502 -0.15083160797E+04 -0.84182944605E+03  0.43414337684E+03  0.17810599889E+04  0.25500000920E-02 0.  1.
</event>
<event>
 5   0  0.1051123E-06  0.2891325E+04  0.7818609E-02  0.8275463E-01
        2   -1    0    0  501    0  0.00000000000E+00  0.00000000000E+00  0.20233772269E+04  0.20233772269E+04  0.25500000920E-02 0.  1.
       -2   -1    0    0    0  501  0.00000000000E+00  0.00000000000E+00 -0.10328971719E+04  0.10328971719E+04  0.25500000920E-02 0. -1.
    10030    2    1    2    0    0  0.00000000000E+00  0.00000000000E+00  0.99048005499E+03  0.30562743989E+04  0.28913253815E+04 0.  0.
        2    1    3    3  502    0 -0.19073513325E+03 -0.85761045952E+03 -0.71832706869E+03  0.11348433235E+04  0.25500000920E-02 0. -1.
       -2    1    3    3    0  502  0.19073513325E+03  0.85761045952E+03  0.17088071237E+04  0.19214310753E+04  0.25500000920E-02 0.  1.
</event>
<event>
 5   0  0.3848431E-07  0.3433662E+04  0.7818609E-02  0.8129694E-01
        1   -1    0    0  501    0  0.00000000000E+00  0.00000000000E+00  0.12268812215E+04  0.12268812215E+04  0.50400001928E-02 0.  1.
       -1   -1    0    0    0  501  0.00000000000E+00  0.00000000000E+00 -0.24024397918E+04  0.24024397918E+04  0.50400001928E-02 0. -1.
    10030    2    1    2    0    0  0.00000000000E+00  0.00000000000E+00 -0.11755585702E+04  0.36293210133E+04  0.34336617576E+04 0.  0.
        2    1    3    3  502    0 -0.93982342010E+03 -0.91227605898E+03 -0.17609789247E+04  0.21946668180E+04  0.25500000920E-02 0. -1.
       -2    1    3    3    0  502  0.93982342010E+03  0.91227605898E+03  0.58542035446E+03  0.14346541953E+04  0.25500000920E-02 0.  1.
</event>
<event>
 5   0  0.3764495E-07  0.3685122E+04  0.7818609E-02  0.8071267E-01
        1   -1    0    0  501    0  0.00000000000E+00  0.00000000000E+00  0.22763403571E+04  0.22763403571E+04  0.50400001928E-02 0.  1.
       -1   -1    0    0    0  501  0.00000000000E+00  0.00000000000E+00 -0.14914429887E+04  0.14914429887E+04  0.50400001928E-02 0. -1.
    10030    2    1    2    0    0  0.00000000000E+00  0.00000000000E+00  0.78489736835E+03  0.37677833458E+04  0.36851224487E+04 0.  0.
        4    1    3    3  502    0  0.50769909516E+03  0.11880879650E+04  0.17355816943E+04  0.21636905542E+04  0.12699999809E+01 0. -1.
       -4    1    3    3    0  502 -0.50769909516E+03 -0.11880879650E+04 -0.95068432595E+03  0.16040927916E+04  0.12699999809E+01 0.  1.
</event>
<event>
 5   0  0.3704306E-07  0.3903347E+04  0.7818609E-02  0.8024334E-01
        1   -1    0    0  501    0  0.00000000000E+00  0.00000000000E+00  0.13741137196E+04  0.13741137196E+04  0.50400001928E-02 0.  1.
       -1   -1    0    0    0  501  0.00000000000E+00  0.00000000000E+00 -0.27719894481E+04  0.27719894481E+04  0.50400001928E-02 0. -1.
    10030    2    1    2    0    0  0.00000000000E+00  0.00000000000E+00 -0.13978757285E+04  0.41461031678E+04  0.39033466315E+04 0.  0.
        3    1    3    3  502    0 -0.14338795791E+04 -0.13240127932E+04 -0.70197897365E+03  0.20740769064E+04  0.10100000352E+00 0. -1.
       -3    1    3    3    0  502  0.14338795791E+04  0.13240127932E+04 -0.69589675486E+03  0.20720262614E+04  0.10100000352E+00 0.  1.
</event>
<event>
 5   0  0.1128530E-06  0.3508736E+04  0.7818609E-02  0.8111723E-01
        2   -1    0    0  501    0  0.00000000000E+00  0.00000000000E+00  0.23908609843E+04  0.23908609843E+04  0.25500000920E-02 0.  1.
       -2   -1    0    0    0  501  0.00000000000E+00  0.00000000000E+00 -0.12873216138E+04  0.12873216138E+04  0.25500000920E-02 0. -1.
    10030    2    1    2    0    0  0.00000000000E+00  0.00000000000E+00  0.11035393705E+04  0.36781825981E+04  0.35087359665E+04 0.  0.
        5    1    3    3  502    0 -0.52723348216E+03 -0.58596527401E+03  0.21947673925E+04  0.23320283970E+04  0.46999998093E+01 0.  1.
       -5    1    3    3    0  502  0.52723348216E+03  0.58596527401E+03 -0.10912280220E+04  0.13461542011E+04  0.46999998093E+01 0. -1.
</event>
<event>
 5   0  0.3764495E-07  0.3685344E+04  0.7818609E-02  0.8071217E-01
       -1   -1    0    0    0  501  0.00000000000E+00  0.00000000000E+00  0.14823754350E+04  0.14823754350E+04  0.50400001928E-02 0.  1.
        1   -1    0    0  501    0  0.00000000000E+00  0.00000000000E+00 -0.22905402316E+04  0.22905402317E+04  0.50400001928E-02 0. -1.
    10030    2    1    2    0    0  0.00000000000E+00  0.00000000000E+00 -0.80816479665E+03  0.37729156667E+04  0.36853442565E+04 0.  0.
        4    1    3    3  502    0  0.49274597853E+03 -0.13055241143E+04 -0.16361098255E+04  0.21503601527E+04  0.12699999809E+01 0. -1.
       -4    1    3    3    0  502 -0.49274597853E+03  0.13055241143E+04  0.82794502883E+03  0.16225555140E+04  0.12699999809E+01 0.  1.
</event>
<event>
 5   0  0.1128530E-06  0.3686671E+04  0.7818609E-02  0.8070922E-01
       -2   -1    0    0    0  501  0.00000000000E+00  0.00000000000E+00  0.19924858349E+04  0.19924858349E+04  0.25500000920E-02 0. -1.
        2   -1    0    0  501    0  0.00000000000E+00  0.00000000000E+00 -0.17053497074E+04  0.17053497074E+04  0.25500000920E-02 0.  1.
    10030    2    1    2    0    0  0.00000000000E+00  0.00000000000E+00  0.28713612751E+03  0.36978355422E+04  0.36866706581E+04 0.  0.
        5    1    3    3  502    0 -0.14336656188E+04  0.18899645179E+03 -0.10030238806E+04  0.17598851554E+04  0.46999998093E+01 0.  1.
       -5    1    3    3    0  502  0.14336656188E+04 -0.18899645179E+03  0.12901600081E+04  0.19379503868E+04  0.46999998093E+01 0. -1.
</event>
<event>
 5   0  0.3764495E-07  0.3698429E+04  0.7818609E-02  0.8068310E-01
        1   -1    0    0  501    0  0.00000000000E+00  0.00000000000E+00  0.22745405294E+04  0.22745405294E+04  0.50400001928E-02 0.  1.
       -1   -1    0    0    0  501  0.00000000000E+00  0.00000000000E+00 -0.15034223812E+04  0.15034223812E+04  0.50400001928E-02 0. -1.
    10030    2    1    2    0    0  0.00000000000E+00  0.00000000000E+00  0.77111814820E+03  0.37779629107E+04  0.36984294715E+04 0.  0.
        4    1    3    3  502    0 -0.51087835253E+03 -0.16546690634E+04 -0.27697716165E+03  0.17537515107E+04  0.12699999809E+01 0. -1.
       -4    1    3    3    0  502  0.51087835253E+03  0.16546690634E+04  0.10480953099E+04  0.20242114000E+04  0.12699999809E+01 0.  1.
</event>
<event>
 5   0  0.3704306E-07  0.3494708E+04  0.7818609E-02  0.8115045E-01
        1   -1    0    0  501    0  0.00000000000E+00  0.00000000000E+00  0.18134721243E+04  0.18134721243E+04  0.50400001928E-02 0.  1.
       -1   -1    0    0    0  501  0.00000000000E+00  0.00000000000E+00 -0.16836466376E+04  0.16836466376E+04  0.50400001928E-02 0. -1.
    10030    2    1    2    0    0  0.00000000000E+00  0.00000000000E+00  0.12982548665E+03  0.34971187619E+04  0.34947081391E+04 0.  0.
        3    1    3    3  502    0 -0.96583859589E+03 -0.38917470535E+03  0.14690716919E+04  0.18006867553E+04  0.10100000352E+00 0.  1.
       -3    1    3    3    0  502  0.96583859589E+03  0.38917470535E+03 -0.13392462052E+04  0.16964320066E+04  0.10100000352E+00 0. -1.
</event>
<event>
 5   0  0.3704306E-07  0.3197564E+04  0.7818609E-02  0.8189461E-01
        1   -1    0    0  501    0  0.00000000000E+00  0.00000000000E+00  0.14822982959E+04  0.14822982959E+04  0.50400001928E-02 0. -1.
       -1   -1    0    0    0  501  0.00000000000E+00  0.00000000000E+00 -0.17244188907E+04  0.17244188907E+04  0.50400001928E-02 0.  1.
    10030    2    1    2    0    0  0.00000000000E+00  0.00000000000E+00 -0.24212059478E+03  0.32067171866E+04  0.31975635619E+04 0.  0.
        3    1    3    3  502    0 -0.11472128478E+04 -0.10104995365E+04 -0.59026345163E+03  0.16387853990E+04  0.10100000352E+00 0.  1.
       -3    1    3    3    0  502  0.11472128478E+04  0.10104995365E+04  0.34814285684E+03  0.15679317876E+04  0.10100000352E+00 0. -1.
</event>
<event>
 5   0  0.1066907E-06  0.3681220E+04  0.7818609E-02  0.8072136E-01
        2   -1    0    0  501    0  0.00000000000E+00  0.00000000000E+00  0.17433239929E+04  0.17433239929E+04  0.25500000920E-02 0.  1.
       -2   -1    0    0    0  501  0.00000000000E+00  0.00000000000E+00 -0.19433249970E+04  0.19433249970E+04  0.25500000920E-02 0. -1.
    10030    2    1    2    0    0  0.00000000000E+00  0.00000000000E+00 -0.20000100407E+03  0.36866489899E+04  0.36812199572E+04 0.  0.
        4    1    3    3  502    0 -0.15911181990E+03 -0.17838604135E+04  0.32532447942E+03  0.18202505805E+04  0.12699999809E+01 0.  1.
       -4    1    3    3    0  502  0.15911181990E+03  0.17838604135E+04 -0.52532548349E+03  0.18663984094E+04  0.12699999809E+01 0. -1.
</event>
<event>
 5   0  0.1051123E-06  0.3729110E+04  0.7818609E-02  0.8061541E-01
       -2   -1    0    0    0  501  0.00000000000E+00  0.00000000000E+00  0.17568575840E+04  0.17568575840E+04  0.25500000920E-02 0.  1.
        2   -1    0    0  501    0  0.00000000000E+00  0.00000000000E+00 -0.19788540055E+04  0.19788540055E+04  0.25500000920E-02 0. -1.
    10030    2    1    2    0    0  0.00000000000E+00  0.00000000000E+00 -0.22199642153E+03  0.37357115895E+04  0.37291096348E+04 0.  0.
        2    1    3    3  502    0 -0.12716359968E+04 -0.13613115335E+04 -0.31249060609E+02  0.18631166639E+04  0.25500000920E-02 0. -1.
       -2    1    3    3    0  502  0.12716359968E+04  0.13613115335E+04 -0.19074736092E+03  0.18725949256E+04  0.25500000920E-02 0.  1.
</event>
<event>
 5   0  0.3704306E-07  0.3366505E+04  0.7818609E-02  0.8146176E-01
       -1   -1    0    0    0  501  0.00000000000E+00  0.00000000000E+00  0.19882996825E+04  0.19882996825E+04  0.50400001928E-02 0. -1.
        1   -1    0    0  501    0  0.00000000000E+00  0.00000000000E+00 -0.14250063778E+04  0.14250063778E+04  0.50400001928E-02 0.  1.
    10030    2    1    2    0    0  0.00000000000E+00  0.00000000000E+00  0.56329330470E+03  0.34133060604E+04  0.33665054455E+04 0.  0.
        3    1    3    3  502    0  0.79196758460E+03  0.77052331904E+03 -0.10058174154E+04  0.14941845681E+04  0.10100000352E+00 0. -1.
       -3    1    3    3    0  502 -0.79196758460E+03 -0.77052331904E+03  0.15691107201E+04  0.19191214923E+04  0.10100000352E+00 0.  1.
</event>
<event>
 5   0  0.1128166E-06  0.3751332E+04  0.7818609E-02  0.8056680E-01
       -2   -1    0    0    0  501  0.00000000000E+00  0.00000000000E+00  0.13114010697E+04  0.13114010697E+04  0.25500000920E-02 0. -1.
        2   -1    0    0  501    0  0.00000000000E+00  0.00000000000E+00 -0.26827212025E+04  0.26827212025E+04  0.25500000920E-02 0.  1.
    10030    2    1    2    0    0  0.00000000000E+00  0.00000000000E+00 -0.13713201328E+04  0.39941222722E+04  0.37513322725E+04 0.  0.
        3    1    3    3  502    0  0.15861572962E+04 -0.76917815324E+03 -0.34127622393E+01  0.17628220718E+04  0.10100000352E+00 0. -1.
       -3    1    3    3    0  502 -0.15861572962E+04  0.76917815324E+03 -0.13679073706E+04  0.22313002004E+04  0.10100000352E+00 0.  1.
</event>
<event>
 5   0  0.3682276E-07  0.2900502E+04  0.7818609E-02  0.8272728E-01
        1   -1    0    0  501    0  0.00000000000E+00  0.00000000000E+00  0.26582112318E+04  0.26582112318E+04  0.50400001928E-02 0.  1.
       -1   -1    0    0    0  501  0.00000000000E+00  0.00000000000E+00 -0.79121941290E+03  0.79121941292E+03  0.50400001928E-02 0. -1.
    10030    2    1    2    0    0  0.00000000000E+00  0.00000000000E+00  0.18669918189E+04  0.34494306448E+04  0.29005022532E+04 0.  0.
        1    1    3    3  502    0  0.11788972806E+04 -0.20804064376E+03  0.19070493026E+04  0.22516475635E+04  0.50400001928E-02 0.  1.
       -1    1    3    3    0  502 -0.11788972806E+04  0.20804064376E+03 -0.40057483689E+02  0.11977830812E+04  0.50400001928E-02 0. -1.
</event>
<event>
 5   0  0.3764495E-07  0.3213086E+04  0.7818609E-02  0.8185370E-01
       -1   -1    0    0    0  501  0.00000000000E+00  0.00000000000E+00  0.15513738668E+04  0.15513738668E+04  0.50400001928E-02 0.  1.
        1   -1    0    0  501    0  0.00000000000E+00  0.00000000000E+00 -0.16636744170E+04  0.16636744170E+04  0.50400001928E-02 0. -1.
    10030    2    1    2    0    0  0.00000000000E+00  0.00000000000E+00 -0.11230055016E+03  0.32150482838E+04  0.32130863751E+04 0.  0.
        4    1    3    3  502    0 -0.89750752295E+03 -0.77149012626E+03  0.10309120080E+04  0.15695534237E+04  0.12699999809E+01 0.  1.
       -4    1    3    3    0  502  0.89750752295E+03  0.77149012626E+03 -0.11432125582E+04  0.16454948601E+04  0.12699999809E+01 0. -1.
</event>
<event>
 5   0  0.3675819E-07  0.3711185E+04  0.7818609E-02  0.8065488E-01
       -1   -1    0    0    0  501  0.00000000000E+00  0.00000000000E+00  0.12150357341E+04  0.12150357341E+04  0.50400001928E-02 0.  1.
        1   -1    0    0  501    0  0.00000000000E+00  0.00000000000E+00 -0.28338454974E+04  0.28338454974E+04  0.50400001928E-02 0. -1.
    10030    2    1    2    0    0  0.00000000000E+00  0.00000000000E+00 -0.16188097632E+04  0.40488812315E+04  0.37111850099E+04 0.  0.
        5    1    3    3  502    0 -0.16590003331E+04  0.46740585945E+03 -0.59509170504E+02  0.17246198927E+04  0.46999998093E+01 0.  1.
       -5    1    3    3    0  502  0.16590003331E+04 -0.46740585945E+03 -0.15593005927E+04  0.23242613389E+04  0.46999998093E+01 0. -1.
</event>
<event>
 5   0  0.1128166E-06  0.3660754E+04  0.7818609E-02  0.8076715E-01
        2   -1    0    0  501    0  0.00000000000E+00  0.00000000000E+00  0.17498093765E+04  0.17498093766E+04  0.25500000920E-02 0. -1.
       -2   -1    0    0    0  501  0.00000000000E+00  0.00000000000E+00 -0.19146538638E+04  0.19146538638E+04  0.25500000920E-02 0.  1.
    10030    2    1    2    0    0  0.00000000000E+00  0.00000000000E+00 -0.16484448721E+03  0.36644632403E+04  0.36607536293E+04 0.  0.
        3    1    3    3  502    0  0.53773298344E+03 -0.47947356118E+03  0.16019080539E+04  0.17564626614E+04  0.10100000352E+00 0. -1.
       -3    1    3    3    0  502 -0.53773298344E+03  0.47947356118E+03 -0.17667525411E+04  0.19080005789E+04  0.10100000352E+00 0.  1.
</event>
<event>
 5   0  0.3682276E-07  0.3693700E+04  0.7818609E-02  0.8069359E-01
        1   -1    0    0  501    0  0.00000000000E+00  0.00000000000E+00  0.89489020998E+03  0.89489020999E+03  0.50400001928E-02 0.  1.
       -1   -1    0    0    0  501  0.00000000000E+00  0.00000000000E+00 -0.38114785699E+04  0.38114785699E+04  0.50400001928E-02 0. -1.
    10030    2    1    2    0    0  0.00000000000E+00  0.00000000000E+00 -0.29165883599E+04  0.47063687799E+04  0.36936999649E+04 0.  0.
        1    1    3    3  502    0 -0.41840815202E+03  0.48018108723E+03  0.75053512953E+03  0.98434863686E+03  0.50400001928E-02 0.  1.
       -1    1    3    3    0  502  0.41840815202E+03 -0.48018108723E+03 -0.36671234894E+04  0.37220201430E+04  0.50400001928E-02 0. -1.
</event>
<event>
 5   0  0.1092116E-06  0.3660126E+04  0.7818609E-02  0.8076856E-01
       -2   -1    0    0    0  501  0.00000000000E+00  0.00000000000E+00  0.19267972372E+04  0.19267972372E+04  0.25500000920E-02 0.  1.
        2   -1    0    0  501    0  0.00000000000E+00  0.00000000000E+00 -0.17381856024E+04  0.17381856024E+04  0.25500000920E-02 0. -1.
    10030    2    1    2    0    0  0.00000000000E+00  0.00000000000E+00  0.18861163482E+03  0.36649828396E+04  0.36601263456E+04 0.  0.
        1    1    3    3  502    0 -0.10646166536E+04 -0.12723534224E+04  0.86788468695E+03  0.18723022407E+04  0.50400001928E-02 0.  1.
       -1    1    3    3    0  502  0.10646166536E+04  0.12723534224E+04 -0.67927305214E+03  0.17926805990E+04  0.50400001928E-02 0. -1.
</event>
<event>
 5   0  0.3682276E-07  0.3742465E+04  0.7818609E-02  0.8058616E-01
        1   -1    0    0  501    0  0.00000000000E+00  0.00000000000E+00  0.13424574844E+04  0.13424574844E+04  0.50400001928E-02 0.  1.
       -1   -1    0    0    0  501  0.00000000000E+00  0.00000000000E+00 -0.26082848746E+04  0.26082848746E+04  0.50400001928E-02 0. -1.
    10030    2    1    2    0    0  0.00000000000E+00  0.00000000000E+00 -0.12658273902E+04  0.39507423590E+04  0.37424652577E+04 0.  0.
        1    1    3    3  502    0  0.18831432106E+03  0.15273819682E+04 -0.17566523524E+04  0.23354197584E+04  0.50400001928E-02 0. -1.
       -1    1    3    3    0  502 -0.18831432106E+03 -0.15273819682E+04  0.49082496224E+03  0.16153226006E+04  0.50400001928E-02 0.  1.
</event>
<event>
 5   0  0.3675819E-07  0.3708118E+04  0.7818609E-02  0.8066165E-01
       -1   -1    0    0    0  501  0.00000000000E+00  0.00000000000E+00  0.15584058558E+04  0.15584058558E+04  0.50400001928E-02 0.  1.
        1   -1    0    0  501    0  0.00000000000E+00  0.00000000000E+00 -0.22058015529E+04  0.22058015529E+04  0.50400001928E-02 0. -1.
    10030    2    1    2    0    0  0.00000000000E+00  0.00000000000E+00 -0.64739569707E+03  0.37642074088E+04  0.37081176124E+04 0.  0.
        5    1    3    3  502    0 -0.14948388291E+04 -0.50766984617E+03 -0.13106387084E+04  0.20518449531E+04  0.46999998093E+01 0. -1.
       -5    1    3    3    0  502  0.14948388291E+04  0.50766984617E+03  0.66324301133E+03  0.17123624557E+04  0.46999998093E+01 0.  1.
</event>
<event>
 5   0  0.3848431E-07  0.3652673E+04  0.7818609E-02  0.8078532E-01
       -1   -1    0    0    0  501  0.00000000000E+00  0.00000000000E+00  0.34001733672E+04  0.34001733673E+04  0.50400001928E-02 0. -1.
        1   -1    0    0  501    0  0.00000000000E+00  0.00000000000E+00 -0.98098077070E+03  0.98098077071E+03  0.50400001928E-02 0.  1.
    10030    2    1    2    0    0  0.00000000000E+00  0.00000000000E+00  0.24191925965E+04  0.43811541380E+04  0.36526728243E+04 0.  0.
        2    1    3    3  502    0  0.66472987793E+03 -0.79512973612E+03  0.30133082430E+04  0.31865535732E+04  0.25500000920E-02 0. -1.
       -2    1    3    3    0  502 -0.66472987793E+03  0.79512973612E+03 -0.59411564644E+03  0.11946005647E+04  0.25500000920E-02 0.  1.
</event>
<event>
 5   0  0.3764495E-07  0.3775811E+04  0.7818609E-02  0.8051366E-01
       -1   -1    0    0    0  501  0.00000000000E+00  0.00000000000E+00  0.13535223588E+04  0.13535223588E+04  0.50400001928E-02 0. -1.
        1   -1    0    0  501    0  0.00000000000E+00  0.00000000000E+00 -0.26332677417E+04  0.26332677417E+04  0.50400001928E-02 0.  1.
    10030    2    1    2    0    0  0.00000000000E+00  0.00000000000E+00 -0.12797453829E+04  0.39867901005E+04  0.37758107819E+04 0.  0.
        4    1    3    3  502    0  0.16129584416E+03  0.10484471841E+04 -0.22888420169E+04  0.25227083142E+04  0.12699999809E+01 0.  1.
       -4    1    3    3    0  502 -0.16129584416E+03 -0.10484471841E+04  0.10090966341E+04  0.14640817863E+04  0.12699999809E+01 0. -1.
</event>
<event>
 5   0  0.3675819E-07  0.3347529E+04  0.7818609E-02  0.8150906E-01
        1   -1    0    0  501    0  0.00000000000E+00  0.00000000000E+00  0.14051959879E+04  0.14051959879E+04  0.50400001928E-02 0. -1.
       -1   -1    0    0    0  501  0.00000000000E+00  0.00000000000E+00 -0.19936637647E+04  0.19936637647E+04  0.50400001928E-02 0.  1.
    10030    2    1    2    0    0  0.00000000000E+00  0.00000000000E+00 -0.58846777677E+03  0.33988597526E+04  0.33475294313E+04 0.  0.
        5    1    3    3  502    0 -0.39863747995E+02 -0.35691755088E+03 -0.19540754672E+04  0.19868095726E+04  0.46999998093E+01 0.  1.
       -5    1    3    3    0  502  0.39863747995E+02  0.35691755088E+03  0.13656076904E+04  0.14120501799E+04  0.46999998093E+01 0. -1.
</event>
<event>
 5   0  0.1051123E-06  0.3610922E+04  0.7818609E-02  0.8087994E-01
        2   -1    0    0  501    0  0.00000000000E+00  0.00000000000E+00  0.22018989539E+04  0.22018989539E+04  0.25500000920E-02 0.  1.
       -2   -1    0    0    0  501  0.00000000000E+00  0.00000000000E+00 -0.14803995673E+04  0.14803995673E+04  0.25500000920E-02 0. -1.
    10030    2    1    2    0    0  0.00000000000E+00  0.00000000000E+00  0.72149938656E+03  0.36822985212E+04  0.36109224631E+04 0.  0.
        2    1    3    3  502    0  0.17789757752E+03 -0.10808411085E+04 -0.11028287862E+04  0.15543797418E+04  0.25500000920E-02 0. -1.
       -2    1    3    3    0  502 -0.17789757752E+03  0.10808411085E+04  0.18243281728E+04  0.21279187795E+04  0.25500000920E-02 0.  1.
</event>
<event>
 5   0  0.3682276E-07  0.2733536E+04  0.7818609E-02  0.8324205E-01
        1   -1    0    0  501    0  0.00000000000E+00  0.00000000000E+00  0.19677804142E+04  0.19677804142E+04  0.50400001928E-02 0. -1.
       -1   -1    0    0    0  501  0.00000000000E+00  0.00000000000E+00 -0.94932101957E+03  0.94932101958E+03  0.50400001928E-02 0.  1.
    10030    2    1    2    0    0  0.00000000000E+00  0.00000000000E+00  0.10184593946E+04  0.29171014338E+04  0.27335363975E+04 0.  0.
        1    1    3    3  502    0  0.75871809378E+02 -0.12920195851E+04  0.97802959934E+03  0.16222247184E+04  0.50400001928E-02 0. -1.
       -1    1    3    3    0  502 -0.75871809378E+02  0.12920195851E+04  0.40429795305E+02  0.12948767154E+04  0.50400001928E-02 0.  1.
</event>
<event>
 5   0  0.3682276E-07  0.3847016E+04  0.7818609E-02  0.8036140E-01
        1   -1    0    0  501    0  0.00000000000E+00  0.00000000000E+00  0.15453421096E+04  0.15453421096E+04  0.50400001928E-02 0. -1.
       -1   -1    0    0    0  501  0.00000000000E+00  0.00000000000E+00 -0.23942160678E+04  0.23942160678E+04  0.50400001928E-02 0.  1.
    10030    2    1    2    0    0  0.00000000000E+00  0.00000000000E+00 -0.84887395827E+03  0.39395581774E+04  0.38470159392E+04 0.  0.
        1    1    3    3  502    0 -0.17892456968E+04  0.55364348175E+03  0.24236871613E+02  0.18731013572E+04  0.50400001928E-02 0. -1.
       -1    1    3    3    0  502  0.17892456968E+04 -0.55364348175E+03 -0.87311082988E+03  0.20664568202E+04  0.50400001928E-02 0.  1.
</event>
<event>
 5   0  0.3704306E-07  0.3770022E+04  0.7818609E-02  0.8052619E-01
        1   -1    0    0  501    0  0.00000000000E+00  0.00000000000E+00  0.21387439317E+04  0.21387439317E+04  0.50400001928E-02 0. -1.
       -1   -1    0    0    0  501  0.00000000000E+00  0.00000000000E+00 -0.16613802145E+04  0.16613802145E+04  0.50400001928E-02 0.  1.
    10030    2    1    2    0    0  0.00000000000E+00  0.00000000000E+00  0.47736371713E+03  0.38001241462E+04  0.37700222026E+04 0.  0.
        3    1    3    3  502    0 -0.11969921483E+04 -0.65317784548E+03  0.15505478447E+04  0.20648559586E+04  0.10100000352E+00 0. -1.
       -3    1    3    3    0  502  0.11969921483E+04  0.65317784548E+03 -0.10731841276E+04  0.17352681876E+04  0.10100000352E+00 0.  1.
</event>
<event>
 5   0  0.1066907E-06  0.3694805E+04  0.7818609E-02  0.8069114E-01
       -2   -1    0    0    0  501  0.00000000000E+00  0.00000000000E+00  0.14275550724E+04  0.14275550724E+04  0.25500000920E-02 0.  1.
        2   -1    0    0  501    0  0.00000000000E+00  0.00000000000E+00 -0.23907286964E+04  0.23907286965E+04  0.25500000920E-02 0. -1.
    10030    2    1    2    0    0  0.00000000000E+00  0.00000000000E+00 -0.96317362406E+03  0.38182837688E+04  0.36948054765E+04 0.  0.
        4    1    3    3  502    0  0.10788713048E+04  0.12121653055E+04  0.43086299767E+03  0.16789736614E+04  0.12699999809E+01 0.  1.
       -4    1    3    3    0  502 -0.10788713048E+04 -0.12121653055E+04 -0.13940366217E+04  0.21393101074E+04  0.12699999809E+01 0. -1.
</event>
<event>
 5   0  0.3704306E-07  0.3082348E+04  0.7818609E-02  0.8220599E-01
        1   -1    0    0  501    0  0.00000000000E+00  0.00000000000E+00  0.16882690197E+04  0.16882690197E+04  0.50400001928E-02 0.  1.
       -1   -1    0    0    0  501  0.00000000000E+00  0.00000000000E+00 -0.14068954087E+04  0.14068954088E+04  0.50400001928E-02 0. -1.
    10030    2    1    2    0    0  0.00000000000E+00  0.00000000000E+00  0.28137361092E+03  0.30951644284E+04  0.30823484115E+04 0.  0.
        3    1    3    3  502    0  0.37041185262E+03 -0.11704565339E+04 -0.79487608933E+03  0.14625325453E+04  0.10100000352E+00 0. -1.
       -3    1    3    3    0  502 -0.37041185262E+03  0.11704565339E+04  0.10762497003E+04  0.16326318832E+04  0.10100000352E+00 0.  1.
</event>
<event>
 5   0  0.1066907E-06  0.3614251E+04  0.7818609E-02  0.8087235E-01
        2   -1    0    0  501    0  0.00000000000E+00  0.00000000000E+00  0.30466663414E+04  0.30466663414E+04  0.25500000920E-02 0.  1.
       -2   -1    0    0    0  501  0.00000000000E+00  0.00000000000E+00 -0.10718938457E+04  0.10718938457E+04  0.25500000920E-02 0. -1.
    10030    2    1    2    0    0  0.00000000000E+00  0.00000000000E+00  0.19747724957E+04  0.41185601871E+04  0.36142511818E+04 0.  0.
        4    1    3    3  502    0 -0.52417370946E+02  0.30705057899E+03 -0.10410709186E+04  0.10866728621E+04  0.12699999809E+01 0. -1.
       -4    1    3    3    0  502  0.52417370946E+02 -0.30705057899E+03  0.30158434143E+04  0.30318873250E+04  0.12699999809E+01 0.  1.
</event>
<event>
 5   0  0.1128166E-06  0.3208219E+04  0.7818609E-02  0.8186650E-01
        2   -1    0    0  501    0  0.00000000000E+00  0.00000000000E+00  0.19467295363E+04  0.19467295363E+04  0.25500000920E-02 0. -1.
       -2   -1    0    0    0  501  0.00000000000E+00  0.00000000000E+00 -0.13217900535E+04  0.13217900535E+04  0.25500000920E-02 0.  1.
    10030    2    1    2    0    0  0.00000000000E+00  0.00000000000E+00  0.62493948280E+03  0.32685195898E+04  0.32082192804E+04 0.  0.
        3    1    3    3  502    0 -0.48741498465E+02  0.11678432428E+04  0.14317242085E+04  0.18482607481E+04  0.10100000352E+00 0.  1.
       -3    1    3    3    0  502  0.48741498465E+02 -0.11678432428E+04 -0.80678472574E+03  0.14202588417E+04  0.10100000352E+00 0. -1.
</event>
<event>
 5   0  0.1092116E-06  0.3737676E+04  0.7818609E-02  0.8059663E-01
        2   -1    0    0  501    0  0.00000000000E+00  0.00000000000E+00  0.23679219592E+04  0.23679219592E+04  0.25500000920E-02 0. -1.
       -2   -1    0    0    0  501  0.00000000000E+00  0.00000000000E+00 -0.14749455266E+04  0.14749455266E+04  0.25500000920E-02 0.  1.
    10030    2    1    2    0    0  0.00000000000E+00  0.00000000000E+00  0.89297643259E+03  0.38428674859E+04  0.37376762306E+04 0.  0.
        1    1    3    3  502    0  0.61836135529E+03  0.16330325778E+04  0.11311034325E+04  0.20805194402E+04  0.50400001928E-02 0. -1.
       -1    1    3    3    0  502 -0.61836135529E+03 -0.16330325778E+04 -0.23812699995E+03  0.17623480457E+04  0.50400001928E-02 0.  1.
</event>
<event>
 5   0  0.1066907E-06  0.3731898E+04  0.7818609E-02  0.8060929E-01
       -2   -1    0    0    0  501  0.00000000000E+00  0.00000000000E+00  0.13512949481E+04  0.13512949481E+04  0.25500000920E-02 0.  1.
        2   -1    0    0  501    0  0.00000000000E+00  0.00000000000E+00 -0.25766143183E+04  0.25766143183E+04  0.25500000920E-02 0. -1.
    10030    2    1    2    0    0  0.00000000000E+00  0.00000000000E+00 -0.12253193702E+04  0.39279092664E+04  0.37318981291E+04 0.  0.
        4    1    3    3  502    0 -0.87412609256E+03  0.16169777917E+04 -0.27478385343E+03  0.18585535729E+04  0.12699999809E+01 0.  1.
       -4    1    3    3    0  502  0.87412609256E+03 -0.16169777917E+04 -0.95053551680E+03  0.20693556935E+04  0.12699999809E+01 0. -1.
</event>
<event>
 5   0  0.3704306E-07  0.2658925E+04  0.7818609E-02  0.8348457E-01
        1   -1    0    0  501    0  0.00000000000E+00  0.00000000000E+00  0.14613461444E+04  0.14613461444E+04  0.50400001928E-02 0.  1.
       -1   -1    0    0    0  501  0.00000000000E+00  0.00000000000E+00 -0.12094810490E+04  0.12094810490E+04  0.50400001928E-02 0. -1.
    10030    2    1    2    0    0  0.00000000000E+00  0.00000000000E+00  0.25186509537E+03  0.26708271934E+04  0.26589249464E+04 0.  0.
        3    1    3    3  502    0  0.12268288420E+04 -0.82971021099E+02 -0.38177758989E+03  0.12875353728E+04  0.10100000352E+00 0. -1.
       -3    1    3    3    0  502 -0.12268288420E+04  0.82971021099E+02  0.63364268527E+03  0.13832918205E+04  0.10100000352E+00 0.  1.
</event>
<event>
 5   0  0.1128166E-06  0.3633225E+04  0.7818609E-02  0.8082923E-01
        2   -1    0    0  501    0  0.00000000000E+00  0.00000000000E+00  0.20084748070E+04  0.20084748070E+04  0.25500000920E-02 0. -1.
       -2   -1    0    0    0  501  0.00000000000E+00  0.00000000000E+00 -0.16430784920E+04  0.16430784920E+04  0.25500000920E-02 0.  1.
    10030    2    1    2    0    0  0.00000000000E+00  0.00000000000E+00  0.36539631500E+03  0.36515532989E+04  0.36332254304E+04 0.  0.
        3    1    3    3  502    0  0.54895334444E+03  0.25806558277E+03 -0.15382873580E+04  0.16535645211E+04  0.10100000352E+00 0.  1.
       -3    1    3    3    0  502 -0.54895334444E+03 -0.25806558277E+03  0.19036836730E+04  0.19979887778E+04  0.10100000352E+00 0. -1.
</event>
<event>
 5   0  0.3704306E-07  0.3445147E+04  0.7818609E-02  0.8126914E-01
       -1   -1    0    0    0  501  0.00000000000E+00  0.00000000000E+00  0.11488724020E+04  0.11488724020E+04  0.50400001928E-02 0. -1.
        1   -1    0    0  501    0  0.00000000000E+00  0.00000000000E+00 -0.25827580071E+04  0.25827580071E+04  0.50400001928E-02 0.  1.
    10030    2    1    2    0    0  0.00000000000E+00  0.00000000000E+00 -0.14338856050E+04  0.37316304091E+04  0.34451469608E+04 0.  0.
        3    1    3    3  502    0 -0.39718886376E+03  0.93673154592E+03 -0.22225036029E+04  0.24443296131E+04  0.10100000352E+00 0.  1.
       -3    1    3    3    0  502  0.39718886376E+03 -0.93673154592E+03  0.78861799782E+03  0.12873007960E+04  0.10100000352E+00 0. -1.
</event>
<event>
 5   0  0.1066907E-06  0.3758865E+04  0.7818609E-02  0.8055040E-01
        2   -1    0    0  501    0  0.00000000000E+00  0.00000000000E+00  0.23700630280E+04  0.23700630280E+04  0.25500000920E-02 0.  1.
       -2   -1    0    0    0  501  0.00000000000E+00  0.00000000000E+00 -0.14903682905E+04  0.14903682905E+04  0.25500000920E-02 0. -1.
    10030    2    1    2    0    0  0.00000000000E+00  0.00000000000E+00  0.87969473753E+03  0.38604313185E+04  0.37588651390E+04 0.  0.
        4    1    3    3  502    0  0.80504789829E+03 -0.14010924581E+04 -0.54582635364E+03  0.17056055276E+04  0.12699999809E+01 0. -1.
       -4    1    3    3    0  502 -0.80504789829E+03  0.14010924581E+04  0.14255210912E+04  0.21548257909E+04  0.12699999809E+01 0.  1.
</event>
<event>
 5   0  0.1051123E-06  0.3800034E+04  0.7818609E-02  0.8046148E-01
        2   -1    0    0  501    0  0.00000000000E+00  0.00000000000E+00  0.23676417010E+04  0.23676417010E+04  0.25500000920E-02 0. -1.
       -2   -1    0    0    0  501  0.00000000000E+00  0.00000000000E+00 -0.15247512644E+04  0.15247512644E+04  0.25500000920E-02 0.  1.
    10030    2    1    2    0    0  0.00000000000E+00  0.00000000000E+00  0.84289043655E+03  0.38923929654E+04  0.38000340405E+04 0.  0.
        2    1    3    3  502    0 -0.10458141232E+04 -0.15610077015E+04  0.71042345493E+03  0.20087741808E+04  0.25500000920E-02 0. -1.
       -2    1    3    3    0  502  0.10458141232E+04  0.15610077015E+04  0.13246698161E+03  0.18836187845E+04  0.25500000920E-02 0.  1.
</event>
<event>
 5   0  0.1092116E-06  0.2283208E+04  0.7818609E-02  0.8484572E-01
       -2   -1    0    0    0  501  0.00000000000E+00  0.00000000000E+00  0.63975367703E+03  0.63975367704E+03  0.25500000920E-02 0.  1.
        2   -1    0    0  501    0  0.00000000000E+00  0.00000000000E+00 -0.20371266202E+04  0.20371266202E+04  0.25500000920E-02 0. -1.
    10030    2    1    2    0    0  0.00000000000E+00  0.00000000000E+00 -0.13973729432E+04  0.26768802972E+04  0.22832076085E+04 0.  0.
        1    1    3    3  502    0  0.70537900182E+02 -0.11117374462E+04 -0.40599540336E+03  0.11856508813E+04  0.50400001928E-02 0. -1.
       -1    1    3    3    0  502 -0.70537900182E+02  0.11117374462E+04 -0.99137753981E+03  0.14912294160E+04  0.50400001928E-02 0.  1.
</event>
<event>
 5   0  0.1128166E-06  0.3684624E+04  0.7818609E-02  0.8071378E-01
       -2   -1    0    0    0  501  0.00000000000E+00  0.00000000000E+00  0.14250449046E+04  0.14250449046E+04  0.25500000920E-02 0. -1.
        2   -1    0    0  501    0  0.00000000000E+00  0.00000000000E+00 -0.23817592513E+04  0.23817592513E+04  0.25500000920E-02 0.  1.
    10030    2    1    2    0    0  0.00000000000E+00  0.00000000000E+00 -0.95671434675E+03  0.38068041559E+04  0.36846242061E+04 0.  0.
        3    1    3    3  502    0  0.11178037349E+04  0.85514854359E+03  0.74990801235E+03  0.15947182380E+04  0.10100000352E+00 0. -1.
       -3    1    3    3    0  502 -0.11178037349E+04 -0.85514854359E+03 -0.17066223591E+04  0.22120859179E+04  0.10100000352E+00 0.  1.
</event>
<event>
 5   0  0.1051123E-06  0.2574987E+04  0.7818609E-02  0.8376748E-01
       -2   -1    0    0    0  501  0.00000000000E+00  0.00000000000E+00  0.12540086741E+04  0.12540086741E+04  0.25500000920E-02 0.  1.
        2   -1    0    0  501    0  0.00000000000E+00  0.00000000000E+00 -0.13218720496E+04  0.13218720496E+04  0.25500000920E-02 0. -1.
    10030    2    1    2    0    0  0.00000000000E+00  0.00000000000E+00 -0.67863375461E+02  0.25758807237E+04  0.25749866146E+04 0.  0.
        2    1    3    3  502    0 -0.98118756974E+02 -0.13597086773E+03 -0.13109029012E+04  0.13215830597E+04  0.25500000920E-02 0. -1.
       -2    1    3    3    0  502  0.98118756974E+02  0.13597086773E+03  0.12430395258E+04  0.12542976640E+04  0.25500000920E-02 0.  1.
</event>
<event>
 5   0  0.3764495E-07  0.3079304E+04  0.7818609E-02  0.8221441E-01
        1   -1    0    0  501    0  0.00000000000E+00  0.00000000000E+00  0.88395843794E+03  0.88395843795E+03  0.50400001928E-02 0. -1.
       -1   -1    0    0    0  501  0.00000000000E+00  0.00000000000E+00 -0.26817191533E+04  0.26817191533E+04  0.50400001928E-02 0.  1.
    10030    2    1    2    0    0  0.00000000000E+00  0.00000000000E+00 -0.17977607154E+04  0.35656775913E+04  0.30793039952E+04 0.  0.
        4    1    3    3  502    0 -0.10988661604E+04  0.83393894170E+03 -0.10708890065E+03  0.13836295178E+04  0.12699999809E+01 0.  1.
       -4    1    3    3    0  502  0.10988661604E+04 -0.83393894170E+03 -0.16906718147E+04  0.21820480735E+04  0.12699999809E+01 0. -1.
</event>
<event>
 5   0  0.3848431E-07  0.3683483E+04  0.7818609E-02  0.8071632E-01
        1   -1    0    0  501    0  0.00000000000E+00  0.00000000000E+00  0.21986337270E+04  0.21986337270E+04  0.50400001928E-02 0. -1.
       -1   -1    0    0    0  501  0.00000000000E+00  0.00000000000E+00 -0.15427820467E+04  0.15427820468E+04  0.50400001928E-02 0.  1.
    10030    2    1    2    0    0  0.00000000000E+00  0.00000000000E+00  0.65585168025E+03  0.37414157738E+04  0.36834834825E+04 0.  0.
        2    1    3    3  502    0  0.11790309537E+03  0.23951792149E+03 -0.15230248846E+04  0.15462453796E+04  0.25500000920E-02 0.  1.
       -2    1    3    3    0  502 -0.11790309537E+03 -0.23951792149E+03  0.21788765649E+04  0.21951703942E+04  0.25500000920E-02 0. -1.
</event>
<event>
 5   0  0.3764495E-07  0.4299621E+04  0.7818609E-02  0.7946688E-01
       -1   -1    0    0    0  501  0.00000000000E+00  0.00000000000E+00  0.29715965180E+04  0.29715965180E+04  0.50400001928E-02 0.  1.
        1   -1    0    0  501    0  0.00000000000E+00  0.00000000000E+00 -0.15552872030E+04  0.15552872030E+04  0.50400001928E-02 0. -1.
    10030    2    1    2    0    0  0.00000000000E+00  0.00000000000E+00  0.14163093150E+04  0.45268837210E+04  0.42996213958E+04 0.  0.
        4    1    3    3  502    0  0.14590118025E+04  0.11606285433E+04  0.18352079405E+04  0.26160588398E+04  0.12699999809E+01 0.  1.
       -4    1    3    3    0  502 -0.14590118025E+04 -0.11606285433E+04 -0.41889862548E+03  0.19108248812E+04  0.12699999809E+01 0. -1.
</event>
<event>
 5   0  0.3490375E-07  0.3805179E+04  0.7818609E-02  0.8045044E-01
       -3   -1    0    0    0  501  0.00000000000E+00  0.00000000000E+00  0.25720795341E+04  0.25720795361E+04  0.10100000352E+00 0.  1.
        3   -1    0    0  501    0  0.00000000000E+00  0.00000000000E+00 -0.14073618124E+04  0.14073618160E+04  0.10100000352E+00 0. -1.
    10030    2    1    2    0    0  0.00000000000E+00  0.00000000000E+00  0.11647177217E+04  0.39794413520E+04  0.38051788530E+04 0.  0.
        2    1    3    3  502    0  0.16053895557E+03 -0.16293757228E+04 -0.43115115907E+03  0.16930827872E+04  0.25500000920E-02 0.  1.
       -2    1    3    3    0  502 -0.16053895557E+03  0.16293757228E+04  0.15958688808E+04  0.22863585648E+04  0.25500000920E-02 0. -1.
</event>
<event>
 5   0  0.3675819E-07  0.3711505E+04  0.7818609E-02  0.8065417E-01
        1   -1    0    0  501    0  0.00000000000E+00  0.00000000000E+00  0.29933069651E+04  0.29933069651E+04  0.50400001928E-02 0. -1.
       -1   -1    0    0    0  501  0.00000000000E+00  0.00000000000E+00 -0.11505060567E+04  0.11505060567E+04  0.50400001928E-02 0.  1.
    10030    2    1    2    0    0  0.00000000000E+00  0.00000000000E+00  0.18428009084E+04  0.41438130219E+04  0.37115052435E+04 0.  0.
        5    1    3    3  502    0  0.15483952847E+04  0.14814277906E+03  0.20513738243E+04  0.25744185553E+04  0.46999998093E+01 0. -1.
       -5    1    3    3    0  502 -0.15483952847E+04 -0.14814277906E+03 -0.20857291589E+03  0.15693944666E+04  0.46999998093E+01 0.  1.
</event>
<event>
 5   0  0.1128166E-06  0.3711673E+04  0.7818609E-02  0.8065380E-01
        2   -1    0    0  501    0  0.00000000000E+00  0.00000000000E+00  0.27243900096E+04  0.27243900096E+04  0.25500000920E-02 0.  1.
       -2   -1    0    0    0  501  0.00000000000E+00  0.00000000000E+00 -0.12641836558E+04  0.12641836558E+04  0.25500000920E-02 0. -1.
    10030    2    1    2    0    0  0.00000000000E+00  0.00000000000E+00  0.14602063537E+04  0.39885736654E+04  0.37116731118E+04 0.  0.
        3    1    3    3  502    0  0.77676697361E+03 -0.16758616675E+04  0.53712281852E+03  0.19236372299E+04  0.10100000352E+00 0.  1.
       -3    1    3    3    0  502 -0.77676697361E+03  0.16758616675E+04  0.92308353522E+03  0.20649364356E+04  0.10100000352E+00 0. -1.
</event>
<event>
 5   0  0.1128166E-06  0.2285838E+04  0.7818609E-02  0.8483526E-01
       -2   -1    0    0    0  501  0.00000000000E+00  0.00000000000E+00  0.14539165756E+04  0.14539165756E+04  0.25500000920E-02 0.  1.
        2   -1    0    0  501    0  0.00000000000E+00  0.00000000000E+00 -0.89844461905E+03  0.89844461906E+03  0.25500000920E-02 0. -1.
    10030    2    1    2    0    0  0.00000000000E+00  0.00000000000E+00  0.55547195650E+03  0.23523611946E+04  0.22858377229E+04 0.  0.
        3    1    3    3  502    0  0.75395927591E+03  0.15789909418E+02  0.11615424386E+04  0.13848771635E+04  0.10100000352E+00 0.  1.
       -3    1    3    3    0  502 -0.75395927591E+03 -0.15789909418E+02 -0.60607048214E+03  0.96748403113E+03  0.10100000352E+00 0. -1.
</event>
<event>
 5   0  0.1092116E-06  0.3747870E+04  0.7818609E-02  0.8057435E-01
       -2   -1    0    0    0  501  0.00000000000E+00  0.00000000000E+00  0.24980195871E+04  0.24980195871E+04  0.25500000920E-02 0.  1.
        2   -1    0    0  501    0  0.00000000000E+00  0.00000000000E+00 -0.14057662822E+04  0.14057662822E+04  0.25500000920E-02 0. -1.
    10030    2    1    2    0    0  0.00000000000E+00  0.00000000000E+00  0.10922533049E+04  0.39037858693E+04  0.37478696390E+04 0.  0.
        1    1    3    3  502    0  0.66955992100E+03  0.13486947297E+04  0.17080345292E+04  0.22769870256E+04  0.50400001928E-02 0.  1.
       -1    1    3    3    0  502 -0.66955992100E+03 -0.13486947297E+04 -0.61578122424E+03  0.16267988437E+04  0.50400001928E-02 0. -1.
</event>
<event>
 5   0  0.3848431E-07  0.3712476E+04  0.7818609E-02  0.8065203E-01
       -1   -1    0    0    0  501  0.00000000000E+00  0.00000000000E+00  0.17350203918E+04  0.17350203918E+04  0.50400001928E-02 0.  1.
        1   -1    0    0  501    0  0.00000000000E+00  0.00000000000E+00 -0.19859249437E+04  0.19859249437E+04  0.50400001928E-02 0. -1.
    10030    2    1    2    0    0  0.00000000000E+00  0.00000000000E+00 -0.25090455194E+03  0.37209453355E+04  0.37124764101E+04 0.  0.
        2    1    3    3  502    0  0.92583130771E+03 -0.15306320759E+04  0.37128107256E+03  0.18269777768E+04  0.25500000920E-02 0. -1.
       -2    1    3    3    0  502 -0.92583130771E+03  0.15306320759E+04 -0.62218562450E+03  0.18939675587E+04  0.25500000920E-02 0.  1.
</event>
<event>
 5   0  0.1128166E-06  0.3764322E+04  0.7818609E-02  0.8053855E-01
        2   -1    0    0  501    0  0.00000000000E+00  0.00000000000E+00  0.25033572794E+04  0.25033572794E+04  0.25500000920E-02 0.  1.
       -2   -1    0    0    0  501  0.00000000000E+00  0.00000000000E+00 -0.14151116027E+04  0.14151116027E+04  0.25500000920E-02 0. -1.
    10030    2    1    2    0    0  0.00000000000E+00  0.00000000000E+00  0.10882456767E+04  0.39184688821E+04  0.37643219478E+04 0.  0.
        3    1    3    3  502    0  0.15667439339E+04  0.32586322478E+03  0.15754807902E+04  0.22456654083E+04  0.10100000352E+00 0.  1.
       -3    1    3    3    0  502 -0.15667439339E+04 -0.32586322478E+03 -0.48723511345E+03  0.16728034737E+04  0.10100000352E+00 0. -1.
</event>
<event>
 5   0  0.1066907E-06  0.3615017E+04  0.7818609E-02  0.8087060E-01
       -2   -1    0    0    0  501  0.00000000000E+00  0.00000000000E+00  0.12664712557E+04  0.12664712557E+04  0.25500000920E-02 0.  1.
        2   -1    0    0  501    0  0.00000000000E+00  0.00000000000E+00 -0.25796774412E+04  0.25796774412E+04  0.25500000920E-02 0. -1.
    10030    2    1    2    0    0  0.00000000000E+00  0.00000000000E+00 -0.13132061855E+04  0.38461486969E+04  0.36150171941E+04 0.  0.
        4    1    3    3  502    0  0.14847385244E+04  0.10308419911E+04 -0.65509129863E+03  0.19225581705E+04  0.12699999809E+01 0. -1.
       -4    1    3    3    0  502 -0.14847385244E+04 -0.10308419911E+04 -0.65811488687E+03  0.19235905265E+04  0.12699999809E+01 0.  1.
</event>
<event>
 5   0  0.1128530E-06  0.3664090E+04  0.7818609E-02  0.8075967E-01
       -2   -1    0    0    0  501  0.00000000000E+00  0.00000000000E+00  0.22412857205E+04  0.22412857205E+04  0.25500000920E-02 0.  1.
        2   -1    0    0  501    0  0.00000000000E+00  0.00000000000E+00 -0.14975287045E+04  0.14975287045E+04  0.25500000920E-02 0. -1.
    10030    2    1    2    0    0  0.00000000000E+00  0.00000000000E+00  0.74375701601E+03  0.37388144251E+04  0.36640904473E+04 0.  0.
        5    1    3    3  502    0 -0.13670137511E+03  0.75831549265E+03  0.20678935957E+04  0.22067930727E+04  0.46999998093E+01 0.  1.
       -5    1    3    3    0  502  0.13670137511E+03 -0.75831549265E+03 -0.13241365797E+04  0.15320213524E+04  0.46999998093E+01 0. -1.
</event>
<event>
 5   0  0.3704306E-07  0.3724297E+04  0.7818609E-02  0.8062599E-01
        1   -1    0    0  501    0  0.00000000000E+00  0.00000000000E+00  0.25834135038E+04  0.25834135038E+04  0.50400001928E-02 0. -1.
       -1   -1    0    0    0  501  0.00000000000E+00  0.00000000000E+00 -0.13422540759E+04  0.13422540759E+04  0.50400001928E-02 0.  1.
    10030    2    1    2    0    0  0.00000000000E+00  0.00000000000E+00  0.12411594279E+04  0.39256675797E+04  0.37242971445E+04 0.  0.
        3    1    3    3  502    0  0.65866181015E+03 -0.19277623127E+03  0.24452463446E+04  0.25397298580E+04  0.10100000352E+00 0. -1.
       -3    1    3    3    0  502 -0.65866181015E+03  0.19277623127E+03 -0.12040869167E+04  0.13859377218E+04  0.10100000352E+00 0.  1.
</event>
<event>
 5   0  0.3704306E-07  0.3519693E+04  0.7818609E-02  0.8109139E-01
        1   -1    0    0  501    0  0.00000000000E+00  0.00000000000E+00  0.17763117818E+04  0.17763117818E+04  0.50400001928E-02 0.  1.
       -1   -1    0    0    0  501  0.00000000000E+00  0.00000000000E+00 -0.17435338758E+04  0.17435338758E+04  0.50400001928E-02 0. -1.
    10030    2    1    2    0    0  0.00000000000E+00  0.00000000000E+00  0.32777906038E+02  0.35198456576E+04  0.35196930352E+04 0.  0.
        3    1    3    3  502    0 -0.16730829346E+04 -0.34134847936E+03 -0.40946335855E+03  0.17559571586E+04  0.10100000352E+00 0.  1.
       -3    1    3    3    0  502  0.16730829346E+04  0.34134847936E+03  0.44224126458E+03  0.17638884990E+04  0.10100000352E+00 0. -1.
</event>
<event>
 5   0  0.3764495E-07  0.3680964E+04  0.7818609E-02  0.8072194E-01
        1   -1    0    0  501    0  0.00000000000E+00  0.00000000000E+00  0.19889647928E+04  0.19889647928E+04  0.50400001928E-02 0.  1.
       -1   -1    0    0    0  501  0.00000000000E+00  0.00000000000E+00 -0.17030836498E+04  0.17030836498E+04  0.50400001928E-02 0. -1.
    10030    2    1    2    0    0  0.00000000000E+00  0.00000000000E+00  0.28588114302E+03  0.36920484426E+04  0.36809636883E+04 0.  0.
        4    1    3    3  502    0 -0.10816670214E+04 -0.13904892113E+04  0.67737531421E+03  0.18874063476E+04  0.12699999809E+01 0.  1.
       -4    1    3    3    0  502  0.10816670214E+04  0.13904892113E+04 -0.39149417119E+03  0.18046420949E+04  0.12699999809E+01 0. -1.
</event>
<event>
 5   0  0.3675819E-07  0.3732259E+04  0.7818609E-02  0.8060850E-01
        1   -1    0    0  501    0  0.00000000000E+00  0.00000000000E+00  0.14844622666E+04  0.14844622666E+04  0.50400001928E-02 0. -1.
       -1   -1    0    0    0  501  0.00000000000E+00  0.00000000000E+00 -0.23459267844E+04  0.23459267844E+04  0.50400001928E-02 0.  1.
    10030    2    1    2    0    0  0.00000000000E+00  0.00000000000E+00 -0.86146451782E+03  0.38303890510E+04  0.37322592577E+04 0.  0.
        5    1    3    3  502    0 -0.15882038474E+04  0.66142690490E+02 -0.14340091988E+04  0.21408341339E+04  0.46999998093E+01 0.  1.
       -5    1    3    3    0  502  0.15882038474E+04 -0.66142690490E+02  0.57254468101E+03  0.16895549172E+04  0.46999998093E+01 0. -1.
</event>
<event>
 5   0  0.1128166E-06  0.2370862E+04  0.7818609E-02  0.8450493E-01
        2   -1    0    0  501    0  0.00000000000E+00  0.00000000000E+00  0.15688405751E+04  0.15688405751E+04  0.25500000920E-02 0.  1.
       -2   -1    0    0    0  501  0.00000000000E+00  0.00000000000E+00 -0.89572333839E+03  0.89572333839E+03  0.25500000920E-02 0. -1.
    10030    2    1    2    0    0  0.00000000000E+00  0.00000000000E+00  0.67311723675E+03  0.24645639135E+04  0.23708623894E+04 0.  0.
        3    1    3    3  502    0 -0.57414530969E+03  0.78684157975E+02 -0.73843647640E+03  0.93868124155E+03  0.10100000352E+00 0. -1.
       -3    1    3    3    0  502  0.57414530969E+03 -0.78684157975E+02  0.14115537131E+04  0.15258826720E+04  0.10100000352E+00 0.  1.
</event>
<event>
 5   0  0.3848431E-07  0.3541388E+04  0.7818609E-02  0.8104051E-01
       -1   -1    0    0    0  501  0.00000000000E+00  0.00000000000E+00  0.11923380557E+04  0.11923380557E+04  0.50400001928E-02 0.  1.
        1   -1    0    0  501    0  0.00000000000E+00  0.00000000000E+00 -0.26295874111E+04  0.26295874111E+04  0.50400001928E-02 0. -1.
    10030    2    1    2    0    0  0.00000000000E+00  0.00000000000E+00 -0.14372493554E+04  0.38219254669E+04  0.35413879433E+04 0.  0.
        2    1    3    3  502    0 -0.10297389132E+04 -0.52943019820E+03  0.72716283119E+03  0.13672689374E+04  0.25500000920E-02 0.  1.
       -2    1    3    3    0  502  0.10297389132E+04  0.52943019820E+03 -0.21644121866E+04  0.24546565295E+04  0.25500000920E-02 0. -1.
</event>
<event>
 5   0  0.3764495E-07  0.2921319E+04  0.7818609E-02  0.8266563E-01
        1   -1    0    0  501    0  0.00000000000E+00  0.00000000000E+00  0.19710830039E+04  0.19710830039E+04  0.50400001928E-02 0.  1.
       -1   -1    0    0    0  501  0.00000000000E+00  0.00000000000E+00 -0.10824133261E+04  0.10824133261E+04  0.50400001928E-02 0. -1.
    10030    2    1    2    0    0  0.00000000000E+00  0.00000000000E+00  0.88866967778E+03  0.30534963300E+04  0.29213192296E+04 0.  0.
        4    1    3    3  502    0  0.84576953680E+03 -0.11237794717E+04  0.32398637024E+02  0.14068609366E+04  0.12699999809E+01 0. -1.
       -4    1    3    3    0  502 -0.84576953680E+03  0.11237794717E+04  0.85627104076E+03  0.16466353933E+04  0.12699999809E+01 0.  1.
</event>
<event>
 5   0  0.3704306E-07  0.2896379E+04  0.7818609E-02  0.8273956E-01
        1   -1    0    0  501    0  0.00000000000E+00  0.00000000000E+00  0.19010111050E+04  0.19010111050E+04  0.50400001928E-02 0.  1.
       -1   -1    0    0    0  501  0.00000000000E+00  0.00000000000E+00 -0.11032301969E+04  0.11032301969E+04  0.50400001928E-02 0. -1.
    10030    2    1    2    0    0  0.00000000000E+00  0.00000000000E+00  0.79778090814E+03  0.30042413019E+04  0.28963790191E+04 0.  0.
        3    1    3    3  502    0  0.53413215953E+03 -0.24681094346E+03 -0.97365728275E+03  0.11376384839E+04  0.10100000352E+00 0. -1.
       -3    1    3    3    0  502 -0.53413215953E+03  0.24681094346E+03  0.17714381909E+04  0.18666028180E+04  0.10100000352E+00 0.  1.
</event>
<event>
 5   0  0.3764495E-07  0.3623089E+04  0.7818609E-02  0.8085223E-01
        1   -1    0    0  501    0  0.00000000000E+00  0.00000000000E+00  0.98409588683E+03  0.98409588684E+03  0.50400001928E-02 0.  1.
       -1   -1    0    0    0  501  0.00000000000E+00  0.00000000000E+00 -0.33347293662E+04  0.33347293662E+04  0.50400001928E-02 0. -1.
    10030    2    1    2    0    0  0.00000000000E+00  0.00000000000E+00 -0.23506334794E+04  0.43188252531E+04  0.36230889876E+04 0.  0.
        4    1    3    3  502    0  0.52102197747E+02 -0.14167884756E+04 -0.25195568568E+04  0.28910504305E+04  0.12699999809E+01 0. -1.
       -4    1    3    3    0  502 -0.52102197747E+02  0.14167884756E+04  0.16892337743E+03  0.14277748226E+04  0.12699999809E+01 0.  1.
</event>
<event>
 5   0  0.1051123E-06  0.3708885E+04  0.7818609E-02  0.8065996E-01
        2   -1    0    0  501    0  0.00000000000E+00  0.00000000000E+00  0.13794366963E+04  0.13794366963E+04  0.25500000920E-02 0.  1.
       -2   -1    0    0    0  501  0.00000000000E+00  0.00000000000E+00 -0.24930157308E+04  0.24930157308E+04  0.25500000920E-02 0. -1.
    10030    2    1    2    0    0  0.00000000000E+00  0.00000000000E+00 -0.11135790345E+04  0.38724524271E+04  0.37088852145E+04 0.  0.
        2    1    3    3  502    0  0.16640082661E+04  0.66387947220E+03 -0.56820886570E+02  0.17924530890E+04  0.25500000920E-02 0. -1.
       -2    1    3    3    0  502 -0.16640082661E+04 -0.66387947220E+03 -0.10567581479E+04  0.20799993381E+04  0.25500000920E-02 0.  1.
</event>
<event>
 5   0  0.1128530E-06  0.3939998E+04  0.7818609E-02  0.8016761E-01
       -2   -1    0    0    0  501  0.00000000000E+00  0.00000000000E+00  0.15767771909E+04  0.15767771909E+04  0.25500000920E-02 0. -1.
        2   -1    0    0  501    0  0.00000000000E+00  0.00000000000E+00 -0.24612841649E+04  0.24612841649E+04  0.25500000920E-02 0.  1.
    10030    2    1    2    0    0  0.00000000000E+00  0.00000000000E+00 -0.88450697392E+03  0.40380613558E+04  0.39399983409E+04 0.  0.
        5    1    3    3  502    0  0.40899874899E+03  0.11907490302E+04 -0.19951249931E+04  0.23591755038E+04  0.46999998093E+01 0.  1.
       -5    1    3    3    0  502 -0.40899874899E+03 -0.11907490302E+04  0.11106180192E+04  0.16788858520E+04  0.46999998093E+01 0. -1.
</event>
<event>
 5   0  0.1128166E-06  0.3447520E+04  0.7818609E-02  0.8126341E-01
       -2   -1    0    0    0  501  0.00000000000E+00  0.00000000000E+00  0.13819095164E+04  0.13819095164E+04  0.25500000920E-02 0.  1.
        2   -1    0    0  501    0  0.00000000000E+00  0.00000000000E+00 -0.21501759271E+04  0.21501759271E+04  0.25500000920E-02 0. -1.
    10030    2    1    2    0    0  0.00000000000E+00  0.00000000000E+00 -0.76826641075E+03  0.35320854435E+04  0.34475200221E+04 0.  0.
        3    1    3    3  502    0 -0.52737610191E+03  0.67930323758E+03 -0.19146888860E+04  0.20989549738E+04  0.10100000352E+00 0. -1.
       -3    1    3    3    0  502  0.52737610191E+03 -0.67930323758E+03  0.11464224753E+04  0.14331304698E+04  0.10100000352E+00 0.  1.
</event>
<event>
 5   0  0.1128530E-06  0.3672051E+04  0.7818609E-02  0.8074184E-01
       -2   -1    0    0    0  501  0.00000000000E+00  0.00000000000E+00  0.23318933827E+04  0.23318933827E+04  0.25500000920E-02 0. -1.
        2   -1    0    0  501    0  0.00000000000E+00  0.00000000000E+00 -0.14456017239E+04  0.14456017239E+04  0.25500000920E-02 0.  1.
    10030    2    1    2    0    0  0.00000000000E+00  0.00000000000E+00  0.88629165881E+03  0.37774951065E+04  0.36720507043E+04 0.  0.
        5    1    3    3  502    0 -0.16001818600E+04  0.75717087299E+03  0.94403335547E+03  0.20062678740E+04  0.46999998093E+01 0. -1.
       -5    1    3    3    0  502  0.16001818600E+04 -0.75717087299E+03 -0.57741696663E+02  0.17712272326E+04  0.46999998093E+01 0.  1.
</event>
<event>
 5   0  0.3764495E-07  0.3728747E+04  0.7818609E-02  0.8061621E-01
        1   -1    0    0  501    0  0.00000000000E+00  0.00000000000E+00  0.20491804339E+04  0.20491804339E+04  0.50400001928E-02 0. -1.
       -1   -1    0    0    0  501  0.00000000000E+00  0.00000000000E+00 -0.16962338641E+04  0.16962338641E+04  0.50400001928E-02 0.  1.
    10030    2    1    2    0    0  0.00000000000E+00  0.00000000000E+00  0.35294656985E+03  0.37454142980E+04  0.37287473744E+04 0.  0.
        4    1    3    3  502    0 -0.52053921672E+03  0.12413340561E+03 -0.16174315280E+04  0.17036597486E+04  0.12699999809E+01 0.  1.
       -4    1    3    3    0  502  0.52053921672E+03 -0.12413340561E+03  0.19703780978E+04  0.20417545493E+04  0.12699999809E+01 0. -1.
</event>
<event>
 5   0  0.3675819E-07  0.2503572E+04  0.7818609E-02  0.8401714E-01
        1   -1    0    0  501    0  0.00000000000E+00  0.00000000000E+00  0.11481720751E+04  0.11481720752E+04  0.50400001928E-02 0. -1.
       -1   -1    0    0    0  501  0.00000000000E+00  0.00000000000E+00 -0.13647501534E+04  0.13647501534E+04  0.50400001928E-02 0.  1.
    10030    2    1    2    0    0  0.00000000000E+00  0.00000000000E+00 -0.21657807824E+03  0.25129222285E+04  0.25035718609E+04 0.  0.
        5    1    3    3  502    0  0.30240463298E+03  0.10748884108E+04  0.45960870761E+03  0.12075164230E+04  0.46999998093E+01 0. -1.
       -5    1    3    3    0  502 -0.30240463298E+03 -0.10748884108E+04 -0.67618678585E+03  0.13054058055E+04  0.46999998093E+01 0.  1.
</event>
<event>
 5   0  0.3704306E-07  0.3698163E+04  0.7818609E-02  0.8068369E-01
        1   -1    0    0  501    0  0.00000000000E+00  0.00000000000E+00  0.17234006764E+04  0.17234006764E+04  0.50400001928E-02 0. -1.
       -1   -1    0    0    0  501  0.00000000000E+00  0.00000000000E+00 -0.19839274160E+04  0.19839274160E+04  0.50400001928E-02 0.  1.
    10030    2    1    2    0    0  0.00000000000E+00  0.00000000000E+00 -0.26052673960E+03  0.37073280925E+04  0.36981627064E+04 0.  0.
        3    1    3    3  502    0  0.15524344751E+04 -0.15085273883E+03  0.86532054430E+03  0.17837009287E+04  0.10100000352E+00 0. -1.
       -3    1    3    3    0  502 -0.15524344751E+04  0.15085273883E+03 -0.11258472839E+04  0.19236271638E+04  0.10100000352E+00 0.  1.
</event>
<event>
 5   0  0.3675819E-07  0.3721130E+04  0.7818609E-02  0.8063295E-01
        1   -1    0    0  501    0  0.00000000000E+00  0.00000000000E+00  0.23143588033E+04  0.23143588034E+04  0.50400001928E-02 0. -1.
       -1   -1    0    0    0  501  0.00000000000E+00  0.00000000000E+00 -0.14957498811E+04  0.14957498811E+04  0.50400001928E-02 0.  1.
    10030    2    1    2    0    0  0.00000000000E+00  0.00000000000E+00  0.81860892227E+03  0.38101086844E+04  0.37211298848E+04 0.  0.
        5    1    3    3  502    0  0.53610141278E+03 -0.15866961567E+04 -0.42042450952E+03  0.17267855329E+04  0.46999998093E+01 0.  1.
       -5    1    3    3    0  502 -0.53610141278E+03  0.15866961567E+04  0.12390334318E+04  0.20833231515E+04  0.46999998093E+01 0. -1.
</event>
<event>
 5   0  0.1051123E-06  0.3610770E+04  0.7818609E-02  0.8088029E-01
        2   -1    0    0  501    0  0.00000000000E+00  0.00000000000E+00  0.16649402740E+04  0.16649402740E+04  0.25500000920E-02 0. -1.
       -2   -1    0    0    0  501  0.00000000000E+00  0.00000000000E+00 -0.19576766641E+04  0.19576766641E+04  0.25500000920E-02 0.  1.
    10030    2    1    2    0    0  0.00000000000E+00  0.00000000000E+00 -0.29273639015E+03  0.36226169381E+04  0.36107698467E+04 0.  0.
        2    1    3    3  502    0 -0.87411522331E+03  0.15659185752E+04 -0.35498386957E+03  0.18281662822E+04  0.25500000920E-02 0.  1.
       -2    1    3    3    0  502  0.87411522331E+03 -0.15659185752E+04  0.62247479419E+02  0.17944506559E+04  0.25500000920E-02 0. -1.
</event>
<event>
 5   0  0.1128166E-06  0.3710122E+04  0.7818609E-02  0.8065722E-01
       -2   -1    0    0    0  501  0.00000000000E+00  0.00000000000E+00  0.19068771829E+04  0.19068771829E+04  0.25500000920E-02 0.  1.
        2   -1    0    0  501    0  0.00000000000E+00  0.00000000000E+00 -0.18046525063E+04  0.18046525063E+04  0.25500000920E-02 0. -1.
    10030    2    1    2    0    0  0.00000000000E+00  0.00000000000E+00  0.10222467663E+03  0.37115296892E+04  0.37101216624E+04 0.  0.
        3    1    3    3  502    0 -0.17209290461E+04 -0.45386468821E+03  0.57443680117E+03  0.18701784903E+04  0.10100000352E+00 0.  1.
       -3    1    3    3    0  502  0.17209290461E+04  0.45386468821E+03 -0.47221212454E+03  0.18413511989E+04  0.10100000352E+00 0. -1.
</event>
<event>
 5   0  0.1128166E-06  0.3792458E+04  0.7818609E-02  0.8047775E-01
       -2   -1    0    0    0  501  0.00000000000E+00  0.00000000000E+00  0.14862888906E+04  0.14862888906E+04  0.25500000920E-02 0. -1.
        2   -1    0    0  501    0  0.00000000000E+00  0.00000000000E+00 -0.24192362932E+04  0.24192362932E+04  0.25500000920E-02 0.  1.
    10030    2    1    2    0    0  0.00000000000E+00  0.00000000000E+00 -0.93294740266E+03  0.39055251838E+04  0.37924577922E+04 0.  0.
        3    1    3    3  502    0  0.15431089437E+04  0.10463823312E+04 -0.82259101097E+03  0.20378314888E+04  0.10100000352E+00 0. -1.
       -3    1    3    3    0  502 -0.15431089437E+04 -0.10463823312E+04 -0.11035639169E+03  0.18676936951E+04  0.10100000352E+00 0.  1.
</event>
<event>
 5   0  0.3848431E-07  0.3384165E+04  0.7818609E-02  0.8141804E-01
       -1   -1    0    0    0  501  0.00000000000E+00  0.00000000000E+00  0.13773515541E+04  0.13773515541E+04  0.50400001928E-02 0.  1.
        1   -1    0    0  501    0  0.00000000000E+00  0.00000000000E+00 -0.20787307393E+04  0.20787307393E+04  0.50400001928E-02 0. -1.
    10030    2    1    2    0    0  0.00000000000E+00  0.00000000000E+00 -0.70137918523E+03  0.34560822934E+04  0.33841648980E+04 0.  0.
        2    1    3    3  502    0  0.99351798660E+03  0.55668358701E+03  0.92737201272E+03  0.14686706424E+04  0.25500000920E-02 0.  1.
       -2    1    3    3    0  502 -0.99351798660E+03 -0.55668358701E+03 -0.16287511979E+04  0.19874116510E+04  0.25500000920E-02 0. -1.
</event>
<event>
 5   0  0.1066907E-06  0.2656340E+04  0.7818609E-02  0.8349312E-01
        2   -1    0    0  501    0  0.00000000000E+00  0.00000000000E+00  0.12477578197E+04  0.12477578197E+04  0.25500000920E-02 0.  1.
       -2   -1    0    0    0  501  0.00000000000E+00  0.00000000000E+00 -0.14137648672E+04  0.14137648672E+04  0.25500000920E-02 0. -1.
    10030    2    1    2    0    0  0.00000000000E+00  0.00000000000E+00 -0.16600704750E+03  0.26615226869E+04  0.26563404663E+04 0.  0.
        4    1    3    3  502    0 -0.11533507199E+04 -0.53970608655E+03 -0.46127682517E+03  0.13543553689E+04  0.12699999809E+01 0.  1.
       -4    1    3    3    0  502  0.11533507199E+04  0.53970608655E+03  0.29526977767E+03  0.13071673180E+04  0.12699999809E+01 0. -1.
</event>
<event>
 5   0  0.1128166E-06  0.3722377E+04  0.7818609E-02  0.8063021E-01
        2   -1    0    0  501    0  0.00000000000E+00  0.00000000000E+00  0.29283462247E+04  0.29283462247E+04  0.25500000920E-02 0.  1.
       -2   -1    0    0    0  501  0.00000000000E+00  0.00000000000E+00 -0.11829280596E+04  0.11829280596E+04  0.25500000920E-02 0. -1.
    10030    2    1    2    0    0  0.00000000000E+00  0.00000000000E+00  0.17454181651E+04  0.41112742843E+04  0.37223771531E+04 0.  0.
        3    1    3    3  502    0 -0.55924554863E+03  0.14914067603E+04 -0.19067380393E+03  0.16041839726E+04  0.10100000352E+00 0. -1.
       -3    1    3    3    0  502  0.55924554863E+03 -0.14914067603E+04  0.19360919690E+04  0.25070903117E+04  0.10100000352E+00 0.  1.
</event>
<event>
 5   0  0.1128166E-06  0.3184633E+04  0.7818609E-02  0.8192887E-01
        2   -1    0    0  501    0  0.00000000000E+00  0.00000000000E+00  0.16240970972E+04  0.16240970972E+04  0.25500000920E-02 0. -1.
       -2   -1    0    0    0  501  0.00000000000E+00  0.00000000000E+00 -0.15611578319E+04  0.15611578319E+04  0.25500000920E-02 0.  1.
    10030    2    1    2    0    0  0.00000000000E+00  0.00000000000E+00  0.62939265286E+02  0.31852549292E+04  0.31846330421E+04 0.  0.
        3    1    3    3  502    0  0.15649474656E+04  0.25293792413E+03 -0.11833855121E+03  0.15896673194E+04  0.10100000352E+00 0. -1.
       -3    1    3    3    0  502 -0.15649474656E+04 -0.25293792413E+03  0.18127781650E+03  0.15955876098E+04  0.10100000352E+00 0.  1.
</event>
<event>
 5   0  0.1128166E-06  0.3668651E+04  0.7818609E-02  0.8074945E-01
        2   -1    0    0  501    0  0.00000000000E+00  0.00000000000E+00  0.26493604986E+04  0.26493604986E+04  0.25500000920E-02 0. -1.
       -2   -1    0    0    0  501  0.00000000000E+00  0.00000000000E+00 -0.12700234237E+04  0.12700234237E+04  0.25500000920E-02 0.  1.
    10030    2    1    2    0    0  0.00000000000E+00  0.00000000000E+00  0.13793370749E+04  0.39193839223E+04  0.36686509188E+04 0.  0.
        3    1    3    3  502    0 -0.14366419480E+04 -0.50950773133E+03 -0.40046808542E+03  0.15760434362E+04  0.10100000352E+00 0.  1.
       -3    1    3    3    0  502  0.14366419480E+04  0.50950773133E+03  0.17798051603E+04  0.23433404861E+04  0.10100000352E+00 0. -1.
</event>
<event>
 5   0  0.1128530E-06  0.3697248E+04  0.7818609E-02  0.8068572E-01
       -2   -1    0    0    0  501  0.00000000000E+00  0.00000000000E+00  0.13352064466E+04  0.13352064466E+04  0.25500000920E-02 0.  1.
        2   -1    0    0  501    0  0.00000000000E+00  0.00000000000E+00 -0.25594627839E+04  0.25594627839E+04  0.25500000920E-02 0. -1.
    10030    2    1    2    0    0  0.00000000000E+00  0.00000000000E+00 -0.12242563373E+04  0.38946692305E+04  0.36972482788E+04 0.  0.
        5    1    3    3  502    0 -0.60062355441E+03 -0.15040001022E+04 -0.15511438523E+04  0.22425062546E+04  0.46999998093E+01 0. -1.
       -5    1    3    3    0  502  0.60062355441E+03  0.15040001022E+04  0.32688751497E+03  0.16521629759E+04  0.46999998093E+01 0.  1.
</event>
<event>
 5   0  0.3675819E-07  0.3677331E+04  0.7818609E-02  0.8073004E-01
        1   -1    0    0  501    0  0.00000000000E+00  0.00000000000E+00  0.22532167732E+04  0.22532167732E+04  0.50400001928E-02 0.  1.
       -1   -1    0    0    0  501  0.00000000000E+00  0.00000000000E+00 -0.15003840294E+04  0.15003840295E+04  0.50400001928E-02 0. -1.
    10030    2    1    2    0    0  0.00000000000E+00  0.00000000000E+00  0.75283274372E+03  0.37536008026E+04  0.36773308045E+04 0.  0.
        5    1    3    3  502    0  0.11400879030E+04  0.88043965160E+02 -0.10932785944E+04  0.15820342415E+04  0.46999998093E+01 0. -1.
       -5    1    3    3    0  502 -0.11400879030E+04 -0.88043965160E+02  0.18461113382E+04  0.21715665611E+04  0.46999998093E+01 0.  1.
</event>
<event>
 5   0  0.3848431E-07  0.3679857E+04  0.7818609E-02  0.8072441E-01
        1   -1    0    0  501    0  0.00000000000E+00  0.00000000000E+00  0.20783179437E+04  0.20783179437E+04  0.50400001928E-02 0.  1.
       -1   -1    0    0    0  501  0.00000000000E+00  0.00000000000E+00 -0.16288828144E+04  0.16288828144E+04  0.50400001928E-02 0. -1.
    10030    2    1    2    0    0  0.00000000000E+00  0.00000000000E+00  0.44943512930E+03  0.37072007580E+04  0.36798567261E+04 0.  0.
        2    1    3    3  502    0  0.15170859136E+04 -0.69174914825E+03 -0.55905436968E+03  0.17585813435E+04  0.25500000920E-02 0. -1.
       -2    1    3    3    0  502 -0.15170859136E+04  0.69174914825E+03  0.10084894990E+04  0.19486194146E+04  0.25500000920E-02 0.  1.
</event>
<event>
 5   0  0.3764495E-07  0.3785676E+04  0.7818609E-02  0.8049236E-01
        1   -1    0    0  501    0  0.00000000000E+00  0.00000000000E+00  0.23034021998E+04  0.23034021998E+04  0.50400001928E-02 0. -1.
       -1   -1    0    0    0  501  0.00000000000E+00  0.00000000000E+00 -0.15554541172E+04  0.15554541172E+04  0.50400001928E-02 0.  1.
    10030    2    1    2    0    0  0.00000000000E+00  0.00000000000E+00  0.74794808259E+03  0.38588563170E+04  0.37856763915E+04 0.  0.
        4    1    3    3  502    0  0.45970258145E+03 -0.16560447027E+04  0.11824159774E+04  0.20861255181E+04  0.12699999809E+01 0. -1.
       -4    1    3    3    0  502 -0.45970258145E+03  0.16560447027E+04 -0.43446789481E+03  0.17727307989E+04  0.12699999809E+01 0.  1.
</event>
<event>
 5   0  0.1128166E-06  0.3709367E+04  0.7818609E-02  0.8065889E-01
        2   -1    0    0  501    0  0.00000000000E+00  0.00000000000E+00  0.18219751460E+04  0.18219751460E+04  0.25500000920E-02 0.  1.
       -2   -1    0    0    0  501  0.00000000000E+00  0.00000000000E+00 -0.18879791206E+04  0.18879791206E+04  0.25500000920E-02 0. -1.
    10030    2    1    2    0    0  0.00000000000E+00  0.00000000000E+00 -0.66003974622E+02  0.37099542665E+04  0.37093670801E+04 0.  0.
        3    1    3    3  502    0  0.16975720086E+04 -0.57506355822E+03 -0.50994454524E+03  0.18634624412E+04  0.10100000352E+00 0. -1.
       -3    1    3    3    0  502 -0.16975720086E+04  0.57506355822E+03  0.44394057062E+03  0.18464918253E+04  0.10100000352E+00 0.  1.
</event>
<event>
 5   0  0.1128166E-06  0.3510014E+04  0.7818609E-02  0.8111421E-01
       -2   -1    0    0    0  501  0.00000000000E+00  0.00000000000E+00  0.11813434076E+04  0.11813434076E+04  0.25500000920E-02 0. -1.
        2   -1    0    0  501    0  0.00000000000E+00  0.00000000000E+00 -0.26072434015E+04  0.26072434015E+04  0.25500000920E-02 0.  1.
    10030    2    1    2    0    0  0.00000000000E+00  0.00000000000E+00 -0.14258999940E+04  0.37885868091E+04  0.35100141335E+04 0.  0.
        3    1    3    3  502    0  0.14488556033E+04 -0.94650458368E+03 -0.39827052815E+03  0.17758583586E+04  0.10100000352E+00 0. -1.
       -3    1    3    3    0  502 -0.14488556033E+04  0.94650458368E+03 -0.10276294658E+04  0.20127284505E+04  0.10100000352E+00 0.  1.
</event>
<event>
 5   0  0.1092116E-06  0.3680829E+04  0.7818609E-02  0.8072224E-01
        2   -1    0    0  501    0  0.00000000000E+00  0.00000000000E+00  0.16448495269E+04  0.16448495269E+04  0.25500000920E-02 0. -1.
       -2   -1    0    0    0  501  0.00000000000E+00  0.00000000000E+00 -0.20592317005E+04  0.20592317005E+04  0.25500000920E-02 0.  1.
    10030    2    1    2    0    0  0.00000000000E+00  0.00000000000E+00 -0.41438217367E+03  0.37040812274E+04  0.36808294111E+04 0.  0.
        1    1    3    3  502    0  0.13091717082E+04  0.67095348062E+03 -0.13200781285E+04  0.19765412720E+04  0.50400001928E-02 0.  1.
       -1    1    3    3    0  502 -0.13091717082E+04 -0.67095348062E+03  0.90569595485E+03  0.17275399554E+04  0.50400001928E-02 0. -1.
</event>
<event>
 5   0  0.3682276E-07  0.3583699E+04  0.7818609E-02  0.8094236E-01
       -1   -1    0    0    0  501  0.00000000000E+00  0.00000000000E+00  0.14202511522E+04  0.14202511522E+04  0.50400001928E-02 0. -1.
        1   -1    0    0  501    0  0.00000000000E+00  0.00000000000E+00 -0.22606732175E+04  0.22606732175E+04  0.50400001928E-02 0.  1.
    10030    2    1    2    0    0  0.00000000000E+00  0.00000000000E+00 -0.84042206531E+03  0.36809243698E+04  0.35836985041E+04 0.  0.
        1    1    3    3  502    0  0.24595763684E+03  0.93697450718E+03 -0.19685247664E+04  0.21939704060E+04  0.50400001928E-02 0.  1.
       -1    1    3    3    0  502 -0.24595763684E+03 -0.93697450718E+03  0.11281027011E+04  0.14869539638E+04  0.50400001928E-02 0. -1.
</event>
<event>
 5   0  0.1051123E-06  0.3726853E+04  0.7818609E-02  0.8062037E-01
        2   -1    0    0  501    0  0.00000000000E+00  0.00000000000E+00  0.21319019667E+04  0.21319019667E+04  0.25500000920E-02 0.  1.
       -2   -1    0    0    0  501  0.00000000000E+00  0.00000000000E+00 -0.16287606296E+04  0.16287606296E+04  0.25500000920E-02 0. -1.
    10030    2    1    2    0    0  0.00000000000E+00  0.00000000000E+00  0.50314133719E+03  0.37606625963E+04  0.37268528222E+04 0.  0.
        2    1    3    3  502    0 -0.65722707237E+03 -0.13477330059E+04 -0.86482335961E+03  0.17309682618E+04  0.25500000920E-02 0. -1.
       -2    1    3    3    0  502  0.65722707237E+03  0.13477330059E+04  0.13679646968E+04  0.20296943345E+04  0.25500000920E-02 0.  1.
</event>
<event>
 5   0  0.1128166E-06  0.3898532E+04  0.7818609E-02  0.8025335E-01
       -2   -1    0    0    0  501  0.00000000000E+00  0.00000000000E+00  0.22194397651E+04  0.22194397651E+04  0.25500000920E-02 0.  1.
        2   -1    0    0  501    0  0.00000000000E+00  0.00000000000E+00 -0.17119802326E+04  0.17119802326E+04  0.25500000920E-02 0. -1.
    10030    2    1    2    0    0  0.00000000000E+00  0.00000000000E+00  0.50745953250E+03  0.39314199976E+04  0.38985315210E+04 0.  0.
        3    1    3    3  502    0  0.10382458721E+04 -0.16395278504E+04  0.43866422553E+03  0.19895809549E+04  0.10100000352E+00 0.  1.
       -3    1    3    3    0  502 -0.10382458721E+04  0.16395278504E+04  0.68795306963E+02  0.19418390427E+04  0.10100000352E+00 0. -1.
</event>
<event>
 5   0  0.3682276E-07  0.3729299E+04  0.7818609E-02  0.8061500E-01
        1   -1    0    0  501    0  0.00000000000E+00  0.00000000000E+00  0.27846208466E+04  0.27846208466E+04  0.50400001928E-02 0.  1.
       -1   -1    0    0    0  501  0.00000000000E+00  0.00000000000E+00 -0.12486141551E+04  0.12486141551E+04  0.50400001928E-02 0. -1.
    10030    2    1    2    0    0  0.00000000000E+00  0.00000000000E+00  0.15360066915E+04  0.40332350018E+04  0.37292985967E+04 0.  0.
        1    1    3    3  502    0  0.17269128110E+04 -0.70240262953E+03  0.72871505425E+03  0.20016550505E+04  0.50400001928E-02 0. -1.
       -1    1    3    3    0  502 -0.17269128110E+04  0.70240262953E+03  0.80729163728E+03  0.20315799513E+04  0.50400001928E-02 0.  1.
</event>
<event>
 5   0  0.1066907E-06  0.3848850E+04  0.7818609E-02  0.8035752E-01
       -2   -1    0    0    0  501  0.00000000000E+00  0.00000000000E+00  0.13069496155E+04  0.13069496155E+04  0.25500000920E-02 0. -1.
        2   -1    0    0  501    0  0.00000000000E+00  0.00000000000E+00 -0.28336301656E+04  0.28336301656E+04  0.25500000920E-02 0.  1.
    10030    2    1    2    0    0  0.00000000000E+00  0.00000000000E+00 -0.15266805501E+04  0.41405797811E+04  0.38488501428E+04 0.  0.
        4    1    3    3  502    0 -0.50950505321E+03  0.10312438694E+04  0.89644019138E+03  0.14583092769E+04  0.12699999809E+01 0. -1.
       -4    1    3    3    0  502  0.50950505321E+03 -0.10312438694E+04 -0.24231207414E+04  0.26822705042E+04  0.12699999809E+01 0.  1.
</event>
<event>
 5   0  0.1128530E-06  0.3713808E+04  0.7818609E-02  0.8064909E-01
        2   -1    0    0  501    0  0.00000000000E+00  0.00000000000E+00  0.21626856854E+04  0.21626856854E+04  0.25500000920E-02 0.  1.
       -2   -1    0    0    0  501  0.00000000000E+00  0.00000000000E+00 -0.15943569234E+04  0.15943569234E+04  0.25500000920E-02 0. -1.
    10030    2    1    2    0    0  0.00000000000E+00  0.00000000000E+00  0.56832876193E+03  0.37570426088E+04  0.37138082318E+04 0.  0.
        5    1    3    3  502    0  0.13288051749E+04 -0.10314911793E+04  0.10796862114E+04  0.19988600879E+04  0.46999998093E+01 0.  1.
       -5    1    3    3    0  502 -0.13288051749E+04  0.10314911793E+04 -0.51135744943E+03  0.17581825209E+04  0.46999998093E+01 0. -1.
</event>
<event>
 5   0  0.1051123E-06  0.2815386E+04  0.7818609E-02  0.8298508E-01
        2   -1    0    0  501    0  0.00000000000E+00  0.00000000000E+00  0.31709095158E+04  0.31709095159E+04  0.25500000920E-02 0.  1.
       -2   -1    0    0    0  501  0.00000000000E+00  0.00000000000E+00 -0.62493078552E+03  0.62493078553E+03  0.25500000920E-02 0. -1.
    10030    2    1    2    0    0  0.00000000000E+00  0.00000000000E+00  0.25459787303E+04  0.37958403014E+04  0.28153855683E+04 0.  0.
        2    1    3    3  502    0 -0.13201305499E+04  0.34161118699E+03  0.17442136202E+04  0.22139837454E+04  0.25500000920E-02 0.  1.
       -2    1    3    3    0  502  0.13201305499E+04 -0.34161118699E+03  0.80176511012E+03  0.15818565560E+04  0.25500000920E-02 0. -1.
</event>
<event>
 5   0  0.1128166E-06  0.3804299E+04  0.7818609E-02  0.8045233E-01
       -2   -1    0    0    0  501  0.00000000000E+00  0.00000000000E+00  0.29384158289E+04  0.29384158289E+04  0.25500000920E-02 0.  1.
        2   -1    0    0  501    0  0.00000000000E+00  0.00000000000E+00 -0.12313343314E+04  0.12313343314E+04  0.25500000920E-02 0. -1.
    10030    2    1    2    0    0  0.00000000000E+00  0.00000000000E+00  0.17070814975E+04  0.41697501603E+04  0.38042987737E+04 0.  0.
        3    1    3    3  502    0 -0.11193161587E+04  0.12621091101E+04 -0.10973829083E+03  0.16905119259E+04  0.10100000352E+00 0. -1.
       -3    1    3    3    0  502  0.11193161587E+04 -0.12621091101E+04  0.18168197883E+04  0.24792382343E+04  0.10100000352E+00 0.  1.
</event>
<event>
 5   0  0.1128166E-06  0.3762991E+04  0.7818609E-02  0.8054144E-01
        2   -1    0    0  501    0  0.00000000000E+00  0.00000000000E+00  0.28015124890E+04  0.28015124890E+04  0.25500000920E-02 0.  1.
       -2   -1    0    0    0  501  0.00000000000E+00  0.00000000000E+00 -0.12636120036E+04  0.12636120036E+04  0.25500000920E-02 0. -1.
    10030    2    1    2    0    0  0.00000000000E+00  0.00000000000E+00  0.15379004854E+04  0.40651244926E+04  0.37629907304E+04 0.  0.
        3    1    3    3  502    0 -0.32322662283E+03  0.11806125391E+03 -0.12293282376E+04  0.12765820911E+04  0.10100000352E+00 0. -1.
       -3    1    3    3    0  502  0.32322662283E+03 -0.11806125391E+03  0.27672287230E+04  0.27885424015E+04  0.10100000352E+00 0.  1.
</event>
<event>
 5   0  0.1051123E-06  0.3632072E+04  0.7818609E-02  0.8083185E-01
       -2   -1    0    0    0  501  0.00000000000E+00  0.00000000000E+00  0.13717715385E+04  0.13717715385E+04  0.25500000920E-02 0.  1.
        2   -1    0    0  501    0  0.00000000000E+00  0.00000000000E+00 -0.24041801568E+04  0.24041801568E+04  0.25500000920E-02 0. -1.
    10030    2    1    2    0    0  0.00000000000E+00  0.00000000000E+00 -0.10324086182E+04  0.37759516953E+04  0.36320715370E+04 0.  0.
        2    1    3    3  502    0 -0.17263279347E+04 -0.55691367978E+03 -0.60698425061E+03  0.19127966085E+04  0.25500000920E-02 0.  1.
       -2    1    3    3    0  502  0.17263279347E+04  0.55691367978E+03 -0.42542436763E+03  0.18631550868E+04  0.25500000920E-02 0. -1.
</event>
<event>
 5   0  0.1128166E-06  0.3780961E+04  0.7818609E-02  0.8050253E-01
       -2   -1    0    0    0  501  0.00000000000E+00  0.00000000000E+00  0.12650996057E+04  0.12650996057E+04  0.25500000920E-02 0.  1.
        2   -1    0    0  501    0  0.00000000000E+00  0.00000000000E+00 -0.28250073234E+04  0.28250073234E+04  0.25500000920E-02 0. -1.
    10030    2    1    2    0    0  0.00000000000E+00  0.00000000000E+00 -0.15599077178E+04  0.40901069291E+04  0.37809605398E+04 0.  0.
        3    1    3    3  502    0  0.53306765276E+03  0.17064934391E+04 -0.14447193117E+04  0.22985854084E+04  0.10100000352E+00 0. -1.
       -3    1    3    3    0  502 -0.53306765276E+03 -0.17064934391E+04 -0.11518840605E+03  0.17915215207E+04  0.10100000352E+00 0.  1.
</event>
<event>
 5   0  0.3675819E-07  0.3695711E+04  0.7818609E-02  0.8068913E-01
        1   -1    0    0  501    0  0.00000000000E+00  0.00000000000E+00  0.20837298201E+04  0.20837298201E+04  0.50400001928E-02 0. -1.
       -1   -1    0    0    0  501  0.00000000000E+00  0.00000000000E+00 -0.16386817547E+04  0.16386817547E+04  0.50400001928E-02 0.  1.
    10030    2    1    2    0    0  0.00000000000E+00  0.00000000000E+00  0.44504806537E+03  0.37224115749E+04  0.36957110482E+04 0.  0.
        5    1    3    3  502    0  0.83556610036E+03  0.11438711377E+04  0.14176614620E+04  0.20040953068E+04  0.46999998093E+01 0. -1.
       -5    1    3    3    0  502 -0.83556610036E+03 -0.11438711377E+04 -0.97261339661E+03  0.17183162681E+04  0.46999998093E+01 0.  1.
</event>
<event>
 5   0  0.1092116E-06  0.3675956E+04  0.7818609E-02  0.8073311E-01
        2   -1    0    0  501    0  0.00000000000E+00  0.00000000000E+00  0.22232982335E+04  0.22232982335E+04  0.25500000920E-02 0. -1.
       -2   -1    0    0    0  501  0.00000000000E+00  0.00000000000E+00 -0.15194373293E+04  0.15194373293E+04  0.25500000920E-02 0.  1.
    10030    2    1    2    0    0  0.00000000000E+00  0.00000000000E+00  0.70386090422E+03  0.37427355628E+04  0.36759555656E+04 0.  0.
        1    1    3    3  502    0  0.13030139333E+04  0.12193758025E+04 -0.95877358516E+02  0.17871527987E+04  0.50400001928E-02 0.  1.
       -1    1    3    3    0  502 -0.13030139333E+04 -0.12193758025E+04  0.79973826274E+03  0.19555827640E+04  0.50400001928E-02 0. -1.
</event>
<event>
 5   0  0.3704306E-07  0.3731335E+04  0.7818609E-02  0.8061053E-01
        1   -1    0    0  501    0  0.00000000000E+00  0.00000000000E+00  0.12449198291E+04  0.12449198291E+04  0.50400001928E-02 0. -1.
       -1   -1    0    0    0  501  0.00000000000E+00  0.00000000000E+00 -0.27959353810E+04  0.27959353810E+04  0.50400001928E-02 0.  1.
    10030    2    1    2    0    0  0.00000000000E+00  0.00000000000E+00 -0.15510155519E+04  0.40408552101E+04  0.37313350944E+04 0.  0.
        3    1    3    3  502    0 -0.10888497577E+04 -0.10661004991E+03  0.86105955127E+03  0.13922582586E+04  0.10100000352E+00 0. -1.
       -3    1    3    3    0  502  0.10888497577E+04  0.10661004991E+03 -0.24120751032E+04  0.26485969515E+04  0.10100000352E+00 0.  1.
</event>
<event>
 5   0  0.1066907E-06  0.3779980E+04  0.7818609E-02  0.8050465E-01
       -2   -1    0    0    0  501  0.00000000000E+00  0.00000000000E+00  0.13515045435E+04  0.13515045435E+04  0.25500000920E-02 0.  1.
        2   -1    0    0  501    0  0.00000000000E+00  0.00000000000E+00 -0.26430266154E+04  0.26430266154E+04  0.25500000920E-02 0. -1.
    10030    2    1    2    0    0  0.00000000000E+00  0.00000000000E+00 -0.12915220720E+04  0.39945311589E+04  0.37799801477E+04 0.  0.
        4    1    3    3  502    0  0.14983442514E+04  0.64204147224E+03 -0.16565053324E+04  0.23240620209E+04  0.12699999809E+01 0. -1.
       -4    1    3    3    0  502 -0.14983442514E+04 -0.64204147224E+03  0.36498326041E+03  0.16704691380E+04  0.12699999809E+01 0.  1.
</event>
<event>
 5   0  0.1066907E-06  0.2899176E+04  0.7818609E-02  0.8273123E-01
       -2   -1    0    0    0  501  0.00000000000E+00  0.00000000000E+00  0.10446187550E+04  0.10446187551E+04  0.25500000920E-02 0.  1.
        2   -1    0    0  501    0  0.00000000000E+00  0.00000000000E+00 -0.20115521726E+04  0.20115521726E+04  0.25500000920E-02 0. -1.
    10030    2    1    2    0    0  0.00000000000E+00  0.00000000000E+00 -0.96693341756E+03  0.30561709277E+04  0.28991758320E+04 0.  0.
        4    1    3    3  502    0  0.13349918496E+04  0.51052102600E+03 -0.22856997440E+03  0.14474393952E+04  0.12699999809E+01 0.  1.
       -4    1    3    3    0  502 -0.13349918496E+04 -0.51052102600E+03 -0.73836344315E+03  0.16087315325E+04  0.12699999809E+01 0. -1.
</event>
<event>
 5   0  0.1066907E-06  0.3724336E+04  0.7818609E-02  0.8062590E-01
       -2   -1    0    0    0  501  0.00000000000E+00  0.00000000000E+00  0.27784374708E+04  0.27784374708E+04  0.25500000920E-02 0.  1.
        2   -1    0    0  501    0  0.00000000000E+00  0.00000000000E+00 -0.12480647124E+04  0.12480647124E+04  0.25500000920E-02 0. -1.
    10030    2    1    2    0    0  0.00000000000E+00  0.00000000000E+00  0.15303727584E+04  0.40265021832E+04  0.37243360551E+04 0.  0.
        4    1    3    3  502    0  0.12434458627E+04  0.13824723022E+04  0.65556531499E+03  0.19715868672E+04  0.12699999809E+01 0.  1.
       -4    1    3    3    0  502 -0.12434458627E+04 -0.13824723022E+04  0.87480744337E+03  0.20549153159E+04  0.12699999809E+01 0. -1.
</event>
<event>
 5   0  0.1092116E-06  0.3616929E+04  0.7818609E-02  0.8086625E-01
        2   -1    0    0  501    0  0.00000000000E+00  0.00000000000E+00  0.25441514272E+04  0.25441514272E+04  0.25500000920E-02 0. -1.
       -2   -1    0    0    0  501  0.00000000000E+00  0.00000000000E+00 -0.12855149539E+04  0.12855149539E+04  0.25500000920E-02 0.  1.
    10030    2    1    2    0    0  0.00000000000E+00  0.00000000000E+00  0.12586364733E+04  0.38296663811E+04  0.36169294738E+04 0.  0.
        1    1    3    3  502    0 -0.18037315687E+04  0.13050799349E+03  0.62079516864E+03  0.19120320472E+04  0.50400001928E-02 0. -1.
       -1    1    3    3    0  502  0.18037315687E+04 -0.13050799349E+03  0.63784130470E+03  0.19176343338E+04  0.50400001928E-02 0.  1.
</event>
<event>
 5   0  0.3682276E-07  0.3733005E+04  0.7818609E-02  0.8060687E-01
       -1   -1    0    0    0  501  0.00000000000E+00  0.00000000000E+00  0.14766214009E+04  0.14766214009E+04  0.50400001928E-02 0.  1.
        1   -1    0    0  501    0  0.00000000000E+00  0.00000000000E+00 -0.23593258672E+04  0.23593258672E+04  0.50400001928E-02 0. -1.
    10030    2    1    2    0    0  0.00000000000E+00  0.00000000000E+00 -0.88270446631E+03  0.38359472682E+04  0.37330047240E+04 0.  0.
        1    1    3    3  502    0  0.97317928456E+03 -0.80357846751E+03  0.97171085555E+03  0.15928082936E+04  0.50400001928E-02 0.  1.
       -1    1    3    3    0  502 -0.97317928456E+03  0.80357846751E+03 -0.18544153219E+04  0.22431389746E+04  0.50400001928E-02 0. -1.
</event>
<event>
 5   0  0.3675819E-07  0.3598648E+04  0.7818609E-02  0.8090801E-01
       -1   -1    0    0    0  501  0.00000000000E+00  0.00000000000E+00  0.17459069854E+04  0.17459069855E+04  0.50400001928E-02 0. -1.
        1   -1    0    0  501    0  0.00000000000E+00  0.00000000000E+00 -0.18543753421E+04  0.18543753421E+04  0.50400001928E-02 0.  1.
    10030    2    1    2    0    0  0.00000000000E+00  0.00000000000E+00 -0.10846835666E+03  0.36002823276E+04  0.35986480036E+04 0.  0.
        5    1    3    3  502    0 -0.16067052761E+04 -0.39586036615E+03  0.65272490840E+03  0.17788420868E+04  0.46999998093E+01 0. -1.
       -5    1    3    3    0  502  0.16067052761E+04  0.39586036615E+03 -0.76119326506E+03  0.18214402407E+04  0.46999998093E+01 0.  1.
</event>
<event>
 5   0  0.1066907E-06  0.3659850E+04  0.7818609E-02  0.8076918E-01
        2   -1    0    0  501    0  0.00000000000E+00  0.00000000000E+00  0.18697983953E+04  0.18697983953E+04  0.25500000920E-02 0.  1.
       -2   -1    0    0    0  501  0.00000000000E+00  0.00000000000E+00 -0.17909023476E+04  0.17909023477E+04  0.25500000920E-02 0. -1.
    10030    2    1    2    0    0  0.00000000000E+00  0.00000000000E+00  0.78896047642E+02  0.36607007429E+04  0.36598504536E+04 0.  0.
        4    1    3    3  502    0  0.10722067225E+04  0.11787075248E+04  0.93946040727E+03  0.18497475921E+04  0.12699999809E+01 0.  1.
       -4    1    3    3    0  502 -0.10722067225E+04 -0.11787075248E+04 -0.86056435963E+03  0.18109531509E+04  0.12699999809E+01 0. -1.
</event>
<event>
 5   0  0.1092116E-06  0.3713094E+04  0.7818609E-02  0.8065066E-01
       -2   -1    0    0    0  501  0.00000000000E+00  0.00000000000E+00  0.17713235963E+04  0.17713235963E+04  0.25500000920E-02 0.  1.
        2   -1    0    0  501    0  0.00000000000E+00  0.00000000000E+00 -0.19458708929E+04  0.19458708929E+04  0.25500000920E-02 0. -1.
    10030    2    1    2    0    0  0.00000000000E+00  0.00000000000E+00 -0.17454729659E+03  0.37171944891E+04  0.37130941425E+04 0.  0.
        1    1    3    3  502    0 -0.84511972921E+03  0.67912171120E+03  0.14214849741E+04  0.17877508739E+04  0.50400001928E-02 0.  1.
       -1    1    3    3    0  502  0.84511972921E+03 -0.67912171120E+03 -0.15960322707E+04  0.19294436153E+04  0.50400001928E-02 0. -1.
</event>
<event>
 5   0  0.1051123E-06  0.3592954E+04  0.7818609E-02  0.8092108E-01
       -2   -1    0    0    0  501  0.00000000000E+00  0.00000000000E+00  0.11070082992E+04  0.11070082992E+04  0.25500000920E-02 0. -1.
        2   -1    0    0  501    0  0.00000000000E+00  0.00000000000E+00 -0.29153618860E+04  0.29153618860E+04  0.25500000920E-02 0.  1.
    10030    2    1    2    0    0  0.00000000000E+00  0.00000000000E+00 -0.18083535868E+04  0.40223701851E+04  0.35929541065E+04 0.  0.
        2    1    3    3  502    0  0.17904414929E+04  0.10732271486E+03 -0.10168587408E+04  0.20618439813E+04  0.25500000920E-02 0.  1.
       -2    1    3    3    0  502 -0.17904414929E+04 -0.10732271486E+03 -0.79149484600E+03  0.19605262038E+04  0.25500000920E-02 0. -1.
</event>
<event>
 5   0  0.1128530E-06  0.4006873E+04  0.7818609E-02  0.8003161E-01
        2   -1    0    0  501    0  0.00000000000E+00  0.00000000000E+00  0.22638980650E+04  0.22638980650E+04  0.25500000920E-02 0.  1.
       -2   -1    0    0    0  501  0.00000000000E+00  0.00000000000E+00 -0.17729411255E+04  0.17729411255E+04  0.25500000920E-02 0. -1.
    10030    2    1    2    0    0  0.00000000000E+00  0.00000000000E+00  0.49095693951E+03  0.40368391905E+04  0.40068730868E+04 0.  0.
        5    1    3    3  502    0  0.16806045938E+04 -0.10031517736E+04  0.67645167250E+03  0.20708341886E+04  0.46999998093E+01 0.  1.
       -5    1    3    3    0  502 -0.16806045938E+04  0.10031517736E+04 -0.18549473299E+03  0.19660050019E+04  0.46999998093E+01 0. -1.
</event>
<event>
 5   0  0.1051123E-06  0.3147511E+04  0.7818609E-02  0.8202819E-01
        2   -1    0    0  501    0  0.00000000000E+00  0.00000000000E+00  0.18687758646E+04  0.18687758646E+04  0.25500000920E-02 0.  1.
       -2   -1    0    0    0  501  0.00000000000E+00  0.00000000000E+00 -0.13253094579E+04  0.13253094579E+04  0.25500000920E-02 0. -1.
    10030    2    1    2    0    0  0.00000000000E+00  0.00000000000E+00  0.54346640677E+03  0.31940853225E+04  0.31475109709E+04 0.  0.
        2    1    3    3  502    0  0.12227672574E+04 -0.46393909850E+03  0.11600761905E+04  0.17481922150E+04  0.25500000920E-02 0.  1.
       -2    1    3    3    0  502 -0.12227672574E+04  0.46393909850E+03 -0.61660978371E+03  0.14458931075E+04  0.25500000920E-02 0. -1.
</event>
<event>
 5   0  0.3704306E-07  0.2583202E+04  0.7818609E-02  0.8373930E-01
        1   -1    0    0  501    0  0.00000000000E+00  0.00000000000E+00  0.73196857635E+03  0.73196857637E+03  0.50400001928E-02 0.  1.
       -1   -1    0    0    0  501  0.00000000000E+00  0.00000000000E+00 -0.22791050529E+04  0.22791050530E+04  0.50400001928E-02 0. -1.
    10030    2    1    2    0    0  0.00000000000E+00  0.00000000000E+00 -0.15471364766E+04  0.30110736293E+04  0.25832021067E+04 0.  0.
        3    1    3    3  502    0  0.69727681049E+03  0.10311627360E+04 -0.11752338756E+04  0.17119188682E+04  0.10100000352E+00 0. -1.
       -3    1    3    3    0  502 -0.69727681049E+03 -0.10311627360E+04 -0.37190260096E+03  0.12991547611E+04  0.10100000352E+00 0.  1.
</event>
<event>
 5   0  0.1092116E-06  0.3685111E+04  0.7818609E-02  0.8071269E-01
       -2   -1    0    0    0  501  0.00000000000E+00  0.00000000000E+00  0.13811979182E+04  0.13811979182E+04  0.25500000920E-02 0. -1.
        2   -1    0    0  501    0  0.00000000000E+00  0.00000000000E+00 -0.24580188611E+04  0.24580188611E+04  0.25500000920E-02 0.  1.
    10030    2    1    2    0    0  0.00000000000E+00  0.00000000000E+00 -0.10768209430E+04  0.38392167793E+04  0.36851108715E+04 0.  0.
        1    1    3    3  502    0  0.18120258902E+04 -0.29105394578E+03 -0.36766563935E+03  0.18717179939E+04  0.50400001928E-02 0.  1.
       -1    1    3    3    0  502 -0.18120258902E+04  0.29105394578E+03 -0.70915530362E+03  0.19674987855E+04  0.50400001928E-02 0. -1.
</event>
<event>
 5   0  0.3764495E-07  0.3736081E+04  0.7818609E-02  0.8060012E-01
       -1   -1    0    0    0  501  0.00000000000E+00  0.00000000000E+00  0.13487849222E+04  0.13487849222E+04  0.50400001928E-02 0.  1.
        1   -1    0    0  501    0  0.00000000000E+00  0.00000000000E+00 -0.25871998587E+04  0.25871998587E+04  0.50400001928E-02 0. -1.
    10030    2    1    2    0    0  0.00000000000E+00  0.00000000000E+00 -0.12384149365E+04  0.39359847808E+04  0.37360814552E+04 0.  0.
        4    1    3    3  502    0 -0.95026589988E+03 -0.66374512510E+03 -0.21625172699E+04  0.24535780866E+04  0.12699999809E+01 0. -1.
       -4    1    3    3    0  502  0.95026589988E+03  0.66374512510E+03  0.92410233340E+03  0.14824066942E+04  0.12699999809E+01 0.  1.
</event>
<event>
 5   0  0.3764495E-07  0.3703553E+04  0.7818609E-02  0.8067175E-01
       -1   -1    0    0    0  501  0.00000000000E+00  0.00000000000E+00  0.19080412520E+04  0.19080412520E+04  0.50400001928E-02 0. -1.
        1   -1    0    0  501    0  0.00000000000E+00  0.00000000000E+00 -0.17971713506E+04  0.17971713506E+04  0.50400001928E-02 0.  1.
    10030    2    1    2    0    0  0.00000000000E+00  0.00000000000E+00  0.11086990142E+03  0.37052126027E+04  0.37035534687E+04 0.  0.
        4    1    3    3  502    0  0.25062746771E+03 -0.11249457532E+04 -0.13946136764E+04  0.18092169562E+04  0.12699999809E+01 0.  1.
       -4    1    3    3    0  502 -0.25062746771E+03  0.11249457532E+04  0.15054835778E+04  0.18959956464E+04  0.12699999809E+01 0. -1.
</event>
<event>
 5   0  0.1128166E-06  0.3620598E+04  0.7818609E-02  0.8085790E-01
        2   -1    0    0  501    0  0.00000000000E+00  0.00000000000E+00  0.17169664091E+04  0.17169664091E+04  0.25500000920E-02 0.  1.
       -2   -1    0    0    0  501  0.00000000000E+00  0.00000000000E+00 -0.19087054504E+04  0.19087054504E+04  0.25500000920E-02 0. -1.
    10030    2    1    2    0    0  0.00000000000E+00  0.00000000000E+00 -0.19173904133E+03  0.36256718595E+04  0.36205983722E+04 0.  0.
        3    1    3    3  502    0 -0.12028360614E+04 -0.75609688816E+03 -0.12193534162E+04  0.18722499455E+04  0.10100000352E+00 0. -1.
       -3    1    3    3    0  502  0.12028360614E+04  0.75609688816E+03  0.10276143748E+04  0.17534219140E+04  0.10100000352E+00 0.  1.
</event>
<event>
 5   0  0.1128530E-06  0.3710847E+04  0.7818609E-02  0.8065562E-01
       -2   -1    0    0    0  501  0.00000000000E+00  0.00000000000E+00  0.15520305903E+04  0.15520305903E+04  0.25500000920E-02 0. -1.
        2   -1    0    0  501    0  0.00000000000E+00  0.00000000000E+00 -0.22181236514E+04  0.22181236514E+04  0.25500000920E-02 0.  1.
    10030    2    1    2    0    0  0.00000000000E+00  0.00000000000E+00 -0.66609306103E+03  0.37701542417E+04  0.37108466743E+04 0.  0.
        5    1    3    3  502    0 -0.27066299805E+03  0.27924072807E+03  0.15101535053E+04  0.15594292361E+04  0.46999998093E+01 0. -1.
       -5    1    3    3    0  502  0.27066299805E+03 -0.27924072807E+03 -0.21762465664E+04  0.22107250056E+04  0.46999998093E+01 0.  1.
</event>
<event>
 5   0  0.1128530E-06  0.3425740E+04  0.7818609E-02  0.8131618E-01
       -2   -1    0    0    0  501  0.00000000000E+00  0.00000000000E+00  0.17153723506E+04  0.17153723506E+04  0.25500000920E-02 0. -1.
        2   -1    0    0  501    0  0.00000000000E+00  0.00000000000E+00 -0.17103717101E+04  0.17103717101E+04  0.25500000920E-02 0.  1.
    10030    2    1    2    0    0  0.00000000000E+00  0.00000000000E+00  0.50006405270E+01  0.34257440607E+04  0.34257404109E+04 0.  0.
        5    1    3    3  502    0 -0.14921665075E+04 -0.69550224561E+03  0.47538346382E+03  0.17135623092E+04  0.46999998093E+01 0. -1.
       -5    1    3    3    0  502  0.14921665075E+04  0.69550224561E+03 -0.47038282330E+03  0.17121817515E+04  0.46999998093E+01 0.  1.
</event>
<event>
 5   0  0.1092116E-06  0.3625086E+04  0.7818609E-02  0.8084770E-01
        2   -1    0    0  501    0  0.00000000000E+00  0.00000000000E+00  0.22879481129E+04  0.22879481129E+04  0.25500000920E-02 0. -1.
       -2   -1    0    0    0  501  0.00000000000E+00  0.00000000000E+00 -0.14359205637E+04  0.14359205637E+04  0.25500000920E-02 0.  1.
    10030    2    1    2    0    0  0.00000000000E+00  0.00000000000E+00  0.85202754914E+03  0.37238686766E+04  0.36250857888E+04 0.  0.
        1    1    3    3  502    0 -0.12185237595E+04 -0.79864600425E+03  0.15336711676E+04  0.21153682523E+04  0.50400001928E-02 0. -1.
       -1    1    3    3    0  502  0.12185237595E+04  0.79864600425E+03 -0.68164361841E+03  0.16085004243E+04  0.50400001928E-02 0.  1.
</event>
<event>
 5   0  0.3682276E-07  0.3732207E+04  0.7818609E-02  0.8060862E-01
       -1   -1    0    0    0  501  0.00000000000E+00  0.00000000000E+00  0.16535139232E+04  0.16535139232E+04  0.50400001928E-02 0.  1.
        1   -1    0    0  501    0  0.00000000000E+00  0.00000000000E+00 -0.21060256153E+04  0.21060256153E+04  0.50400001928E-02 0. -1.
    10030    2    1    2    0    0  0.00000000000E+00  0.00000000000E+00 -0.45251169205E+03  0.37595395385E+04  0.37322072169E+04 0.  0.
        1    1    3    3  502    0  0.10482054736E+04 -0.13651673815E+04 -0.95259535673E+03  0.19671946035E+04  0.50400001928E-02 0. -1.
       -1    1    3    3    0  502 -0.10482054736E+04  0.13651673815E+04  0.50008366469E+03  0.17923449350E+04  0.50400001928E-02 0.  1.
</event>
<event>
 5   0  0.1128530E-06  0.3719184E+04  0.7818609E-02  0.8063724E-01
        2   -1    0    0  501    0  0.00000000000E+00  0.00000000000E+00  0.22224753784E+04  0.22224753784E+04  0.25500000920E-02 0.  1.
       -2   -1    0    0    0  501  0.00000000000E+00  0.00000000000E+00 -0.15559601458E+04  0.15559601458E+04  0.25500000920E-02 0. -1.
    10030    2    1    2    0    0  0.00000000000E+00  0.00000000000E+00  0.66651523255E+03  0.37784355242E+04  0.37191843804E+04 0.  0.
        5    1    3    3  502    0  0.38876317194E+03  0.32188233868E+03 -0.14850367646E+04  0.15684710154E+04  0.46999998093E+01 0. -1.
       -5    1    3    3    0  502 -0.38876317194E+03 -0.32188233868E+03  0.21515519972E+04  0.22099645088E+04  0.46999998093E+01 0.  1.
</event>
<event>
 5   0  0.1051123E-06  0.3712139E+04  0.7818609E-02  0.8065277E-01
       -2   -1    0    0    0  501  0.00000000000E+00  0.00000000000E+00  0.17772106508E+04  0.17772106508E+04  0.25500000920E-02 0.  1.
        2   -1    0    0  501    0  0.00000000000E+00  0.00000000000E+00 -0.19384273759E+04  0.19384273759E+04  0.25500000920E-02 0. -1.
    10030    2    1    2    0    0  0.00000000000E+00  0.00000000000E+00 -0.16121672508E+03  0.37156380267E+04  0.37121388865E+04 0.  0.
        2    1    3    3  502    0 -0.62107188666E+03  0.13762768271E+04  0.99981894371E+03  0.18109406709E+04  0.25500000920E-02 0.  1.
       -2    1    3    3    0  502  0.62107188666E+03 -0.13762768271E+04 -0.11610356688E+04  0.19046973558E+04  0.25500000920E-02 0. -1.
</event>
<event>
 5   0  0.1128166E-06  0.3059425E+04  0.7818609E-02  0.8226962E-01
       -2   -1    0    0    0  501  0.00000000000E+00  0.00000000000E+00  0.10037928173E+04  0.10037928173E+04  0.25500000920E-02 0.  1.
        2   -1    0    0  501    0  0.00000000000E+00  0.00000000000E+00 -0.23311787381E+04  0.23311787381E+04  0.25500000920E-02 0. -1.
    10030    2    1    2    0    0  0.00000000000E+00  0.00000000000E+00 -0.13273859208E+04  0.33349715555E+04  0.30594250919E+04 0.  0.
        3    1    3    3  502    0  0.33083522151E+03  0.31572063164E+02  0.96396457750E+03  0.10196452598E+04  0.10100000352E+00 0.  1.
       -3    1    3    3    0  502 -0.33083522151E+03 -0.31572063164E+02 -0.22913504983E+04  0.23153262957E+04  0.10100000352E+00 0. -1.
</event>
<event>
 5   0  0.3682276E-07  0.3707997E+04  0.7818609E-02  0.8066192E-01
       -1   -1    0    0    0  501  0.00000000000E+00  0.00000000000E+00  0.24640780670E+04  0.24640780670E+04  0.50400001928E-02 0. -1.
        1   -1    0    0  501    0  0.00000000000E+00  0.00000000000E+00 -0.13949681902E+04  0.13949681902E+04  0.50400001928E-02 0.  1.
    10030    2    1    2    0    0  0.00000000000E+00  0.00000000000E+00  0.10691098768E+04  0.38590462572E+04  0.37079970451E+04 0.  0.
        1    1    3    3  502    0 -0.20873208267E+03  0.14258901065E+04  0.17485095849E+04  0.22658370300E+04  0.50400001928E-02 0. -1.
       -1    1    3    3    0  502  0.20873208267E+03 -0.14258901065E+04 -0.67939970813E+03  0.15932092271E+04  0.50400001928E-02 0.  1.
</event>
<event>
 5   0  0.1128166E-06  0.3508168E+04  0.7818609E-02  0.8111857E-01
       -2   -1    0    0    0  501  0.00000000000E+00  0.00000000000E+00  0.12763269984E+04  0.12763269984E+04  0.25500000920E-02 0.  1.
        2   -1    0    0  501    0  0.00000000000E+00  0.00000000000E+00 -0.24106760058E+04  0.24106760058E+04  0.25500000920E-02 0. -1.
    10030    2    1    2    0    0  0.00000000000E+00  0.00000000000E+00 -0.11343490074E+04  0.36870030042E+04  0.35081681092E+04 0.  0.
        3    1    3    3  502    0 -0.16975423904E+04  0.15309011488E+03 -0.10026951339E+04  0.19774944481E+04  0.10100000352E+00 0.  1.
       -3    1    3    3    0  502  0.16975423904E+04 -0.15309011488E+03 -0.13165387347E+03  0.17095085561E+04  0.10100000352E+00 0. -1.
</event>
<event>
 5   0  0.1128530E-06  0.3174433E+04  0.7818609E-02  0.8195602E-01
       -2   -1    0    0    0  501  0.00000000000E+00  0.00000000000E+00  0.89541433673E+03  0.89541433673E+03  0.25500000920E-02 0. -1.
        2   -1    0    0  501    0  0.00000000000E+00  0.00000000000E+00 -0.28135097565E+04  0.28135097565E+04  0.25500000920E-02 0.  1.
    10030    2    1    2    0    0  0.00000000000E+00  0.00000000000E+00 -0.19180954198E+04  0.37089240932E+04  0.31744334754E+04 0.  0.
        5    1    3    3  502    0 -0.55612532872E+03  0.52461222291E+02  0.77676665827E+03  0.95677379379E+03  0.46999998093E+01 0. -1.
       -5    1    3    3    0  502  0.55612532872E+03 -0.52461222291E+02 -0.26948620780E+04  0.27521502994E+04  0.46999998093E+01 0.  1.
</event>
<event>
 5   0  0.3682276E-07  0.3684236E+04  0.7818609E-02  0.8071464E-01
        1   -1    0    0  501    0  0.00000000000E+00  0.00000000000E+00  0.16200856130E+04  0.16200856130E+04  0.50400001928E-02 0.  1.
       -1   -1    0    0    0  501  0.00000000000E+00  0.00000000000E+00 -0.20945797569E+04  0.20945797569E+04  0.50400001928E-02 0. -1.
    10030    2    1    2    0    0  0.00000000000E+00  0.00000000000E+00 -0.47449414391E+03  0.37146653700E+04  0.36842358934E+04 0.  0.
        1    1    3    3  502    0  0.93699721347E+03 -0.11448328077E+04  0.86944911178E+03  0.17159684419E+04  0.50400001928E-02 0.  1.
       -1    1    3    3    0  502 -0.93699721347E+03  0.11448328077E+04 -0.13439432557E+04  0.19986969281E+04  0.50400001928E-02 0. -1.
</event>
<event>
 5   0  0.3848431E-07  0.3164120E+04  0.7818609E-02  0.8198358E-01
        1   -1    0    0  501    0  0.00000000000E+00  0.00000000000E+00  0.18988470892E+04  0.18988470892E+04  0.50400001928E-02 0.  1.
       -1   -1    0    0    0  501  0.00000000000E+00  0.00000000000E+00 -0.13181231509E+04  0.13181231509E+04  0.50400001928E-02 0. -1.
    10030    2    1    2    0    0  0.00000000000E+00  0.00000000000E+00  0.58072393832E+03  0.32169702401E+04  0.31641202937E+04 0.  0.
        2    1    3    3  502    0  0.44592713602E+03 -0.82767956907E+03  0.15840179472E+04  0.18420144779E+04  0.25500000920E-02 0.  1.
       -2    1    3    3    0  502 -0.44592713602E+03  0.82767956907E+03 -0.10032940089E+04  0.13749557622E+04  0.25500000920E-02 0. -1.
</event>
<event>
 5   0  0.1066907E-06  0.3616782E+04  0.7818609E-02  0.8086658E-01
        2   -1    0    0  501    0  0.00000000000E+00  0.00000000000E+00  0.22971113994E+04  0.22971113994E+04  0.25500000920E-02 0.  1.
       -2   -1    0    0    0  501  0.00000000000E+00  0.00000000000E+00 -0.14236479498E+04  0.14236479498E+04  0.25500000920E-02 0. -1.
    10030    2    1    2    0    0  0.00000000000E+00  0.00000000000E+00  0.87346344961E+03  0.37207593492E+04  0.36167819587E+04 0.  0.
        4    1    3    3  502    0  0.61572273983E+03  0.86303346765E+03  0.19438870562E+04  0.22141905426E+04  0.12699999809E+01 0.  1.
       -4    1    3    3    0  502 -0.61572273983E+03 -0.86303346765E+03 -0.10704236066E+04  0.15065688066E+04  0.12699999809E+01 0. -1.
</event>
<event>
 5   0  0.1066907E-06  0.3719336E+04  0.7818609E-02  0.8063690E-01
       -2   -1    0    0    0  501  0.00000000000E+00  0.00000000000E+00  0.24576178563E+04  0.24576178563E+04  0.25500000920E-02 0.  1.
        2   -1    0    0  501    0  0.00000000000E+00  0.00000000000E+00 -0.14072018544E+04  0.14072018544E+04  0.25500000920E-02 0. -1.
    10030    2    1    2    0    0  0.00000000000E+00  0.00000000000E+00  0.10504160019E+04  0.38648197107E+04  0.37193356421E+04 0.  0.
        4    1    3    3  502    0  0.55502181873E+03  0.17617664034E+04  0.30115213963E+03  0.18715139068E+04  0.12699999809E+01 0.  1.
       -4    1    3    3    0  502 -0.55502181873E+03 -0.17617664034E+04  0.74926386227E+03  0.19933058038E+04  0.12699999809E+01 0. -1.
</event>
<event>
 5   0  0.1051123E-06  0.3639320E+04  0.7818609E-02  0.8081544E-01
        2   -1    0    0  501    0  0.00000000000E+00  0.00000000000E+00  0.19940770582E+04  0.19940770582E+04  0.25500000920E-02 0.  1.
       -2   -1    0    0    0  501  0.00000000000E+00  0.00000000000E+00 -0.16604983936E+04  0.16604983936E+04  0.25500000920E-02 0. -1.
    10030    2    1    2    0    0  0.00000000000E+00  0.00000000000E+00  0.33357866459E+03  0.36545754517E+04  0.36393195802E+04 0.  0.
        2    1    3    3  502    0  0.95213693926E+03  0.15452342813E+04  0.36445307590E+02  0.18153903150E+04  0.25500000920E-02 0.  1.
       -2    1    3    3    0  502 -0.95213693926E+03 -0.15452342813E+04  0.29713335700E+03  0.18391851367E+04  0.25500000920E-02 0. -1.
</event>
<event>
 5   0  0.1092116E-06  0.3649265E+04  0.7818609E-02  0.8079299E-01
        2   -1    0    0  501    0  0.00000000000E+00  0.00000000000E+00  0.18404226045E+04  0.18404226045E+04  0.25500000920E-02 0. -1.
       -2   -1    0    0    0  501  0.00000000000E+00  0.00000000000E+00 -0.18089782570E+04  0.18089782570E+04  0.25500000920E-02 0.  1.
    10030    2    1    2    0    0  0.00000000000E+00  0.00000000000E+00  0.31444347507E+02  0.36494008614E+04  0.36492653919E+04 0.  0.
        1    1    3    3  502    0 -0.36565836597E+03 -0.13274970328E+04 -0.11815399035E+04  0.18143844566E+04  0.50400001928E-02 0.  1.
       -1    1    3    3    0  502  0.36565836597E+03  0.13274970328E+04  0.12129842510E+04  0.18350164048E+04  0.50400001928E-02 0. -1.
</event>
<event>
 5   0  0.1066907E-06  0.3739021E+04  0.7818609E-02  0.8059369E-01
        2   -1    0    0  501    0  0.00000000000E+00  0.00000000000E+00  0.19615463197E+04  0.19615463197E+04  0.25500000920E-02 0. -1.
       -2   -1    0    0    0  501  0.00000000000E+00  0.00000000000E+00 -0.17817925805E+04  0.17817925805E+04  0.25500000920E-02 0.  1.
    10030    2    1    2    0    0  0.00000000000E+00  0.00000000000E+00  0.17975373919E+03  0.37433389001E+04  0.37390205555E+04 0.  0.
        4    1    3    3  502    0 -0.13291759933E+04  0.46428638618E+03  0.13212552811E+04  0.19307997826E+04  0.12699999809E+01 0. -1.
       -4    1    3    3    0  502  0.13291759933E+04 -0.46428638618E+03 -0.11415015419E+04  0.18125391176E+04  0.12699999809E+01 0.  1.
</event>
<event>
 5   0  0.1128166E-06  0.3719884E+04  0.7818609E-02  0.8063569E-01
        2   -1    0    0  501    0  0.00000000000E+00  0.00000000000E+00  0.24765854344E+04  0.24765854344E+04  0.25500000920E-02 0.  1.
       -2   -1    0    0    0  501  0.00000000000E+00  0.00000000000E+00 -0.13968365201E+04  0.13968365201E+04  0.25500000920E-02 0. -1.
    10030    2    1    2    0    0  0.00000000000E+00  0.00000000000E+00  0.10797489143E+04  0.38734219545E+04  0.37198843960E+04 0.  0.
        3    1    3    3  502    0  0.34219210019E+03 -0.16487434715E+04 -0.28262357401E+03  0.17074327404E+04  0.10100000352E+00 0.  1.
       -3    1    3    3    0  502 -0.34219210019E+03  0.16487434715E+04  0.13623724884E+04  0.21659892141E+04  0.10100000352E+00 0. -1.
</event>
<event>
 5   0  0.3704306E-07  0.3689056E+04  0.7818609E-02  0.8070391E-01
        1   -1    0    0  501    0  0.00000000000E+00  0.00000000000E+00  0.18315514297E+04  0.18315514297E+04  0.50400001928E-02 0. -1.
       -1   -1    0    0    0  501  0.00000000000E+00  0.00000000000E+00 -0.18575965757E+04  0.18575965757E+04  0.50400001928E-02 0.  1.
    10030    2    1    2    0    0  0.00000000000E+00  0.00000000000E+00 -0.26045145974E+02  0.36891480055E+04  0.36890560658E+04 0.  0.
        3    1    3    3  502    0 -0.12714536703E+04  0.86693968841E+03 -0.10299573497E+04  0.18517534964E+04  0.10100000352E+00 0.  1.
       -3    1    3    3    0  502  0.12714536703E+04 -0.86693968841E+03  0.10039122037E+04  0.18373945091E+04  0.10100000352E+00 0. -1.
</event>
<event>
 5   0  0.3704306E-07  0.3798792E+04  0.7818609E-02  0.8046414E-01
       -1   -1    0    0    0  501  0.00000000000E+00  0.00000000000E+00  0.17084603983E+04  0.17084603984E+04  0.50400001928E-02 0. -1.
        1   -1    0    0  501    0  0.00000000000E+00  0.00000000000E+00 -0.21116698743E+04  0.21116698743E+04  0.50400001928E-02 0.  1.
    10030    2    1    2    0    0  0.00000000000E+00  0.00000000000E+00 -0.40320947592E+03  0.38201302726E+04  0.37987915734E+04 0.  0.
        3    1    3    3  502    0  0.23286129422E+03 -0.18778198818E+04 -0.35533350635E+02  0.18925365307E+04  0.10100000352E+00 0. -1.
       -3    1    3    3    0  502 -0.23286129422E+03  0.18778198818E+04 -0.36767612529E+03  0.19275937420E+04  0.10100000352E+00 0.  1.
</event>
<event>
 5   0  0.3764495E-07  0.3629372E+04  0.7818609E-02  0.8083797E-01
       -1   -1    0    0    0  501  0.00000000000E+00  0.00000000000E+00  0.11770051606E+04  0.11770051607E+04  0.50400001928E-02 0. -1.
        1   -1    0    0  501    0  0.00000000000E+00  0.00000000000E+00 -0.27978512636E+04  0.27978512636E+04  0.50400001928E-02 0.  1.
    10030    2    1    2    0    0  0.00000000000E+00  0.00000000000E+00 -0.16208461030E+04  0.39748564243E+04  0.36293720537E+04 0.  0.
        4    1    3    3  502    0 -0.31812614580E+03 -0.64416834408E+03  0.10146159948E+04  0.12432233629E+04  0.12699999809E+01 0. -1.
       -4    1    3    3    0  502  0.31812614580E+03  0.64416834408E+03 -0.26354620978E+04  0.27316330614E+04  0.12699999809E+01 0.  1.
</event>
<event>
 5   0  0.3704306E-07  0.3603816E+04  0.7818609E-02  0.8089618E-01
       -1   -1    0    0    0  501  0.00000000000E+00  0.00000000000E+00  0.17882415343E+04  0.17882415343E+04  0.50400001928E-02 0. -1.
        1   -1    0    0  501    0  0.00000000000E+00  0.00000000000E+00 -0.18156791679E+04  0.18156791680E+04  0.50400001928E-02 0.  1.
    10030    2    1    2    0    0  0.00000000000E+00  0.00000000000E+00 -0.27437633650E+02  0.36039207023E+04  0.36038162556E+04 0.  0.
        3    1    3    3  502    0  0.36244450606E+02 -0.42857520242E+03  0.17361554671E+04  0.17886380798E+04  0.10100000352E+00 0. -1.
       -3    1    3    3    0  502 -0.36244450606E+02  0.42857520242E+03 -0.17635931007E+04  0.18152826225E+04  0.10100000352E+00 0.  1.
</event>
<event>
 5   0  0.1092116E-06  0.3637025E+04  0.7818609E-02  0.8082063E-01
       -2   -1    0    0    0  501  0.00000000000E+00  0.00000000000E+00  0.11400451011E+04  0.11400451011E+04  0.25500000920E-02 0.  1.
        2   -1    0    0  501    0  0.00000000000E+00  0.00000000000E+00 -0.29007522015E+04  0.29007522015E+04  0.25500000920E-02 0. -1.
    10030    2    1    2    0    0  0.00000000000E+00  0.00000000000E+00 -0.17607071004E+04  0.40407973027E+04  0.36370253433E+04 0.  0.
        1    1    3    3  502    0  0.13128512044E+04  0.31217897424E+03 -0.22346803444E+04  0.26105229818E+04  0.50400001928E-02 0. -1.
       -1    1    3    3    0  502 -0.13128512044E+04 -0.31217897424E+03  0.47397324392E+03  0.14302743209E+04  0.50400001928E-02 0.  1.
</event>
<event>
 5   0  0.1066907E-06  0.3723972E+04  0.7818609E-02  0.8062670E-01
        2   -1    0    0  501    0  0.00000000000E+00  0.00000000000E+00  0.20944504377E+04  0.20944504377E+04  0.25500000920E-02 0. -1.
       -2   -1    0    0    0  501  0.00000000000E+00  0.00000000000E+00 -0.16553228503E+04  0.16553228503E+04  0.25500000920E-02 0.  1.
    10030    2    1    2    0    0  0.00000000000E+00  0.00000000000E+00  0.43912758730E+03  0.37497732880E+04  0.37239718948E+04 0.  0.
        4    1    3    3  502    0 -0.84110180070E+03 -0.27535456604E+03 -0.14299920777E+04  0.16817108346E+04  0.12699999809E+01 0.  1.
       -4    1    3    3    0  502  0.84110180070E+03  0.27535456604E+03  0.18691196650E+04  0.20680624534E+04  0.12699999809E+01 0. -1.
</event>
<event>
 5   0  0.1051123E-06  0.3077580E+04  0.7818609E-02  0.8221918E-01
       -2   -1    0    0    0  501  0.00000000000E+00  0.00000000000E+00  0.18298954518E+04  0.18298954518E+04  0.25500000920E-02 0.  1.
        2   -1    0    0  501    0  0.00000000000E+00  0.00000000000E+00 -0.12939945320E+04  0.12939945320E+04  0.25500000920E-02 0. -1.
    10030    2    1    2    0    0  0.00000000000E+00  0.00000000000E+00  0.53590091979E+03  0.31238899839E+04  0.30775800291E+04 0.  0.
        2    1    3    3  502    0 -0.40571534135E+03  0.68802536951E+03 -0.10670939965E+04  0.13329191441E+04  0.25500000920E-02 0. -1.
       -2    1    3    3    0  502  0.40571534135E+03 -0.68802536951E+03  0.16029949163E+04  0.17909708398E+04  0.25500000920E-02 0.  1.
</event>
<event>
 5   0  0.3490375E-07  0.3717228E+04  0.7818609E-02  0.8064155E-01
        3   -1    0    0  501    0  0.00000000000E+00  0.00000000000E+00  0.12899721412E+04  0.12899721452E+04  0.10100000352E+00 0. -1.
       -3   -1    0    0    0  501  0.00000000000E+00  0.00000000000E+00 -0.26779230345E+04  0.26779230364E+04  0.10100000352E+00 0.  1.
    10030    2    1    2    0    0  0.00000000000E+00  0.00000000000E+00 -0.13879508932E+04  0.39678951816E+04  0.37172280653E+04 0.  0.
        5    1    3    3  502    0 -0.14367436594E+04 -0.42451659963E+03  0.48019083130E+03  0.15732298022E+04  0.46999998093E+01 0. -1.
       -5    1    3    3    0  502  0.14367436594E+04  0.42451659963E+03 -0.18681417245E+04  0.23946653793E+04  0.46999998093E+01 0.  1.
</event>
<event>
 5   0  0.3704306E-07  0.3710732E+04  0.7818609E-02  0.8065588E-01
       -1   -1    0    0    0  501  0.00000000000E+00  0.00000000000E+00  0.21907268380E+04  0.21907268380E+04  0.50400001928E-02 0. -1.
        1   -1    0    0  501    0  0.00000000000E+00  0.00000000000E+00 -0.15713428363E+04  0.15713428363E+04  0.50400001928E-02 0.  1.
    10030    2    1    2    0    0  0.00000000000E+00  0.00000000000E+00  0.61938400165E+03  0.37620696743E+04  0.37107319618E+04 0.  0.
        3    1    3    3  502    0  0.98716336046E+03 -0.43673370999E+03 -0.12202097919E+04  0.16291530868E+04  0.10100000352E+00 0.  1.
       -3    1    3    3    0  502 -0.98716336046E+03  0.43673370999E+03  0.18395937936E+04  0.21329165875E+04  0.10100000352E+00 0. -1.
</event>
<event>
 5   0  0.1092116E-06  0.3618230E+04  0.7818609E-02  0.8086329E-01
       -2   -1    0    0    0  501  0.00000000000E+00  0.00000000000E+00  0.18270972465E+04  0.18270972465E+04  0.25500000920E-02 0. -1.
        2   -1    0    0  501    0  0.00000000000E+00  0.00000000000E+00 -0.17913094179E+04  0.17913094179E+04  0.25500000920E-02 0.  1.
    10030    2    1    2    0    0  0.00000000000E+00  0.00000000000E+00  0.35787828548E+02  0.36184066644E+04  0.36182296804E+04 0.  0.
        1    1    3    3  502    0 -0.11017403288E+03  0.15120252157E+03 -0.17816095597E+04  0.17914053543E+04  0.50400001928E-02 0.  1.
       -1    1    3    3    0  502  0.11017403288E+03 -0.15120252157E+03  0.18173973883E+04  0.18270013101E+04  0.50400001928E-02 0. -1.
</event>
<event>
 5   0  0.3764495E-07  0.3698649E+04  0.7818609E-02  0.8068261E-01
       -1   -1    0    0    0  501  0.00000000000E+00  0.00000000000E+00  0.27060239870E+04  0.27060239871E+04  0.50400001928E-02 0.  1.
        1   -1    0    0  501    0  0.00000000000E+00  0.00000000000E+00 -0.12638475025E+04  0.12638475025E+04  0.50400001928E-02 0. -1.
    10030    2    1    2    0    0  0.00000000000E+00  0.00000000000E+00  0.14421764845E+04  0.39698714896E+04  0.36986492982E+04 0.  0.
        4    1    3    3  502    0 -0.95216605950E+03  0.29268880470E+02 -0.98024086512E+03  0.13668762339E+04  0.12699999809E+01 0. -1.
       -4    1    3    3    0  502  0.95216605950E+03 -0.29268880470E+02  0.24224173497E+04  0.26029952557E+04  0.12699999809E+01 0.  1.
</event>
<event>
 5   0  0.3704306E-07  0.3362109E+04  0.7818609E-02  0.8147269E-01
        1   -1    0    0  501    0  0.00000000000E+00  0.00000000000E+00  0.17392953041E+04  0.17392953041E+04  0.50400001928E-02 0.  1.
       -1   -1    0    0    0  501  0.00000000000E+00  0.00000000000E+00 -0.16247641635E+04  0.16247641635E+04  0.50400001928E-02 0. -1.
    10030    2    1    2    0    0  0.00000000000E+00  0.00000000000E+00  0.11453114056E+03  0.33640594676E+04  0.33621092664E+04 0.  0.
        3    1    3    3  502    0  0.66063789981E+03  0.63971790677E+03 -0.13507689519E+04  0.16340924719E+04  0.10100000352E+00 0. -1.
       -3    1    3    3    0  502 -0.66063789981E+03 -0.63971790677E+03  0.14653000925E+04  0.17299669957E+04  0.10100000352E+00 0.  1.
</event>
<event>
 5   0  0.3682276E-07  0.3682525E+04  0.7818609E-02  0.8071845E-01
       -1   -1    0    0    0  501  0.00000000000E+00  0.00000000000E+00  0.18866899368E+04  0.18866899368E+04  0.50400001928E-02 0.  1.
        1   -1    0    0  501    0  0.00000000000E+00  0.00000000000E+00 -0.17969291734E+04  0.17969291734E+04  0.50400001928E-02 0. -1.
    10030    2    1    2    0    0  0.00000000000E+00  0.00000000000E+00  0.89760763388E+02  0.36836191101E+04  0.36825253229E+04 0.  0.
        1    1    3    3  502    0 -0.16377692100E+04  0.27034707817E+03 -0.75214524997E+03  0.18223879952E+04  0.50400001928E-02 0. -1.
       -1    1    3    3    0  502  0.16377692100E+04 -0.27034707817E+03  0.84190601336E+03  0.18612311149E+04  0.50400001928E-02 0.  1.
</event>
<event>
 5   0  0.3490375E-07  0.3698438E+04  0.7818609E-02  0.8068308E-01
       -3   -1    0    0    0  501  0.00000000000E+00  0.00000000000E+00  0.20157447322E+04  0.20157447347E+04  0.10100000352E+00 0.  1.
        3   -1    0    0  501    0  0.00000000000E+00  0.00000000000E+00 -0.16964507087E+04  0.16964507117E+04  0.10100000352E+00 0. -1.
    10030    2    1    2    0    0  0.00000000000E+00  0.00000000000E+00  0.31929402355E+03  0.37121954464E+04  0.36984383676E+04 0.  0.
        5    1    3    3  502    0 -0.81957831651E+03 -0.14696857153E+04 -0.60995455620E+03  0.17899026145E+04  0.46999998093E+01 0. -1.
       -5    1    3    3    0  502  0.81957831651E+03  0.14696857153E+04  0.92924857975E+03  0.19222928319E+04  0.46999998093E+01 0.  1.
</event>
<event>
 5   0  0.3704306E-07  0.3543477E+04  0.7818609E-02  0.8103563E-01
       -1   -1    0    0    0  501  0.00000000000E+00  0.00000000000E+00  0.10443693900E+04  0.10443693900E+04  0.50400001928E-02 0. -1.
        1   -1    0    0  501    0  0.00000000000E+00  0.00000000000E+00 -0.30056960285E+04  0.30056960285E+04  0.50400001928E-02 0.  1.
    10030    2    1    2    0    0  0.00000000000E+00  0.00000000000E+00 -0.19613266385E+04  0.40500654185E+04  0.35434767829E+04 0.  0.
        3    1    3    3  502    0  0.68029710140E+03 -0.12082684715E+04  0.27988632447E+03  0.14145858794E+04  0.10100000352E+00 0. -1.
       -3    1    3    3    0  502 -0.68029710140E+03  0.12082684715E+04 -0.22412129630E+04  0.26354795391E+04  0.10100000352E+00 0.  1.
</event>
<event>
 5   0  0.1066907E-06  0.3691370E+04  0.7818609E-02  0.8069877E-01
        2   -1    0    0  501    0  0.00000000000E+00  0.00000000000E+00  0.17304512332E+04  0.17304512332E+04  0.25500000920E-02 0.  1.
       -2   -1    0    0    0  501  0.00000000000E+00  0.00000000000E+00 -0.19685926681E+04  0.19685926681E+04  0.25500000920E-02 0. -1.
    10030    2    1    2    0    0  0.00000000000E+00  0.00000000000E+00 -0.23814143486E+03  0.36990439013E+04  0.36913702660E+04 0.  0.
        4    1    3    3  502    0  0.83791844528E+02 -0.16726983348E+04  0.65817767802E+03  0.17994833317E+04  0.12699999809E+01 0. -1.
       -4    1    3    3    0  502 -0.83791844528E+02  0.16726983348E+04 -0.89631911288E+03  0.18995605695E+04  0.12699999809E+01 0.  1.
</event>
<event>
 5   0  0.1092116E-06  0.3649245E+04  0.7818609E-02  0.8079304E-01
       -2   -1    0    0    0  501  0.00000000000E+00  0.00000000000E+00  0.14881035247E+04  0.14881035247E+04  0.25500000920E-02 0.  1.
        2   -1    0    0  501    0  0.00000000000E+00  0.00000000000E+00 -0.22372416145E+04  0.22372416145E+04  0.25500000920E-02 0. -1.
    10030    2    1    2    0    0  0.00000000000E+00  0.00000000000E+00 -0.74913808989E+03  0.37253451392E+04  0.36492449258E+04 0.  0.
        1    1    3    3  502    0  0.13251693386E+04 -0.11398383536E+04  0.15974023956E+03  0.17552271057E+04  0.50400001928E-02 0.  1.
       -1    1    3    3    0  502 -0.13251693386E+04  0.11398383536E+04 -0.90887832944E+03  0.19701180335E+04  0.50400001928E-02 0. -1.
</event>
<event>
 5   0  0.3764495E-07  0.3748109E+04  0.7818609E-02  0.8057383E-01
        1   -1    0    0  501    0  0.00000000000E+00  0.00000000000E+00  0.17575244059E+04  0.17575244059E+04  0.50400001928E-02 0.  1.
       -1   -1    0    0    0  501  0.00000000000E+00  0.00000000000E+00 -0.19983110819E+04  0.19983110819E+04  0.50400001928E-02 0. -1.
    10030    2    1    2    0    0  0.00000000000E+00  0.00000000000E+00 -0.24078667601E+03  0.37558354879E+04  0.37481091217E+04 0.  0.
        4    1    3    3  502    0 -0.48358972313E+02  0.47233063745E+02 -0.19970885775E+04  0.19982327072E+04  0.12699999809E+01 0. -1.
       -4    1    3    3    0  502  0.48358972313E+02 -0.47233063745E+02  0.17563019015E+04  0.17576027807E+04  0.12699999809E+01 0.  1.
</event>
<event>
 5   0  0.1128530E-06  0.3734927E+04  0.7818609E-02  0.8060265E-01
       -2   -1    0    0    0  501  0.00000000000E+00  0.00000000000E+00  0.14876520940E+04  0.14876520940E+04  0.25500000920E-02 0. -1.
        2   -1    0    0  501    0  0.00000000000E+00  0.00000000000E+00 -0.23442443749E+04  0.23442443749E+04  0.25500000920E-02 0.  1.
    10030    2    1    2    0    0  0.00000000000E+00  0.00000000000E+00 -0.85659228098E+03  0.38318964689E+04  0.37349270692E+04 0.  0.
        5    1    3    3  502    0 -0.53619512308E+03 -0.15166910270E+04 -0.14013617906E+04  0.21334699059E+04  0.46999998093E+01 0.  1.
       -5    1    3    3    0  502  0.53619512308E+03  0.15166910270E+04  0.54476950958E+03  0.16984265630E+04  0.46999998093E+01 0. -1.
</event>
<event>
 5   0  0.3764495E-07  0.3570820E+04  0.7818609E-02  0.8097208E-01
        1   -1    0    0  501    0  0.00000000000E+00  0.00000000000E+00  0.14215424443E+04  0.14215424443E+04  0.50400001928E-02 0.  1.
       -1   -1    0    0    0  501  0.00000000000E+00  0.00000000000E+00 -0.22424161340E+04  0.22424161340E+04  0.50400001928E-02 0. -1.
    10030    2    1    2    0    0  0.00000000000E+00  0.00000000000E+00 -0.82087368973E+03  0.36639585783E+04  0.35708204728E+04 0.  0.
        4    1    3    3  502    0  0.17309841810E+04 -0.39864642668E+03 -0.59531097166E+03  0.18733985092E+04  0.12699999809E+01 0.  1.
       -4    1    3    3    0  502 -0.17309841810E+04  0.39864642668E+03 -0.22556271807E+03  0.17905600691E+04  0.12699999809E+01 0. -1.
</event>
<event>
 5   0  0.3682276E-07  0.2648143E+04  0.7818609E-02  0.8352030E-01
       -1   -1    0    0    0  501  0.00000000000E+00  0.00000000000E+00  0.68243118427E+03  0.68243118429E+03  0.50400001928E-02 0. -1.
        1   -1    0    0  501    0  0.00000000000E+00  0.00000000000E+00 -0.25689995252E+04  0.25689995252E+04  0.50400001928E-02 0.  1.
    10030    2    1    2    0    0  0.00000000000E+00  0.00000000000E+00 -0.18865683409E+04  0.32514307095E+04  0.26481430387E+04 0.  0.
        1    1    3    3  502    0  0.85344298467E+03 -0.34447954202E+03 -0.21120549626E+04  0.23038678886E+04  0.50400001928E-02 0.  1.
       -1    1    3    3    0  502 -0.85344298467E+03  0.34447954202E+03  0.22548662169E+03  0.94756282090E+03  0.50400001928E-02 0. -1.
</event>
<event>
 5   0  0.3704306E-07  0.3642742E+04  0.7818609E-02  0.8080771E-01
        1   -1    0    0  501    0  0.00000000000E+00  0.00000000000E+00  0.22749087894E+04  0.22749087894E+04  0.50400001928E-02 0. -1.
       -1   -1    0    0    0  501  0.00000000000E+00  0.00000000000E+00 -0.14582530051E+04  0.14582530051E+04  0.50400001928E-02 0.  1.
    10030    2    1    2    0    0  0.00000000000E+00  0.00000000000E+00  0.81665578434E+03  0.37331617945E+04  0.36427421421E+04 0.  0.
        3    1    3    3  502    0 -0.15701109831E+04 -0.37847190888E+03 -0.45453504526E+03  0.16778234719E+04  0.10100000352E+00 0.  1.
       -3    1    3    3    0  502  0.15701109831E+04  0.37847190888E+03  0.12711908296E+04  0.20553383227E+04  0.10100000352E+00 0. -1.
</event>
<event>
 5   0  0.3704306E-07  0.3665895E+04  0.7818609E-02  0.8075562E-01
        1   -1    0    0  501    0  0.00000000000E+00  0.00000000000E+00  0.11016315527E+04  0.11016315528E+04  0.50400001928E-02 0. -1.
       -1   -1    0    0    0  501  0.00000000000E+00  0.00000000000E+00 -0.30497467619E+04  0.30497467619E+04  0.50400001928E-02 0.  1.
    10030    2    1    2    0    0  0.00000000000E+00  0.00000000000E+00 -0.19481152092E+04  0.41513783147E+04  0.36658953945E+04 0.  0.
        3    1    3    3  502    0  0.68593792038E+03 -0.31840078056E+02 -0.28985837613E+04  0.29788105768E+04  0.10100000352E+00 0.  1.
       -3    1    3    3    0  502 -0.68593792038E+03  0.31840078056E+02  0.95046855209E+03  0.11725677379E+04  0.10100000352E+00 0. -1.
</event>
<event>
 5   0  0.1128530E-06  0.3484821E+04  0.7818609E-02  0.8117396E-01
        2   -1    0    0  501    0  0.00000000000E+00  0.00000000000E+00  0.21286743918E+04  0.21286743918E+04  0.25500000920E-02 0.  1.
       -2   -1    0    0    0  501  0.00000000000E+00  0.00000000000E+00 -0.14262374773E+04  0.14262374773E+04  0.25500000920E-02 0. -1.
    10030    2    1    2    0    0  0.00000000000E+00  0.00000000000E+00  0.70243691453E+03  0.35549118690E+04  0.34848214844E+04 0.  0.
        5    1    3    3  502    0  0.64381264673E+03  0.16190957808E+04  0.35396193979E+03  0.17779980361E+04  0.46999998093E+01 0.  1.
       -5    1    3    3    0  502 -0.64381264673E+03 -0.16190957808E+04  0.34847497474E+03  0.17769138329E+04  0.46999998093E+01 0. -1.
</event>
<event>
 5   0  0.1092116E-06  0.3709863E+04  0.7818609E-02  0.8065780E-01
       -2   -1    0    0    0  501  0.00000000000E+00  0.00000000000E+00  0.12953332007E+04  0.12953332007E+04  0.25500000920E-02 0.  1.
        2   -1    0    0  501    0  0.00000000000E+00  0.00000000000E+00 -0.26562818507E+04  0.26562818507E+04  0.25500000920E-02 0. -1.
    10030    2    1    2    0    0  0.00000000000E+00  0.00000000000E+00 -0.13609486500E+04  0.39516150514E+04  0.37098625697E+04 0.  0.
        1    1    3    3  502    0  0.15992919747E+04 -0.31468793265E+03  0.26266686425E+03  0.16509867343E+04  0.50400001928E-02 0.  1.
       -1    1    3    3    0  502 -0.15992919747E+04  0.31468793265E+03 -0.16236155143E+04  0.23006283171E+04  0.50400001928E-02 0. -1.
</event>
<event>
 5   0  0.3764495E-07  0.3731868E+04  0.7818609E-02  0.8060936E-01
        1   -1    0    0  501    0  0.00000000000E+00  0.00000000000E+00  0.16216097348E+04  0.16216097348E+04  0.50400001928E-02 0.  1.
       -1   -1    0    0    0  501  0.00000000000E+00  0.00000000000E+00 -0.21470699768E+04  0.21470699768E+04  0.50400001928E-02 0. -1.
    10030    2    1    2    0    0  0.00000000000E+00  0.00000000000E+00 -0.52546024197E+03  0.37686797116E+04  0.37318679375E+04 0.  0.
        4    1    3    3  502    0 -0.29789823840E+03  0.11211101059E+04 -0.17386792456E+04  0.20901287908E+04  0.12699999809E+01 0. -1.
       -4    1    3    3    0  502  0.29789823840E+03 -0.11211101059E+04  0.12132190037E+04  0.16785509208E+04  0.12699999809E+01 0.  1.
</event>
<event>
 5   0  0.3675819E-07  0.3762376E+04  0.7818609E-02  0.8054277E-01
       -1   -1    0    0    0  501  0.00000000000E+00  0.00000000000E+00  0.17803008941E+04  0.17803008941E+04  0.50400001928E-02 0.  1.
        1   -1    0    0  501    0  0.00000000000E+00  0.00000000000E+00 -0.19877923781E+04  0.19877923781E+04  0.50400001928E-02 0. -1.
    10030    2    1    2    0    0  0.00000000000E+00  0.00000000000E+00 -0.20749148395E+03  0.37680932722E+04  0.37623761365E+04 0.  0.
        5    1    3    3  502    0  0.18368915165E+04 -0.39399192886E+03 -0.64055897378E+01  0.18786865638E+04  0.46999998093E+01 0. -1.
       -5    1    3    3    0  502 -0.18368915165E+04  0.39399192886E+03 -0.20108589422E+03  0.18894067085E+04  0.46999998093E+01 0.  1.
</event>
<event>
 5   0  0.1128530E-06  0.3712476E+04  0.7818609E-02  0.8065203E-01
        2   -1    0    0  501    0  0.00000000000E+00  0.00000000000E+00  0.16127699463E+04  0.16127699463E+04  0.25500000920E-02 0. -1.
       -2   -1    0    0    0  501  0.00000000000E+00  0.00000000000E+00 -0.21364603456E+04  0.21364603456E+04  0.25500000920E-02 0.  1.
    10030    2    1    2    0    0  0.00000000000E+00  0.00000000000E+00 -0.52369039924E+03  0.37492302919E+04  0.37124757437E+04 0.  0.
        5    1    3    3  502    0  0.13683444748E+04 -0.12521082804E+04 -0.33643574906E+03  0.18850339124E+04  0.46999998093E+01 0.  1.
       -5    1    3    3    0  502 -0.13683444748E+04  0.12521082804E+04 -0.18725465018E+03  0.18641963795E+04  0.46999998093E+01 0. -1.
</event>
<event>
 5   0  0.3675819E-07  0.3617972E+04  0.7818609E-02  0.8086387E-01
       -1   -1    0    0    0  501  0.00000000000E+00  0.00000000000E+00  0.27935763359E+04  0.27935763359E+04  0.50400001928E-02 0.  1.
        1   -1    0    0  501    0  0.00000000000E+00  0.00000000000E+00 -0.11714127720E+04  0.11714127720E+04  0.50400001928E-02 0. -1.
    10030    2    1    2    0    0  0.00000000000E+00  0.00000000000E+00  0.16221635639E+04  0.39649891080E+04  0.36179723600E+04 0.  0.
        5    1    3    3  502    0  0.14123435136E+04  0.85605056238E+03  0.16200362100E+04  0.23134554627E+04  0.46999998093E+01 0.  1.
       -5    1    3    3    0  502 -0.14123435136E+04 -0.85605056238E+03  0.21273538857E+01  0.16515336453E+04  0.46999998093E+01 0. -1.
</event>
<event>
 5   0  0.3704306E-07  0.2896521E+04  0.7818609E-02  0.8273913E-01
        1   -1    0    0  501    0  0.00000000000E+00  0.00000000000E+00  0.12498627967E+04  0.12498627967E+04  0.50400001928E-02 0.  1.
       -1   -1    0    0    0  501  0.00000000000E+00  0.00000000000E+00 -0.16781506633E+04  0.16781506633E+04  0.50400001928E-02 0. -1.
    10030    2    1    2    0    0  0.00000000000E+00  0.00000000000E+00 -0.42828786666E+03  0.29280134600E+04  0.28965207275E+04 0.  0.
        3    1    3    3  502    0 -0.78061636351E+03 -0.99740474467E+03  0.49583122817E+03  0.13601568839E+04  0.10100000352E+00 0.  1.
       -3    1    3    3    0  502  0.78061636351E+03  0.99740474467E+03 -0.92411909483E+03  0.15678565761E+04  0.10100000352E+00 0. -1.
</event>
<event>
 5   0  0.1066907E-06  0.4041916E+04  0.7818609E-02  0.7996144E-01
       -2   -1    0    0    0  501  0.00000000000E+00  0.00000000000E+00  0.22906149583E+04  0.22906149583E+04  0.25500000920E-02 0.  1.
        2   -1    0    0  501    0  0.00000000000E+00  0.00000000000E+00 -0.17830454264E+04  0.17830454264E+04  0.25500000920E-02 0. -1.
    10030    2    1    2    0    0  0.00000000000E+00  0.00000000000E+00  0.50756953193E+03  0.40736603848E+04  0.40419156474E+04 0.  0.
        4    1    3    3  502    0 -0.34907149150E+01  0.11026600724E+04 -0.14531512457E+04  0.18241495488E+04  0.12699999809E+01 0. -1.
       -4    1    3    3    0  502  0.34907149150E+01 -0.11026600724E+04  0.19607207777E+04  0.22495108360E+04  0.12699999809E+01 0.  1.
</event>
<event>
 5   0  0.1051123E-06  0.3307534E+04  0.7818609E-02  0.8160981E-01
       -2   -1    0    0    0  501  0.00000000000E+00  0.00000000000E+00  0.11725892237E+04  0.11725892237E+04  0.25500000920E-02 0.  1.
        2   -1    0    0  501    0  0.00000000000E+00  0.00000000000E+00 -0.23323979492E+04  0.23323979492E+04  0.25500000920E-02 0. -1.
    10030    2    1    2    0    0  0.00000000000E+00  0.00000000000E+00 -0.11598087256E+04  0.35049871729E+04  0.33075336434E+04 0.  0.
        2    1    3    3  502    0  0.13429771818E+04  0.36113716246E+03  0.36847331759E+03  0.14386731202E+04  0.25500000920E-02 0.  1.
       -2    1    3    3    0  502 -0.13429771818E+04 -0.36113716246E+03 -0.15282820431E+04  0.20663140527E+04  0.25500000920E-02 0. -1.
</event>
<event>
 5   0  0.3848431E-07  0.3691565E+04  0.7818609E-02  0.8069834E-01
        1   -1    0    0  501    0  0.00000000000E+00  0.00000000000E+00  0.14143592649E+04  0.14143592649E+04  0.50400001928E-02 0. -1.
       -1   -1    0    0    0  501  0.00000000000E+00  0.00000000000E+00 -0.24088030152E+04  0.24088030152E+04  0.50400001928E-02 0.  1.
    10030    2    1    2    0    0  0.00000000000E+00  0.00000000000E+00 -0.99444375037E+03  0.38231622801E+04  0.36915649049E+04 0.  0.
        2    1    3    3  502    0  0.94645221212E+03 -0.14839785193E+04 -0.10728678853E+04  0.20613125758E+04  0.25500000920E-02 0. -1.
       -2    1    3    3    0  502 -0.94645221212E+03  0.14839785193E+04  0.78424134969E+02  0.17618497043E+04  0.25500000920E-02 0.  1.
</event>
<event>
 5   0  0.1051123E-06  0.3706475E+04  0.7818609E-02  0.8066528E-01
        2   -1    0    0  501    0  0.00000000000E+00  0.00000000000E+00  0.11651899889E+04  0.11651899889E+04  0.25500000920E-02 0. -1.
       -2   -1    0    0    0  501  0.00000000000E+00  0.00000000000E+00 -0.29475781078E+04  0.29475781078E+04  0.25500000920E-02 0.  1.
    10030    2    1    2    0    0  0.00000000000E+00  0.00000000000E+00 -0.17823881189E+04  0.41127680967E+04  0.37064746068E+04 0.  0.
        2    1    3    3  502    0  0.84328125188E+03 -0.14370366049E+04 -0.17914835102E+04  0.24465507640E+04  0.25500000920E-02 0.  1.
       -2    1    3    3    0  502 -0.84328125188E+03  0.14370366049E+04  0.90953912561E+01  0.16662173327E+04  0.25500000920E-02 0. -1.
</event>
<event>
 5   0  0.3848431E-07  0.3682359E+04  0.7818609E-02  0.8071883E-01
        1   -1    0    0  501    0  0.00000000000E+00  0.00000000000E+00  0.22876892483E+04  0.22876892483E+04  0.50400001928E-02 0.  1.
       -1   -1    0    0    0  501  0.00000000000E+00  0.00000000000E+00 -0.14818188636E+04  0.14818188636E+04  0.50400001928E-02 0. -1.
    10030    2    1    2    0    0  0.00000000000E+00  0.00000000000E+00  0.80587038473E+03  0.37695081119E+04  0.36823585280E+04 0.  0.
        2    1    3    3  502    0  0.85290392992E+03  0.13652571078E+04  0.13177113452E+04  0.20803209545E+04  0.25500000920E-02 0.  1.
       -2    1    3    3    0  502 -0.85290392992E+03 -0.13652571078E+04 -0.51184096050E+03  0.16891871575E+04  0.25500000920E-02 0. -1.
</event>
<event>
 5   0  0.3704306E-07  0.3677592E+04  0.7818609E-02  0.8072946E-01
        1   -1    0    0  501    0  0.00000000000E+00  0.00000000000E+00  0.21322694556E+04  0.21322694557E+04  0.50400001928E-02 0. -1.
       -1   -1    0    0    0  501  0.00000000000E+00  0.00000000000E+00 -0.15857149698E+04  0.15857149698E+04  0.50400001928E-02 0.  1.
    10030    2    1    2    0    0  0.00000000000E+00  0.00000000000E+00  0.54655448582E+03  0.37179844255E+04  0.36775924709E+04 0.  0.
        3    1    3    3  502    0  0.76022620139E+01 -0.96255866021E+03 -0.13106449842E+04  0.16261510549E+04  0.10100000352E+00 0.  1.
       -3    1    3    3    0  502 -0.76022620139E+01  0.96255866021E+03  0.18571994700E+04  0.20918333706E+04  0.10100000352E+00 0. -1.
</event>
<event>
 5   0  0.1051123E-06  0.3522032E+04  0.7818609E-02  0.8108588E-01
       -2   -1    0    0    0  501  0.00000000000E+00  0.00000000000E+00  0.26762583093E+04  0.26762583093E+04  0.25500000920E-02 0. -1.
        2   -1    0    0  501    0  0.00000000000E+00  0.00000000000E+00 -0.11587738123E+04  0.11587738123E+04  0.25500000920E-02 0.  1.
    10030    2    1    2    0    0  0.00000000000E+00  0.00000000000E+00  0.15174844970E+04  0.38350321216E+04  0.35220323927E+04 0.  0.
        2    1    3    3  502    0  0.39991815185E+03 -0.75598965960E+03 -0.91745246100E+03  0.12542622978E+04  0.25500000920E-02 0.  1.
       -2    1    3    3    0  502 -0.39991815185E+03  0.75598965960E+03  0.24349369580E+04  0.25807698238E+04  0.25500000920E-02 0. -1.
</event>
<event>
 5   0  0.1066907E-06  0.3242640E+04  0.7818609E-02  0.8177646E-01
        2   -1    0    0  501    0  0.00000000000E+00  0.00000000000E+00  0.13419415139E+04  0.13419415139E+04  0.25500000920E-02 0.  1.
       -2   -1    0    0    0  501  0.00000000000E+00  0.00000000000E+00 -0.19588616716E+04  0.19588616716E+04  0.25500000920E-02 0. -1.
    10030    2    1    2    0    0  0.00000000000E+00  0.00000000000E+00 -0.61692015770E+03  0.33008031856E+04  0.32426395404E+04 0.  0.
        4    1    3    3  502    0 -0.68552015504E+03 -0.14681434534E+04 -0.36687496282E+03  0.16613193353E+04  0.12699999809E+01 0. -1.
       -4    1    3    3    0  502  0.68552015504E+03  0.14681434534E+04 -0.25004519488E+03  0.16394838502E+04  0.12699999809E+01 0.  1.
</event>
<event>
 5   0  0.1092116E-06  0.3710616E+04  0.7818609E-02  0.8065613E-01
       -2   -1    0    0    0  501  0.00000000000E+00  0.00000000000E+00  0.14073275478E+04  0.14073275478E+04  0.25500000920E-02 0. -1.
        2   -1    0    0  501    0  0.00000000000E+00  0.00000000000E+00 -0.24458901582E+04  0.24458901582E+04  0.25500000920E-02 0.  1.
    10030    2    1    2    0    0  0.00000000000E+00  0.00000000000E+00 -0.10385626104E+04  0.38532177061E+04  0.37106164440E+04 0.  0.
        1    1    3    3  502    0 -0.16573563861E+04 -0.73261109797E+03 -0.10570503142E+03  0.18151371202E+04  0.50400001928E-02 0. -1.
       -1    1    3    3    0  502  0.16573563861E+04  0.73261109797E+03 -0.93285757899E+03  0.20380805858E+04  0.50400001928E-02 0.  1.
</event>
<event>
 5   0  0.1092116E-06  0.3625261E+04  0.7818609E-02  0.8084730E-01
        2   -1    0    0  501    0  0.00000000000E+00  0.00000000000E+00  0.21489023947E+04  0.21489023947E+04  0.25500000920E-02 0.  1.
       -2   -1    0    0    0  501  0.00000000000E+00  0.00000000000E+00 -0.15289802891E+04  0.15289802891E+04  0.25500000920E-02 0. -1.
    10030    2    1    2    0    0  0.00000000000E+00  0.00000000000E+00  0.61992210560E+03  0.36778826838E+04  0.36252610415E+04 0.  0.
        1    1    3    3  502    0  0.87402231081E+03  0.24244137327E+03  0.19021155326E+04  0.21073054640E+04  0.50400001928E-02 0.  1.
       -1    1    3    3    0  502 -0.87402231081E+03 -0.24244137327E+03 -0.12821934270E+04  0.15705772198E+04  0.50400001928E-02 0. -1.
</event>
<event>
 5   0  0.3848431E-07  0.3593817E+04  0.7818609E-02  0.8091909E-01
        1   -1    0    0  501    0  0.00000000000E+00  0.00000000000E+00  0.22936571616E+04  0.22936571616E+04  0.50400001928E-02 0. -1.
       -1   -1    0    0    0  501  0.00000000000E+00  0.00000000000E+00 -0.14077431261E+04  0.14077431261E+04  0.50400001928E-02 0.  1.
    10030    2    1    2    0    0  0.00000000000E+00  0.00000000000E+00  0.88591403550E+03  0.37014002878E+04  0.35938169698E+04 0.  0.
        2    1    3    3  502    0 -0.15020393897E+03  0.97281635501E+03 -0.11053577194E+04  0.14801177560E+04  0.25500000920E-02 0. -1.
       -2    1    3    3    0  502  0.15020393897E+03 -0.97281635501E+03  0.19912717549E+04  0.22212825317E+04  0.25500000920E-02 0.  1.
</event>
<event>
 5   0  0.3848431E-07  0.3640423E+04  0.7818609E-02  0.8081295E-01
       -1   -1    0    0    0  501  0.00000000000E+00  0.00000000000E+00  0.19428911872E+04  0.19428911872E+04  0.50400001928E-02 0. -1.
        1   -1    0    0  501    0  0.00000000000E+00  0.00000000000E+00 -0.17052778830E+04  0.17052778830E+04  0.50400001928E-02 0.  1.
    10030    2    1    2    0    0  0.00000000000E+00  0.00000000000E+00  0.23761330419E+03  0.36481690702E+04  0.36404227066E+04 0.  0.
        2    1    3    3  502    0 -0.13537631111E+04 -0.94609133019E+03  0.88555302250E+03  0.18740244187E+04  0.25500000920E-02 0. -1.
       -2    1    3    3    0  502  0.13537631111E+04  0.94609133019E+03 -0.64793971831E+03  0.17741446516E+04  0.25500000920E-02 0.  1.
</event>
<event>
 5   0  0.1092116E-06  0.3751514E+04  0.7818609E-02  0.8056641E-01
       -2   -1    0    0    0  501  0.00000000000E+00  0.00000000000E+00  0.24816241804E+04  0.24816241804E+04  0.25500000920E-02 0.  1.
        2   -1    0    0  501    0  0.00000000000E+00  0.00000000000E+00 -0.14178072498E+04  0.14178072498E+04  0.25500000920E-02 0. -1.
    10030    2    1    2    0    0  0.00000000000E+00  0.00000000000E+00  0.10638169306E+04  0.38994314302E+04  0.37515142299E+04 0.  0.
        1    1    3    3  502    0  0.24223981125E+03 -0.17749319057E+04 -0.46261860187E+02  0.17919831348E+04  0.50400001928E-02 0. -1.
       -1    1    3    3    0  502 -0.24223981125E+03  0.17749319057E+04  0.11100787908E+04  0.21074482954E+04  0.50400001928E-02 0.  1.
</event>
<event>
 5   0  0.1128530E-06  0.3757905E+04  0.7818609E-02  0.8055249E-01
        2   -1    0    0  501    0  0.00000000000E+00  0.00000000000E+00  0.19642498909E+04  0.19642498909E+04  0.25500000920E-02 0.  1.
       -2   -1    0    0    0  501  0.00000000000E+00  0.00000000000E+00 -0.17973588069E+04  0.17973588069E+04  0.25500000920E-02 0. -1.
    10030    2    1    2    0    0  0.00000000000E+00  0.00000000000E+00  0.16689108404E+03  0.37616086978E+04  0.37579046504E+04 0.  0.
        5    1    3    3  502    0 -0.10189895356E+04  0.49826323854E+03  0.15828652143E+04  0.19473290182E+04  0.46999998093E+01 0.  1.
       -5    1    3    3    0  502  0.10189895356E+04 -0.49826323854E+03 -0.14159741303E+04  0.18142796797E+04  0.46999998093E+01 0. -1.
</event>
<event>
 5   0  0.1066907E-06  0.3694613E+04  0.7818609E-02  0.8069157E-01
        2   -1    0    0  501    0  0.00000000000E+00  0.00000000000E+00  0.25820010363E+04  0.25820010363E+04  0.25500000920E-02 0. -1.
       -2   -1    0    0    0  501  0.00000000000E+00  0.00000000000E+00 -0.13216653395E+04  0.13216653395E+04  0.25500000920E-02 0.  1.
    10030    2    1    2    0    0  0.00000000000E+00  0.00000000000E+00  0.12603356968E+04  0.39036663759E+04  0.36946129846E+04 0.  0.
        4    1    3    3  502    0 -0.11993003668E+04 -0.85607237686E+03  0.18073734819E+04  0.23319051868E+04  0.12699999809E+01 0. -1.
       -4    1    3    3    0  502  0.11993003668E+04  0.85607237686E+03 -0.54703778511E+03  0.15717611891E+04  0.12699999809E+01 0.  1.
</event>
<event>
 5   0  0.3704306E-07  0.3615055E+04  0.7818609E-02  0.8087052E-01
       -1   -1    0    0    0  501  0.00000000000E+00  0.00000000000E+00  0.11972385164E+04  0.11972385164E+04  0.50400001928E-02 0.  1.
        1   -1    0    0  501    0  0.00000000000E+00  0.00000000000E+00 -0.27289099995E+04  0.27289099995E+04  0.50400001928E-02 0. -1.
    10030    2    1    2    0    0  0.00000000000E+00  0.00000000000E+00 -0.15316714830E+04  0.39261485159E+04  0.36150552744E+04 0.  0.
        3    1    3    3  502    0 -0.15372196508E+04 -0.66591165886E+03 -0.28698380104E+02  0.16755017754E+04  0.10100000352E+00 0.  1.
       -3    1    3    3    0  502  0.15372196508E+04  0.66591165886E+03 -0.15029731029E+04  0.22506467405E+04  0.10100000352E+00 0. -1.
</event>
<event>
 5   0  0.1128166E-06  0.3614040E+04  0.7818609E-02  0.8087283E-01
        2   -1    0    0  501    0  0.00000000000E+00  0.00000000000E+00  0.17208285643E+04  0.17208285643E+04  0.25500000920E-02 0.  1.
       -2   -1    0    0    0  501  0.00000000000E+00  0.00000000000E+00 -0.18975282430E+04  0.18975282430E+04  0.25500000920E-02 0. -1.
    10030    2    1    2    0    0  0.00000000000E+00  0.00000000000E+00 -0.17669967872E+03  0.36183568073E+04  0.36140397353E+04 0.  0.
        3    1    3    3  502    0 -0.16507744883E+04  0.24365982398E+03  0.60594393168E+03  0.17752731000E+04  0.10100000352E+00 0.  1.
       -3    1    3    3    0  502  0.16507744883E+04 -0.24365982398E+03 -0.78264361040E+03  0.18430837073E+04  0.10100000352E+00 0. -1.
</event>
<event>
 5   0  0.1092116E-06  0.3684188E+04  0.7818609E-02  0.8071475E-01
        2   -1    0    0  501    0  0.00000000000E+00  0.00000000000E+00  0.29214930661E+04  0.29214930661E+04  0.25500000920E-02 0. -1.
       -2   -1    0    0    0  501  0.00000000000E+00  0.00000000000E+00 -0.11614984260E+04  0.11614984260E+04  0.25500000920E-02 0.  1.
    10030    2    1    2    0    0  0.00000000000E+00  0.00000000000E+00  0.17599946400E+04  0.40829914921E+04  0.36841876162E+04 0.  0.
        1    1    3    3  502    0  0.12482905536E+03  0.17113863768E+04  0.16225098501E+04  0.23615596197E+04  0.50400001928E-02 0. -1.
       -1    1    3    3    0  502 -0.12482905536E+03 -0.17113863768E+04  0.13748478991E+03  0.17214318724E+04  0.50400001928E-02 0.  1.
</event>
<event>
 5   0  0.3764495E-07  0.2691664E+04  0.7818609E-02  0.8337715E-01
        1   -1    0    0  501    0  0.00000000000E+00  0.00000000000E+00  0.15387267087E+04  0.15387267087E+04  0.50400001928E-02 0. -1.
       -1   -1    0    0    0  501  0.00000000000E+00  0.00000000000E+00 -0.11771188017E+04  0.11771188017E+04  0.50400001928E-02 0.  1.
    10030    2    1    2    0    0  0.00000000000E+00  0.00000000000E+00  0.36160790699E+03  0.27158455105E+04  0.26916642730E+04 0.  0.
        4    1    3    3  502    0 -0.28491515241E+03 -0.44171920499E+03 -0.10692654377E+04  0.11914792022E+04  0.12699999809E+01 0.  1.
       -4    1    3    3    0  502  0.28491515241E+03  0.44171920499E+03  0.14308733447E+04  0.15243663082E+04  0.12699999809E+01 0. -1.
</event>
<event>
 5   0  0.1128166E-06  0.3604883E+04  0.7818609E-02  0.8089374E-01
        2   -1    0    0  501    0  0.00000000000E+00  0.00000000000E+00  0.24481729107E+04  0.24481729107E+04  0.25500000920E-02 0. -1.
       -2   -1    0    0    0  501  0.00000000000E+00  0.00000000000E+00 -0.13270289040E+04  0.13270289040E+04  0.25500000920E-02 0.  1.
    10030    2    1    2    0    0  0.00000000000E+00  0.00000000000E+00  0.11211440067E+04  0.37752018147E+04  0.36048834736E+04 0.  0.
        3    1    3    3  502    0  0.59819612994E+02 -0.63583776986E+03 -0.12045676329E+04  0.13633969518E+04  0.10100000352E+00 0.  1.
       -3    1    3    3    0  502 -0.59819612994E+02  0.63583776986E+03  0.23257116397E+04  0.24118048629E+04  0.10100000352E+00 0. -1.
</event>
<event>
 5   0  0.1092116E-06  0.3703040E+04  0.7818609E-02  0.8067289E-01
       -2   -1    0    0    0  501  0.00000000000E+00  0.00000000000E+00  0.22749852055E+04  0.22749852055E+04  0.25500000920E-02 0.  1.
        2   -1    0    0  501    0  0.00000000000E+00  0.00000000000E+00 -0.15068781403E+04  0.15068781403E+04  0.25500000920E-02 0. -1.
    10030    2    1    2    0    0  0.00000000000E+00  0.00000000000E+00  0.76810706528E+03  0.37818633458E+04  0.37030395492E+04 0.  0.
        1    1    3    3  502    0  0.14687781643E+04 -0.10173706248E+04  0.87995419987E+03  0.19916504909E+04  0.50400001928E-02 0.  1.
       -1    1    3    3    0  502 -0.14687781643E+04  0.10173706248E+04 -0.11184713459E+03  0.17902128549E+04  0.50400001928E-02 0. -1.
</event>
<event>
 5   0  0.3848431E-07  0.2737146E+04  0.7818609E-02  0.8323052E-01
       -1   -1    0    0    0  501  0.00000000000E+00  0.00000000000E+00  0.10091856928E+04  0.10091856928E+04  0.50400001928E-02 0. -1.
        1   -1    0    0  501    0  0.00000000000E+00  0.00000000000E+00 -0.18559432923E+04  0.18559432923E+04  0.50400001928E-02 0.  1.
    10030    2    1    2    0    0  0.00000000000E+00  0.00000000000E+00 -0.84675759957E+03  0.28651289851E+04  0.27371455330E+04 0.  0.
        2    1    3    3  502    0 -0.30248254764E+03 -0.12708431254E+04 -0.85044256389E+03  0.15587785268E+04  0.25500000920E-02 0.  1.
       -2    1    3    3    0  502  0.30248254764E+03  0.12708431254E+04  0.36849643189E+01  0.13063504583E+04  0.25500000920E-02 0. -1.
</event>
<event>
 5   0  0.1128530E-06  0.3696134E+04  0.7818609E-02  0.8068819E-01
        2   -1    0    0  501    0  0.00000000000E+00  0.00000000000E+00  0.23521520138E+04  0.23521520138E+04  0.25500000920E-02 0. -1.
       -2   -1    0    0    0  501  0.00000000000E+00  0.00000000000E+00 -0.14520113204E+04  0.14520113204E+04  0.25500000920E-02 0.  1.
    10030    2    1    2    0    0  0.00000000000E+00  0.00000000000E+00  0.90014069332E+03  0.38041633342E+04  0.36961338457E+04 0.  0.
        5    1    3    3  502    0  0.72913262100E+03  0.93851387798E+03 -0.10065274356E+04  0.15574216664E+04  0.46999998093E+01 0.  1.
       -5    1    3    3    0  502 -0.72913262100E+03 -0.93851387798E+03  0.19066681289E+04  0.22467416679E+04  0.46999998093E+01 0. -1.
</event>
<event>
 5   0  0.3704306E-07  0.3564701E+04  0.7818609E-02  0.8098626E-01
        1   -1    0    0  501    0  0.00000000000E+00  0.00000000000E+00  0.25434689142E+04  0.25434689142E+04  0.50400001928E-02 0. -1.
       -1   -1    0    0    0  501  0.00000000000E+00  0.00000000000E+00 -0.12489923064E+04  0.12489923064E+04  0.50400001928E-02 0.  1.
    10030    2    1    2    0    0  0.00000000000E+00  0.00000000000E+00  0.12944766078E+04  0.37924612207E+04  0.35647008882E+04 0.  0.
        3    1    3    3  502    0 -0.63818813336E+02 -0.17672538054E+04  0.41050294971E+03  0.18154259928E+04  0.10100000352E+00 0.  1.
       -3    1    3    3    0  502  0.63818813336E+02  0.17672538054E+04  0.88397365809E+03  0.19770352278E+04  0.10100000352E+00 0. -1.
</event>
<event>
 5   0  0.1092116E-06  0.3636234E+04  0.7818609E-02  0.8082242E-01
        2   -1    0    0  501    0  0.00000000000E+00  0.00000000000E+00  0.18801226128E+04  0.18801226128E+04  0.25500000920E-02 0. -1.
       -2   -1    0    0    0  501  0.00000000000E+00  0.00000000000E+00 -0.17581561762E+04  0.17581561762E+04  0.25500000920E-02 0.  1.
    10030    2    1    2    0    0  0.00000000000E+00  0.00000000000E+00  0.12196643657E+03  0.36382787889E+04  0.36362338669E+04 0.  0.
        1    1    3    3  502    0  0.11479061936E+04  0.73031206530E+03  0.12676899979E+04  0.18595919641E+04  0.50400001928E-02 0. -1.
       -1    1    3    3    0  502 -0.11479061936E+04 -0.73031206530E+03 -0.11457235613E+04  0.17786868249E+04  0.50400001928E-02 0.  1.
</event>
<event>
 5   0  0.1051123E-06  0.3679440E+04  0.7818609E-02  0.8072533E-01
       -2   -1    0    0    0  501  0.00000000000E+00  0.00000000000E+00  0.14860681980E+04  0.14860681980E+04  0.25500000920E-02 0.  1.
        2   -1    0    0  501    0  0.00000000000E+00  0.00000000000E+00 -0.22775334468E+04  0.22775334468E+04  0.25500000920E-02 0. -1.
    10030    2    1    2    0    0  0.00000000000E+00  0.00000000000E+00 -0.79146524875E+03  0.37636016448E+04  0.36794401885E+04 0.  0.
        2    1    3    3  502    0  0.53563527830E+02  0.23160317869E+03 -0.22617579649E+04  0.22742159475E+04  0.25500000920E-02 0. -1.
       -2    1    3    3    0  502 -0.53563527830E+02 -0.23160317869E+03  0.14702927162E+04  0.14893856973E+04  0.25500000920E-02 0.  1.
</event>
<event>
 5   0  0.3675819E-07  0.3734914E+04  0.7818609E-02  0.8060268E-01
        1   -1    0    0  501    0  0.00000000000E+00  0.00000000000E+00  0.13311014466E+04  0.13311014466E+04  0.50400001928E-02 0. -1.
       -1   -1    0    0    0  501  0.00000000000E+00  0.00000000000E+00 -0.26199325499E+04  0.26199325499E+04  0.50400001928E-02 0.  1.
    10030    2    1    2    0    0  0.00000000000E+00  0.00000000000E+00 -0.12888311033E+04  0.39510339965E+04  0.37349141929E+04 0.  0.
        5    1    3    3  502    0  0.11307474755E+04  0.12176278551E+04 -0.15458792322E+04  0.22695753209E+04  0.46999998093E+01 0.  1.
       -5    1    3    3    0  502 -0.11307474755E+04 -0.12176278551E+04  0.25704812890E+03  0.16814586755E+04  0.46999998093E+01 0. -1.
</event>
<event>
 5   0  0.1092116E-06  0.2494521E+04  0.7818609E-02  0.8404940E-01
       -2   -1    0    0    0  501  0.00000000000E+00  0.00000000000E+00  0.10081468587E+04  0.10081468587E+04  0.25500000920E-02 0.  1.
        2   -1    0    0  501    0  0.00000000000E+00  0.00000000000E+00 -0.15430879163E+04  0.15430879163E+04  0.25500000920E-02 0. -1.
    10030    2    1    2    0    0  0.00000000000E+00  0.00000000000E+00 -0.53494105757E+03  0.25512347750E+04  0.24945213853E+04 0.  0.
        1    1    3    3  502    0  0.87007961196E+03  0.28551357622E+03  0.59860122366E+03  0.10940200905E+04  0.50400001928E-02 0.  1.
       -1    1    3    3    0  502 -0.87007961196E+03 -0.28551357622E+03 -0.11335422812E+04  0.14572146845E+04  0.50400001928E-02 0. -1.
</event>
<event>
 5   0  0.1128530E-06  0.2865366E+04  0.7818609E-02  0.8283257E-01
        2   -1    0    0  501    0  0.00000000000E+00  0.00000000000E+00  0.15826930482E+04  0.15826930482E+04  0.25500000920E-02 0. -1.
       -2   -1    0    0    0  501  0.00000000000E+00  0.00000000000E+00 -0.12968913739E+04  0.12968913739E+04  0.25500000920E-02 0.  1.
    10030    2    1    2    0    0  0.00000000000E+00  0.00000000000E+00  0.28580167429E+03  0.28795844220E+04  0.28653662674E+04 0.  0.
        5    1    3    3  502    0  0.20620164540E+03 -0.15399354574E+03 -0.12734632518E+04  0.12992166388E+04  0.46999998093E+01 0.  1.
       -5    1    3    3    0  502 -0.20620164540E+03  0.15399354574E+03  0.15592649261E+04  0.15803677833E+04  0.46999998093E+01 0. -1.
</event>
<event>
 5   0  0.1092116E-06  0.3588902E+04  0.7818609E-02  0.8093039E-01
       -2   -1    0    0    0  501  0.00000000000E+00  0.00000000000E+00  0.15159269959E+04  0.15159269959E+04  0.25500000920E-02 0.  1.
        2   -1    0    0  501    0  0.00000000000E+00  0.00000000000E+00 -0.21241488751E+04  0.21241488751E+04  0.25500000920E-02 0. -1.
    10030    2    1    2    0    0  0.00000000000E+00  0.00000000000E+00 -0.60822187920E+03  0.36400758710E+04  0.35889021291E+04 0.  0.
        1    1    3    3  502    0  0.12312648345E+04  0.59131162503E+03 -0.14844887196E+04  0.20172677782E+04  0.50400001928E-02 0. -1.
       -1    1    3    3    0  502 -0.12312648345E+04 -0.59131162503E+03  0.87626684039E+03  0.16228080928E+04  0.50400001928E-02 0.  1.
</event>
<event>
 5   0  0.3682276E-07  0.2479969E+04  0.7818609E-02  0.8410157E-01
       -1   -1    0    0    0  501  0.00000000000E+00  0.00000000000E+00  0.93902485700E+03  0.93902485701E+03  0.50400001928E-02 0. -1.
        1   -1    0    0  501    0  0.00000000000E+00  0.00000000000E+00 -0.16374020743E+04  0.16374020743E+04  0.50400001928E-02 0.  1.
    10030    2    1    2    0    0  0.00000000000E+00  0.00000000000E+00 -0.69837721729E+03  0.25764269313E+04  0.24799687487E+04 0.  0.
        1    1    3    3  502    0  0.76878883940E+03  0.85378933730E+03  0.13539628006E+03  0.11568598293E+04  0.50400001928E-02 0. -1.
       -1    1    3    3    0  502 -0.76878883940E+03 -0.85378933730E+03 -0.83377349735E+03  0.14195671020E+04  0.50400001928E-02 0.  1.
</event>
<event>
 5   0  0.1128166E-06  0.3583507E+04  0.7818609E-02  0.8094280E-01
       -2   -1    0    0    0  501  0.00000000000E+00  0.00000000000E+00  0.25255966766E+04  0.25255966766E+04  0.25500000920E-02 0.  1.
        2   -1    0    0  501    0  0.00000000000E+00  0.00000000000E+00 -0.12711376872E+04  0.12711376872E+04  0.25500000920E-02 0. -1.
    10030    2    1    2    0    0  0.00000000000E+00  0.00000000000E+00  0.12544589894E+04  0.37967343638E+04  0.35835072866E+04 0.  0.
        3    1    3    3  502    0  0.11052424246E+04 -0.20423974827E+03 -0.85118688355E+03  0.14098914188E+04  0.10100000352E+00 0. -1.
       -3    1    3    3    0  502 -0.11052424246E+04  0.20423974827E+03  0.21056458729E+04  0.23868429450E+04  0.10100000352E+00 0.  1.
</event>
<event>
 5   0  0.1066907E-06  0.3255888E+04  0.7818609E-02  0.8174211E-01
        2   -1    0    0  501    0  0.00000000000E+00  0.00000000000E+00  0.21914804244E+04  0.21914804244E+04  0.25500000920E-02 0. -1.
       -2   -1    0    0    0  501  0.00000000000E+00  0.00000000000E+00 -0.12093202979E+04  0.12093202979E+04  0.25500000920E-02 0.  1.
    10030    2    1    2    0    0  0.00000000000E+00  0.00000000000E+00  0.98216012649E+03  0.34008007223E+04  0.32558880568E+04 0.  0.
        4    1    3    3  502    0  0.13698388917E+04  0.82652890538E+03  0.17669963039E+03  0.16096064714E+04  0.12699999809E+01 0. -1.
       -4    1    3    3    0  502 -0.13698388917E+04 -0.82652890538E+03  0.80546049610E+03  0.17911942509E+04  0.12699999809E+01 0.  1.
</event>
<event>
 5   0  0.1051123E-06  0.3547727E+04  0.7818609E-02  0.8102571E-01
        2   -1    0    0  501    0  0.00000000000E+00  0.00000000000E+00  0.15424123244E+04  0.15424123244E+04  0.25500000920E-02 0.  1.
       -2   -1    0    0    0  501  0.00000000000E+00  0.00000000000E+00 -0.20400459583E+04  0.20400459583E+04  0.25500000920E-02 0. -1.
    10030    2    1    2    0    0  0.00000000000E+00  0.00000000000E+00 -0.49763363391E+03  0.35824582826E+04  0.35477271757E+04 0.  0.
        2    1    3    3  502    0  0.31764229212E+03 -0.11941158084E+04  0.10363494681E+04  0.16127087182E+04  0.25500000920E-02 0.  1.
       -2    1    3    3    0  502 -0.31764229212E+03  0.11941158084E+04 -0.15339831020E+04  0.19697495645E+04  0.25500000920E-02 0. -1.
</event>
<event>
 5   0  0.1051123E-06  0.3082982E+04  0.7818609E-02  0.8220424E-01
        2   -1    0    0  501    0  0.00000000000E+00  0.00000000000E+00  0.17108036394E+04  0.17108036394E+04  0.25500000920E-02 0. -1.
       -2   -1    0    0    0  501  0.00000000000E+00  0.00000000000E+00 -0.13889345543E+04  0.13889345543E+04  0.25500000920E-02 0.  1.
    10030    2    1    2    0    0  0.00000000000E+00  0.00000000000E+00  0.32186908505E+03  0.30997381937E+04  0.30829818621E+04 0.  0.
        2    1    3    3  502    0  0.89819233691E+03  0.11186089532E+04 -0.40618685393E+03  0.14909806251E+04  0.25500000920E-02 0.  1.
       -2    1    3    3    0  502 -0.89819233691E+03 -0.11186089532E+04  0.72805593899E+03  0.16087575686E+04  0.25500000920E-02 0. -1.
</event>
<event>
 5   0  0.1092116E-06  0.2508983E+04  0.7818609E-02  0.8399792E-01
       -2   -1    0    0    0  501  0.00000000000E+00  0.00000000000E+00  0.12502110073E+04  0.12502110073E+04  0.25500000920E-02 0. -1.
        2   -1    0    0  501    0  0.00000000000E+00  0.00000000000E+00 -0.12587861875E+04  0.12587861876E+04  0.25500000920E-02 0.  1.
    10030    2    1    2    0    0  0.00000000000E+00  0.00000000000E+00 -0.85751802190E+01  0.25089971949E+04  0.25089825408E+04 0.  0.
        1    1    3    3  502    0  0.26363021807E+03  0.79318222168E+03 -0.93976588557E+03  0.12576958489E+04  0.50400001928E-02 0.  1.
       -1    1    3    3    0  502 -0.26363021807E+03 -0.79318222168E+03  0.93119070535E+03  0.12513013460E+04  0.50400001928E-02 0. -1.
</event>
<event>
 5   0  0.3682276E-07  0.3899642E+04  0.7818609E-02  0.8025104E-01
       -1   -1    0    0    0  501  0.00000000000E+00  0.00000000000E+00  0.15051027284E+04  0.15051027284E+04  0.50400001928E-02 0. -1.
        1   -1    0    0  501    0  0.00000000000E+00  0.00000000000E+00 -0.25259420190E+04  0.25259420190E+04  0.50400001928E-02 0.  1.
    10030    2    1    2    0    0  0.00000000000E+00  0.00000000000E+00 -0.10208392906E+04  0.40310447475E+04  0.38996421501E+04 0.  0.
        1    1    3    3  502    0  0.71697754540E+03 -0.16973337495E+04  0.14888363930E+03  0.18485575446E+04  0.50400001928E-02 0.  1.
       -1    1    3    3    0  502 -0.71697754540E+03  0.16973337495E+04 -0.11697229299E+04  0.21824872028E+04  0.50400001928E-02 0. -1.
</event>
<event>
 5   0  0.1092116E-06  0.3717479E+04  0.7818609E-02  0.8064099E-01
        2   -1    0    0  501    0  0.00000000000E+00  0.00000000000E+00  0.22463145541E+04  0.22463145541E+04  0.25500000920E-02 0.  1.
       -2   -1    0    0    0  501  0.00000000000E+00  0.00000000000E+00 -0.15380361871E+04  0.15380361871E+04  0.25500000920E-02 0. -1.
    10030    2    1    2    0    0  0.00000000000E+00  0.00000000000E+00  0.70827836708E+03  0.37843507412E+04  0.37174792921E+04 0.  0.
        1    1    3    3  502    0 -0.82875138177E+03 -0.75856119664E+03 -0.11532638122E+04  0.16100501118E+04  0.50400001928E-02 0. -1.
       -1    1    3    3    0  502  0.82875138177E+03  0.75856119664E+03  0.18615421793E+04  0.21743006294E+04  0.50400001928E-02 0.  1.
</event>
<event>
 5   0  0.3764495E-07  0.3700043E+04  0.7818609E-02  0.8067952E-01
        1   -1    0    0  501    0  0.00000000000E+00  0.00000000000E+00  0.10823356083E+04  0.10823356083E+04  0.50400001928E-02 0.  1.
       -1   -1    0    0    0  501  0.00000000000E+00  0.00000000000E+00 -0.31622170676E+04  0.31622170676E+04  0.50400001928E-02 0. -1.
    10030    2    1    2    0    0  0.00000000000E+00  0.00000000000E+00 -0.20798814593E+04  0.42445526759E+04  0.37000433151E+04 0.  0.
        4    1    3    3  502    0  0.15036501938E+04  0.10685647622E+04 -0.87858597061E+03  0.20432105806E+04  0.12699999809E+01 0. -1.
       -4    1    3    3    0  502 -0.15036501938E+04 -0.10685647622E+04 -0.12012954887E+04  0.22013420953E+04  0.12699999809E+01 0.  1.
</event>
<event>
 5   0  0.3675819E-07  0.3156211E+04  0.7818609E-02  0.8200478E-01
       -1   -1    0    0    0  501  0.00000000000E+00  0.00000000000E+00  0.10215486354E+04  0.10215486354E+04  0.50400001928E-02 0.  1.
        1   -1    0    0  501    0  0.00000000000E+00  0.00000000000E+00 -0.24378841506E+04  0.24378841506E+04  0.50400001928E-02 0. -1.
    10030    2    1    2    0    0  0.00000000000E+00  0.00000000000E+00 -0.14163355152E+04  0.34594327860E+04  0.31562111636E+04 0.  0.
        5    1    3    3  502    0 -0.15670882448E+04 -0.11386866658E+03 -0.86949329747E+03  0.17957651084E+04  0.46999998093E+01 0.  1.
       -5    1    3    3    0  502  0.15670882448E+04  0.11386866658E+03 -0.54684221775E+03  0.16636676776E+04  0.46999998093E+01 0. -1.
</event>
<event>
 5   0  0.3764495E-07  0.3294961E+04  0.7818609E-02  0.8164179E-01
        1   -1    0    0  501    0  0.00000000000E+00  0.00000000000E+00  0.11570861376E+04  0.11570861376E+04  0.50400001928E-02 0.  1.
       -1   -1    0    0    0  501  0.00000000000E+00  0.00000000000E+00 -0.23457123341E+04  0.23457123341E+04  0.50400001928E-02 0. -1.
    10030    2    1    2    0    0  0.00000000000E+00  0.00000000000E+00 -0.11886261966E+04  0.35027984717E+04  0.32949605306E+04 0.  0.
        4    1    3    3  502    0  0.49659353551E+03 -0.10103437176E+03 -0.22607957146E+04  0.23168970542E+04  0.12699999809E+01 0. -1.
       -4    1    3    3    0  502 -0.49659353551E+03  0.10103437176E+03  0.10721695180E+04  0.11859014175E+04  0.12699999809E+01 0.  1.
</event>
<event>
 5   0  0.1092116E-06  0.2882936E+04  0.7818609E-02  0.8277973E-01
       -2   -1    0    0    0  501  0.00000000000E+00  0.00000000000E+00  0.17063449894E+04  0.17063449894E+04  0.25500000920E-02 0.  1.
        2   -1    0    0  501    0  0.00000000000E+00  0.00000000000E+00 -0.12177081887E+04  0.12177081887E+04  0.25500000920E-02 0. -1.
    10030    2    1    2    0    0  0.00000000000E+00  0.00000000000E+00  0.48863680068E+03  0.29240531781E+04  0.28829361882E+04 0.  0.
        1    1    3    3  502    0  0.51629857489E+03  0.50190215788E+03 -0.10222348963E+04  0.12503736152E+04  0.50400001928E-02 0. -1.
       -1    1    3    3    0  502 -0.51629857489E+03 -0.50190215788E+03  0.15108716969E+04  0.16736795629E+04  0.50400001928E-02 0.  1.
</event>
<event>
 5   0  0.3848431E-07  0.2650832E+04  0.7818609E-02  0.8351137E-01
        1   -1    0    0  501    0  0.00000000000E+00  0.00000000000E+00  0.98556780016E+03  0.98556780017E+03  0.50400001928E-02 0.  1.
       -1   -1    0    0    0  501  0.00000000000E+00  0.00000000000E+00 -0.17824520116E+04  0.17824520116E+04  0.50400001928E-02 0. -1.
    10030    2    1    2    0    0  0.00000000000E+00  0.00000000000E+00 -0.79688421142E+03  0.27680198118E+04  0.26508318000E+04 0.  0.
        2    1    3    3  502    0 -0.59776244718E+03 -0.11447280406E+04 -0.70996818840E+03  0.14736950359E+04  0.25500000920E-02 0. -1.
       -2    1    3    3    0  502  0.59776244718E+03  0.11447280406E+04 -0.86916023025E+02  0.12943247758E+04  0.25500000920E-02 0.  1.
</event>
<event>
 5   0  0.3675819E-07  0.3710649E+04  0.7818609E-02  0.8065606E-01
        1   -1    0    0  501    0  0.00000000000E+00  0.00000000000E+00  0.15763294012E+04  0.15763294012E+04  0.50400001928E-02 0. -1.
       -1   -1    0    0    0  501  0.00000000000E+00  0.00000000000E+00 -0.21836996023E+04  0.21836996023E+04  0.50400001928E-02 0.  1.
    10030    2    1    2    0    0  0.00000000000E+00  0.00000000000E+00 -0.60737020110E+03  0.37600290035E+04  0.37106494776E+04 0.  0.
        5    1    3    3  502    0  0.53662788767E+03 -0.13423205272E+04  0.87472397367E+03  0.16896620987E+04  0.46999998093E+01 0. -1.
       -5    1    3    3    0  502 -0.53662788767E+03  0.13423205272E+04 -0.14820941748E+04  0.20703669048E+04  0.46999998093E+01 0.  1.
</event>
<event>
 5   0  0.3490375E-07  0.3007677E+04  0.7818609E-02  0.8241542E-01
       -3   -1    0    0    0  501  0.00000000000E+00  0.00000000000E+00  0.21144484586E+04  0.21144484610E+04  0.10100000352E+00 0. -1.
        3   -1    0    0  501    0  0.00000000000E+00  0.00000000000E+00 -0.10695603507E+04  0.10695603555E+04  0.10100000352E+00 0.  1.
    10030    2    1    2    0    0  0.00000000000E+00  0.00000000000E+00  0.10448881078E+04  0.31840088165E+04  0.30076770082E+04 0.  0.
        2    1    3    3  502    0 -0.84857307611E+03 -0.12251455756E+04  0.30947230059E+03  0.15221140074E+04  0.25500000920E-02 0.  1.
       -2    1    3    3    0  502  0.84857307611E+03  0.12251455756E+04  0.73541580725E+03  0.16618948091E+04  0.25500000920E-02 0. -1.
</event>
<event>
 5   0  0.1092116E-06  0.3713874E+04  0.7818609E-02  0.8064894E-01
       -2   -1    0    0    0  501  0.00000000000E+00  0.00000000000E+00  0.11333301610E+04  0.11333301610E+04  0.25500000920E-02 0. -1.
        2   -1    0    0  501    0  0.00000000000E+00  0.00000000000E+00 -0.30425515583E+04  0.30425515583E+04  0.25500000920E-02 0.  1.
    10030    2    1    2    0    0  0.00000000000E+00  0.00000000000E+00 -0.19092213973E+04  0.41758817193E+04  0.37138742292E+04 0.  0.
        1    1    3    3  502    0  0.17201203136E+04  0.66716074482E+03 -0.71795687736E+03  0.19797422636E+04  0.50400001928E-02 0. -1.
       -1    1    3    3    0  502 -0.17201203136E+04 -0.66716074482E+03 -0.11912645199E+04  0.21961394557E+04  0.50400001928E-02 0.  1.
</event>
<event>
 5   0  0.3675819E-07  0.3756162E+04  0.7818609E-02  0.8055628E-01
       -1   -1    0    0    0  501  0.00000000000E+00  0.00000000000E+00  0.17198256135E+04  0.17198256135E+04  0.50400001928E-02 0. -1.
        1   -1    0    0  501    0  0.00000000000E+00  0.00000000000E+00 -0.20508990658E+04  0.20508990658E+04  0.50400001928E-02 0.  1.
    10030    2    1    2    0    0  0.00000000000E+00  0.00000000000E+00 -0.33107345229E+03  0.37707246793E+04  0.37561622670E+04 0.  0.
        5    1    3    3  502    0  0.16005358859E+04 -0.15719170795E+03  0.80814229690E+03  0.17998723336E+04  0.46999998093E+01 0. -1.
       -5    1    3    3    0  502 -0.16005358859E+04  0.15719170795E+03 -0.11392157492E+04  0.19708523457E+04  0.46999998093E+01 0.  1.
</event>
<event>
 5   0  0.1051123E-06  0.2568311E+04  0.7818609E-02  0.8379046E-01
       -2   -1    0    0    0  501  0.00000000000E+00  0.00000000000E+00  0.13570308911E+04  0.13570308911E+04  0.25500000920E-02 0. -1.
        2   -1    0    0  501    0  0.00000000000E+00  0.00000000000E+00 -0.12151933439E+04  0.12151933439E+04  0.25500000920E-02 0.  1.
    10030    2    1    2    0    0  0.00000000000E+00  0.00000000000E+00  0.14183754727E+03  0.25722242350E+04  0.25683106559E+04 0.  0.
        2    1    3    3  502    0 -0.11337420990E+04  0.86692713548E+02  0.66862640626E+03  0.13190709021E+04  0.25500000920E-02 0. -1.
       -2    1    3    3    0  502  0.11337420990E+04 -0.86692713548E+02 -0.52678885899E+03  0.12531533329E+04  0.25500000920E-02 0.  1.
</event>
<event>
 5   0  0.3848431E-07  0.3932310E+04  0.7818609E-02  0.8018343E-01
        1   -1    0    0  501    0  0.00000000000E+00  0.00000000000E+00  0.12265928022E+04  0.12265928022E+04  0.50400001928E-02 0.  1.
       -1   -1    0    0    0  501  0.00000000000E+00  0.00000000000E+00 -0.31516284449E+04  0.31516284449E+04  0.50400001928E-02 0. -1.
    10030    2    1    2    0    0  0.00000000000E+00  0.00000000000E+00 -0.19250356427E+04  0.43782212471E+04  0.39323096347E+04 0.  0.
        2    1    3    3  502    0 -0.39484290177E+03 -0.69580891310E+03  0.10371732768E+04  0.13098776152E+04  0.25500000920E-02 0.  1.
       -2    1    3    3    0  502  0.39484290177E+03  0.69580891310E+03 -0.29622089195E+04  0.30683436319E+04  0.25500000920E-02 0. -1.
</event>
<event>
 5   0  0.1128530E-06  0.3678681E+04  0.7818609E-02  0.8072703E-01
        2   -1    0    0  501    0  0.00000000000E+00  0.00000000000E+00  0.19584139619E+04  0.19584139619E+04  0.25500000920E-02 0. -1.
       -2   -1    0    0    0  501  0.00000000000E+00  0.00000000000E+00 -0.17275065973E+04  0.17275065973E+04  0.25500000920E-02 0.  1.
    10030    2    1    2    0    0  0.00000000000E+00  0.00000000000E+00  0.23090736455E+03  0.36859205592E+04  0.36786807632E+04 0.  0.
        5    1    3    3  502    0 -0.16792166712E+03  0.18304709690E+04  0.18138055094E+03  0.18470903197E+04  0.46999998093E+01 0. -1.
       -5    1    3    3    0  502  0.16792166712E+03 -0.18304709690E+04  0.49526813613E+02  0.18388302396E+04  0.46999998093E+01 0.  1.
</event>
<event>
 5   0  0.1066907E-06  0.2603279E+04  0.7818609E-02  0.8367088E-01
       -2   -1    0    0    0  501  0.00000000000E+00  0.00000000000E+00  0.84242873014E+03  0.84242873015E+03  0.25500000920E-02 0. -1.
        2   -1    0    0  501    0  0.00000000000E+00  0.00000000000E+00 -0.20111677875E+04  0.20111677875E+04  0.25500000920E-02 0.  1.
    10030    2    1    2    0    0  0.00000000000E+00  0.00000000000E+00 -0.11687390574E+04  0.28535965177E+04  0.26032791056E+04 0.  0.
        4    1    3    3  502    0  0.99419624209E+03 -0.79006734573E+03 -0.89755404332E+03  0.15550683111E+04  0.12699999809E+01 0.  1.
       -4    1    3    3    0  502 -0.99419624209E+03  0.79006734573E+03 -0.27118501408E+03  0.12985282066E+04  0.12699999809E+01 0. -1.
</event>
<event>
 5   0  0.1066907E-06  0.3689872E+04  0.7818609E-02  0.8070210E-01
       -2   -1    0    0    0  501  0.00000000000E+00  0.00000000000E+00  0.23124590346E+04  0.23124590346E+04  0.25500000920E-02 0. -1.
        2   -1    0    0  501    0  0.00000000000E+00  0.00000000000E+00 -0.14719350457E+04  0.14719350457E+04  0.25500000920E-02 0.  1.
    10030    2    1    2    0    0  0.00000000000E+00  0.00000000000E+00  0.84052398888E+03  0.37843940803E+04  0.36898723527E+04 0.  0.
        4    1    3    3  502    0  0.13802987403E+04  0.10431250945E+04  0.10773399411E+04  0.20381357994E+04  0.12699999809E+01 0. -1.
       -4    1    3    3    0  502 -0.13802987403E+04 -0.10431250945E+04 -0.23681595223E+03  0.17462582808E+04  0.12699999809E+01 0.  1.
</event>
<event>
 5   0  0.3490375E-07  0.3656442E+04  0.7818609E-02  0.8077684E-01
       -3   -1    0    0    0  501  0.00000000000E+00  0.00000000000E+00  0.20588052734E+04  0.20588052759E+04  0.10100000352E+00 0. -1.
        3   -1    0    0  501    0  0.00000000000E+00  0.00000000000E+00 -0.16234619030E+04  0.16234619062E+04  0.10100000352E+00 0.  1.
    10030    2    1    2    0    0  0.00000000000E+00  0.00000000000E+00  0.43534337036E+03  0.36822671821E+04  0.36564419522E+04 0.  0.
        3    1    3    3  502    0  0.16483882400E+04 -0.88480718040E+02 -0.57361279202E+03  0.17475824080E+04  0.10100000352E+00 0.  1.
       -3    1    3    3    0  502 -0.16483882400E+04  0.88480718040E+02  0.10089561624E+04  0.19346847741E+04  0.10100000352E+00 0. -1.
</event>
<event>
 5   0  0.1066907E-06  0.3544317E+04  0.7818609E-02  0.8103367E-01
       -2   -1    0    0    0  501  0.00000000000E+00  0.00000000000E+00  0.16104691566E+04  0.16104691566E+04  0.25500000920E-02 0. -1.
        2   -1    0    0  501    0  0.00000000000E+00  0.00000000000E+00 -0.19500815836E+04  0.19500815836E+04  0.25500000920E-02 0.  1.
    10030    2    1    2    0    0  0.00000000000E+00  0.00000000000E+00 -0.33961242706E+03  0.35605507402E+04  0.35443172788E+04 0.  0.
        4    1    3    3  502    0  0.63667601982E+03 -0.35972475969E+03 -0.17914445079E+04  0.19349504631E+04  0.12699999809E+01 0.  1.
       -4    1    3    3    0  502 -0.63667601982E+03  0.35972475969E+03  0.14518320808E+04  0.16256002771E+04  0.12699999809E+01 0. -1.
</event>
<event>
 5   0  0.1128530E-06  0.3590507E+04  0.7818609E-02  0.8092670E-01
       -2   -1    0    0    0  501  0.00000000000E+00  0.00000000000E+00  0.17159354635E+04  0.17159354635E+04  0.25500000920E-02 0. -1.
        2   -1    0    0  501    0  0.00000000000E+00  0.00000000000E+00 -0.18782376369E+04  0.18782376369E+04  0.25500000920E-02 0.  1.
    10030    2    1    2    0    0  0.00000000000E+00  0.00000000000E+00 -0.16230217342E+03  0.35941731005E+04  0.35905066886E+04 0.  0.
        5    1    3    3  502    0 -0.28309187647E+03  0.86181199226E+03  0.14696408536E+04  0.17270573960E+04  0.46999998093E+01 0. -1.
       -5    1    3    3    0  502  0.28309187647E+03 -0.86181199226E+03 -0.16319430270E+04  0.18671157045E+04  0.46999998093E+01 0.  1.
</event>
<event>
 5   0  0.3675819E-07  0.3751884E+04  0.7818609E-02  0.8056560E-01
       -1   -1    0    0    0  501  0.00000000000E+00  0.00000000000E+00  0.13681201249E+04  0.13681201249E+04  0.50400001928E-02 0.  1.
        1   -1    0    0  501    0  0.00000000000E+00  0.00000000000E+00 -0.25722587350E+04  0.25722587350E+04  0.50400001928E-02 0. -1.
    10030    2    1    2    0    0  0.00000000000E+00  0.00000000000E+00 -0.12041386101E+04  0.39403788600E+04  0.37518842956E+04 0.  0.
        5    1    3    3  502    0  0.17741174688E+04  0.62363054582E+02 -0.12389642218E+04  0.21648178622E+04  0.46999998093E+01 0. -1.
       -5    1    3    3    0  502 -0.17741174688E+04 -0.62363054582E+02  0.34825611676E+02  0.17755609978E+04  0.46999998093E+01 0.  1.
</event>
<event>
 5   0  0.1066907E-06  0.3675862E+04  0.7818609E-02  0.8073332E-01
       -2   -1    0    0    0  501  0.00000000000E+00  0.00000000000E+00  0.25764329569E+04  0.25764329569E+04  0.25500000920E-02 0. -1.
        2   -1    0    0  501    0  0.00000000000E+00  0.00000000000E+00 -0.13111109700E+04  0.13111109700E+04  0.25500000920E-02 0.  1.
    10030    2    1    2    0    0  0.00000000000E+00  0.00000000000E+00  0.12653219869E+04  0.38875439268E+04  0.36758615388E+04 0.  0.
        4    1    3    3  502    0 -0.82047017046E+03  0.10321952930E+04 -0.72145926881E+03  0.15030314411E+04  0.12699999809E+01 0.  1.
       -4    1    3    3    0  502  0.82047017046E+03 -0.10321952930E+04  0.19867812557E+04  0.23845124857E+04  0.12699999809E+01 0. -1.
</event>
<event>
 5   0  0.1092116E-06  0.3364990E+04  0.7818609E-02  0.8146553E-01
        2   -1    0    0  501    0  0.00000000000E+00  0.00000000000E+00  0.26464211699E+04  0.26464211699E+04  0.25500000920E-02 0. -1.
       -2   -1    0    0    0  501  0.00000000000E+00  0.00000000000E+00 -0.10696669731E+04  0.10696669731E+04  0.25500000920E-02 0.  1.
    10030    2    1    2    0    0  0.00000000000E+00  0.00000000000E+00  0.15767541968E+04  0.37160881431E+04  0.33649899390E+04 0.  0.
        1    1    3    3  502    0 -0.75210395734E+03  0.10106006235E+04 -0.44325270850E+03  0.13354575794E+04  0.50400001928E-02 0.  1.
       -1    1    3    3    0  502  0.75210395734E+03 -0.10106006235E+04  0.20200069053E+04  0.23806305636E+04  0.50400001928E-02 0. -1.
</event>
<event>
 5   0  0.3704306E-07  0.3343437E+04  0.7818609E-02  0.8151930E-01
       -1   -1    0    0    0  501  0.00000000000E+00  0.00000000000E+00  0.12628977333E+04  0.12628977334E+04  0.50400001928E-02 0.  1.
        1   -1    0    0  501    0  0.00000000000E+00  0.00000000000E+00 -0.22128814627E+04  0.22128814627E+04  0.50400001928E-02 0. -1.
    10030    2    1    2    0    0  0.00000000000E+00  0.00000000000E+00 -0.94998372936E+03  0.34757791961E+04  0.33434371437E+04 0.  0.
        3    1    3    3  502    0 -0.76424361444E+03  0.11659220952E+04  0.48413247124E+03  0.14757462160E+04  0.10100000352E+00 0.  1.
       -3    1    3    3    0  502  0.76424361444E+03 -0.11659220952E+04 -0.14341162006E+04  0.20000329800E+04  0.10100000352E+00 0. -1.
</event>
<event>
 5   0  0.1128166E-06  0.3298744E+04  0.7818609E-02  0.8163215E-01
        2   -1    0    0  501    0  0.00000000000E+00  0.00000000000E+00  0.23251120421E+04  0.23251120421E+04  0.25500000920E-02 0.  1.
       -2   -1    0    0    0  501  0.00000000000E+00  0.00000000000E+00 -0.11700202524E+04  0.11700202524E+04  0.25500000920E-02 0. -1.
    10030    2    1    2    0    0  0.00000000000E+00  0.00000000000E+00  0.11550917897E+04  0.34951322945E+04  0.32987441115E+04 0.  0.
        3    1    3    3  502    0  0.15036743791E+04 -0.22986598789E+03 -0.98029245373E+02  0.15242981184E+04  0.10100000352E+00 0. -1.
       -3    1    3    3    0  502 -0.15036743791E+04  0.22986598789E+03  0.12531210351E+04  0.19708341761E+04  0.10100000352E+00 0.  1.
</event>
<event>
 5   0  0.3704306E-07  0.2419395E+04  0.7818609E-02  0.8432278E-01
       -1   -1    0    0    0  501  0.00000000000E+00  0.00000000000E+00  0.46110017506E+03  0.46110017509E+03  0.50400001928E-02 0.  1.
        1   -1    0    0  501    0  0.00000000000E+00  0.00000000000E+00 -0.31736457274E+04  0.31736457274E+04  0.50400001928E-02 0. -1.
    10030    2    1    2    0    0  0.00000000000E+00  0.00000000000E+00 -0.27125455523E+04  0.36347459025E+04  0.24193954621E+04 0.  0.
        3    1    3    3  502    0  0.34507493116E+03 -0.11509765402E+04 -0.11462415998E+04  0.16606304585E+04  0.10100000352E+00 0. -1.
       -3    1    3    3    0  502 -0.34507493116E+03  0.11509765402E+04 -0.15663039525E+04  0.19741154440E+04  0.10100000352E+00 0.  1.
</event>
<event>
 5   0  0.3675819E-07  0.3711842E+04  0.7818609E-02  0.8065343E-01
       -1   -1    0    0    0  501  0.00000000000E+00  0.00000000000E+00  0.13726110844E+04  0.13726110844E+04  0.50400001928E-02 0.  1.
        1   -1    0    0  501    0  0.00000000000E+00  0.00000000000E+00 -0.25094089979E+04  0.25094089979E+04  0.50400001928E-02 0. -1.
    10030    2    1    2    0    0  0.00000000000E+00  0.00000000000E+00 -0.11367979136E+04  0.38820200823E+04  0.37118419179E+04 0.  0.
        5    1    3    3  502    0 -0.66128424302E+03  0.14992546845E+04  0.34296509543E+03  0.16741292082E+04  0.46999998093E+01 0.  1.
       -5    1    3    3    0  502  0.66128424302E+03 -0.14992546845E+04 -0.14797630090E+04  0.22078908741E+04  0.46999998093E+01 0. -1.
</event>
<event>
 5   0  0.3682276E-07  0.3598496E+04  0.7818609E-02  0.8090836E-01
        1   -1    0    0  501    0  0.00000000000E+00  0.00000000000E+00  0.19918372370E+04  0.19918372370E+04  0.50400001928E-02 0.  1.
       -1   -1    0    0    0  501  0.00000000000E+00  0.00000000000E+00 -0.16252798067E+04  0.16252798067E+04  0.50400001928E-02 0. -1.
    10030    2    1    2    0    0  0.00000000000E+00  0.00000000000E+00  0.36655743029E+03  0.36171170437E+04  0.35984957077E+04 0.  0.
        1    1    3    3  502    0 -0.56563059007E+03 -0.14843182495E+04 -0.66617080080E+03  0.17224755923E+04  0.50400001928E-02 0. -1.
       -1    1    3    3    0  502  0.56563059007E+03  0.14843182495E+04  0.10327282311E+04  0.18946414514E+04  0.50400001928E-02 0.  1.
</event>
<event>
 5   0  0.3682276E-07  0.3645676E+04  0.7818609E-02  0.8080108E-01
       -1   -1    0    0    0  501  0.00000000000E+00  0.00000000000E+00  0.13859449384E+04  0.13859449384E+04  0.50400001928E-02 0.  1.
        1   -1    0    0  501    0  0.00000000000E+00  0.00000000000E+00 -0.23974538412E+04  0.23974538412E+04  0.50400001928E-02 0. -1.
    10030    2    1    2    0    0  0.00000000000E+00  0.00000000000E+00 -0.10115089028E+04  0.37833987795E+04  0.36456763521E+04 0.  0.
        1    1    3    3  502    0  0.13183212134E+03  0.13046217149E+04  0.80830288394E+03  0.15403801736E+04  0.50400001928E-02 0.  1.
       -1    1    3    3    0  502 -0.13183212134E+03 -0.13046217149E+04 -0.18198117867E+04  0.22430186059E+04  0.50400001928E-02 0. -1.
</event>
<event>
 5   0  0.1128166E-06  0.3526299E+04  0.7818609E-02  0.8107586E-01
        2   -1    0    0  501    0  0.00000000000E+00  0.00000000000E+00  0.16917393292E+04  0.16917393292E+04  0.25500000920E-02 0.  1.
       -2   -1    0    0    0  501  0.00000000000E+00  0.00000000000E+00 -0.18375735962E+04  0.18375735962E+04  0.25500000920E-02 0. -1.
    10030    2    1    2    0    0  0.00000000000E+00  0.00000000000E+00 -0.14583426701E+03  0.35293129255E+04  0.35262986392E+04 0.  0.
        3    1    3    3  502    0  0.14673353811E+04  0.87454862512E+03 -0.51008232449E+03  0.17827205071E+04  0.10100000352E+00 0. -1.
       -3    1    3    3    0  502 -0.14673353811E+04 -0.87454862512E+03  0.36424805749E+03  0.17465924184E+04  0.10100000352E+00 0.  1.
</event>
<event>
 5   0  0.3704306E-07  0.3076141E+04  0.7818609E-02  0.8222316E-01
       -1   -1    0    0    0  501  0.00000000000E+00  0.00000000000E+00  0.16162848806E+04  0.16162848806E+04  0.50400001928E-02 0. -1.
        1   -1    0    0  501    0  0.00000000000E+00  0.00000000000E+00 -0.14636411023E+04  0.14636411023E+04  0.50400001928E-02 0.  1.
    10030    2    1    2    0    0  0.00000000000E+00  0.00000000000E+00  0.15264377831E+03  0.30799259829E+04  0.30761410789E+04 0.  0.
        3    1    3    3  502    0  0.91381602691E+03 -0.11603569442E+04 -0.35335996908E+03  0.15186675894E+04  0.10100000352E+00 0.  1.
       -3    1    3    3    0  502 -0.91381602691E+03  0.11603569442E+04  0.50600374738E+03  0.15612583936E+04  0.10100000352E+00 0. -1.
</event>
<event>
 5   0  0.3848431E-07  0.3685071E+04  0.7818609E-02  0.8071278E-01
       -1   -1    0    0    0  501  0.00000000000E+00  0.00000000000E+00  0.12932159076E+04  0.12932159076E+04  0.50400001928E-02 0.  1.
        1   -1    0    0  501    0  0.00000000000E+00  0.00000000000E+00 -0.26251901165E+04  0.26251901165E+04  0.50400001928E-02 0. -1.
    10030    2    1    2    0    0  0.00000000000E+00  0.00000000000E+00 -0.13319742089E+04  0.39184060242E+04  0.36850712988E+04 0.  0.
        2    1    3    3  502    0  0.18133927436E+04  0.26395894365E+03 -0.46181311224E+03  0.18897986446E+04  0.25500000920E-02 0.  1.
       -2    1    3    3    0  502 -0.18133927436E+04 -0.26395894365E+03 -0.87016109663E+03  0.20286073796E+04  0.25500000920E-02 0. -1.
</event>
<event>
 5   0  0.3675819E-07  0.3043640E+04  0.7818609E-02  0.8231378E-01
        1   -1    0    0  501    0  0.00000000000E+00  0.00000000000E+00  0.14815176691E+04  0.14815176691E+04  0.50400001928E-02 0.  1.
       -1   -1    0    0    0  501  0.00000000000E+00  0.00000000000E+00 -0.15632182431E+04  0.15632182431E+04  0.50400001928E-02 0. -1.
    10030    2    1    2    0    0  0.00000000000E+00  0.00000000000E+00 -0.81700573962E+02  0.30447359122E+04  0.30436395633E+04 0.  0.
        5    1    3    3  502    0 -0.53180747665E+03  0.14245116431E+04  0.21306981477E+02  0.15207000661E+04  0.46999998093E+01 0.  1.
       -5    1    3    3    0  502  0.53180747665E+03 -0.14245116431E+04 -0.10300755544E+03  0.15240358461E+04  0.46999998093E+01 0. -1.
</event>
<event>
 5   0  0.1066907E-06  0.3610855E+04  0.7818609E-02  0.8088010E-01
       -2   -1    0    0    0  501  0.00000000000E+00  0.00000000000E+00  0.13873624023E+04  0.13873624023E+04  0.25500000920E-02 0. -1.
        2   -1    0    0  501    0  0.00000000000E+00  0.00000000000E+00 -0.23494709312E+04  0.23494709312E+04  0.25500000920E-02 0.  1.
    10030    2    1    2    0    0  0.00000000000E+00  0.00000000000E+00 -0.96210852893E+03  0.37368333334E+04  0.36108545444E+04 0.  0.
        4    1    3    3  502    0  0.69694080568E+03  0.15913505445E+04 -0.98956605343E+03  0.19993412988E+04  0.12699999809E+01 0.  1.
       -4    1    3    3    0  502 -0.69694080568E+03 -0.15913505445E+04  0.27457524501E+02  0.17374920347E+04  0.12699999809E+01 0. -1.
</event>
<event>
 5   0  0.1128166E-06  0.3698032E+04  0.7818609E-02  0.8068398E-01
       -2   -1    0    0    0  501  0.00000000000E+00  0.00000000000E+00  0.16260235167E+04  0.16260235167E+04  0.25500000920E-02 0. -1.
        2   -1    0    0  501    0  0.00000000000E+00  0.00000000000E+00 -0.21025892170E+04  0.21025892170E+04  0.25500000920E-02 0.  1.
    10030    2    1    2    0    0  0.00000000000E+00  0.00000000000E+00 -0.47656570028E+03  0.37286127337E+04  0.36980316455E+04 0.  0.
        3    1    3    3  502    0 -0.11380150040E+04 -0.14304194823E+04 -0.51930162708E+03  0.19002242591E+04  0.10100000352E+00 0.  1.
       -3    1    3    3    0  502  0.11380150040E+04  0.14304194823E+04  0.42735926795E+02  0.18283884747E+04  0.10100000352E+00 0. -1.
</event>
<event>
 5   0  0.3682276E-07  0.2626529E+04  0.7818609E-02  0.8359245E-01
       -1   -1    0    0    0  501  0.00000000000E+00  0.00000000000E+00  0.27116878215E+04  0.27116878215E+04  0.50400001928E-02 0. -1.
        1   -1    0    0  501    0  0.00000000000E+00  0.00000000000E+00 -0.63601118596E+03  0.63601118598E+03  0.50400001928E-02 0.  1.
    10030    2    1    2    0    0  0.00000000000E+00  0.00000000000E+00  0.20756766355E+04  0.33476990075E+04  0.26265291069E+04 0.  0.
        1    1    3    3  502    0  0.76450951627E+03  0.77622614008E+03  0.19724233979E+04  0.22533210782E+04  0.50400001928E-02 0. -1.
       -1    1    3    3    0  502 -0.76450951627E+03 -0.77622614008E+03  0.10325323770E+03  0.10943779293E+04  0.50400001928E-02 0.  1.
</event>
<event>
 5   0  0.3848431E-07  0.3708281E+04  0.7818609E-02  0.8066129E-01
        1   -1    0    0  501    0  0.00000000000E+00  0.00000000000E+00  0.24174028566E+04  0.24174028566E+04  0.50400001928E-02 0. -1.
       -1   -1    0    0    0  501  0.00000000000E+00  0.00000000000E+00 -0.14221198497E+04  0.14221198497E+04  0.50400001928E-02 0.  1.
    10030    2    1    2    0    0  0.00000000000E+00  0.00000000000E+00  0.99528300687E+03  0.38395227063E+04  0.37082807806E+04 0.  0.
        2    1    3    3  502    0  0.32516357693E+03 -0.17929882003E+04  0.14303152699E+03  0.18278391767E+04  0.25500000920E-02 0.  1.
       -2    1    3    3    0  502 -0.32516357693E+03  0.17929882003E+04  0.85225147988E+03  0.20116835296E+04  0.25500000920E-02 0. -1.
</event>
<event>
 5   0  0.3764495E-07  0.2537169E+04  0.7818609E-02  0.8389862E-01
       -1   -1    0    0    0  501  0.00000000000E+00  0.00000000000E+00  0.10615459294E+04  0.10615459294E+04  0.50400001928E-02 0.  1.
        1   -1    0    0  501    0  0.00000000000E+00  0.00000000000E+00 -0.15160023104E+04  0.15160023104E+04  0.50400001928E-02 0. -1.
    10030    2    1    2    0    0  0.00000000000E+00  0.00000000000E+00 -0.45445638096E+03  0.25775482398E+04  0.25371685648E+04 0.  0.
        4    1    3    3  502    0 -0.45440293464E+03 -0.11338873610E+04  0.12044925956E+03  0.12274739148E+04  0.12699999809E+01 0.  1.
       -4    1    3    3    0  502  0.45440293464E+03  0.11338873610E+04 -0.57490564052E+03  0.13500743250E+04  0.12699999809E+01 0. -1.
</event>
<event>
 5   0  0.3704306E-07  0.3614620E+04  0.7818609E-02  0.8087151E-01
        1   -1    0    0  501    0  0.00000000000E+00  0.00000000000E+00  0.25511452344E+04  0.25511452344E+04  0.50400001928E-02 0.  1.
       -1   -1    0    0    0  501  0.00000000000E+00  0.00000000000E+00 -0.12803541736E+04  0.12803541736E+04  0.50400001928E-02 0. -1.
    10030    2    1    2    0    0  0.00000000000E+00  0.00000000000E+00  0.12707910608E+04  0.38314994080E+04  0.36146200068E+04 0.  0.
        3    1    3    3  502    0 -0.11436948643E+03 -0.12619586865E+03  0.25426202127E+04  0.25483177457E+04  0.10100000352E+00 0.  1.
       -3    1    3    3    0  502  0.11436948643E+03  0.12619586865E+03 -0.12718291519E+04  0.12831816623E+04  0.10100000352E+00 0. -1.
</event>
<event>
 5   0  0.3682276E-07  0.3654668E+04  0.7818609E-02  0.8078083E-01
        1   -1    0    0  501    0  0.00000000000E+00  0.00000000000E+00  0.28449250267E+04  0.28449250267E+04  0.50400001928E-02 0.  1.
       -1   -1    0    0    0  501  0.00000000000E+00  0.00000000000E+00 -0.11737217390E+04  0.11737217390E+04  0.50400001928E-02 0. -1.
    10030    2    1    2    0    0  0.00000000000E+00  0.00000000000E+00  0.16712032877E+04  0.40186467656E+04  0.36546684389E+04 0.  0.
        1    1    3    3  502    0 -0.16978321686E+04 -0.53325591371E+03  0.37936420174E+03  0.18195914761E+04  0.50400001928E-02 0. -1.
       -1    1    3    3    0  502  0.16978321686E+04  0.53325591371E+03  0.12918390859E+04  0.21990552895E+04  0.50400001928E-02 0.  1.
</event>
<event>
 5   0  0.1066907E-06  0.3679247E+04  0.7818609E-02  0.8072577E-01
        2   -1    0    0  501    0  0.00000000000E+00  0.00000000000E+00  0.23926372057E+04  0.23926372057E+04  0.25500000920E-02 0. -1.
       -2   -1    0    0    0  501  0.00000000000E+00  0.00000000000E+00 -0.14144283718E+04  0.14144283718E+04  0.25500000920E-02 0.  1.
    10030    2    1    2    0    0  0.00000000000E+00  0.00000000000E+00  0.97820883388E+03  0.38070655775E+04  0.36792466333E+04 0.  0.
        4    1    3    3  502    0 -0.17381467866E+04 -0.17953900772E+03  0.10842590892E+04  0.20564551764E+04  0.12699999809E+01 0. -1.
       -4    1    3    3    0  502  0.17381467866E+04  0.17953900772E+03 -0.10605025529E+03  0.17506104011E+04  0.12699999809E+01 0.  1.
</event>
<event>
 5   0  0.1066907E-06  0.3692722E+04  0.7818609E-02  0.8069577E-01
        2   -1    0    0  501    0  0.00000000000E+00  0.00000000000E+00  0.27234726874E+04  0.27234726874E+04  0.25500000920E-02 0.  1.
       -2   -1    0    0    0  501  0.00000000000E+00  0.00000000000E+00 -0.12517287614E+04  0.12517287614E+04  0.25500000920E-02 0. -1.
    10030    2    1    2    0    0  0.00000000000E+00  0.00000000000E+00  0.14717439261E+04  0.39752014488E+04  0.36927220820E+04 0.  0.
        4    1    3    3  502    0  0.13160199047E+04 -0.98471327925E+03 -0.16958799394E+03  0.16523711243E+04  0.12699999809E+01 0. -1.
       -4    1    3    3    0  502 -0.13160199047E+04  0.98471327925E+03  0.16413319200E+04  0.23228303245E+04  0.12699999809E+01 0.  1.
</event>
<event>
 5   0  0.3704306E-07  0.2924695E+04  0.7818609E-02  0.8265568E-01
       -1   -1    0    0    0  501  0.00000000000E+00  0.00000000000E+00  0.95203204835E+03  0.95203204836E+03  0.50400001928E-02 0.  1.
        1   -1    0    0  501    0  0.00000000000E+00  0.00000000000E+00 -0.22462062513E+04  0.22462062513E+04  0.50400001928E-02 0. -1.
    10030    2    1    2    0    0  0.00000000000E+00  0.00000000000E+00 -0.12941742029E+04  0.31982382996E+04  0.29246950873E+04 0.  0.
        3    1    3    3  502    0 -0.10676591629E+04  0.26131361801E+03  0.40763229767E+03  0.11723246118E+04  0.10100000352E+00 0.  1.
       -3    1    3    3    0  502  0.10676591629E+04 -0.26131361801E+03 -0.17018065006E+04  0.20259136879E+04  0.10100000352E+00 0. -1.
</event>
<event>
 5   0  0.3764495E-07  0.3176246E+04  0.7818609E-02  0.8195119E-01
        1   -1    0    0  501    0  0.00000000000E+00  0.00000000000E+00  0.11120725919E+04  0.11120725919E+04  0.50400001928E-02 0. -1.
       -1   -1    0    0    0  501  0.00000000000E+00  0.00000000000E+00 -0.22679586462E+04  0.22679586462E+04  0.50400001928E-02 0.  1.
    10030    2    1    2    0    0  0.00000000000E+00  0.00000000000E+00 -0.11558860542E+04  0.33800312381E+04  0.31762459918E+04 0.  0.
        4    1    3    3  502    0  0.91109421152E+03  0.56989604887E+03 -0.18222626744E+04  0.21155417832E+04  0.12699999809E+01 0.  1.
       -4    1    3    3    0  502 -0.91109421152E+03 -0.56989604887E+03  0.66637662021E+03  0.12644894549E+04  0.12699999809E+01 0. -1.
</event>
<event>
 5   0  0.1066907E-06  0.3693631E+04  0.7818609E-02  0.8069375E-01
       -2   -1    0    0    0  501  0.00000000000E+00  0.00000000000E+00  0.15191043052E+04  0.15191043052E+04  0.25500000920E-02 0. -1.
        2   -1    0    0  501    0  0.00000000000E+00  0.00000000000E+00 -0.22452227054E+04  0.22452227054E+04  0.25500000920E-02 0.  1.
    10030    2    1    2    0    0  0.00000000000E+00  0.00000000000E+00 -0.72611840019E+03  0.37643270106E+04  0.36936309928E+04 0.  0.
        4    1    3    3  502    0  0.10759795203E+04 -0.16794956179E+03  0.11570614047E+04  0.15889404302E+04  0.12699999809E+01 0. -1.
       -4    1    3    3    0  502 -0.10759795203E+04  0.16794956179E+03 -0.18831798049E+04  0.21753865804E+04  0.12699999809E+01 0.  1.
</event>
<event>
 5   0  0.1066907E-06  0.3742490E+04  0.7818609E-02  0.8058610E-01
       -2   -1    0    0    0  501  0.00000000000E+00  0.00000000000E+00  0.23589322598E+04  0.23589322598E+04  0.25500000920E-02 0.  1.
        2   -1    0    0  501    0  0.00000000000E+00  0.00000000000E+00 -0.14843824079E+04  0.14843824079E+04  0.25500000920E-02 0. -1.
    10030    2    1    2    0    0  0.00000000000E+00  0.00000000000E+00  0.87454985181E+03  0.38433146677E+04  0.37424898385E+04 0.  0.
        4    1    3    3  502    0  0.12994866710E+04  0.50564041300E+03 -0.84422927734E+03  0.16300498523E+04  0.12699999809E+01 0. -1.
       -4    1    3    3    0  502 -0.12994866710E+04 -0.50564041300E+03  0.17187791291E+04  0.22132648154E+04  0.12699999809E+01 0.  1.
</event>
<event>
 5   0  0.1128530E-06  0.3696392E+04  0.7818609E-02  0.8068762E-01
        2   -1    0    0  501    0  0.00000000000E+00  0.00000000000E+00  0.13650959196E+04  0.13650959196E+04  0.25500000920E-02 0.  1.
       -2   -1    0    0    0  501  0.00000000000E+00  0.00000000000E+00 -0.25022619818E+04  0.25022619818E+04  0.25500000920E-02 0. -1.
    10030    2    1    2    0    0  0.00000000000E+00  0.00000000000E+00 -0.11371660622E+04  0.38673579014E+04  0.36963915491E+04 0.  0.
        5    1    3    3  502    0  0.70082759244E+03  0.13048500900E+04 -0.17251591312E+04  0.22737610230E+04  0.46999998093E+01 0. -1.
       -5    1    3    3    0  502 -0.70082759244E+03 -0.13048500900E+04  0.58799306903E+03  0.15935968784E+04  0.46999998093E+01 0.  1.
</event>
<event>
 5   0  0.1092116E-06  0.2567283E+04  0.7818609E-02  0.8379400E-01
       -2   -1    0    0    0  501  0.00000000000E+00  0.00000000000E+00  0.12723874983E+04  0.12723874983E+04  0.25500000920E-02 0.  1.
        2   -1    0    0  501    0  0.00000000000E+00  0.00000000000E+00 -0.12949945475E+04  0.12949945475E+04  0.25500000920E-02 0. -1.
    10030    2    1    2    0    0  0.00000000000E+00  0.00000000000E+00 -0.22607049149E+02  0.25673820458E+04  0.25672825108E+04 0.  0.
        1    1    3    3  502    0 -0.29238801920E+03  0.12293285045E+04 -0.23713421610E+03  0.12856795721E+04  0.50400001928E-02 0.  1.
       -1    1    3    3    0  502  0.29238801920E+03 -0.12293285045E+04  0.21452716695E+03  0.12817024737E+04  0.50400001928E-02 0. -1.
</event>
<event>
 5   0  0.1128530E-06  0.3346907E+04  0.7818609E-02  0.8151062E-01
       -2   -1    0    0    0  501  0.00000000000E+00  0.00000000000E+00  0.10391023505E+04  0.10391023505E+04  0.25500000920E-02 0.  1.
        2   -1    0    0  501    0  0.00000000000E+00  0.00000000000E+00 -0.26950625966E+04  0.26950625966E+04  0.25500000920E-02 0. -1.
    10030    2    1    2    0    0  0.00000000000E+00  0.00000000000E+00 -0.16559602461E+04  0.37341649470E+04  0.33469065590E+04 0.  0.
        5    1    3    3  502    0 -0.11473699628E+04  0.77496312378E+03 -0.18766242867E+04  0.23321163089E+04  0.46999998093E+01 0. -1.
       -5    1    3    3    0  502  0.11473699628E+04 -0.77496312378E+03  0.22066404057E+03  0.14020486381E+04  0.46999998093E+01 0.  1.
</event>
<event>
 5   0  0.3848431E-07  0.2383839E+04  0.7818609E-02  0.8445579E-01
        1   -1    0    0  501    0  0.00000000000E+00  0.00000000000E+00  0.90365352832E+03  0.90365352833E+03  0.50400001928E-02 0.  1.
       -1   -1    0    0    0  501  0.00000000000E+00  0.00000000000E+00 -0.15721429623E+04  0.15721429623E+04  0.50400001928E-02 0. -1.
    10030    2    1    2    0    0  0.00000000000E+00  0.00000000000E+00 -0.66848943396E+03  0.24757964906E+04  0.23838393695E+04 0.  0.
        2    1    3    3  502    0  0.99980416130E+03 -0.57200716001E+03 -0.65244894861E+03  0.13238165215E+04  0.25500000920E-02 0. -1.
       -2    1    3    3    0  502 -0.99980416130E+03  0.57200716001E+03 -0.16040485349E+02  0.11519799691E+04  0.25500000920E-02 0.  1.
</event>
<event>
 5   0  0.1128530E-06  0.3506104E+04  0.7818609E-02  0.8112345E-01
       -2   -1    0    0    0  501  0.00000000000E+00  0.00000000000E+00  0.33313755861E+04  0.33313755861E+04  0.25500000920E-02 0. -1.
        2   -1    0    0  501    0  0.00000000000E+00  0.00000000000E+00 -0.92249899897E+03  0.92249899897E+03  0.25500000920E-02 0.  1.
    10030    2    1    2    0    0  0.00000000000E+00  0.00000000000E+00  0.24088765871E+04  0.42538745850E+04  0.35061036170E+04 0.  0.
        5    1    3    3  502    0  0.12728909164E+04  0.12041112306E+04  0.11376153395E+04  0.20890969081E+04  0.46999998093E+01 0.  1.
       -5    1    3    3    0  502 -0.12728909164E+04 -0.12041112306E+04  0.12712612476E+04  0.21647776769E+04  0.46999998093E+01 0. -1.
</event>
<event>
 5   0  0.3704306E-07  0.3745841E+04  0.7818609E-02  0.8057878E-01
       -1   -1    0    0    0  501  0.00000000000E+00  0.00000000000E+00  0.12191885134E+04  0.12191885134E+04  0.50400001928E-02 0.  1.
        1   -1    0    0  501    0  0.00000000000E+00  0.00000000000E+00 -0.28771849361E+04  0.28771849361E+04  0.50400001928E-02 0. -1.
    10030    2    1    2    0    0  0.00000000000E+00  0.00000000000E+00 -0.16579964226E+04  0.40963734495E+04  0.37458408002E+04 0.  0.
        3    1    3    3  502    0  0.72420238870E+03  0.16285163693E+04 -0.14584441291E+04  0.23029533111E+04  0.10100000352E+00 0. -1.
       -3    1    3    3    0  502 -0.72420238870E+03 -0.16285163693E+04 -0.19955229354E+03  0.17934201385E+04  0.10100000352E+00 0.  1.
</event>
<event>
 5   0  0.3764495E-07  0.3580128E+04  0.7818609E-02  0.8095059E-01
        1   -1    0    0  501    0  0.00000000000E+00  0.00000000000E+00  0.22143581692E+04  0.22143581692E+04  0.50400001928E-02 0. -1.
       -1   -1    0    0    0  501  0.00000000000E+00  0.00000000000E+00 -0.14470690120E+04  0.14470690120E+04  0.50400001928E-02 0.  1.
    10030    2    1    2    0    0  0.00000000000E+00  0.00000000000E+00  0.76728915720E+03  0.36614271813E+04  0.35801279800E+04 0.  0.
        4    1    3    3  502    0  0.14359915054E+04 -0.10401639356E+04  0.13247675217E+03  0.17780788282E+04  0.12699999809E+01 0. -1.
       -4    1    3    3    0  502 -0.14359915054E+04  0.10401639356E+04  0.63481240502E+03  0.18833483531E+04  0.12699999809E+01 0.  1.
</event>
<event>
 5   0  0.3675819E-07  0.2311952E+04  0.7818609E-02  0.8473224E-01
        1   -1    0    0  501    0  0.00000000000E+00  0.00000000000E+00  0.18788147953E+04  0.18788147953E+04  0.50400001928E-02 0.  1.
       -1   -1    0    0    0  501  0.00000000000E+00  0.00000000000E+00 -0.71123571363E+03  0.71123571365E+03  0.50400001928E-02 0. -1.
    10030    2    1    2    0    0  0.00000000000E+00  0.00000000000E+00  0.11675790817E+04  0.25900505090E+04  0.23119517138E+04 0.  0.
        5    1    3    3  502    0 -0.27898663078E+03  0.25687727328E+03  0.18071304254E+04  0.18464999156E+04  0.46999998093E+01 0.  1.
       -5    1    3    3    0  502  0.27898663078E+03 -0.25687727328E+03 -0.63955134374E+03  0.74355059341E+03  0.46999998093E+01 0. -1.
</event>
<event>
 5   0  0.3704306E-07  0.3775161E+04  0.7818609E-02  0.8051506E-01
       -1   -1    0    0    0  501  0.00000000000E+00  0.00000000000E+00  0.14580169445E+04  0.14580169445E+04  0.50400001928E-02 0. -1.
        1   -1    0    0  501    0  0.00000000000E+00  0.00000000000E+00 -0.24437021952E+04  0.24437021952E+04  0.50400001928E-02 0.  1.
    10030    2    1    2    0    0  0.00000000000E+00  0.00000000000E+00 -0.98568525074E+03  0.39017191398E+04  0.37751605041E+04 0.  0.
        3    1    3    3  502    0 -0.12679275187E+04 -0.53657603189E+03 -0.18274120008E+04  0.22880097599E+04  0.10100000352E+00 0.  1.
       -3    1    3    3    0  502  0.12679275187E+04  0.53657603189E+03  0.84172675002E+03  0.16137093798E+04  0.10100000352E+00 0. -1.
</event>
<event>
 5   0  0.1051123E-06  0.3037274E+04  0.7818609E-02  0.8233166E-01
        2   -1    0    0  501    0  0.00000000000E+00  0.00000000000E+00  0.19370642860E+04  0.19370642860E+04  0.25500000920E-02 0.  1.
       -2   -1    0    0    0  501  0.00000000000E+00  0.00000000000E+00 -0.11905946587E+04  0.11905946587E+04  0.25500000920E-02 0. -1.
    10030    2    1    2    0    0  0.00000000000E+00  0.00000000000E+00  0.74646962726E+03  0.31276589447E+04  0.30372740360E+04 0.  0.
        2    1    3    3  502    0 -0.12441971665E+04  0.73602413557E+03 -0.10590762414E+03  0.14494738846E+04  0.25500000920E-02 0. -1.
       -2    1    3    3    0  502  0.12441971665E+04 -0.73602413557E+03  0.85237725141E+03  0.16781850601E+04  0.25500000920E-02 0.  1.
</event>
<event>
 5   0  0.3675819E-07  0.3515929E+04  0.7818609E-02  0.8110025E-01
        1   -1    0    0  501    0  0.00000000000E+00  0.00000000000E+00  0.22123911126E+04  0.22123911126E+04  0.50400001928E-02 0.  1.
       -1   -1    0    0    0  501  0.00000000000E+00  0.00000000000E+00 -0.13968775194E+04  0.13968775195E+04  0.50400001928E-02 0. -1.
    10030    2    1    2    0    0  0.00000000000E+00  0.00000000000E+00  0.81551359314E+03  0.36092686320E+04  0.35159291286E+04 0.  0.
        5    1    3    3  502    0  0.15710318030E+04  0.26964945957E+03  0.11687641443E+04  0.19765837883E+04  0.46999998093E+01 0.  1.
       -5    1    3    3    0  502 -0.15710318030E+04 -0.26964945957E+03 -0.35325055117E+03  0.16326848438E+04  0.46999998093E+01 0. -1.
</event>
<event>
 5   0  0.3848431E-07  0.3943796E+04  0.7818609E-02  0.8015982E-01
        1   -1    0    0  501    0  0.00000000000E+00  0.00000000000E+00  0.23978899435E+04  0.23978899435E+04  0.50400001928E-02 0. -1.
       -1   -1    0    0    0  501  0.00000000000E+00  0.00000000000E+00 -0.16215846995E+04  0.16215846995E+04  0.50400001928E-02 0.  1.
    10030    2    1    2    0    0  0.00000000000E+00  0.00000000000E+00  0.77630524404E+03  0.40194746430E+04  0.39437959600E+04 0.  0.
        2    1    3    3  502    0  0.96667249759E+03 -0.14025012534E+04 -0.62434727008E+03  0.18141871450E+04  0.25500000920E-02 0.  1.
       -2    1    3    3    0  502 -0.96667249759E+03  0.14025012534E+04  0.14006525141E+04  0.22052874980E+04  0.25500000920E-02 0. -1.
</event>
<event>
 5   0  0.3704306E-07  0.3810183E+04  0.7818609E-02  0.8043973E-01
        1   -1    0    0  501    0  0.00000000000E+00  0.00000000000E+00  0.28156819119E+04  0.28156819119E+04  0.50400001928E-02 0. -1.
       -1   -1    0    0    0  501  0.00000000000E+00  0.00000000000E+00 -0.12889854345E+04  0.12889854345E+04  0.50400001928E-02 0.  1.
    10030    2    1    2    0    0  0.00000000000E+00  0.00000000000E+00  0.15266964774E+04  0.41046673465E+04  0.38101826585E+04 0.  0.
        3    1    3    3  502    0  0.17666248223E+04  0.31702273695E+03  0.75310328055E+02  0.17964237624E+04  0.10100000352E+00 0.  1.
       -3    1    3    3    0  502 -0.17666248223E+04 -0.31702273695E+03  0.14513861494E+04  0.23082435840E+04  0.10100000352E+00 0. -1.
</event>
<event>
 5   0  0.1092116E-06  0.3699870E+04  0.7818609E-02  0.8067991E-01
       -2   -1    0    0    0  501  0.00000000000E+00  0.00000000000E+00  0.19197862423E+04  0.19197862423E+04  0.25500000920E-02 0. -1.
        2   -1    0    0  501    0  0.00000000000E+00  0.00000000000E+00 -0.17826248159E+04  0.17826248159E+04  0.25500000920E-02 0.  1.
    10030    2    1    2    0    0  0.00000000000E+00  0.00000000000E+00  0.13716142637E+03  0.37024110582E+04  0.36998695094E+04 0.  0.
        1    1    3    3  502    0  0.13974639857E+04  0.79353660517E+03  0.98553579485E+03  0.18851755192E+04  0.50400001928E-02 0. -1.
       -1    1    3    3    0  502 -0.13974639857E+04 -0.79353660517E+03 -0.84837436848E+03  0.18172355390E+04  0.50400001928E-02 0.  1.
</event>
<event>
 5   0  0.1051123E-06  0.3672277E+04  0.7818609E-02  0.8074133E-01
       -2   -1    0    0    0  501  0.00000000000E+00  0.00000000000E+00  0.12307279589E+04  0.12307279589E+04  0.25500000920E-02 0. -1.
        2   -1    0    0  501    0  0.00000000000E+00  0.00000000000E+00 -0.27393584044E+04  0.27393584044E+04  0.25500000920E-02 0.  1.
    10030    2    1    2    0    0  0.00000000000E+00  0.00000000000E+00 -0.15086304454E+04  0.39700863633E+04  0.36722772106E+04 0.  0.
        2    1    3    3  502    0  0.77941933111E+03  0.11599225895E+04 -0.20419053760E+04  0.24743266704E+04  0.25500000920E-02 0.  1.
       -2    1    3    3    0  502 -0.77941933111E+03 -0.11599225895E+04  0.53327493057E+03  0.14957596929E+04  0.25500000920E-02 0. -1.
</event>
<event>
 5   0  0.3675819E-07  0.2261670E+04  0.7818609E-02  0.8493189E-01
        1   -1    0    0  501    0  0.00000000000E+00  0.00000000000E+00  0.17756510095E+04  0.17756510095E+04  0.50400001928E-02 0. -1.
       -1   -1    0    0    0  501  0.00000000000E+00  0.00000000000E+00 -0.72017974597E+03  0.72017974599E+03  0.50400001928E-02 0.  1.
    10030    2    1    2    0    0  0.00000000000E+00  0.00000000000E+00  0.10554712635E+04  0.24958307555E+04  0.22616700847E+04 0.  0.
        5    1    3    3  502    0  0.12708413736E+03 -0.95160255035E+03  0.11871544713E+04  0.15267794931E+04  0.46999998093E+01 0. -1.
       -5    1    3    3    0  502 -0.12708413736E+03  0.95160255035E+03 -0.13168320786E+03  0.96905126233E+03  0.46999998093E+01 0.  1.
</event>
<event>
 5   0  0.1092116E-06  0.3714027E+04  0.7818609E-02  0.8064860E-01
       -2   -1    0    0    0  501  0.00000000000E+00  0.00000000000E+00  0.16151326514E+04  0.16151326515E+04  0.25500000920E-02 0.  1.
        2   -1    0    0  501    0  0.00000000000E+00  0.00000000000E+00 -0.21351181367E+04  0.21351181367E+04  0.25500000920E-02 0. -1.
    10030    2    1    2    0    0  0.00000000000E+00  0.00000000000E+00 -0.51998548527E+03  0.37502507882E+04  0.37140269344E+04 0.  0.
        1    1    3    3  502    0  0.22812536827E+03  0.17468049126E+04  0.33321510648E+03  0.17928750357E+04  0.50400001928E-02 0.  1.
       -1    1    3    3    0  502 -0.22812536827E+03 -0.17468049126E+04 -0.85320059175E+03  0.19573757524E+04  0.50400001928E-02 0. -1.
</event>
<event>
 5   0  0.3704306E-07  0.3795244E+04  0.7818609E-02  0.8047176E-01
        1   -1    0    0  501    0  0.00000000000E+00  0.00000000000E+00  0.31928016298E+04  0.31928016298E+04  0.50400001928E-02 0. -1.
       -1   -1    0    0    0  501  0.00000000000E+00  0.00000000000E+00 -0.11278401071E+04  0.11278401071E+04  0.50400001928E-02 0.  1.
    10030    2    1    2    0    0  0.00000000000E+00  0.00000000000E+00  0.20649615227E+04  0.43206417369E+04  0.37952442515E+04 0.  0.
        3    1    3    3  502    0  0.18496284169E+04 -0.24774730889E+03  0.14243172357E+04  0.23475910223E+04  0.10100000352E+00 0. -1.
       -3    1    3    3    0  502 -0.18496284169E+04  0.24774730889E+03  0.64064428701E+03  0.19730507146E+04  0.10100000352E+00 0.  1.
</event>
<event>
 5   0  0.3704306E-07  0.3736636E+04  0.7818609E-02  0.8059891E-01
        1   -1    0    0  501    0  0.00000000000E+00  0.00000000000E+00  0.15413824481E+04  0.15413824481E+04  0.50400001928E-02 0. -1.
       -1   -1    0    0    0  501  0.00000000000E+00  0.00000000000E+00 -0.22645978639E+04  0.22645978639E+04  0.50400001928E-02 0.  1.
    10030    2    1    2    0    0  0.00000000000E+00  0.00000000000E+00 -0.72321541576E+03  0.38059803120E+04  0.37366355987E+04 0.  0.
        3    1    3    3  502    0 -0.89365516844E+03  0.15837802929E+04 -0.79808308751E+03  0.19859295559E+04  0.10100000352E+00 0. -1.
       -3    1    3    3    0  502  0.89365516844E+03 -0.15837802929E+04  0.74867671751E+02  0.18200507561E+04  0.10100000352E+00 0.  1.
</event>
<event>
 5   0  0.1066907E-06  0.3728246E+04  0.7818609E-02  0.8061731E-01
        2   -1    0    0  501    0  0.00000000000E+00  0.00000000000E+00  0.20153460730E+04  0.20153460730E+04  0.25500000920E-02 0.  1.
       -2   -1    0    0    0  501  0.00000000000E+00  0.00000000000E+00 -0.17242473636E+04  0.17242473636E+04  0.25500000920E-02 0. -1.
    10030    2    1    2    0    0  0.00000000000E+00  0.00000000000E+00  0.29109870939E+03  0.37395934365E+04  0.37282463186E+04 0.  0.
        4    1    3    3  502    0  0.49917366845E+03  0.14253272832E+04 -0.95058099352E+03  0.17844713654E+04  0.12699999809E+01 0. -1.
       -4    1    3    3    0  502 -0.49917366845E+03 -0.14253272832E+04  0.12416797029E+04  0.19551220712E+04  0.12699999809E+01 0.  1.
</event>
<event>
 5   0  0.1128530E-06  0.3651119E+04  0.7818609E-02  0.8078882E-01
        2   -1    0    0  501    0  0.00000000000E+00  0.00000000000E+00  0.26875073293E+04  0.26875073293E+04  0.25500000920E-02 0.  1.
       -2   -1    0    0    0  501  0.00000000000E+00  0.00000000000E+00 -0.12400586550E+04  0.12400586550E+04  0.25500000920E-02 0. -1.
    10030    2    1    2    0    0  0.00000000000E+00  0.00000000000E+00  0.14474486743E+04  0.39275659844E+04  0.36511185816E+04 0.  0.
        5    1    3    3  502    0 -0.92314884217E+03 -0.10627175462E+04 -0.52664075773E+03  0.15029786910E+04  0.46999998093E+01 0. -1.
       -5    1    3    3    0  502  0.92314884217E+03  0.10627175462E+04  0.19740894320E+04  0.24245872934E+04  0.46999998093E+01 0.  1.
</event>
<event>
 5   0  0.1092116E-06  0.2697465E+04  0.7818609E-02  0.8335828E-01
        2   -1    0    0  501    0  0.00000000000E+00  0.00000000000E+00  0.26668062120E+04  0.26668062120E+04  0.25500000920E-02 0. -1.
       -2   -1    0    0    0  501  0.00000000000E+00  0.00000000000E+00 -0.68211908959E+03  0.68211908960E+03  0.25500000920E-02 0.  1.
    10030    2    1    2    0    0  0.00000000000E+00  0.00000000000E+00  0.19846871224E+04  0.33489253016E+04  0.26974650511E+04 0.  0.
        1    1    3    3  502    0  0.10070527830E+04  0.64614710964E+03  0.17650945127E+04  0.21324211671E+04  0.50400001928E-02 0. -1.
       -1    1    3    3    0  502 -0.10070527830E+04 -0.64614710964E+03  0.21959260964E+03  0.12165041345E+04  0.50400001928E-02 0.  1.
</event>
<event>
 5   0  0.1128530E-06  0.2841331E+04  0.7818609E-02  0.8290550E-01
        2   -1    0    0  501    0  0.00000000000E+00  0.00000000000E+00  0.20696956682E+04  0.20696956682E+04  0.25500000920E-02 0. -1.
       -2   -1    0    0    0  501  0.00000000000E+00  0.00000000000E+00 -0.97516296242E+03  0.97516296242E+03  0.25500000920E-02 0.  1.
    10030    2    1    2    0    0  0.00000000000E+00  0.00000000000E+00  0.10945327058E+04  0.30448586307E+04  0.28413310678E+04 0.  0.
        5    1    3    3  502    0 -0.39045567648E+03 -0.11516084024E+04  0.13344673928E+04  0.18054037942E+04  0.46999998093E+01 0. -1.
       -5    1    3    3    0  502  0.39045567648E+03  0.11516084024E+04 -0.23993468695E+03  0.12394548365E+04  0.46999998093E+01 0.  1.
</event>
<event>
 5   0  0.1066907E-06  0.3772968E+04  0.7818609E-02  0.8051981E-01
        2   -1    0    0  501    0  0.00000000000E+00  0.00000000000E+00  0.20797206413E+04  0.20797206413E+04  0.25500000920E-02 0.  1.
       -2   -1    0    0    0  501  0.00000000000E+00  0.00000000000E+00 -0.17112016097E+04  0.17112016097E+04  0.25500000920E-02 0. -1.
    10030    2    1    2    0    0  0.00000000000E+00  0.00000000000E+00  0.36851903162E+03  0.37909222511E+04  0.37729676963E+04 0.  0.
        4    1    3    3  502    0 -0.32272805668E+03 -0.16597098176E+04 -0.65639973935E+03  0.18137398677E+04  0.12699999809E+01 0.  1.
       -4    1    3    3    0  502  0.32272805668E+03  0.16597098176E+04  0.10249187710E+04  0.19771823834E+04  0.12699999809E+01 0. -1.
</event>
<event>
 5   0  0.3675819E-07  0.3497840E+04  0.7818609E-02  0.8114302E-01
       -1   -1    0    0    0  501  0.00000000000E+00  0.00000000000E+00  0.19162473939E+04  0.19162473939E+04  0.50400001928E-02 0. -1.
        1   -1    0    0  501    0  0.00000000000E+00  0.00000000000E+00 -0.15962035709E+04  0.15962035709E+04  0.50400001928E-02 0.  1.
    10030    2    1    2    0    0  0.00000000000E+00  0.00000000000E+00  0.32004382302E+03  0.35124509649E+04  0.34978398665E+04 0.  0.
        5    1    3    3  502    0  0.14101896803E+04 -0.19440804445E+03 -0.86022873317E+03  0.16632633543E+04  0.46999998093E+01 0.  1.
       -5    1    3    3    0  502 -0.14101896803E+04  0.19440804445E+03  0.11802725562E+04  0.18491876106E+04  0.46999998093E+01 0. -1.
</event>
<event>
 5   0  0.3704306E-07  0.3759126E+04  0.7818609E-02  0.8054984E-01
        1   -1    0    0  501    0  0.00000000000E+00  0.00000000000E+00  0.17896554455E+04  0.17896554455E+04  0.50400001928E-02 0. -1.
       -1   -1    0    0    0  501  0.00000000000E+00  0.00000000000E+00 -0.19739872782E+04  0.19739872782E+04  0.50400001928E-02 0.  1.
    10030    2    1    2    0    0  0.00000000000E+00  0.00000000000E+00 -0.18433183271E+03  0.37636427238E+04  0.37591260058E+04 0.  0.
        3    1    3    3  502    0 -0.13820206508E+04  0.11345819004E+04 -0.67208540840E+03  0.19102240639E+04  0.10100000352E+00 0.  1.
       -3    1    3    3    0  502  0.13820206508E+04 -0.11345819004E+04  0.48775357569E+03  0.18534186599E+04  0.10100000352E+00 0. -1.
</event>
<event>
 5   0  0.1128166E-06  0.3960214E+04  0.7818609E-02  0.8012621E-01
       -2   -1    0    0    0  501  0.00000000000E+00  0.00000000000E+00  0.18431281776E+04  0.18431281776E+04  0.25500000920E-02 0.  1.
        2   -1    0    0  501    0  0.00000000000E+00  0.00000000000E+00 -0.21272657143E+04  0.21272657143E+04  0.25500000920E-02 0. -1.
    10030    2    1    2    0    0  0.00000000000E+00  0.00000000000E+00 -0.28413753665E+03  0.39703938919E+04  0.39602138221E+04 0.  0.
        3    1    3    3  502    0 -0.80279997744E+03 -0.16943193174E+04  0.49644955243E+03  0.19395019777E+04  0.10100000352E+00 0.  1.
       -3    1    3    3    0  502  0.80279997744E+03  0.16943193174E+04 -0.78058708908E+03  0.20308919142E+04  0.10100000352E+00 0. -1.
</event>
<event>
 5   0  0.1066907E-06  0.3838783E+04  0.7818609E-02  0.8037883E-01
        2   -1    0    0  501    0  0.00000000000E+00  0.00000000000E+00  0.19065994404E+04  0.19065994404E+04  0.25500000920E-02 0.  1.
       -2   -1    0    0    0  501  0.00000000000E+00  0.00000000000E+00 -0.19322693711E+04  0.19322693711E+04  0.25500000920E-02 0. -1.
    10030    2    1    2    0    0  0.00000000000E+00  0.00000000000E+00 -0.25669930767E+02  0.38388688115E+04  0.38387829851E+04 0.  0.
        4    1    3    3  502    0 -0.17398622122E+04  0.79313361514E+03 -0.17981366626E+03  0.19205509669E+04  0.12699999809E+01 0.  1.
       -4    1    3    3    0  502  0.17398622122E+04 -0.79313361514E+03  0.15414373549E+03  0.19183178446E+04  0.12699999809E+01 0. -1.
</event>
<event>
 5   0  0.3764495E-07  0.3493541E+04  0.7818609E-02  0.8115322E-01
       -1   -1    0    0    0  501  0.00000000000E+00  0.00000000000E+00  0.10561102884E+04  0.10561102884E+04  0.50400001928E-02 0.  1.
        1   -1    0    0  501    0  0.00000000000E+00  0.00000000000E+00 -0.28890987173E+04  0.28890987173E+04  0.50400001928E-02 0. -1.
    10030    2    1    2    0    0  0.00000000000E+00  0.00000000000E+00 -0.18329884289E+04  0.39452090058E+04  0.34935408283E+04 0.  0.
        4    1    3    3  502    0 -0.48858585928E+03  0.10715835953E+03  0.97350328075E+03  0.10944904323E+04  0.12699999809E+01 0.  1.
       -4    1    3    3    0  502  0.48858585928E+03 -0.10715835953E+03 -0.28064917096E+04  0.28507185734E+04  0.12699999809E+01 0. -1.
</event>
<event>
 5   0  0.3682276E-07  0.2712213E+04  0.7818609E-02  0.8331053E-01
        1   -1    0    0  501    0  0.00000000000E+00  0.00000000000E+00  0.24605055001E+04  0.24605055001E+04  0.50400001928E-02 0. -1.
       -1   -1    0    0    0  501  0.00000000000E+00  0.00000000000E+00 -0.74741726350E+03  0.74741726351E+03  0.50400001928E-02 0.  1.
    10030    2    1    2    0    0  0.00000000000E+00  0.00000000000E+00  0.17130882366E+04  0.32079227636E+04  0.27122125932E+04 0.  0.
        1    1    3    3  502    0  0.73245222285E+03  0.23876002638E+03  0.21765551602E+04  0.23088709307E+04  0.50400001928E-02 0. -1.
       -1    1    3    3    0  502 -0.73245222285E+03 -0.23876002638E+03 -0.46346692364E+03  0.89905183293E+03  0.50400001928E-02 0.  1.
</event>
<event>
 5   0  0.3848431E-07  0.3356077E+04  0.7818609E-02  0.8148771E-01
       -1   -1    0    0    0  501  0.00000000000E+00  0.00000000000E+00  0.11478031481E+04  0.11478031481E+04  0.50400001928E-02 0.  1.
        1   -1    0    0  501    0  0.00000000000E+00  0.00000000000E+00 -0.24532194461E+04  0.24532194461E+04  0.50400001928E-02 0. -1.
    10030    2    1    2    0    0  0.00000000000E+00  0.00000000000E+00 -0.13054162980E+04  0.36010225942E+04  0.33560768783E+04 0.  0.
        2    1    3    3  502    0  0.14559517398E+04  0.45277664227E+03  0.99156193451E+02  0.15279509505E+04  0.25500000920E-02 0.  1.
       -2    1    3    3    0  502 -0.14559517398E+04 -0.45277664227E+03 -0.14045724915E+04  0.20730716437E+04  0.25500000920E-02 0. -1.
</event>
<event>
 5   0  0.1066907E-06  0.3676066E+04  0.7818609E-02  0.8073287E-01
       -2   -1    0    0    0  501  0.00000000000E+00  0.00000000000E+00  0.16151800743E+04  0.16151800743E+04  0.25500000920E-02 0. -1.
        2   -1    0    0  501    0  0.00000000000E+00  0.00000000000E+00 -0.20916334581E+04  0.20916334581E+04  0.25500000920E-02 0.  1.
    10030    2    1    2    0    0  0.00000000000E+00  0.00000000000E+00 -0.47645338386E+03  0.37068135324E+04  0.36760656600E+04 0.  0.
        4    1    3    3  502    0  0.48950525322E+03  0.17323852370E+04  0.13580589914E+03  0.18053306782E+04  0.12699999809E+01 0. -1.
       -4    1    3    3    0  502 -0.48950525322E+03 -0.17323852370E+04 -0.61225928300E+03  0.19014828542E+04  0.12699999809E+01 0.  1.
</event>
<event>
 5   0  0.1066907E-06  0.3763780E+04  0.7818609E-02  0.8053972E-01
       -2   -1    0    0    0  501  0.00000000000E+00  0.00000000000E+00  0.13347110164E+04  0.13347110164E+04  0.25500000920E-02 0.  1.
        2   -1    0    0  501    0  0.00000000000E+00  0.00000000000E+00 -0.26533913236E+04  0.26533913236E+04  0.25500000920E-02 0. -1.
    10030    2    1    2    0    0  0.00000000000E+00  0.00000000000E+00 -0.13186803072E+04  0.39881023401E+04  0.37637803499E+04 0.  0.
        4    1    3    3  502    0  0.10978427342E+04  0.64982581570E+03  0.80658012851E+03  0.15093393841E+04  0.12699999809E+01 0.  1.
       -4    1    3    3    0  502 -0.10978427342E+04 -0.64982581570E+03 -0.21252604357E+04  0.24787629560E+04  0.12699999809E+01 0. -1.
</event>
<event>
 5   0  0.1128530E-06  0.2851339E+04  0.7818609E-02  0.8287505E-01
        2   -1    0    0  501    0  0.00000000000E+00  0.00000000000E+00  0.24523607399E+04  0.24523607399E+04  0.25500000920E-02 0.  1.
       -2   -1    0    0    0  501  0.00000000000E+00  0.00000000000E+00 -0.82880663071E+03  0.82880663072E+03  0.25500000920E-02 0. -1.
    10030    2    1    2    0    0  0.00000000000E+00  0.00000000000E+00  0.16235541092E+04  0.32811673707E+04  0.28513385223E+04 0.  0.
        5    1    3    3  502    0 -0.38188978388E+03  0.26609377070E+03 -0.73890009579E+03  0.87329327456E+03  0.46999998093E+01 0. -1.
       -5    1    3    3    0  502  0.38188978388E+03 -0.26609377070E+03  0.23624542050E+04  0.24078740961E+04  0.46999998093E+01 0.  1.
</event>
<event>
 5   0  0.3675819E-07  0.2734461E+04  0.7818609E-02  0.8323909E-01
       -1   -1    0    0    0  501  0.00000000000E+00  0.00000000000E+00  0.91182233913E+03  0.91182233914E+03  0.50400001928E-02 0.  1.
        1   -1    0    0  501    0  0.00000000000E+00  0.00000000000E+00 -0.20500919162E+04  0.20500919162E+04  0.50400001928E-02 0. -1.
    10030    2    1    2    0    0  0.00000000000E+00  0.00000000000E+00 -0.11382695771E+04  0.29619142554E+04  0.27344612680E+04 0.  0.
        5    1    3    3  502    0 -0.23632691143E+03 -0.52859375446E+03  0.77245099073E+03  0.96538302730E+03  0.46999998093E+01 0.  1.
       -5    1    3    3    0  502  0.23632691143E+03  0.52859375446E+03 -0.19107205678E+04  0.19965312281E+04  0.46999998093E+01 0. -1.
</event>
<event>
 5   0  0.3848431E-07  0.3313604E+04  0.7818609E-02  0.8159442E-01
       -1   -1    0    0    0  501  0.00000000000E+00  0.00000000000E+00  0.13165513553E+04  0.13165513553E+04  0.50400001928E-02 0. -1.
        1   -1    0    0  501    0  0.00000000000E+00  0.00000000000E+00 -0.20849874206E+04  0.20849874206E+04  0.50400001928E-02 0.  1.
    10030    2    1    2    0    0  0.00000000000E+00  0.00000000000E+00 -0.76843606526E+03  0.34015387759E+04  0.33136040888E+04 0.  0.
        2    1    3    3  502    0 -0.72850642770E+03  0.14085912473E+04 -0.87668016567E+03  0.18120207035E+04  0.25500000920E-02 0.  1.
       -2    1    3    3    0  502  0.72850642770E+03 -0.14085912473E+04  0.10824410041E+03  0.15895180724E+04  0.25500000920E-02 0. -1.
</event>
<event>
 5   0  0.1092116E-06  0.3694550E+04  0.7818609E-02  0.8069171E-01
        2   -1    0    0  501    0  0.00000000000E+00  0.00000000000E+00  0.29148338053E+04  0.29148338053E+04  0.25500000920E-02 0.  1.
       -2   -1    0    0    0  501  0.00000000000E+00  0.00000000000E+00 -0.11707098457E+04  0.11707098457E+04  0.25500000920E-02 0. -1.
    10030    2    1    2    0    0  0.00000000000E+00  0.00000000000E+00  0.17441239597E+04  0.40855436510E+04  0.36945498423E+04 0.  0.
        1    1    3    3  502    0  0.11560236057E+04 -0.95553782797E+03 -0.32048289792E+03  0.15336728482E+04  0.50400001928E-02 0. -1.
       -1    1    3    3    0  502 -0.11560236057E+04  0.95553782797E+03  0.20646068576E+04  0.25518708028E+04  0.50400001928E-02 0.  1.
</event>
<event>
 5   0  0.3764495E-07  0.3763331E+04  0.7818609E-02  0.8054070E-01
       -1   -1    0    0    0  501  0.00000000000E+00  0.00000000000E+00  0.16324934164E+04  0.16324934164E+04  0.50400001928E-02 0.  1.
        1   -1    0    0  501    0  0.00000000000E+00  0.00000000000E+00 -0.21688690699E+04  0.21688690699E+04  0.50400001928E-02 0. -1.
    10030    2    1    2    0    0  0.00000000000E+00  0.00000000000E+00 -0.53637565344E+03  0.38013624863E+04  0.37633306938E+04 0.  0.
        4    1    3    3  502    0 -0.15807159849E+04 -0.10109830003E+04 -0.12564755834E+03  0.18805686836E+04  0.12699999809E+01 0.  1.
       -4    1    3    3    0  502  0.15807159849E+04  0.10109830003E+04 -0.41072809510E+03  0.19207938028E+04  0.12699999809E+01 0. -1.
</event>
<event>
 5   0  0.1066907E-06  0.3658394E+04  0.7818609E-02  0.8077245E-01
       -2   -1    0    0    0  501  0.00000000000E+00  0.00000000000E+00  0.27022934744E+04  0.27022934744E+04  0.25500000920E-02 0. -1.
        2   -1    0    0  501    0  0.00000000000E+00  0.00000000000E+00 -0.12381936258E+04  0.12381936258E+04  0.25500000920E-02 0.  1.
    10030    2    1    2    0    0  0.00000000000E+00  0.00000000000E+00  0.14640998486E+04  0.39404871002E+04  0.36583944867E+04 0.  0.
        4    1    3    3  502    0  0.15467935892E+04 -0.92074930441E+03  0.10820873442E+04  0.21003010076E+04  0.12699999809E+01 0.  1.
       -4    1    3    3    0  502 -0.15467935892E+04  0.92074930441E+03  0.38201250442E+03  0.18401860926E+04  0.12699999809E+01 0. -1.
</event>
<event>
 5   0  0.1051123E-06  0.3618749E+04  0.7818609E-02  0.8086210E-01
       -2   -1    0    0    0  501  0.00000000000E+00  0.00000000000E+00  0.12045165322E+04  0.12045165322E+04  0.25500000920E-02 0.  1.
        2   -1    0    0  501    0  0.00000000000E+00  0.00000000000E+00 -0.27179675579E+04  0.27179675580E+04  0.25500000920E-02 0. -1.
    10030    2    1    2    0    0  0.00000000000E+00  0.00000000000E+00 -0.15134510258E+04  0.39224840901E+04  0.36187494290E+04 0.  0.
        2    1    3    3  502    0 -0.72464872906E+03 -0.37541522699E+03 -0.25071304383E+04  0.26366181764E+04  0.25500000920E-02 0. -1.
       -2    1    3    3    0  502  0.72464872906E+03  0.37541522699E+03  0.99367941254E+03  0.12858659137E+04  0.25500000920E-02 0.  1.
</event>
<event>
 5   0  0.3682276E-07  0.3693210E+04  0.7818609E-02  0.8069468E-01
        1   -1    0    0  501    0  0.00000000000E+00  0.00000000000E+00  0.22986641533E+04  0.22986641533E+04  0.50400001928E-02 0. -1.
       -1   -1    0    0    0  501  0.00000000000E+00  0.00000000000E+00 -0.14834486679E+04  0.14834486679E+04  0.50400001928E-02 0.  1.
    10030    2    1    2    0    0  0.00000000000E+00  0.00000000000E+00  0.81521548539E+03  0.37821128212E+04  0.36932101355E+04 0.  0.
        1    1    3    3  502    0  0.12085626446E+04 -0.13123862592E+03  0.18310688390E+04  0.21978763241E+04  0.50400001928E-02 0. -1.
       -1    1    3    3    0  502 -0.12085626446E+04  0.13123862592E+03 -0.10158533536E+04  0.15842364971E+04  0.50400001928E-02 0.  1.
</event>
<event>
 5   0  0.1066907E-06  0.3003467E+04  0.7818609E-02  0.8242742E-01
        2   -1    0    0  501    0  0.00000000000E+00  0.00000000000E+00  0.15158952672E+04  0.15158952672E+04  0.25500000920E-02 0. -1.
       -2   -1    0    0    0  501  0.00000000000E+00  0.00000000000E+00 -0.14877040368E+04  0.14877040368E+04  0.25500000920E-02 0.  1.
    10030    2    1    2    0    0  0.00000000000E+00  0.00000000000E+00  0.28191230434E+02  0.30035993040E+04  0.30034670022E+04 0.  0.
        4    1    3    3  502    0  0.12043611166E+04 -0.71092650535E+03 -0.53301138440E+03  0.14966646064E+04  0.12699999809E+01 0. -1.
       -4    1    3    3    0  502 -0.12043611166E+04  0.71092650535E+03  0.56120261484E+03  0.15069346976E+04  0.12699999809E+01 0.  1.
</event>
<event>
 5   0  0.3675819E-07  0.2531648E+04  0.7818609E-02  0.8391797E-01
       -1   -1    0    0    0  501  0.00000000000E+00  0.00000000000E+00  0.68592010835E+03  0.68592010837E+03  0.50400001928E-02 0.  1.
        1   -1    0    0  501    0  0.00000000000E+00  0.00000000000E+00 -0.23360015861E+04  0.23360015861E+04  0.50400001928E-02 0. -1.
    10030    2    1    2    0    0  0.00000000000E+00  0.00000000000E+00 -0.16500814777E+04  0.30219216944E+04  0.25316480490E+04 0.  0.
        5    1    3    3  502    0  0.95001015865E+03 -0.76185684145E+03 -0.12374028528E+04  0.17361258763E+04  0.46999998093E+01 0. -1.
       -5    1    3    3    0  502 -0.95001015865E+03  0.76185684145E+03 -0.41267862495E+03  0.12857958181E+04  0.46999998093E+01 0.  1.
</event>
<event>
 5   0  0.1128530E-06  0.3694623E+04  0.7818609E-02  0.8069154E-01
       -2   -1    0    0    0  501  0.00000000000E+00  0.00000000000E+00  0.15176643611E+04  0.15176643611E+04  0.25500000920E-02 0. -1.
        2   -1    0    0  501    0  0.00000000000E+00  0.00000000000E+00 -0.22485607998E+04  0.22485607998E+04  0.25500000920E-02 0.  1.
    10030    2    1    2    0    0  0.00000000000E+00  0.00000000000E+00 -0.73089643868E+03  0.37662251609E+04  0.36946234394E+04 0.  0.
        5    1    3    3  502    0  0.12696109585E+04  0.46116119492E+03 -0.16500113417E+04  0.21324026710E+04  0.46999998093E+01 0.  1.
       -5    1    3    3    0  502 -0.12696109585E+04 -0.46116119492E+03  0.91911490302E+03  0.16338224899E+04  0.46999998093E+01 0. -1.
</event>
<event>
 5   0  0.1128530E-06  0.3686263E+04  0.7818609E-02  0.8071013E-01
        2   -1    0    0  501    0  0.00000000000E+00  0.00000000000E+00  0.11083976550E+04  0.11083976550E+04  0.25500000920E-02 0.  1.
       -2   -1    0    0    0  501  0.00000000000E+00  0.00000000000E+00 -0.30649044060E+04  0.30649044060E+04  0.25500000920E-02 0. -1.
    10030    2    1    2    0    0  0.00000000000E+00  0.00000000000E+00 -0.19565067510E+04  0.41733020610E+04  0.36862625280E+04 0.  0.
        5    1    3    3  502    0  0.21418867730E+03 -0.71985335303E+03  0.92729643003E+03  0.11933006321E+04  0.46999998093E+01 0.  1.
       -5    1    3    3    0  502 -0.21418867730E+03  0.71985335303E+03 -0.28838031811E+04  0.29800014289E+04  0.46999998093E+01 0. -1.
</event>
<event>
 5   0  0.1092116E-06  0.3714470E+04  0.7818609E-02  0.8064763E-01
       -2   -1    0    0    0  501  0.00000000000E+00  0.00000000000E+00  0.12141385005E+04  0.12141385005E+04  0.25500000920E-02 0.  1.
        2   -1    0    0  501    0  0.00000000000E+00  0.00000000000E+00 -0.28409628480E+04  0.28409628480E+04  0.25500000920E-02 0. -1.
    10030    2    1    2    0    0  0.00000000000E+00  0.00000000000E+00 -0.16268243475E+04  0.40551013485E+04  0.37144702838E+04 0.  0.
        1    1    3    3  502    0  0.14956508651E+04 -0.31722947100E+03 -0.19644823883E+04  0.24893366791E+04  0.50400001928E-02 0. -1.
       -1    1    3    3    0  502 -0.14956508651E+04  0.31722947100E+03  0.33765804085E+03  0.15657646695E+04  0.50400001928E-02 0.  1.
</event>
<event>
 5   0  0.3764495E-07  0.3663534E+04  0.7818609E-02  0.8076092E-01
        1   -1    0    0  501    0  0.00000000000E+00  0.00000000000E+00  0.22224845347E+04  0.22224845347E+04  0.50400001928E-02 0.  1.
       -1   -1    0    0    0  501  0.00000000000E+00  0.00000000000E+00 -0.15097384232E+04  0.15097384232E+04  0.50400001928E-02 0. -1.
    10030    2    1    2    0    0  0.00000000000E+00  0.00000000000E+00  0.71274611149E+03  0.37322229579E+04  0.36635339753E+04 0.  0.
        4    1    3    3  502    0 -0.10006413942E+04 -0.75819754790E+03  0.17152571709E+04  0.21256188503E+04  0.12699999809E+01 0.  1.
       -4    1    3    3    0  502  0.10006413942E+04  0.75819754790E+03 -0.10025110594E+04  0.16066041076E+04  0.12699999809E+01 0. -1.
</event>
<event>
 5   0  0.3704306E-07  0.2385875E+04  0.7818609E-02  0.8444811E-01
       -1   -1    0    0    0  501  0.00000000000E+00  0.00000000000E+00  0.68661937432E+03  0.68661937434E+03  0.50400001928E-02 0.  1.
        1   -1    0    0  501    0  0.00000000000E+00  0.00000000000E+00 -0.20726178631E+04  0.20726178631E+04  0.50400001928E-02 0. -1.
    10030    2    1    2    0    0  0.00000000000E+00  0.00000000000E+00 -0.13859984888E+04  0.27592372375E+04  0.23858747498E+04 0.  0.
        3    1    3    3  502    0  0.47833757863E+03  0.53075307759E+03  0.41179189544E+03  0.82466856607E+03  0.10100000352E+00 0.  1.
       -3    1    3    3    0  502 -0.47833757863E+03 -0.53075307759E+03 -0.17977903842E+04  0.19345686714E+04  0.10100000352E+00 0. -1.
</event>
<event>
 5   0  0.3704306E-07  0.2836992E+04  0.7818609E-02  0.8291875E-01
        1   -1    0    0  501    0  0.00000000000E+00  0.00000000000E+00  0.14511551107E+04  0.14511551107E+04  0.50400001928E-02 0.  1.
       -1   -1    0    0    0  501  0.00000000000E+00  0.00000000000E+00 -0.13865719665E+04  0.13865719665E+04  0.50400001928E-02 0. -1.
    10030    2    1    2    0    0  0.00000000000E+00  0.00000000000E+00  0.64583144129E+02  0.28377270772E+04  0.28369920659E+04 0.  0.
        3    1    3    3  502    0  0.10532642802E+04  0.13859930474E+03  0.97251147114E+03  0.14402617759E+04  0.10100000352E+00 0.  1.
       -3    1    3    3    0  502 -0.10532642802E+04 -0.13859930474E+03 -0.90792832701E+03  0.13974653013E+04  0.10100000352E+00 0. -1.
</event>
<event>
 5   0  0.1066907E-06  0.3850335E+04  0.7818609E-02  0.8035439E-01
       -2   -1    0    0    0  501  0.00000000000E+00  0.00000000000E+00  0.14150182618E+04  0.14150182618E+04  0.25500000920E-02 0.  1.
        2   -1    0    0  501    0  0.00000000000E+00  0.00000000000E+00 -0.26192383248E+04  0.26192383248E+04  0.25500000920E-02 0. -1.
    10030    2    1    2    0    0  0.00000000000E+00  0.00000000000E+00 -0.12042200630E+04  0.40342565866E+04  0.38503350823E+04 0.  0.
        4    1    3    3  502    0  0.48275038562E+03 -0.89129088675E+03 -0.23170023038E+04  0.25290212867E+04  0.12699999809E+01 0. -1.
       -4    1    3    3    0  502 -0.48275038562E+03  0.89129088675E+03  0.11127822408E+04  0.15052352999E+04  0.12699999809E+01 0.  1.
</event>
<event>
 5   0  0.3490375E-07  0.2517139E+04  0.7818609E-02  0.8396905E-01
        3   -1    0    0  501    0  0.00000000000E+00  0.00000000000E+00  0.17253797893E+04  0.17253797922E+04  0.10100000352E+00 0. -1.
       -3   -1    0    0    0  501  0.00000000000E+00  0.00000000000E+00 -0.91805738906E+03  0.91805739461E+03  0.10100000352E+00 0.  1.
    10030    2    1    2    0    0  0.00000000000E+00  0.00000000000E+00  0.80732240023E+03  0.26434371869E+04  0.25171393889E+04 0.  0.
        1    1    3    3  502    0 -0.62955745381E+03  0.10463662447E+04  0.83792318820E+02  0.12240286183E+04  0.50400001928E-02 0. -1.
       -1    1    3    3    0  502  0.62955745381E+03 -0.10463662447E+04  0.72353008141E+03  0.14194085685E+04  0.50400001928E-02 0.  1.
</event>
<event>
 5   0  0.3682276E-07  0.2383393E+04  0.7818609E-02  0.8445747E-01
        1   -1    0    0  501    0  0.00000000000E+00  0.00000000000E+00  0.97030937925E+03  0.97030937927E+03  0.50400001928E-02 0.  1.
       -1   -1    0    0    0  501  0.00000000000E+00  0.00000000000E+00 -0.14635957782E+04  0.14635957782E+04  0.50400001928E-02 0. -1.
    10030    2    1    2    0    0  0.00000000000E+00  0.00000000000E+00 -0.49328639893E+03  0.24339051575E+04  0.23833931367E+04 0.  0.
        1    1    3    3  502    0 -0.74313320219E+03  0.64044981719E+03  0.44424354627E+03  0.10769286202E+04  0.50400001928E-02 0.  1.
       -1    1    3    3    0  502  0.74313320219E+03 -0.64044981719E+03 -0.93752994520E+03  0.13569765373E+04  0.50400001928E-02 0. -1.
</event>
<event>
 5   0  0.3848431E-07  0.2621593E+04  0.7818609E-02  0.8360903E-01
       -1   -1    0    0    0  501  0.00000000000E+00  0.00000000000E+00  0.72981982920E+03  0.72981982921E+03  0.50400001928E-02 0. -1.
        1   -1    0    0  501    0  0.00000000000E+00  0.00000000000E+00 -0.23542620860E+04  0.23542620860E+04  0.50400001928E-02 0.  1.
    10030    2    1    2    0    0  0.00000000000E+00  0.00000000000E+00 -0.16244422568E+04  0.30840819152E+04  0.26215927628E+04 0.  0.
        2    1    3    3  502    0  0.35973120822E+03  0.65660552659E+03  0.45353277275E+03  0.87534526655E+03  0.25500000920E-02 0. -1.
       -2    1    3    3    0  502 -0.35973120822E+03 -0.65660552659E+03 -0.20779750296E+04  0.22087366487E+04  0.25500000920E-02 0.  1.
</event>
<event>
 5   0  0.1128166E-06  0.2732519E+04  0.7818609E-02  0.8324530E-01
       -2   -1    0    0    0  501  0.00000000000E+00  0.00000000000E+00  0.19417695494E+04  0.19417695494E+04  0.25500000920E-02 0.  1.
        2   -1    0    0  501    0  0.00000000000E+00  0.00000000000E+00 -0.96132152556E+03  0.96132152556E+03  0.25500000920E-02 0. -1.
    10030    2    1    2    0    0  0.00000000000E+00  0.00000000000E+00  0.98044802384E+03  0.29030910750E+04  0.27325188859E+04 0.  0.
        3    1    3    3  502    0  0.47753179053E+03  0.28554156737E+03  0.18159535718E+04  0.18992782794E+04  0.10100000352E+00 0.  1.
       -3    1    3    3    0  502 -0.47753179053E+03 -0.28554156737E+03 -0.83550554793E+03  0.10038127955E+04  0.10100000352E+00 0. -1.
</event>
<event>
 5   0  0.1066907E-06  0.3682706E+04  0.7818609E-02  0.8071805E-01
       -2   -1    0    0    0  501  0.00000000000E+00  0.00000000000E+00  0.22385779993E+04  0.22385779993E+04  0.25500000920E-02 0. -1.
        2   -1    0    0  501    0  0.00000000000E+00  0.00000000000E+00 -0.15146135795E+04  0.15146135795E+04  0.25500000920E-02 0.  1.
    10030    2    1    2    0    0  0.00000000000E+00  0.00000000000E+00  0.72396441976E+03  0.37531915788E+04  0.36827058728E+04 0.  0.
        4    1    3    3  502    0 -0.95638454908E+03  0.15577045519E+04  0.13532008247E+03  0.18328742494E+04  0.12699999809E+01 0. -1.
       -4    1    3    3    0  502  0.95638454908E+03 -0.15577045519E+04  0.58864433729E+03  0.19203173293E+04  0.12699999809E+01 0.  1.
</event>
<event>
 5   0  0.1092116E-06  0.2711076E+04  0.7818609E-02  0.8331420E-01
       -2   -1    0    0    0  501  0.00000000000E+00  0.00000000000E+00  0.12485823392E+04  0.12485823392E+04  0.25500000920E-02 0.  1.
        2   -1    0    0  501    0  0.00000000000E+00  0.00000000000E+00 -0.14716555895E+04  0.14716555895E+04  0.25500000920E-02 0. -1.
    10030    2    1    2    0    0  0.00000000000E+00  0.00000000000E+00 -0.22307325026E+03  0.27202379287E+04  0.27110759329E+04 0.  0.
        1    1    3    3  502    0 -0.99759638143E+03  0.81718040323E+03 -0.53068130163E+03  0.13944909450E+04  0.50400001928E-02 0. -1.
       -1    1    3    3    0  502  0.99759638143E+03 -0.81718040323E+03  0.30760805137E+03  0.13257469838E+04  0.50400001928E-02 0.  1.
</event>
<event>
 5   0  0.1128166E-06  0.2992261E+04  0.7818609E-02  0.8245944E-01
        2   -1    0    0  501    0  0.00000000000E+00  0.00000000000E+00  0.15458882642E+04  0.15458882642E+04  0.25500000920E-02 0. -1.
       -2   -1    0    0    0  501  0.00000000000E+00  0.00000000000E+00 -0.14479742573E+04  0.14479742573E+04  0.25500000920E-02 0.  1.
    10030    2    1    2    0    0  0.00000000000E+00  0.00000000000E+00  0.97914006904E+02  0.29938625214E+04  0.29922609586E+04 0.  0.
        3    1    3    3  502    0 -0.81194890301E+03  0.99184291847E+03 -0.72307312925E+03  0.14716820840E+04  0.10100000352E+00 0.  1.
       -3    1    3    3    0  502  0.81194890301E+03 -0.99184291847E+03  0.82098713616E+03  0.15221804374E+04  0.10100000352E+00 0. -1.
</event>
<event>
 5   0  0.3490375E-07  0.3709334E+04  0.7818609E-02  0.8065896E-01
        3   -1    0    0  501    0  0.00000000000E+00  0.00000000000E+00  0.25028876793E+04  0.25028876813E+04  0.10100000352E+00 0.  1.
       -3   -1    0    0    0  501  0.00000000000E+00  0.00000000000E+00 -0.13743284647E+04  0.13743284684E+04  0.10100000352E+00 0. -1.
    10030    2    1    2    0    0  0.00000000000E+00  0.00000000000E+00  0.11285592145E+04  0.38772161497E+04  0.37093340603E+04 0.  0.
        2    1    3    3  502    0  0.60640680392E+02  0.67636639817E+03 -0.12397063267E+04  0.14135135560E+04  0.25500000920E-02 0. -1.
       -2    1    3    3    0  502 -0.60640680392E+02 -0.67636639817E+03  0.23682655412E+04  0.24637025937E+04  0.25500000920E-02 0.  1.
</event>
<event>
 5   0  0.3764495E-07  0.3073810E+04  0.7818609E-02  0.8222963E-01
       -1   -1    0    0    0  501  0.00000000000E+00  0.00000000000E+00  0.13323251398E+04  0.13323251398E+04  0.50400001928E-02 0.  1.
        1   -1    0    0  501    0  0.00000000000E+00  0.00000000000E+00 -0.17728977823E+04  0.17728977823E+04  0.50400001928E-02 0. -1.
    10030    2    1    2    0    0  0.00000000000E+00  0.00000000000E+00 -0.44057264248E+03  0.31052229222E+04  0.30738095489E+04 0.  0.
        4    1    3    3  502    0 -0.59594289100E+03  0.12664995615E+04 -0.86152170951E+03  0.16435906843E+04  0.12699999809E+01 0. -1.
       -4    1    3    3    0  502  0.59594289100E+03 -0.12664995615E+04  0.42094906703E+03  0.14616322378E+04  0.12699999809E+01 0.  1.
</event>
<event>
 5   0  0.3675819E-07  0.2767871E+04  0.7818609E-02  0.8313313E-01
        1   -1    0    0  501    0  0.00000000000E+00  0.00000000000E+00  0.19837262803E+04  0.19837262803E+04  0.50400001928E-02 0.  1.
       -1   -1    0    0    0  501  0.00000000000E+00  0.00000000000E+00 -0.96549472046E+03  0.96549472047E+03  0.50400001928E-02 0. -1.
    10030    2    1    2    0    0  0.00000000000E+00  0.00000000000E+00  0.10182315598E+04  0.29492210007E+04  0.27678708427E+04 0.  0.
        5    1    3    3  502    0 -0.10143268099E+04 -0.67903023180E+02 -0.49144382267E+03  0.11291628840E+04  0.46999998093E+01 0. -1.
       -5    1    3    3    0  502  0.10143268099E+04  0.67903023180E+02  0.15096753825E+04  0.18200581167E+04  0.46999998093E+01 0.  1.
</event>
<event>
 5   0  0.3704306E-07  0.3702996E+04  0.7818609E-02  0.8067298E-01
       -1   -1    0    0    0  501  0.00000000000E+00  0.00000000000E+00  0.27050725969E+04  0.27050725969E+04  0.50400001928E-02 0. -1.
        1   -1    0    0  501    0  0.00000000000E+00  0.00000000000E+00 -0.12672654266E+04  0.12672654266E+04  0.50400001928E-02 0.  1.
    10030    2    1    2    0    0  0.00000000000E+00  0.00000000000E+00  0.14378071703E+04  0.39723380235E+04  0.37029960726E+04 0.  0.
        3    1    3    3  502    0 -0.58953091857E+03 -0.42494136515E+03 -0.11078761562E+04  0.13249571523E+04  0.10100000352E+00 0.  1.
       -3    1    3    3    0  502  0.58953091857E+03  0.42494136515E+03  0.25456833265E+04  0.26473808712E+04  0.10100000352E+00 0. -1.
</event>
<event>
 5   0  0.1066907E-06  0.3219470E+04  0.7818609E-02  0.8183694E-01
       -2   -1    0    0    0  501  0.00000000000E+00  0.00000000000E+00  0.11719072379E+04  0.11719072379E+04  0.25500000920E-02 0.  1.
        2   -1    0    0  501    0  0.00000000000E+00  0.00000000000E+00 -0.22111368268E+04  0.22111368268E+04  0.25500000920E-02 0. -1.
    10030    2    1    2    0    0  0.00000000000E+00  0.00000000000E+00 -0.10392295889E+04  0.33830440647E+04  0.32194702988E+04 0.  0.
        4    1    3    3  502    0  0.54448563372E+03 -0.98277947937E+03 -0.17309757007E+04  0.20636372258E+04  0.12699999809E+01 0. -1.
       -4    1    3    3    0  502 -0.54448563372E+03  0.98277947937E+03  0.69174611181E+03  0.13194068389E+04  0.12699999809E+01 0.  1.
</event>
<event>
 5   0  0.1092116E-06  0.3705461E+04  0.7818609E-02  0.8066753E-01
       -2   -1    0    0    0  501  0.00000000000E+00  0.00000000000E+00  0.10766517775E+04  0.10766517775E+04  0.25500000920E-02 0. -1.
        2   -1    0    0  501    0  0.00000000000E+00  0.00000000000E+00 -0.31882278445E+04  0.31882278445E+04  0.25500000920E-02 0.  1.
    10030    2    1    2    0    0  0.00000000000E+00  0.00000000000E+00 -0.21115760670E+04  0.42648796220E+04  0.37054614697E+04 0.  0.
        1    1    3    3  502    0  0.46815546641E+03  0.17753243572E+04 -0.13416024039E+04  0.22739487954E+04  0.50400001928E-02 0. -1.
       -1    1    3    3    0  502 -0.46815546641E+03 -0.17753243572E+04 -0.76997366317E+03  0.19909308266E+04  0.50400001928E-02 0.  1.
</event>
<event>
 5   0  0.1051123E-06  0.3681378E+04  0.7818609E-02  0.8072101E-01
        2   -1    0    0  501    0  0.00000000000E+00  0.00000000000E+00  0.25115303672E+04  0.25115303672E+04  0.25500000920E-02 0.  1.
       -2   -1    0    0    0  501  0.00000000000E+00  0.00000000000E+00 -0.13490323503E+04  0.13490323503E+04  0.25500000920E-02 0. -1.
    10030    2    1    2    0    0  0.00000000000E+00  0.00000000000E+00  0.11624980169E+04  0.38605627175E+04  0.36813778475E+04 0.  0.
        2    1    3    3  502    0 -0.21125265125E+03  0.14912918452E+04 -0.52834283922E+03  0.15961595177E+04  0.25500000920E-02 0.  1.
       -2    1    3    3    0  502  0.21125265125E+03 -0.14912918452E+04  0.16908408561E+04  0.22644031997E+04  0.25500000920E-02 0. -1.
</event>
<event>
 5   0  0.3704306E-07  0.3641597E+04  0.7818609E-02  0.8081029E-01
        1   -1    0    0  501    0  0.00000000000E+00  0.00000000000E+00  0.24848706595E+04  0.24848706595E+04  0.50400001928E-02 0.  1.
       -1   -1    0    0    0  501  0.00000000000E+00  0.00000000000E+00 -0.13341970005E+04  0.13341970005E+04  0.50400001928E-02 0. -1.
    10030    2    1    2    0    0  0.00000000000E+00  0.00000000000E+00  0.11506736590E+04  0.38190676600E+04  0.36415968918E+04 0.  0.
        3    1    3    3  502    0 -0.12351838245E+04 -0.12179250373E+04 -0.50658461475E+01  0.17346602405E+04  0.10100000352E+00 0. -1.
       -3    1    3    3    0  502  0.12351838245E+04  0.12179250373E+04  0.11557395051E+04  0.20844074195E+04  0.10100000352E+00 0.  1.
</event>
<event>
 5   0  0.1128166E-06  0.3655681E+04  0.7818609E-02  0.8077855E-01
       -2   -1    0    0    0  501  0.00000000000E+00  0.00000000000E+00  0.16047299827E+04  0.16047299827E+04  0.25500000920E-02 0.  1.
        2   -1    0    0  501    0  0.00000000000E+00  0.00000000000E+00 -0.20819702697E+04  0.20819702697E+04  0.25500000920E-02 0. -1.
    10030    2    1    2    0    0  0.00000000000E+00  0.00000000000E+00 -0.47724028698E+03  0.36867002523E+04  0.36556805740E+04 0.  0.
        3    1    3    3  502    0  0.61105325182E+03 -0.13593027066E+04 -0.13058579066E+04  0.19815031686E+04  0.10100000352E+00 0. -1.
       -3    1    3    3    0  502 -0.61105325182E+03  0.13593027066E+04  0.82861761961E+03  0.17051970837E+04  0.10100000352E+00 0.  1.
</event>
<event>
 5   0  0.1128530E-06  0.3579841E+04  0.7818609E-02  0.8095125E-01
        2   -1    0    0  501    0  0.00000000000E+00  0.00000000000E+00  0.14877469878E+04  0.14877469878E+04  0.25500000920E-02 0. -1.
       -2   -1    0    0    0  501  0.00000000000E+00  0.00000000000E+00 -0.21534674048E+04  0.21534674048E+04  0.25500000920E-02 0.  1.
    10030    2    1    2    0    0  0.00000000000E+00  0.00000000000E+00 -0.66572041702E+03  0.36412143926E+04  0.35798405801E+04 0.  0.
        5    1    3    3  502    0  0.63295918642E+02 -0.92987238643E+03  0.12214492635E+04  0.15364339952E+04  0.46999998093E+01 0. -1.
       -5    1    3    3    0  502 -0.63295918642E+02  0.92987238643E+03 -0.18871696805E+04  0.21047803974E+04  0.46999998093E+01 0.  1.
</event>
<event>
 5   0  0.1092116E-06  0.3736053E+04  0.7818609E-02  0.8060019E-01
       -2   -1    0    0    0  501  0.00000000000E+00  0.00000000000E+00  0.23198188378E+04  0.23198188378E+04  0.25500000920E-02 0. -1.
        2   -1    0    0  501    0  0.00000000000E+00  0.00000000000E+00 -0.15042219238E+04  0.15042219238E+04  0.25500000920E-02 0.  1.
    10030    2    1    2    0    0  0.00000000000E+00  0.00000000000E+00  0.81559691400E+03  0.38240407615E+04  0.37360526522E+04 0.  0.
        1    1    3    3  502    0 -0.18031440825E+04 -0.46003386964E+03  0.57461722458E+03  0.19475997275E+04  0.50400001928E-02 0.  1.
       -1    1    3    3    0  502  0.18031440825E+04  0.46003386964E+03  0.24097968943E+03  0.18764410341E+04  0.50400001928E-02 0. -1.
</event>
<event>
 5   0  0.3704306E-07  0.3732641E+04  0.7818609E-02  0.8060766E-01
        1   -1    0    0  501    0  0.00000000000E+00  0.00000000000E+00  0.17745956332E+04  0.17745956332E+04  0.50400001928E-02 0. -1.
       -1   -1    0    0    0  501  0.00000000000E+00  0.00000000000E+00 -0.19627862590E+04  0.19627862590E+04  0.50400001928E-02 0.  1.
    10030    2    1    2    0    0  0.00000000000E+00  0.00000000000E+00 -0.18819062576E+03  0.37373818922E+04  0.37326408475E+04 0.  0.
        3    1    3    3  502    0 -0.44970922303E+02 -0.15485914266E+04 -0.11360871643E+04  0.19211589850E+04  0.10100000352E+00 0.  1.
       -3    1    3    3    0  502  0.44970922303E+02  0.15485914266E+04  0.94789653855E+03  0.18162229072E+04  0.10100000352E+00 0. -1.
</event>
<event>
 5   0  0.3764495E-07  0.3868335E+04  0.7818609E-02  0.8031647E-01
        1   -1    0    0  501    0  0.00000000000E+00  0.00000000000E+00  0.18137642207E+04  0.18137642207E+04  0.50400001928E-02 0. -1.
       -1   -1    0    0    0  501  0.00000000000E+00  0.00000000000E+00 -0.20625636776E+04  0.20625636776E+04  0.50400001928E-02 0.  1.
    10030    2    1    2    0    0  0.00000000000E+00  0.00000000000E+00 -0.24879945689E+03  0.38763278983E+04  0.38683351465E+04 0.  0.
        4    1    3    3  502    0 -0.50572435088E+03 -0.17160554867E+04  0.61223755491E+03  0.18908833886E+04  0.12699999809E+01 0. -1.
       -4    1    3    3    0  502  0.50572435088E+03  0.17160554867E+04 -0.86103701181E+03  0.19854445097E+04  0.12699999809E+01 0.  1.
</event>
<event>
 5   0  0.3675819E-07  0.3688238E+04  0.7818609E-02  0.8070573E-01
       -1   -1    0    0    0  501  0.00000000000E+00  0.00000000000E+00  0.14741131683E+04  0.14741131683E+04  0.50400001928E-02 0.  1.
        1   -1    0    0  501    0  0.00000000000E+00  0.00000000000E+00 -0.23069968772E+04  0.23069968772E+04  0.50400001928E-02 0. -1.
    10030    2    1    2    0    0  0.00000000000E+00  0.00000000000E+00 -0.83288370890E+03  0.37811100456E+04  0.36882377776E+04 0.  0.
        5    1    3    3  502    0 -0.88665454841E+03  0.42687875394E+03 -0.20153196841E+04  0.22427477072E+04  0.46999998093E+01 0. -1.
       -5    1    3    3    0  502  0.88665454841E+03 -0.42687875394E+03  0.11824359752E+04  0.15383623384E+04  0.46999998093E+01 0.  1.
</event>
<event>
 5   0  0.1066907E-06  0.3710325E+04  0.7818609E-02  0.8065678E-01
        2   -1    0    0  501    0  0.00000000000E+00  0.00000000000E+00  0.17410136578E+04  0.17410136578E+04  0.25500000920E-02 0.  1.
       -2   -1    0    0    0  501  0.00000000000E+00  0.00000000000E+00 -0.19767952722E+04  0.19767952722E+04  0.25500000920E-02 0. -1.
    10030    2    1    2    0    0  0.00000000000E+00  0.00000000000E+00 -0.23578161439E+03  0.37178089299E+04  0.37103248200E+04 0.  0.
        4    1    3    3  502    0 -0.46300343121E+02  0.16620941894E+04 -0.94230499246E+03  0.19111884073E+04  0.12699999809E+01 0. -1.
       -4    1    3    3    0  502  0.46300343121E+02 -0.16620941894E+04  0.70652337807E+03  0.18066205227E+04  0.12699999809E+01 0.  1.
</event>
<event>
 5   0  0.1128530E-06  0.3610820E+04  0.7818609E-02  0.8088018E-01
        2   -1    0    0  501    0  0.00000000000E+00  0.00000000000E+00  0.11929229991E+04  0.11929229991E+04  0.25500000920E-02 0.  1.
       -2   -1    0    0    0  501  0.00000000000E+00  0.00000000000E+00 -0.27323679956E+04  0.27323679956E+04  0.25500000920E-02 0. -1.
    10030    2    1    2    0    0  0.00000000000E+00  0.00000000000E+00 -0.15394449966E+04  0.39252909947E+04  0.36108196432E+04 0.  0.
        5    1    3    3  502    0 -0.80994657982E+03  0.56113510320E+03  0.87484110036E+03  0.13176703332E+04  0.46999998093E+01 0.  1.
       -5    1    3    3    0  502  0.80994657982E+03 -0.56113510320E+03 -0.24142860969E+04  0.26076206615E+04  0.46999998093E+01 0. -1.
</event>
<event>
 5   0  0.1051123E-06  0.3662054E+04  0.7818609E-02  0.8076423E-01
       -2   -1    0    0    0  501  0.00000000000E+00  0.00000000000E+00  0.11011378304E+04  0.11011378304E+04  0.25500000920E-02 0. -1.
        2   -1    0    0  501    0  0.00000000000E+00  0.00000000000E+00 -0.30447236096E+04  0.30447236096E+04  0.25500000920E-02 0.  1.
    10030    2    1    2    0    0  0.00000000000E+00  0.00000000000E+00 -0.19435857792E+04  0.41458614401E+04  0.36620542595E+04 0.  0.
        2    1    3    3  502    0 -0.48105701363E+03  0.17165669693E+04 -0.14449057776E+04  0.22947267194E+04  0.25500000920E-02 0.  1.
       -2    1    3    3    0  502  0.48105701363E+03 -0.17165669693E+04 -0.49868000159E+03  0.18511347207E+04  0.25500000920E-02 0. -1.
</event>
<event>
 5   0  0.1128166E-06  0.3774038E+04  0.7818609E-02  0.8051749E-01
       -2   -1    0    0    0  501  0.00000000000E+00  0.00000000000E+00  0.23090058106E+04  0.23090058106E+04  0.25500000920E-02 0. -1.
        2   -1    0    0  501    0  0.00000000000E+00  0.00000000000E+00 -0.15421535432E+04  0.15421535432E+04  0.25500000920E-02 0.  1.
    10030    2    1    2    0    0  0.00000000000E+00  0.00000000000E+00  0.76685226733E+03  0.38511593538E+04  0.37740384164E+04 0.  0.
        3    1    3    3  502    0  0.62829662827E+03  0.12049530795E+04 -0.95259240902E+03  0.16595483979E+04  0.10100000352E+00 0.  1.
       -3    1    3    3    0  502 -0.62829662827E+03 -0.12049530795E+04  0.17194446764E+04  0.21916109559E+04  0.10100000352E+00 0. -1.
</event>
<event>
 5   0  0.1051123E-06  0.3751246E+04  0.7818609E-02  0.8056699E-01
        2   -1    0    0  501    0  0.00000000000E+00  0.00000000000E+00  0.22502670668E+04  0.22502670668E+04  0.25500000920E-02 0.  1.
       -2   -1    0    0    0  501  0.00000000000E+00  0.00000000000E+00 -0.15633527321E+04  0.15633527321E+04  0.25500000920E-02 0. -1.
    10030    2    1    2    0    0  0.00000000000E+00  0.00000000000E+00  0.68691433476E+03  0.38136197989E+04  0.37512457487E+04 0.  0.
        2    1    3    3  502    0  0.21964597414E+03  0.17048638683E+04 -0.41945797785E+03  0.17693925959E+04  0.25500000920E-02 0. -1.
       -2    1    3    3    0  502 -0.21964597414E+03 -0.17048638683E+04  0.11063723126E+04  0.20442272030E+04  0.25500000920E-02 0.  1.
</event>
<event>
 5   0  0.1128166E-06  0.2900752E+04  0.7818609E-02  0.8272654E-01
        2   -1    0    0  501    0  0.00000000000E+00  0.00000000000E+00  0.17125220217E+04  0.17125220217E+04  0.25500000920E-02 0.  1.
       -2   -1    0    0    0  501  0.00000000000E+00  0.00000000000E+00 -0.12283583211E+04  0.12283583211E+04  0.25500000920E-02 0. -1.
    10030    2    1    2    0    0  0.00000000000E+00  0.00000000000E+00  0.48416370064E+03  0.29408803428E+04  0.29007520924E+04 0.  0.
        3    1    3    3  502    0 -0.65827386997E+03  0.12123084205E+04  0.69613277868E+03  0.15451915901E+04  0.10100000352E+00 0.  1.
       -3    1    3    3    0  502  0.65827386997E+03 -0.12123084205E+04 -0.21196907803E+03  0.13956887527E+04  0.10100000352E+00 0. -1.
</event>
<event>
 5   0  0.1128166E-06  0.3626822E+04  0.7818609E-02  0.8084375E-01
        2   -1    0    0  501    0  0.00000000000E+00  0.00000000000E+00  0.21857997500E+04  0.21857997500E+04  0.25500000920E-02 0. -1.
       -2   -1    0    0    0  501  0.00000000000E+00  0.00000000000E+00 -0.15044650037E+04  0.15044650037E+04  0.25500000920E-02 0.  1.
    10030    2    1    2    0    0  0.00000000000E+00  0.00000000000E+00  0.68133474632E+03  0.36902647537E+04  0.36268218754E+04 0.  0.
        3    1    3    3  502    0 -0.11851213013E+04  0.99627458232E+03  0.13013139447E+04  0.20224968566E+04  0.10100000352E+00 0. -1.
       -3    1    3    3    0  502  0.11851213013E+04 -0.99627458232E+03 -0.61997919838E+03  0.16677678971E+04  0.10100000352E+00 0.  1.
</event>
<event>
 5   0  0.1051123E-06  0.3606023E+04  0.7818609E-02  0.8089114E-01
       -2   -1    0    0    0  501  0.00000000000E+00  0.00000000000E+00  0.17057101369E+04  0.17057101369E+04  0.25500000920E-02 0. -1.
        2   -1    0    0  501    0  0.00000000000E+00  0.00000000000E+00 -0.19058628755E+04  0.19058628755E+04  0.25500000920E-02 0.  1.
    10030    2    1    2    0    0  0.00000000000E+00  0.00000000000E+00 -0.20015273861E+03  0.36115730124E+04  0.36060225326E+04 0.  0.
        2    1    3    3  502    0 -0.14139511910E+04  0.75969916829E+03  0.72243605265E+03  0.17602030130E+04  0.25500000920E-02 0. -1.
       -2    1    3    3    0  502  0.14139511910E+04 -0.75969916829E+03 -0.92258879125E+03  0.18513699994E+04  0.25500000920E-02 0.  1.
</event>
<event>
 5   0  0.3675819E-07  0.3271318E+04  0.7818609E-02  0.8170232E-01
       -1   -1    0    0    0  501  0.00000000000E+00  0.00000000000E+00  0.17406791225E+04  0.17406791225E+04  0.50400001928E-02 0.  1.
        1   -1    0    0  501    0  0.00000000000E+00  0.00000000000E+00 -0.15369749385E+04  0.15369749385E+04  0.50400001928E-02 0. -1.
    10030    2    1    2    0    0  0.00000000000E+00  0.00000000000E+00  0.20370418403E+03  0.32776540610E+04  0.32713178918E+04 0.  0.
        5    1    3    3  502    0 -0.11064318372E+04  0.24601587517E+03 -0.10796872116E+04  0.15653950895E+04  0.46999998093E+01 0. -1.
       -5    1    3    3    0  502  0.11064318372E+04 -0.24601587517E+03  0.12833913956E+04  0.17122589715E+04  0.46999998093E+01 0.  1.
</event>
<event>
 5   0  0.3764495E-07  0.2459769E+04  0.7818609E-02  0.8417460E-01
       -1   -1    0    0    0  501  0.00000000000E+00  0.00000000000E+00  0.10553693071E+04  0.10553693071E+04  0.50400001928E-02 0. -1.
        1   -1    0    0  501    0  0.00000000000E+00  0.00000000000E+00 -0.14332569849E+04  0.14332569849E+04  0.50400001928E-02 0.  1.
    10030    2    1    2    0    0  0.00000000000E+00  0.00000000000E+00 -0.37788767775E+03  0.24886262920E+04  0.24597686323E+04 0.  0.
        4    1    3    3  502    0 -0.88635196637E+03 -0.10436837190E+03 -0.10450993230E+04  0.13743168387E+04  0.12699999809E+01 0.  1.
       -4    1    3    3    0  502  0.88635196637E+03  0.10436837190E+03  0.66721164523E+03  0.11143094533E+04  0.12699999809E+01 0. -1.
</event>
<event>
 5   0  0.3848431E-07  0.3306341E+04  0.7818609E-02  0.8161284E-01
        1   -1    0    0  501    0  0.00000000000E+00  0.00000000000E+00  0.28917855956E+04  0.28917855956E+04  0.50400001928E-02 0. -1.
       -1   -1    0    0    0  501  0.00000000000E+00  0.00000000000E+00 -0.94508112289E+03  0.94508112290E+03  0.50400001928E-02 0.  1.
    10030    2    1    2    0    0  0.00000000000E+00  0.00000000000E+00  0.19467044727E+04  0.38368667185E+04  0.33063405620E+04 0.  0.
        2    1    3    3  502    0  0.10502515611E+04 -0.43339921958E+03  0.23669201384E+04  0.26254855107E+04  0.25500000920E-02 0. -1.
       -2    1    3    3    0  502 -0.10502515611E+04  0.43339921958E+03 -0.42021566567E+03  0.12113812079E+04  0.25500000920E-02 0.  1.
</event>
<event>
 5   0  0.3704306E-07  0.2714981E+04  0.7818609E-02  0.8330160E-01
        1   -1    0    0  501    0  0.00000000000E+00  0.00000000000E+00  0.27809875488E+04  0.27809875488E+04  0.50400001928E-02 0.  1.
       -1   -1    0    0    0  501  0.00000000000E+00  0.00000000000E+00 -0.66263536424E+03  0.66263536426E+03  0.50400001928E-02 0. -1.
    10030    2    1    2    0    0  0.00000000000E+00  0.00000000000E+00  0.21183521846E+04  0.34436229131E+04  0.27149811767E+04 0.  0.
        3    1    3    3  502    0  0.72076615924E+03 -0.10723736351E+04  0.53117168951E+03  0.13970083906E+04  0.10100000352E+00 0. -1.
       -3    1    3    3    0  502 -0.72076615924E+03  0.10723736351E+04  0.15871804951E+04  0.20466145225E+04  0.10100000352E+00 0.  1.
</event>
<event>
 5   0  0.1092116E-06  0.3706794E+04  0.7818609E-02  0.8066458E-01
       -2   -1    0    0    0  501  0.00000000000E+00  0.00000000000E+00  0.17906656926E+04  0.17906656926E+04  0.25500000920E-02 0.  1.
        2   -1    0    0  501    0  0.00000000000E+00  0.00000000000E+00 -0.19183263279E+04  0.19183263279E+04  0.25500000920E-02 0. -1.
    10030    2    1    2    0    0  0.00000000000E+00  0.00000000000E+00 -0.12766063527E+03  0.37089920204E+04  0.37067943792E+04 0.  0.
        1    1    3    3  502    0 -0.15720024223E+03  0.13392803514E+04 -0.13360782937E+04  0.18982858011E+04  0.50400001928E-02 0. -1.
       -1    1    3    3    0  502  0.15720024223E+03 -0.13392803514E+04  0.12084176584E+04  0.18107062194E+04  0.50400001928E-02 0.  1.
</event>
<event>
 5   0  0.3675819E-07  0.3694181E+04  0.7818609E-02  0.8069253E-01
        1   -1    0    0  501    0  0.00000000000E+00  0.00000000000E+00  0.26206446776E+04  0.26206446776E+04  0.50400001928E-02 0.  1.
       -1   -1    0    0    0  501  0.00000000000E+00  0.00000000000E+00 -0.13018720708E+04  0.13018720708E+04  0.50400001928E-02 0. -1.
    10030    2    1    2    0    0  0.00000000000E+00  0.00000000000E+00  0.13187726068E+04  0.39225167484E+04  0.36941814320E+04 0.  0.
        5    1    3    3  502    0 -0.15839966113E+03 -0.12204306117E+04  0.21219033394E+04  0.24529649819E+04  0.46999998093E+01 0.  1.
       -5    1    3    3    0  502  0.15839966113E+03  0.12204306117E+04 -0.80313073263E+03  0.14695517664E+04  0.46999998093E+01 0. -1.
</event>
<event>
 5   0  0.1128166E-06  0.3705475E+04  0.7818609E-02  0.8066750E-01
        2   -1    0    0  501    0  0.00000000000E+00  0.00000000000E+00  0.18554058518E+04  0.18554058518E+04  0.25500000920E-02 0.  1.
       -2   -1    0    0    0  501  0.00000000000E+00  0.00000000000E+00 -0.18500725461E+04  0.18500725461E+04  0.25500000920E-02 0. -1.
    10030    2    1    2    0    0  0.00000000000E+00  0.00000000000E+00  0.53333057426E+01  0.37054783979E+04  0.37054745598E+04 0.  0.
        3    1    3    3  502    0 -0.73285674534E+03 -0.16645083102E+04  0.35617585112E+03  0.18532480058E+04  0.10100000352E+00 0. -1.
       -3    1    3    3    0  502  0.73285674534E+03  0.16645083102E+04 -0.35084254538E+03  0.18522303922E+04  0.10100000352E+00 0.  1.
</event>
<event>
 5   0  0.3682276E-07  0.3574333E+04  0.7818609E-02  0.8096396E-01
        1   -1    0    0  501    0  0.00000000000E+00  0.00000000000E+00  0.21345141424E+04  0.21345141424E+04  0.50400001928E-02 0.  1.
       -1   -1    0    0    0  501  0.00000000000E+00  0.00000000000E+00 -0.14963423276E+04  0.14963423276E+04  0.50400001928E-02 0. -1.
    10030    2    1    2    0    0  0.00000000000E+00  0.00000000000E+00  0.63817181479E+03  0.36308564700E+04  0.35743328665E+04 0.  0.
        1    1    3    3  502    0  0.11236730206E+04 -0.10690811291E+04  0.12210394812E+04  0.19739586958E+04  0.50400001928E-02 0.  1.
       -1    1    3    3    0  502 -0.11236730206E+04  0.10690811291E+04 -0.58286766642E+03  0.16568977743E+04  0.50400001928E-02 0. -1.
</event>
<event>
 5   0  0.1066907E-06  0.3665319E+04  0.7818609E-02  0.8075691E-01
       -2   -1    0    0    0  501  0.00000000000E+00  0.00000000000E+00  0.13624828549E+04  0.13624828549E+04  0.25500000920E-02 0. -1.
        2   -1    0    0  501    0  0.00000000000E+00  0.00000000000E+00 -0.24650883154E+04  0.24650883154E+04  0.25500000920E-02 0.  1.
    10030    2    1    2    0    0  0.00000000000E+00  0.00000000000E+00 -0.11026054604E+04  0.38275711703E+04  0.36653188487E+04 0.  0.
        4    1    3    3  502    0 -0.13278026934E+04  0.87865641117E+03  0.39636121326E+03  0.16407927674E+04  0.12699999809E+01 0. -1.
       -4    1    3    3    0  502  0.13278026934E+04 -0.87865641117E+03 -0.14989666737E+04  0.21867784028E+04  0.12699999809E+01 0.  1.
</event>
<event>
 5   0  0.1066907E-06  0.3674680E+04  0.7818609E-02  0.8073596E-01
       -2   -1    0    0    0  501  0.00000000000E+00  0.00000000000E+00  0.10109841989E+04  0.10109841989E+04  0.25500000920E-02 0.  1.
        2   -1    0    0  501    0  0.00000000000E+00  0.00000000000E+00 -0.33391397624E+04  0.33391397624E+04  0.25500000920E-02 0. -1.
    10030    2    1    2    0    0  0.00000000000E+00  0.00000000000E+00 -0.23281555635E+04  0.43501239612E+04  0.36746795983E+04 0.  0.
        4    1    3    3  502    0  0.52528451115E+03 -0.13287044661E+03  0.91425557614E+03  0.10627526733E+04  0.12699999809E+01 0.  1.
       -4    1    3    3    0  502 -0.52528451115E+03  0.13287044661E+03 -0.32424111396E+04  0.32873712879E+04  0.12699999809E+01 0. -1.
</event>
<event>
 5   0  0.3675819E-07  0.3700825E+04  0.7818609E-02  0.8067779E-01
        1   -1    0    0  501    0  0.00000000000E+00  0.00000000000E+00  0.12505444450E+04  0.12505444450E+04  0.50400001928E-02 0.  1.
       -1   -1    0    0    0  501  0.00000000000E+00  0.00000000000E+00 -0.27380292066E+04  0.27380292066E+04  0.50400001928E-02 0. -1.
    10030    2    1    2    0    0  0.00000000000E+00  0.00000000000E+00 -0.14874847616E+04  0.39885736516E+04  0.37008254292E+04 0.  0.
        5    1    3    3  502    0  0.90085822784E+03 -0.16028742239E+04 -0.51959629918E+03  0.19106945670E+04  0.46999998093E+01 0. -1.
       -5    1    3    3    0  502 -0.90085822784E+03  0.16028742239E+04 -0.96788846245E+03  0.20778790845E+04  0.46999998093E+01 0.  1.
</event>
<event>
 5   0  0.3704306E-07  0.2640372E+04  0.7818609E-02  0.8354616E-01
        1   -1    0    0  501    0  0.00000000000E+00  0.00000000000E+00  0.21380518378E+04  0.21380518378E+04  0.50400001928E-02 0.  1.
       -1   -1    0    0    0  501  0.00000000000E+00  0.00000000000E+00 -0.81517745430E+03  0.81517745431E+03  0.50400001928E-02 0. -1.
    10030    2    1    2    0    0  0.00000000000E+00  0.00000000000E+00  0.13228743835E+04  0.29532292921E+04  0.26403724391E+04 0.  0.
        3    1    3    3  502    0 -0.10605731901E+04 -0.71707034851E+03  0.30093239409E+03  0.13151295344E+04  0.10100000352E+00 0. -1.
       -3    1    3    3    0  502  0.10605731901E+04  0.71707034851E+03  0.10219419894E+04  0.16380997577E+04  0.10100000352E+00 0.  1.
</event>
<event>
 5   0  0.3848431E-07  0.3677242E+04  0.7818609E-02  0.8073024E-01
        1   -1    0    0  501    0  0.00000000000E+00  0.00000000000E+00  0.23417177178E+04  0.23417177178E+04  0.50400001928E-02 0. -1.
       -1   -1    0    0    0  501  0.00000000000E+00  0.00000000000E+00 -0.14436099780E+04  0.14436099780E+04  0.50400001928E-02 0.  1.
    10030    2    1    2    0    0  0.00000000000E+00  0.00000000000E+00  0.89810773974E+03  0.37853276958E+04  0.36772419355E+04 0.  0.
        2    1    3    3  502    0  0.59223000366E+03 -0.14187140273E+03  0.22348843310E+04  0.23163704033E+04  0.25500000920E-02 0. -1.
       -2    1    3    3    0  502 -0.59223000366E+03  0.14187140273E+03 -0.13367765913E+04  0.14689572925E+04  0.25500000920E-02 0.  1.
</event>
<event>
 5   0  0.1066907E-06  0.3699751E+04  0.7818609E-02  0.8068017E-01
       -2   -1    0    0    0  501  0.00000000000E+00  0.00000000000E+00  0.18881212858E+04  0.18881212858E+04  0.25500000920E-02 0.  1.
        2   -1    0    0  501    0  0.00000000000E+00  0.00000000000E+00 -0.18124045415E+04  0.18124045415E+04  0.25500000920E-02 0. -1.
    10030    2    1    2    0    0  0.00000000000E+00  0.00000000000E+00  0.75716744309E+02  0.37005258274E+04  0.36997511232E+04 0.  0.
        4    1    3    3  502    0 -0.18122741657E+04  0.64909080693E+02  0.40329379555E+03  0.18577401161E+04  0.12699999809E+01 0.  1.
       -4    1    3    3    0  502  0.18122741657E+04 -0.64909080693E+02 -0.32757705124E+03  0.18427857113E+04  0.12699999809E+01 0. -1.
</event>
<event>
 5   0  0.3704306E-07  0.2672332E+04  0.7818609E-02  0.8344038E-01
       -1   -1    0    0    0  501  0.00000000000E+00  0.00000000000E+00  0.11130391461E+04  0.11130391461E+04  0.50400001928E-02 0. -1.
        1   -1    0    0  501    0  0.00000000000E+00  0.00000000000E+00 -0.16040224196E+04  0.16040224196E+04  0.50400001928E-02 0.  1.
    10030    2    1    2    0    0  0.00000000000E+00  0.00000000000E+00 -0.49098327353E+03  0.27170615657E+04  0.26723321233E+04 0.  0.
        3    1    3    3  502    0 -0.67327818572E+02  0.12944673349E+03  0.11049148705E+04  0.11145072333E+04  0.10100000352E+00 0. -1.
       -3    1    3    3    0  502  0.67327818572E+02 -0.12944673349E+03 -0.15958981440E+04  0.16025543324E+04  0.10100000352E+00 0.  1.
</event>
<event>
 5   0  0.1051123E-06  0.3561548E+04  0.7818609E-02  0.8099357E-01
       -2   -1    0    0    0  501  0.00000000000E+00  0.00000000000E+00  0.18474718022E+04  0.18474718022E+04  0.25500000920E-02 0.  1.
        2   -1    0    0  501    0  0.00000000000E+00  0.00000000000E+00 -0.17164838062E+04  0.17164838062E+04  0.25500000920E-02 0. -1.
    10030    2    1    2    0    0  0.00000000000E+00  0.00000000000E+00  0.13098799596E+03  0.35639556084E+04  0.35615476585E+04 0.  0.
        2    1    3    3  502    0 -0.10115986956E+04 -0.51339311102E+03 -0.13081142999E+04  0.17314928325E+04  0.25500000920E-02 0. -1.
       -2    1    3    3    0  502  0.10115986956E+04  0.51339311102E+03  0.14391022958E+04  0.18324627760E+04  0.25500000920E-02 0.  1.
</event>
<event>
 5   0  0.1066907E-06  0.2498862E+04  0.7818609E-02  0.8403391E-01
       -2   -1    0    0    0  501  0.00000000000E+00  0.00000000000E+00  0.72640383872E+03  0.72640383873E+03  0.25500000920E-02 0. -1.
        2   -1    0    0  501    0  0.00000000000E+00  0.00000000000E+00 -0.21490497173E+04  0.21490497173E+04  0.25500000920E-02 0.  1.
    10030    2    1    2    0    0  0.00000000000E+00  0.00000000000E+00 -0.14226458786E+04  0.28754535560E+04  0.24988621124E+04 0.  0.
        4    1    3    3  502    0  0.76346927756E+03 -0.91711938921E+03 -0.11373683854E+04  0.16485150193E+04  0.12699999809E+01 0.  1.
       -4    1    3    3    0  502 -0.76346927756E+03  0.91711938921E+03 -0.28527749313E+03  0.12269385367E+04  0.12699999809E+01 0. -1.
</event>
<event>
 5   0  0.3675819E-07  0.2471884E+04  0.7818609E-02  0.8413071E-01
        1   -1    0    0  501    0  0.00000000000E+00  0.00000000000E+00  0.15259341004E+04  0.15259341004E+04  0.50400001928E-02 0. -1.
       -1   -1    0    0    0  501  0.00000000000E+00  0.00000000000E+00 -0.10010604126E+04  0.10010604126E+04  0.50400001928E-02 0.  1.
    10030    2    1    2    0    0  0.00000000000E+00  0.00000000000E+00  0.52487368787E+03  0.25269945130E+04  0.24718836705E+04 0.  0.
        5    1    3    3  502    0  0.63710987725E+03  0.10584343674E+04  0.29982859700E+03  0.12712637741E+04  0.46999998093E+01 0. -1.
       -5    1    3    3    0  502 -0.63710987725E+03 -0.10584343674E+04  0.22504509087E+03  0.12557307389E+04  0.46999998093E+01 0.  1.
</event>
<event>
 5   0  0.3848431E-07  0.3693836E+04  0.7818609E-02  0.8069329E-01
        1   -1    0    0  501    0  0.00000000000E+00  0.00000000000E+00  0.15970056336E+04  0.15970056336E+04  0.50400001928E-02 0.  1.
       -1   -1    0    0    0  501  0.00000000000E+00  0.00000000000E+00 -0.21359389115E+04  0.21359389116E+04  0.50400001928E-02 0. -1.
    10030    2    1    2    0    0  0.00000000000E+00  0.00000000000E+00 -0.53893327795E+03  0.37329445452E+04  0.36938362036E+04 0.  0.
        2    1    3    3  502    0 -0.24535225347E+03  0.74386054325E+03  0.14208387674E+04  0.16224392251E+04  0.25500000920E-02 0.  1.
       -2    1    3    3    0  502  0.24535225347E+03 -0.74386054325E+03 -0.19597720454E+04  0.21105053201E+04  0.25500000920E-02 0. -1.
</event>
<event>
 5   0  0.1051123E-06  0.3645609E+04  0.7818609E-02  0.8080124E-01
        2   -1    0    0  501    0  0.00000000000E+00  0.00000000000E+00  0.17167689041E+04  0.17167689041E+04  0.25500000920E-02 0.  1.
       -2   -1    0    0    0  501  0.00000000000E+00  0.00000000000E+00 -0.19353896571E+04  0.19353896571E+04  0.25500000920E-02 0. -1.
    10030    2    1    2    0    0  0.00000000000E+00  0.00000000000E+00 -0.21862075302E+03  0.36521585613E+04  0.36456092938E+04 0.  0.
        2    1    3    3  502    0 -0.90000743787E+03 -0.12211581903E+04  0.90313672249E+03  0.17654734927E+04  0.25500000920E-02 0.  1.
       -2    1    3    3    0  502  0.90000743787E+03  0.12211581903E+04 -0.11217574755E+04  0.18866850685E+04  0.25500000920E-02 0. -1.
</event>
<event>
 5   0  0.1128166E-06  0.3748818E+04  0.7818609E-02  0.8057228E-01
       -2   -1    0    0    0  501  0.00000000000E+00  0.00000000000E+00  0.27217571330E+04  0.27217571330E+04  0.25500000920E-02 0. -1.
        2   -1    0    0  501    0  0.00000000000E+00  0.00000000000E+00 -0.12908605876E+04  0.12908605876E+04  0.25500000920E-02 0.  1.
    10030    2    1    2    0    0  0.00000000000E+00  0.00000000000E+00  0.14308965454E+04  0.40126177207E+04  0.37488179535E+04 0.  0.
        3    1    3    3  502    0 -0.22507859838E+02  0.12352071843E+04 -0.79341701317E+03  0.14682486026E+04  0.10100000352E+00 0. -1.
       -3    1    3    3    0  502  0.22507859838E+02 -0.12352071843E+04  0.22243135586E+04  0.25443691181E+04  0.10100000352E+00 0.  1.
</event>
<event>
 5   0  0.1128530E-06  0.3828164E+04  0.7818609E-02  0.8040138E-01
       -2   -1    0    0    0  501  0.00000000000E+00  0.00000000000E+00  0.16484424982E+04  0.16484424982E+04  0.25500000920E-02 0.  1.
        2   -1    0    0  501    0  0.00000000000E+00  0.00000000000E+00 -0.22225287283E+04  0.22225287283E+04  0.25500000920E-02 0. -1.
    10030    2    1    2    0    0  0.00000000000E+00  0.00000000000E+00 -0.57408623004E+03  0.38709712265E+04  0.38281644736E+04 0.  0.
        5    1    3    3  502    0  0.17161960009E+04 -0.15300888422E+03  0.55591422965E+03  0.18104704231E+04  0.46999998093E+01 0.  1.
       -5    1    3    3    0  502 -0.17161960009E+04  0.15300888422E+03 -0.11300004597E+04  0.20605008035E+04  0.46999998093E+01 0. -1.
</event>
<event>
 5   0  0.3848431E-07  0.3675157E+04  0.7818609E-02  0.8073490E-01
        1   -1    0    0  501    0  0.00000000000E+00  0.00000000000E+00  0.17743893696E+04  0.17743893696E+04  0.50400001928E-02 0.  1.
       -1   -1    0    0    0  501  0.00000000000E+00  0.00000000000E+00 -0.19030180159E+04  0.19030180159E+04  0.50400001928E-02 0. -1.
    10030    2    1    2    0    0  0.00000000000E+00  0.00000000000E+00 -0.12862864631E+03  0.36774073855E+04  0.36751571055E+04 0.  0.
        2    1    3    3  502    0 -0.13918023275E+03  0.16538965831E+04 -0.85343520067E+03  0.18663056252E+04  0.25500000920E-02 0. -1.
       -2    1    3    3    0  502  0.13918023275E+03 -0.16538965831E+04  0.72480655436E+03  0.18111017603E+04  0.25500000920E-02 0.  1.
</event>
<event>
 5   0  0.1051123E-06  0.3627996E+04  0.7818609E-02  0.8084109E-01
       -2   -1    0    0    0  501  0.00000000000E+00  0.00000000000E+00  0.18926693290E+04  0.18926693290E+04  0.25500000920E-02 0.  1.
        2   -1    0    0  501    0  0.00000000000E+00  0.00000000000E+00 -0.17385966845E+04  0.17385966845E+04  0.25500000920E-02 0. -1.
    10030    2    1    2    0    0  0.00000000000E+00  0.00000000000E+00  0.15407264457E+03  0.36312660135E+04  0.36279959318E+04 0.  0.
        2    1    3    3  502    0  0.10352851486E+04  0.46065613607E+03 -0.13407746893E+04  0.17554760556E+04  0.25500000920E-02 0. -1.
       -2    1    3    3    0  502 -0.10352851486E+04 -0.46065613607E+03  0.14948473338E+04  0.18757899579E+04  0.25500000920E-02 0.  1.
</event>
<event>
 5   0  0.3848431E-07  0.3648729E+04  0.7818609E-02  0.8079420E-01
        1   -1    0    0  501    0  0.00000000000E+00  0.00000000000E+00  0.17316521507E+04  0.17316521507E+04  0.50400001928E-02 0. -1.
       -1   -1    0    0    0  501  0.00000000000E+00  0.00000000000E+00 -0.19220402581E+04  0.19220402581E+04  0.50400001928E-02 0.  1.
    10030    2    1    2    0    0  0.00000000000E+00  0.00000000000E+00 -0.19038810739E+03  0.36536924089E+04  0.36487286261E+04 0.  0.
        2    1    3    3  502    0  0.11937497193E+04 -0.32599113170E+02 -0.14762744801E+04  0.18988121116E+04  0.25500000920E-02 0.  1.
       -2    1    3    3    0  502 -0.11937497193E+04  0.32599113170E+02  0.12858863727E+04  0.17548802973E+04  0.25500000920E-02 0. -1.
</event>
<event>
 5   0  0.1128530E-06  0.3727604E+04  0.7818609E-02  0.8061872E-01
       -2   -1    0    0    0  501  0.00000000000E+00  0.00000000000E+00  0.22638445505E+04  0.22638445505E+04  0.25500000920E-02 0. -1.
        2   -1    0    0  501    0  0.00000000000E+00  0.00000000000E+00 -0.15344506019E+04  0.15344506019E+04  0.25500000920E-02 0.  1.
    10030    2    1    2    0    0  0.00000000000E+00  0.00000000000E+00  0.72939394864E+03  0.37982951524E+04  0.37276038594E+04 0.  0.
        5    1    3    3  502    0 -0.77436004094E+03  0.23158795097E+03  0.20759712773E+04  0.22277668833E+04  0.46999998093E+01 0. -1.
       -5    1    3    3    0  502  0.77436004094E+03 -0.23158795097E+03 -0.13465773287E+04  0.15705282691E+04  0.46999998093E+01 0.  1.
</event>
<event>
 5   0  0.3682276E-07  0.3709442E+04  0.7818609E-02  0.8065873E-01
       -1   -1    0    0    0  501  0.00000000000E+00  0.00000000000E+00  0.13289254930E+04  0.13289254930E+04  0.50400001928E-02 0. -1.
        1   -1    0    0  501    0  0.00000000000E+00  0.00000000000E+00 -0.25885502304E+04  0.25885502304E+04  0.50400001928E-02 0.  1.
    10030    2    1    2    0    0  0.00000000000E+00  0.00000000000E+00 -0.12596247374E+04  0.39174757234E+04  0.37094422174E+04 0.  0.
        1    1    3    3  502    0  0.15892616396E+04 -0.46209586578E+03 -0.15138390785E+04  0.22429877182E+04  0.50400001928E-02 0.  1.
       -1    1    3    3    0  502 -0.15892616396E+04  0.46209586578E+03  0.25421434104E+03  0.16744880052E+04  0.50400001928E-02 0. -1.
</event>
<event>
 5   0  0.3764495E-07  0.3720545E+04  0.7818609E-02  0.8063424E-01
       -1   -1    0    0    0  501  0.00000000000E+00  0.00000000000E+00  0.17536720929E+04  0.17536720929E+04  0.50400001928E-02 0. -1.
        1   -1    0    0  501    0  0.00000000000E+00  0.00000000000E+00 -0.19733525413E+04  0.19733525413E+04  0.50400001928E-02 0.  1.
    10030    2    1    2    0    0  0.00000000000E+00  0.00000000000E+00 -0.21968044835E+03  0.37270246342E+04  0.37205447349E+04 0.  0.
        4    1    3    3  502    0 -0.33854483918E+03 -0.52472575589E+03 -0.18652226079E+04  0.19669790840E+04  0.12699999809E+01 0.  1.
       -4    1    3    3    0  502  0.33854483918E+03  0.52472575589E+03  0.16455421595E+04  0.17600455502E+04  0.12699999809E+01 0. -1.
</event>
<event>
 5   0  0.3682276E-07  0.3673529E+04  0.7818609E-02  0.8073854E-01
       -1   -1    0    0    0  501  0.00000000000E+00  0.00000000000E+00  0.17537620679E+04  0.17537620679E+04  0.50400001928E-02 0.  1.
        1   -1    0    0  501    0  0.00000000000E+00  0.00000000000E+00 -0.19236948271E+04  0.19236948271E+04  0.50400001928E-02 0. -1.
    10030    2    1    2    0    0  0.00000000000E+00  0.00000000000E+00 -0.16993275922E+03  0.36774568950E+04  0.36735285587E+04 0.  0.
        1    1    3    3  502    0 -0.47381770797E+03 -0.11214790935E+04 -0.14617495765E+04  0.19023486541E+04  0.50400001928E-02 0. -1.
       -1    1    3    3    0  502  0.47381770797E+03  0.11214790935E+04  0.12918168172E+04  0.17751082409E+04  0.50400001928E-02 0.  1.
</event>
<event>
 5   0  0.1128530E-06  0.3697515E+04  0.7818609E-02  0.8068513E-01
        2   -1    0    0  501    0  0.00000000000E+00  0.00000000000E+00  0.20717270991E+04  0.20717270991E+04  0.25500000920E-02 0.  1.
       -2   -1    0    0    0  501  0.00000000000E+00  0.00000000000E+00 -0.16497853782E+04  0.16497853782E+04  0.25500000920E-02 0. -1.
    10030    2    1    2    0    0  0.00000000000E+00  0.00000000000E+00  0.42194172097E+03  0.37215124773E+04  0.36975154229E+04 0.  0.
        5    1    3    3  502    0  0.11086454757E+04 -0.47066274763E+03 -0.12007241926E+04  0.17006995295E+04  0.46999998093E+01 0. -1.
       -5    1    3    3    0  502 -0.11086454757E+04  0.47066274763E+03  0.16226659136E+04  0.20208129478E+04  0.46999998093E+01 0.  1.
</event>
<event>
 5   0  0.3675819E-07  0.3700800E+04  0.7818609E-02  0.8067785E-01
        1   -1    0    0  501    0  0.00000000000E+00  0.00000000000E+00  0.19507039781E+04  0.19507039781E+04  0.50400001928E-02 0. -1.
       -1   -1    0    0    0  501  0.00000000000E+00  0.00000000000E+00 -0.17552537618E+04  0.17552537618E+04  0.50400001928E-02 0.  1.
    10030    2    1    2    0    0  0.00000000000E+00  0.00000000000E+00  0.19545021636E+03  0.37059577399E+04  0.37008001814E+04 0.  0.
        5    1    3    3  502    0 -0.13739351236E+04  0.33540520104E+03 -0.10971536340E+04  0.17899616083E+04  0.46999998093E+01 0.  1.
       -5    1    3    3    0  502  0.13739351236E+04 -0.33540520104E+03  0.12926038503E+04  0.19159961316E+04  0.46999998093E+01 0. -1.
</event>
<event>
 5   0  0.3704306E-07  0.3048203E+04  0.7818609E-02  0.8230099E-01
       -1   -1    0    0    0  501  0.00000000000E+00  0.00000000000E+00  0.12822412521E+04  0.12822412521E+04  0.50400001928E-02 0. -1.
        1   -1    0    0  501    0  0.00000000000E+00  0.00000000000E+00 -0.18115824782E+04  0.18115824782E+04  0.50400001928E-02 0.  1.
    10030    2    1    2    0    0  0.00000000000E+00  0.00000000000E+00 -0.52934122614E+03  0.30938237304E+04  0.30482032644E+04 0.  0.
        3    1    3    3  502    0 -0.32086995989E+02  0.15087288901E+04 -0.48139227725E+03  0.15839921003E+04  0.10100000352E+00 0.  1.
       -3    1    3    3    0  502  0.32086995989E+02 -0.15087288901E+04 -0.47948948889E+02  0.15098316300E+04  0.10100000352E+00 0. -1.
</event>
<event>
 5   0  0.1092116E-06  0.3711579E+04  0.7818609E-02  0.8065401E-01
       -2   -1    0    0    0  501  0.00000000000E+00  0.00000000000E+00  0.24420048219E+04  0.24420048219E+04  0.25500000920E-02 0. -1.
        2   -1    0    0  501    0  0.00000000000E+00  0.00000000000E+00 -0.14102980253E+04  0.14102980253E+04  0.25500000920E-02 0.  1.
    10030    2    1    2    0    0  0.00000000000E+00  0.00000000000E+00  0.10317067966E+04  0.38523028473E+04  0.37115789515E+04 0.  0.
        1    1    3    3  502    0 -0.94924809008E+02  0.99575566023E+03  0.21382622012E+04  0.23606578099E+04  0.50400001928E-02 0. -1.
       -1    1    3    3    0  502  0.94924809008E+02 -0.99575566023E+03 -0.11065554046E+04  0.14916450374E+04  0.50400001928E-02 0.  1.
</event>
<event>
 5   0  0.3704306E-07  0.2615075E+04  0.7818609E-02  0.8363099E-01
       -1   -1    0    0    0  501  0.00000000000E+00  0.00000000000E+00  0.76684350117E+03  0.76684350119E+03  0.50400001928E-02 0. -1.
        1   -1    0    0  501    0  0.00000000000E+00  0.00000000000E+00 -0.22294695767E+04  0.22294695767E+04  0.50400001928E-02 0.  1.
    10030    2    1    2    0    0  0.00000000000E+00  0.00000000000E+00 -0.14626260755E+04  0.29963130779E+04  0.26150749557E+04 0.  0.
        3    1    3    3  502    0  0.12797024619E+04  0.26552802706E+03 -0.68677867187E+03  0.14764174472E+04  0.10100000352E+00 0. -1.
       -3    1    3    3    0  502 -0.12797024619E+04 -0.26552802706E+03 -0.77584740368E+03  0.15198956307E+04  0.10100000352E+00 0.  1.
</event>
<event>
 5   0  0.1128166E-06  0.3770939E+04  0.7818609E-02  0.8052420E-01
        2   -1    0    0  501    0  0.00000000000E+00  0.00000000000E+00  0.11353739612E+04  0.11353739612E+04  0.25500000920E-02 0. -1.
       -2   -1    0    0    0  501  0.00000000000E+00  0.00000000000E+00 -0.31311222952E+04  0.31311222952E+04  0.25500000920E-02 0.  1.
    10030    2    1    2    0    0  0.00000000000E+00  0.00000000000E+00 -0.19957483339E+04  0.42664962564E+04  0.37709387284E+04 0.  0.
        3    1    3    3  502    0  0.10438317993E+04  0.23418833710E+02 -0.27741816648E+04  0.29641553917E+04  0.10100000352E+00 0.  1.
       -3    1    3    3    0  502 -0.10438317993E+04 -0.23418833710E+02  0.77843333086E+03  0.13023408647E+04  0.10100000352E+00 0. -1.
</event>
<event>
 5   0  0.3704306E-07  0.3267637E+04  0.7818609E-02  0.8171179E-01
        1   -1    0    0  501    0  0.00000000000E+00  0.00000000000E+00  0.12532707904E+04  0.12532707904E+04  0.50400001928E-02 0.  1.
       -1   -1    0    0    0  501  0.00000000000E+00  0.00000000000E+00 -0.21299171887E+04  0.21299171887E+04  0.50400001928E-02 0. -1.
    10030    2    1    2    0    0  0.00000000000E+00  0.00000000000E+00 -0.87664639827E+03  0.33831879791E+04  0.32676370658E+04 0.  0.
        3    1    3    3  502    0  0.78466208245E+03  0.13157164332E+04  0.14970300040E+03  0.15392255568E+04  0.10100000352E+00 0.  1.
       -3    1    3    3    0  502 -0.78466208245E+03 -0.13157164332E+04 -0.10263493987E+04  0.18439624222E+04  0.10100000352E+00 0. -1.
</event>
<event>
 5   0  0.3682276E-07  0.3766366E+04  0.7818609E-02  0.8053411E-01
       -1   -1    0    0    0  501  0.00000000000E+00  0.00000000000E+00  0.18544828634E+04  0.18544828634E+04  0.50400001928E-02 0. -1.
        1   -1    0    0  501    0  0.00000000000E+00  0.00000000000E+00 -0.19123270528E+04  0.19123270528E+04  0.50400001928E-02 0.  1.
    10030    2    1    2    0    0  0.00000000000E+00  0.00000000000E+00 -0.57844189350E+02  0.37668099162E+04  0.37663657542E+04 0.  0.
        1    1    3    3  502    0  0.11465094463E+04  0.14445310315E+04 -0.41004962092E+03  0.18892576593E+04  0.50400001928E-02 0. -1.
       -1    1    3    3    0  502 -0.11465094463E+04 -0.14445310315E+04  0.35220543157E+03  0.18775522569E+04  0.50400001928E-02 0.  1.
</event>
<event>
 5   0  0.1092116E-06  0.3707122E+04  0.7818609E-02  0.8066385E-01
       -2   -1    0    0    0  501  0.00000000000E+00  0.00000000000E+00  0.14086969861E+04  0.14086969861E+04  0.25500000920E-02 0. -1.
        2   -1    0    0  501    0  0.00000000000E+00  0.00000000000E+00 -0.24389125606E+04  0.24389125606E+04  0.25500000920E-02 0.  1.
    10030    2    1    2    0    0  0.00000000000E+00  0.00000000000E+00 -0.10302155744E+04  0.38476095467E+04  0.37071222119E+04 0.  0.
        1    1    3    3  502    0 -0.49236109308E+03 -0.12899651963E+04  0.76838853821E+03  0.15801425883E+04  0.50400001928E-02 0. -1.
       -1    1    3    3    0  502  0.49236109308E+03  0.12899651963E+04 -0.17986041126E+04  0.22674669584E+04  0.50400001928E-02 0.  1.
</event>
<event>
 5   0  0.3704306E-07  0.3820421E+04  0.7818609E-02  0.8041787E-01
        1   -1    0    0  501    0  0.00000000000E+00  0.00000000000E+00  0.18754294408E+04  0.18754294408E+04  0.50400001928E-02 0. -1.
       -1   -1    0    0    0  501  0.00000000000E+00  0.00000000000E+00 -0.19456362635E+04  0.19456362635E+04  0.50400001928E-02 0.  1.
    10030    2    1    2    0    0  0.00000000000E+00  0.00000000000E+00 -0.70206822704E+02  0.38210657043E+04  0.38204206730E+04 0.  0.
        3    1    3    3  502    0 -0.11585713141E+04 -0.13503113904E+04  0.66019392245E+03  0.18977577207E+04  0.10100000352E+00 0. -1.
       -3    1    3    3    0  502  0.11585713141E+04  0.13503113904E+04 -0.73040074515E+03  0.19233079836E+04  0.10100000352E+00 0.  1.
</event>
<event>
 5   0  0.3704306E-07  0.3692264E+04  0.7818609E-02  0.8069678E-01
        1   -1    0    0  501    0  0.00000000000E+00  0.00000000000E+00  0.16722867262E+04  0.16722867262E+04  0.50400001928E-02 0. -1.
       -1   -1    0    0    0  501  0.00000000000E+00  0.00000000000E+00 -0.20380491940E+04  0.20380491940E+04  0.50400001928E-02 0.  1.
    10030    2    1    2    0    0  0.00000000000E+00  0.00000000000E+00 -0.36576246780E+03  0.37103359201E+04  0.36922635953E+04 0.  0.
        3    1    3    3  502    0  0.94895593622E+03  0.17248023712E+03  0.13989697096E+04  0.16992301374E+04  0.10100000352E+00 0. -1.
       -3    1    3    3    0  502 -0.94895593622E+03 -0.17248023712E+03 -0.17647321774E+04  0.20111057827E+04  0.10100000352E+00 0.  1.
</event>
<event>
 5   0  0.1128166E-06  0.3025426E+04  0.7818609E-02  0.8236507E-01
       -2   -1    0    0    0  501  0.00000000000E+00  0.00000000000E+00  0.98245509718E+03  0.98245509718E+03  0.25500000920E-02 0.  1.
        2   -1    0    0  501    0  0.00000000000E+00  0.00000000000E+00 -0.23291657876E+04  0.23291657876E+04  0.25500000920E-02 0. -1.
    10030    2    1    2    0    0  0.00000000000E+00  0.00000000000E+00 -0.13467106904E+04  0.33116208848E+04  0.30254261189E+04 0.  0.
        3    1    3    3  502    0  0.91578581221E+01 -0.56536427264E+03  0.86243033242E+03  0.10312646196E+04  0.10100000352E+00 0.  1.
       -3    1    3    3    0  502 -0.91578581221E+01  0.56536427264E+03 -0.22091410229E+04  0.22803562652E+04  0.10100000352E+00 0. -1.
</event>
<event>
 5   0  0.1128530E-06  0.3664521E+04  0.7818609E-02  0.8075870E-01
        2   -1    0    0  501    0  0.00000000000E+00  0.00000000000E+00  0.21560653731E+04  0.21560653731E+04  0.25500000920E-02 0.  1.
       -2   -1    0    0    0  501  0.00000000000E+00  0.00000000000E+00 -0.15570853006E+04  0.15570853006E+04  0.25500000920E-02 0. -1.
    10030    2    1    2    0    0  0.00000000000E+00  0.00000000000E+00  0.59898007255E+03  0.37131506737E+04  0.36645205414E+04 0.  0.
        5    1    3    3  502    0 -0.16910493645E+04 -0.50185734216E+03  0.80169502748E+03  0.19375876115E+04  0.46999998093E+01 0. -1.
       -5    1    3    3    0  502  0.16910493645E+04  0.50185734216E+03 -0.20271495492E+03  0.17755630622E+04  0.46999998093E+01 0.  1.
</event>
<event>
 5   0  0.1051123E-06  0.2432636E+04  0.7818609E-02  0.8427385E-01
       -2   -1    0    0    0  501  0.00000000000E+00  0.00000000000E+00  0.14169729174E+04  0.14169729174E+04  0.25500000920E-02 0. -1.
        2   -1    0    0  501    0  0.00000000000E+00  0.00000000000E+00 -0.10440770355E+04  0.10440770355E+04  0.25500000920E-02 0.  1.
    10030    2    1    2    0    0  0.00000000000E+00  0.00000000000E+00  0.37289588182E+03  0.24610499529E+04  0.24326355115E+04 0.  0.
        2    1    3    3  502    0 -0.29250237612E+03 -0.98461438070E+03  0.84552170435E+03  0.13303871885E+04  0.25500000920E-02 0. -1.
       -2    1    3    3    0  502  0.29250237612E+03  0.98461438070E+03 -0.47262582253E+03  0.11306627644E+04  0.25500000920E-02 0.  1.
</event>
<event>
 5   0  0.1051123E-06  0.2892689E+04  0.7818609E-02  0.8275056E-01
        2   -1    0    0  501    0  0.00000000000E+00  0.00000000000E+00  0.15914404520E+04  0.15914404520E+04  0.25500000920E-02 0.  1.
       -2   -1    0    0    0  501  0.00000000000E+00  0.00000000000E+00 -0.13144776457E+04  0.13144776457E+04  0.25500000920E-02 0. -1.
    10030    2    1    2    0    0  0.00000000000E+00  0.00000000000E+00  0.27696280636E+03  0.29059180977E+04  0.28926893360E+04 0.  0.
        2    1    3    3  502    0  0.59294601856E+03 -0.35892582550E+02 -0.11862758803E+04  0.13266965450E+04  0.25500000920E-02 0. -1.
       -2    1    3    3    0  502 -0.59294601856E+03  0.35892582550E+02  0.14632386866E+04  0.15792215527E+04  0.25500000920E-02 0.  1.
</event>
<event>
 5   0  0.1128166E-06  0.3556299E+04  0.7818609E-02  0.8100576E-01
       -2   -1    0    0    0  501  0.00000000000E+00  0.00000000000E+00  0.16173305385E+04  0.16173305385E+04  0.25500000920E-02 0.  1.
        2   -1    0    0  501    0  0.00000000000E+00  0.00000000000E+00 -0.19549599190E+04  0.19549599190E+04  0.25500000920E-02 0. -1.
    10030    2    1    2    0    0  0.00000000000E+00  0.00000000000E+00 -0.33762938048E+03  0.35722904575E+04  0.35562994129E+04 0.  0.
        3    1    3    3  502    0  0.37664004017E+03 -0.13578627143E+04  0.92057442667E+03  0.16831833400E+04  0.10100000352E+00 0.  1.
       -3    1    3    3    0  502 -0.37664004017E+03  0.13578627143E+04 -0.12582038072E+04  0.18891071175E+04  0.10100000352E+00 0. -1.
</event>
<event>
 5   0  0.3848431E-07  0.3722123E+04  0.7818609E-02  0.8063077E-01
       -1   -1    0    0    0  501  0.00000000000E+00  0.00000000000E+00  0.24017305490E+04  0.24017305490E+04  0.50400001928E-02 0. -1.
        1   -1    0    0  501    0  0.00000000000E+00  0.00000000000E+00 -0.14421061274E+04  0.14421061274E+04  0.50400001928E-02 0.  1.
    10030    2    1    2    0    0  0.00000000000E+00  0.00000000000E+00  0.95962442162E+03  0.38438366764E+04  0.37221232333E+04 0.  0.
        2    1    3    3  502    0 -0.16017351361E+04 -0.88579381064E+03  0.13210621442E+03  0.18351125778E+04  0.25500000920E-02 0.  1.
       -2    1    3    3    0  502  0.16017351361E+04  0.88579381064E+03  0.82751820720E+03  0.20087240986E+04  0.25500000920E-02 0. -1.
</event>
<event>
 5   0  0.1092116E-06  0.3229073E+04  0.7818609E-02  0.8181181E-01
       -2   -1    0    0    0  501  0.00000000000E+00  0.00000000000E+00  0.99282968498E+03  0.99282968498E+03  0.25500000920E-02 0. -1.
        2   -1    0    0  501    0  0.00000000000E+00  0.00000000000E+00 -0.26255538466E+04  0.26255538466E+04  0.25500000920E-02 0.  1.
    10030    2    1    2    0    0  0.00000000000E+00  0.00000000000E+00 -0.16327241616E+04  0.36183835316E+04  0.32290728071E+04 0.  0.
        1    1    3    3  502    0 -0.83297153812E+03 -0.75692375088E+03 -0.21134860567E+04  0.23944933618E+04  0.50400001928E-02 0.  1.
       -1    1    3    3    0  502  0.83297153812E+03  0.75692375088E+03  0.48076189503E+03  0.12238901698E+04  0.50400001928E-02 0. -1.
</event>
<event>
 5   0  0.3704306E-07  0.2580849E+04  0.7818609E-02  0.8374736E-01
        1   -1    0    0  501    0  0.00000000000E+00  0.00000000000E+00  0.58807784071E+03  0.58807784073E+03  0.50400001928E-02 0.  1.
       -1   -1    0    0    0  501  0.00000000000E+00  0.00000000000E+00 -0.28315905356E+04  0.28315905356E+04  0.50400001928E-02 0. -1.
    10030    2    1    2    0    0  0.00000000000E+00  0.00000000000E+00 -0.22435126949E+04  0.34196683763E+04  0.25808491998E+04 0.  0.
        3    1    3    3  502    0 -0.31577047049E+03  0.11749565381E+01 -0.27796076619E+04  0.27974865746E+04  0.10100000352E+00 0. -1.
       -3    1    3    3    0  502  0.31577047049E+03 -0.11749565381E+01  0.53609496703E+03  0.62218180175E+03  0.10100000352E+00 0.  1.
</event>
<event>
 5   0  0.3704306E-07  0.3017635E+04  0.7818609E-02  0.8238713E-01
       -1   -1    0    0    0  501  0.00000000000E+00  0.00000000000E+00  0.10894087345E+04  0.10894087345E+04  0.50400001928E-02 0. -1.
        1   -1    0    0  501    0  0.00000000000E+00  0.00000000000E+00 -0.20896931617E+04  0.20896931617E+04  0.50400001928E-02 0.  1.
    10030    2    1    2    0    0  0.00000000000E+00  0.00000000000E+00 -0.10002844272E+04  0.31791018962E+04  0.30176348240E+04 0.  0.
        3    1    3    3  502    0  0.13579723405E+04 -0.28594546877E+03  0.12372327694E+03  0.13932555932E+04  0.10100000352E+00 0. -1.
       -3    1    3    3    0  502 -0.13579723405E+04  0.28594546877E+03 -0.11240077042E+04  0.17858463030E+04  0.10100000352E+00 0.  1.
</event>
<event>
 5   0  0.3764495E-07  0.3062430E+04  0.7818609E-02  0.8226125E-01
       -1   -1    0    0    0  501  0.00000000000E+00  0.00000000000E+00  0.11410640163E+04  0.11410640164E+04  0.50400001928E-02 0.  1.
        1   -1    0    0  501    0  0.00000000000E+00  0.00000000000E+00 -0.20547660860E+04  0.20547660860E+04  0.50400001928E-02 0. -1.
    10030    2    1    2    0    0  0.00000000000E+00  0.00000000000E+00 -0.91370206966E+03  0.31958301024E+04  0.30624301741E+04 0.  0.
        4    1    3    3  502    0  0.57810860550E+03  0.98041900779E+03  0.61206587254E+03  0.12923069433E+04  0.12699999809E+01 0.  1.
       -4    1    3    3    0  502 -0.57810860550E+03 -0.98041900779E+03 -0.15257679422E+04  0.19035231590E+04  0.12699999809E+01 0. -1.
</event>
<event>
 5   0  0.1066907E-06  0.3701217E+04  0.7818609E-02  0.8067692E-01
       -2   -1    0    0    0  501  0.00000000000E+00  0.00000000000E+00  0.21633725522E+04  0.21633725522E+04  0.25500000920E-02 0.  1.
        2   -1    0    0  501    0  0.00000000000E+00  0.00000000000E+00 -0.15830611973E+04  0.15830611973E+04  0.25500000920E-02 0. -1.
    10030    2    1    2    0    0  0.00000000000E+00  0.00000000000E+00  0.58031135484E+03  0.37464337495E+04  0.37012166339E+04 0.  0.
        4    1    3    3  502    0 -0.65134169075E+03 -0.13652021196E+04  0.13693547990E+04  0.20403815829E+04  0.12699999809E+01 0.  1.
       -4    1    3    3    0  502  0.65134169075E+03  0.13652021196E+04 -0.78904344415E+03  0.17060521666E+04  0.12699999809E+01 0. -1.
</event>
<event>
 5   0  0.3704306E-07  0.3702867E+04  0.7818609E-02  0.8067327E-01
       -1   -1    0    0    0  501  0.00000000000E+00  0.00000000000E+00  0.13046656017E+04  0.13046656017E+04  0.50400001928E-02 0. -1.
        1   -1    0    0  501    0  0.00000000000E+00  0.00000000000E+00 -0.26273451653E+04  0.26273451653E+04  0.50400001928E-02 0.  1.
    10030    2    1    2    0    0  0.00000000000E+00  0.00000000000E+00 -0.13226795636E+04  0.39320107670E+04  0.37028674624E+04 0.  0.
        3    1    3    3  502    0 -0.26224882151E+03  0.11151757815E+04 -0.22057915844E+04  0.24855397789E+04  0.10100000352E+00 0.  1.
       -3    1    3    3    0  502  0.26224882151E+03 -0.11151757815E+04  0.88311202087E+03  0.14464709882E+04  0.10100000352E+00 0. -1.
</event>
<event>
 5   0  0.1128530E-06  0.3531884E+04  0.7818609E-02  0.8106275E-01
        2   -1    0    0  501    0  0.00000000000E+00  0.00000000000E+00  0.20849016499E+04  0.20849016499E+04  0.25500000920E-02 0.  1.
       -2   -1    0    0    0  501  0.00000000000E+00  0.00000000000E+00 -0.14957782605E+04  0.14957782605E+04  0.25500000920E-02 0. -1.
    10030    2    1    2    0    0  0.00000000000E+00  0.00000000000E+00  0.58912338939E+03  0.35806799105E+04  0.35318836693E+04 0.  0.
        5    1    3    3  502    0  0.78058403027E+03 -0.10129768017E+03  0.18972106268E+04  0.20540211539E+04  0.46999998093E+01 0.  1.
       -5    1    3    3    0  502 -0.78058403027E+03  0.10129768017E+03 -0.13080872374E+04  0.15266587566E+04  0.46999998093E+01 0. -1.
</event>
<event>
 5   0  0.3704306E-07  0.3592482E+04  0.7818609E-02  0.8092216E-01
        1   -1    0    0  501    0  0.00000000000E+00  0.00000000000E+00  0.17782565238E+04  0.17782565238E+04  0.50400001928E-02 0.  1.
       -1   -1    0    0    0  501  0.00000000000E+00  0.00000000000E+00 -0.18144075881E+04  0.18144075881E+04  0.50400001928E-02 0. -1.
    10030    2    1    2    0    0  0.00000000000E+00  0.00000000000E+00 -0.36151064256E+02  0.35926641119E+04  0.35924822228E+04 0.  0.
        3    1    3    3  502    0  0.10454537762E+04 -0.15092170461E+03 -0.14709846487E+04  0.18109519061E+04  0.10100000352E+00 0. -1.
       -3    1    3    3    0  502 -0.10454537762E+04  0.15092170461E+03  0.14348335845E+04  0.17817122058E+04  0.10100000352E+00 0.  1.
</event>
<event>
 5   0  0.1092116E-06  0.3767713E+04  0.7818609E-02  0.8053119E-01
       -2   -1    0    0    0  501  0.00000000000E+00  0.00000000000E+00  0.16527879939E+04  0.16527879939E+04  0.25500000920E-02 0.  1.
        2   -1    0    0  501    0  0.00000000000E+00  0.00000000000E+00 -0.21472292631E+04  0.21472292631E+04  0.25500000920E-02 0. -1.
    10030    2    1    2    0    0  0.00000000000E+00  0.00000000000E+00 -0.49444126923E+03  0.38000172569E+04  0.37677126993E+04 0.  0.
        1    1    3    3  502    0 -0.17742106242E+03 -0.46657560140E+03  0.15848739687E+04  0.16616246634E+04  0.50400001928E-02 0.  1.
       -1    1    3    3    0  502  0.17742106242E+03  0.46657560140E+03 -0.20793152380E+04  0.21383925935E+04  0.50400001928E-02 0. -1.
</event>
<event>
 5   0  0.3704306E-07  0.3740246E+04  0.7818609E-02  0.8059101E-01
        1   -1    0    0  501    0  0.00000000000E+00  0.00000000000E+00  0.11967435770E+04  0.11967435770E+04  0.50400001928E-02 0.  1.
       -1   -1    0    0    0  501  0.00000000000E+00  0.00000000000E+00 -0.29223968198E+04  0.29223968198E+04  0.50400001928E-02 0. -1.
    10030    2    1    2    0    0  0.00000000000E+00  0.00000000000E+00 -0.17256532428E+04  0.41191403968E+04  0.37402457799E+04 0.  0.
        3    1    3    3  502    0 -0.12186158935E+04  0.13089148025E+04 -0.26054733131E+03  0.18072541543E+04  0.10100000352E+00 0. -1.
       -3    1    3    3    0  502  0.12186158935E+04 -0.13089148025E+04 -0.14651059114E+04  0.23118862425E+04  0.10100000352E+00 0.  1.
</event>
<event>
 5   0  0.1128530E-06  0.3643859E+04  0.7818609E-02  0.8080518E-01
        2   -1    0    0  501    0  0.00000000000E+00  0.00000000000E+00  0.28138155220E+04  0.28138155220E+04  0.25500000920E-02 0.  1.
       -2   -1    0    0    0  501  0.00000000000E+00  0.00000000000E+00 -0.11796890041E+04  0.11796890041E+04  0.25500000920E-02 0. -1.
    10030    2    1    2    0    0  0.00000000000E+00  0.00000000000E+00  0.16341265179E+04  0.39935045261E+04  0.36438590701E+04 0.  0.
        5    1    3    3  502    0 -0.94889351880E+03  0.57545281742E+03  0.24006553564E+04  0.26447519894E+04  0.46999998093E+01 0.  1.
       -5    1    3    3    0  502  0.94889351880E+03 -0.57545281742E+03 -0.76652883844E+03  0.13487525367E+04  0.46999998093E+01 0. -1.
</event>
<event>
 5   0  0.1128166E-06  0.3656077E+04  0.7818609E-02  0.8077766E-01
       -2   -1    0    0    0  501  0.00000000000E+00  0.00000000000E+00  0.13579190161E+04  0.13579190161E+04  0.25500000920E-02 0. -1.
        2   -1    0    0  501    0  0.00000000000E+00  0.00000000000E+00 -0.24609163832E+04  0.24609163832E+04  0.25500000920E-02 0.  1.
    10030    2    1    2    0    0  0.00000000000E+00  0.00000000000E+00 -0.11029973672E+04  0.38188353993E+04  0.36560772168E+04 0.  0.
        3    1    3    3  502    0 -0.54872305402E+02  0.12308142828E+04 -0.19621036908E+04  0.23168439033E+04  0.10100000352E+00 0.  1.
       -3    1    3    3    0  502  0.54872305402E+02 -0.12308142828E+04  0.85910632360E+03  0.15019914960E+04  0.10100000352E+00 0. -1.
</event>
<event>
 5   0  0.1128166E-06  0.3601648E+04  0.7818609E-02  0.8090114E-01
       -2   -1    0    0    0  501  0.00000000000E+00  0.00000000000E+00  0.35147433820E+04  0.35147433820E+04  0.25500000920E-02 0. -1.
        2   -1    0    0  501    0  0.00000000000E+00  0.00000000000E+00 -0.92267550671E+03  0.92267550671E+03  0.25500000920E-02 0.  1.
    10030    2    1    2    0    0  0.00000000000E+00  0.00000000000E+00  0.25920678752E+04  0.44374188887E+04  0.36016483065E+04 0.  0.
        3    1    3    3  502    0 -0.26380731918E+03 -0.59812941694E+03  0.33633921002E+04  0.34263332487E+04  0.10100000352E+00 0. -1.
       -3    1    3    3    0  502  0.26380731918E+03  0.59812941694E+03 -0.77132422500E+03  0.10110856400E+04  0.10100000352E+00 0.  1.
</event>
<event>
 5   0  0.3682276E-07  0.3746360E+04  0.7818609E-02  0.8057765E-01
        1   -1    0    0  501    0  0.00000000000E+00  0.00000000000E+00  0.17900345655E+04  0.17900345655E+04  0.50400001928E-02 0.  1.
       -1   -1    0    0    0  501  0.00000000000E+00  0.00000000000E+00 -0.19601869481E+04  0.19601869481E+04  0.50400001928E-02 0. -1.
    10030    2    1    2    0    0  0.00000000000E+00  0.00000000000E+00 -0.17015238265E+03  0.37502215136E+04  0.37463595086E+04 0.  0.
        1    1    3    3  502    0  0.14123481158E+04 -0.11824497737E+04  0.25569760133E+03  0.18596494107E+04  0.50400001928E-02 0. -1.
       -1    1    3    3    0  502 -0.14123481158E+04  0.11824497737E+04 -0.42584998399E+03  0.18905721029E+04  0.50400001928E-02 0.  1.
</event>
<event>
 5   0  0.3764495E-07  0.3692073E+04  0.7818609E-02  0.8069721E-01
       -1   -1    0    0    0  501  0.00000000000E+00  0.00000000000E+00  0.11687206120E+04  0.11687206120E+04  0.50400001928E-02 0.  1.
        1   -1    0    0  501    0  0.00000000000E+00  0.00000000000E+00 -0.29158814816E+04  0.29158814816E+04  0.50400001928E-02 0. -1.
    10030    2    1    2    0    0  0.00000000000E+00  0.00000000000E+00 -0.17471608696E+04  0.40846020935E+04  0.36920730164E+04 0.  0.
        4    1    3    3  502    0 -0.59897275132E+03 -0.63558228325E+03 -0.26728732014E+04  0.28119363363E+04  0.12699999809E+01 0. -1.
       -4    1    3    3    0  502  0.59897275132E+03  0.63558228325E+03  0.92571233180E+03  0.12726657573E+04  0.12699999809E+01 0.  1.
</event>
<event>
 5   0  0.3682276E-07  0.3469198E+04  0.7818609E-02  0.8121129E-01
       -1   -1    0    0    0  501  0.00000000000E+00  0.00000000000E+00  0.11042603001E+04  0.11042603001E+04  0.50400001928E-02 0. -1.
        1   -1    0    0  501    0  0.00000000000E+00  0.00000000000E+00 -0.27247501798E+04  0.27247501798E+04  0.50400001928E-02 0.  1.
    10030    2    1    2    0    0  0.00000000000E+00  0.00000000000E+00 -0.16204898797E+04  0.38290104799E+04  0.34691978619E+04 0.  0.
        1    1    3    3  502    0 -0.35439915884E+03  0.15848454283E+04 -0.14829685853E+04  0.21992111359E+04  0.50400001928E-02 0.  1.
       -1    1    3    3    0  502  0.35439915884E+03 -0.15848454283E+04 -0.13752129441E+03  0.16297993440E+04  0.50400001928E-02 0. -1.
</event>
<event>
 5   0  0.3675819E-07  0.3793163E+04  0.7818609E-02  0.8047624E-01
        1   -1    0    0  501    0  0.00000000000E+00  0.00000000000E+00  0.14115857328E+04  0.14115857328E+04  0.50400001928E-02 0.  1.
       -1   -1    0    0    0  501  0.00000000000E+00  0.00000000000E+00 -0.25482129497E+04  0.25482129497E+04  0.50400001928E-02 0. -1.
    10030    2    1    2    0    0  0.00000000000E+00  0.00000000000E+00 -0.11366272169E+04  0.39597986824E+04  0.37931628195E+04 0.  0.
        5    1    3    3  502    0  0.16645868108E+04 -0.52854533622E+03  0.20362314169E+03  0.17583213292E+04  0.46999998093E+01 0.  1.
       -5    1    3    3    0  502 -0.16645868108E+04  0.52854533622E+03 -0.13402503586E+04  0.22014773532E+04  0.46999998093E+01 0. -1.
</event>
<event>
 5   0  0.3764495E-07  0.3370492E+04  0.7818609E-02  0.8145187E-01
       -1   -1    0    0    0  501  0.00000000000E+00  0.00000000000E+00  0.14652608248E+04  0.14652608248E+04  0.50400001928E-02 0.  1.
        1   -1    0    0  501    0  0.00000000000E+00  0.00000000000E+00 -0.19382580886E+04  0.19382580886E+04  0.50400001928E-02 0. -1.
    10030    2    1    2    0    0  0.00000000000E+00  0.00000000000E+00 -0.47299726377E+03  0.34035189134E+04  0.33704917419E+04 0.  0.
        4    1    3    3  502    0 -0.61859370988E+03  0.96237019546E+03 -0.14860559252E+04  0.18754141933E+04  0.12699999809E+01 0. -1.
       -4    1    3    3    0  502  0.61859370988E+03 -0.96237019546E+03  0.10130586614E+04  0.15281047200E+04  0.12699999809E+01 0.  1.
</event>
<event>
 5   0  0.3848431E-07  0.3670277E+04  0.7818609E-02  0.8074581E-01
        1   -1    0    0  501    0  0.00000000000E+00  0.00000000000E+00  0.22881544247E+04  0.22881544247E+04  0.50400001928E-02 0. -1.
       -1   -1    0    0    0  501  0.00000000000E+00  0.00000000000E+00 -0.14718117084E+04  0.14718117084E+04  0.50400001928E-02 0.  1.
    10030    2    1    2    0    0  0.00000000000E+00  0.00000000000E+00  0.81634271625E+03  0.37599661331E+04  0.36702765416E+04 0.  0.
        2    1    3    3  502    0  0.44859423312E+03  0.17258183029E+04 -0.36069196241E+02  0.17835320540E+04  0.25500000920E-02 0.  1.
       -2    1    3    3    0  502 -0.44859423312E+03 -0.17258183029E+04  0.85241191249E+03  0.19764340792E+04  0.25500000920E-02 0. -1.
</event>
<event>
 5   0  0.1051123E-06  0.3811356E+04  0.7818609E-02  0.8043722E-01
       -2   -1    0    0    0  501  0.00000000000E+00  0.00000000000E+00  0.15128010905E+04  0.15128010905E+04  0.25500000920E-02 0.  1.
        2   -1    0    0  501    0  0.00000000000E+00  0.00000000000E+00 -0.24005862398E+04  0.24005862398E+04  0.25500000920E-02 0. -1.
    10030    2    1    2    0    0  0.00000000000E+00  0.00000000000E+00 -0.88778514930E+03  0.39133873302E+04  0.38113564416E+04 0.  0.
        2    1    3    3  502    0 -0.12575478677E+04 -0.53439514872E+02  0.10252599360E+04  0.16234039417E+04  0.25500000920E-02 0.  1.
       -2    1    3    3    0  502  0.12575478677E+04  0.53439514872E+02 -0.19130450853E+04  0.22899833886E+04  0.25500000920E-02 0. -1.
</event>
<event>
 5   0  0.3675819E-07  0.3666244E+04  0.7818609E-02  0.8075484E-01
       -1   -1    0    0    0  501  0.00000000000E+00  0.00000000000E+00  0.14059238090E+04  0.14059238090E+04  0.50400001928E-02 0. -1.
        1   -1    0    0  501    0  0.00000000000E+00  0.00000000000E+00 -0.23901272685E+04  0.23901272685E+04  0.50400001928E-02 0.  1.
    10030    2    1    2    0    0  0.00000000000E+00  0.00000000000E+00 -0.98420345947E+03  0.37960510775E+04  0.36662443091E+04 0.  0.
        5    1    3    3  502    0  0.12572696910E+04  0.10825374310E+04 -0.12992538628E+04  0.21072961480E+04  0.46999998093E+01 0. -1.
       -5    1    3    3    0  502 -0.12572696910E+04 -0.10825374310E+04  0.31505040334E+03  0.16887549295E+04  0.46999998093E+01 0.  1.
</event>
<event>
 5   0  0.3704306E-07  0.3715645E+04  0.7818609E-02  0.8064504E-01
       -1   -1    0    0    0  501  0.00000000000E+00  0.00000000000E+00  0.16356202707E+04  0.16356202707E+04  0.50400001928E-02 0. -1.
        1   -1    0    0  501    0  0.00000000000E+00  0.00000000000E+00 -0.21102108516E+04  0.21102108516E+04  0.50400001928E-02 0.  1.
    10030    2    1    2    0    0  0.00000000000E+00  0.00000000000E+00 -0.47459058087E+03  0.37458311223E+04  0.37156445709E+04 0.  0.
        3    1    3    3  502    0 -0.71831140130E+03  0.16033201178E+04 -0.84626985735E+03  0.19500716272E+04  0.10100000352E+00 0.  1.
       -3    1    3    3    0  502  0.71831140130E+03 -0.16033201178E+04  0.37167927649E+03  0.17957594951E+04  0.10100000352E+00 0. -1.
</event>
<event>
 5   0  0.1051123E-06  0.3721419E+04  0.7818609E-02  0.8063232E-01
        2   -1    0    0  501    0  0.00000000000E+00  0.00000000000E+00  0.18651909134E+04  0.18651909134E+04  0.25500000920E-02 0.  1.
       -2   -1    0    0    0  501  0.00000000000E+00  0.00000000000E+00 -0.18562386977E+04  0.18562386977E+04  0.25500000920E-02 0. -1.
    10030    2    1    2    0    0  0.00000000000E+00  0.00000000000E+00  0.89522157129E+01  0.37214296110E+04  0.37214188434E+04 0.  0.
        2    1    3    3  502    0 -0.17862025800E+04 -0.23489928999E+03 -0.46086620899E+03  0.18595953850E+04  0.25500000920E-02 0.  1.
       -2    1    3    3    0  502  0.17862025800E+04  0.23489928999E+03  0.46981842471E+03  0.18618342261E+04  0.25500000920E-02 0. -1.
</event>
<event>
 5   0  0.3848431E-07  0.4012235E+04  0.7818609E-02  0.8002083E-01
       -1   -1    0    0    0  501  0.00000000000E+00  0.00000000000E+00  0.34488301524E+04  0.34488301524E+04  0.50400001928E-02 0.  1.
        1   -1    0    0  501    0  0.00000000000E+00  0.00000000000E+00 -0.11669198614E+04  0.11669198614E+04  0.50400001928E-02 0. -1.
    10030    2    1    2    0    0  0.00000000000E+00  0.00000000000E+00  0.22819102910E+04  0.46157500138E+04  0.40122354883E+04 0.  0.
        2    1    3    3  502    0 -0.16407564660E+04 -0.17777392599E+03 -0.17113893839E+03  0.16592088132E+04  0.25500000920E-02 0.  1.
       -2    1    3    3    0  502  0.16407564660E+04  0.17777392599E+03  0.24530492293E+04  0.29565412006E+04  0.25500000920E-02 0. -1.
</event>
<event>
 5   0  0.3675819E-07  0.3124889E+04  0.7818609E-02  0.8208940E-01
        1   -1    0    0  501    0  0.00000000000E+00  0.00000000000E+00  0.22404476413E+04  0.22404476413E+04  0.50400001928E-02 0. -1.
       -1   -1    0    0    0  501  0.00000000000E+00  0.00000000000E+00 -0.10896183780E+04  0.10896183780E+04  0.50400001928E-02 0.  1.
    10030    2    1    2    0    0  0.00000000000E+00  0.00000000000E+00  0.11508292632E+04  0.33300660193E+04  0.31248890700E+04 0.  0.
        5    1    3    3  502    0 -0.10981406729E+03  0.94419878502E+03 -0.74601981458E+03  0.12083617541E+04  0.46999998093E+01 0.  1.
       -5    1    3    3    0  502  0.10981406729E+03 -0.94419878502E+03  0.18968490778E+04  0.21217042652E+04  0.46999998093E+01 0. -1.
</event>
<event>
 5   0  0.1092116E-06  0.3361287E+04  0.7818609E-02  0.8147474E-01
       -2   -1    0    0    0  501  0.00000000000E+00  0.00000000000E+00  0.17314145372E+04  0.17314145372E+04  0.25500000920E-02 0.  1.
        2   -1    0    0  501    0  0.00000000000E+00  0.00000000000E+00 -0.16313610680E+04  0.16313610680E+04  0.25500000920E-02 0. -1.
    10030    2    1    2    0    0  0.00000000000E+00  0.00000000000E+00  0.10005346925E+03  0.33627756052E+04  0.33612868182E+04 0.  0.
        1    1    3    3  502    0 -0.15171490452E+04 -0.25552722669E+03  0.72673366275E+03  0.17015220262E+04  0.50400001928E-02 0. -1.
       -1    1    3    3    0  502  0.15171490452E+04  0.25552722669E+03 -0.62668019350E+03  0.16612535790E+04  0.50400001928E-02 0.  1.
</event>
<event>
 5   0  0.1051123E-06  0.3619276E+04  0.7818609E-02  0.8086091E-01
       -2   -1    0    0    0  501  0.00000000000E+00  0.00000000000E+00  0.15662817531E+04  0.15662817531E+04  0.25500000920E-02 0.  1.
        2   -1    0    0  501    0  0.00000000000E+00  0.00000000000E+00 -0.20908050462E+04  0.20908050462E+04  0.25500000920E-02 0. -1.
    10030    2    1    2    0    0  0.00000000000E+00  0.00000000000E+00 -0.52452329316E+03  0.36570867993E+04  0.36192760564E+04 0.  0.
        2    1    3    3  502    0  0.63343895109E+03 -0.15858366559E+04 -0.86740638579E+03  0.19153372137E+04  0.25500000920E-02 0.  1.
       -2    1    3    3    0  502 -0.63343895109E+03  0.15858366559E+04  0.34288309262E+03  0.17417495857E+04  0.25500000920E-02 0. -1.
</event>
<event>
 5   0  0.1066907E-06  0.3787874E+04  0.7818609E-02  0.8048762E-01
        2   -1    0    0  501    0  0.00000000000E+00  0.00000000000E+00  0.22382911592E+04  0.22382911592E+04  0.25500000920E-02 0. -1.
       -2   -1    0    0    0  501  0.00000000000E+00  0.00000000000E+00 -0.16025605219E+04  0.16025605219E+04  0.25500000920E-02 0.  1.
    10030    2    1    2    0    0  0.00000000000E+00  0.00000000000E+00  0.63573063729E+03  0.38408516810E+04  0.37878738353E+04 0.  0.
        4    1    3    3  502    0 -0.61061442814E+03  0.16254347001E+04  0.10848220237E+04  0.20473710900E+04  0.12699999809E+01 0. -1.
       -4    1    3    3    0  502  0.61061442814E+03 -0.16254347001E+04 -0.44909138637E+03  0.17934805910E+04  0.12699999809E+01 0.  1.
</event>
<event>
 5   0  0.1128530E-06  0.3731683E+04  0.7818609E-02  0.8060977E-01
       -2   -1    0    0    0  501  0.00000000000E+00  0.00000000000E+00  0.27201271424E+04  0.27201271424E+04  0.25500000920E-02 0. -1.
        2   -1    0    0  501    0  0.00000000000E+00  0.00000000000E+00 -0.12798536789E+04  0.12798536789E+04  0.25500000920E-02 0.  1.
    10030    2    1    2    0    0  0.00000000000E+00  0.00000000000E+00  0.14402734635E+04  0.39999808212E+04  0.37316831217E+04 0.  0.
        5    1    3    3  502    0 -0.64519773546E+03  0.46744480879E+03  0.25286144391E+04  0.26511691456E+04  0.46999998093E+01 0. -1.
       -5    1    3    3    0  502  0.64519773546E+03 -0.46744480879E+03 -0.10883409756E+04  0.13488116756E+04  0.46999998093E+01 0.  1.
</event>
<event>
 5   0  0.1066907E-06  0.3715091E+04  0.7818609E-02  0.8064626E-01
       -2   -1    0    0    0  501  0.00000000000E+00  0.00000000000E+00  0.15679035414E+04  0.15679035414E+04  0.25500000920E-02 0.  1.
        2   -1    0    0  501    0  0.00000000000E+00  0.00000000000E+00 -0.22006940428E+04  0.22006940428E+04  0.25500000920E-02 0. -1.
    10030    2    1    2    0    0  0.00000000000E+00  0.00000000000E+00 -0.63279050142E+03  0.37685975842E+04  0.37150913761E+04 0.  0.
        4    1    3    3  502    0 -0.50675508898E+03 -0.60030386297E+03 -0.20238815589E+04  0.21710052109E+04  0.12699999809E+01 0. -1.
       -4    1    3    3    0  502  0.50675508898E+03  0.60030386297E+03  0.13910910575E+04  0.15975923733E+04  0.12699999809E+01 0.  1.
</event>
<event>
 5   0  0.1092116E-06  0.3762195E+04  0.7818609E-02  0.8054317E-01
        2   -1    0    0  501    0  0.00000000000E+00  0.00000000000E+00  0.18035649241E+04  0.18035649241E+04  0.25500000920E-02 0. -1.
       -2   -1    0    0    0  501  0.00000000000E+00  0.00000000000E+00 -0.19619630205E+04  0.19619630205E+04  0.25500000920E-02 0.  1.
    10030    2    1    2    0    0  0.00000000000E+00  0.00000000000E+00 -0.15839809640E+03  0.37655279446E+04  0.37621949371E+04 0.  0.
        1    1    3    3  502    0  0.11173826393E+04 -0.54155217081E+03  0.13351009138E+04  0.18232710074E+04  0.50400001928E-02 0. -1.
       -1    1    3    3    0  502 -0.11173826393E+04  0.54155217081E+03 -0.14934990103E+04  0.19422569372E+04  0.50400001928E-02 0.  1.
</event>
<event>
 5   0  0.3764495E-07  0.3544371E+04  0.7818609E-02  0.8103354E-01
        1   -1    0    0  501    0  0.00000000000E+00  0.00000000000E+00  0.11781745161E+04  0.11781745161E+04  0.50400001928E-02 0. -1.
       -1   -1    0    0    0  501  0.00000000000E+00  0.00000000000E+00 -0.26656838471E+04  0.26656838471E+04  0.50400001928E-02 0.  1.
    10030    2    1    2    0    0  0.00000000000E+00  0.00000000000E+00 -0.14875093310E+04  0.38438583633E+04  0.35443706221E+04 0.  0.
        4    1    3    3  502    0 -0.99867713552E+03 -0.11070984608E+04  0.29510951076E+03  0.15199060034E+04  0.12699999809E+01 0. -1.
       -4    1    3    3    0  502  0.99867713552E+03  0.11070984608E+04 -0.17826188418E+04  0.23239523599E+04  0.12699999809E+01 0.  1.
</event>
<event>
 5   0  0.1051123E-06  0.3621406E+04  0.7818609E-02  0.8085606E-01
       -2   -1    0    0    0  501  0.00000000000E+00  0.00000000000E+00  0.14546120580E+04  0.14546120580E+04  0.25500000920E-02 0. -1.
        2   -1    0    0  501    0  0.00000000000E+00  0.00000000000E+00 -0.22539651446E+04  0.22539651446E+04  0.25500000920E-02 0.  1.
    10030    2    1    2    0    0  0.00000000000E+00  0.00000000000E+00 -0.79935308653E+03  0.37085772026E+04  0.36214057368E+04 0.  0.
        2    1    3    3  502    0 -0.33104282062E+03  0.13007461912E+04  0.84494488787E+03  0.15860207648E+04  0.25500000920E-02 0. -1.
       -2    1    3    3    0  502  0.33104282062E+03 -0.13007461912E+04 -0.16442979744E+04  0.21225564378E+04  0.25500000920E-02 0.  1.
</event>
<event>
 5   0  0.1128166E-06  0.3628503E+04  0.7818609E-02  0.8083994E-01
       -2   -1    0    0    0  501  0.00000000000E+00  0.00000000000E+00  0.22970864082E+04  0.22970864082E+04  0.25500000920E-02 0. -1.
        2   -1    0    0  501    0  0.00000000000E+00  0.00000000000E+00 -0.14329058813E+04  0.14329058813E+04  0.25500000920E-02 0.  1.
    10030    2    1    2    0    0  0.00000000000E+00  0.00000000000E+00  0.86418052687E+03  0.37299922895E+04  0.36285030655E+04 0.  0.
        3    1    3    3  502    0  0.10343599939E+04 -0.31829004436E+03 -0.10647623556E+04  0.15181989439E+04  0.10100000352E+00 0.  1.
       -3    1    3    3    0  502 -0.10343599939E+04  0.31829004436E+03  0.19289428824E+04  0.22117933455E+04  0.10100000352E+00 0. -1.
</event>
<event>
 5   0  0.1128530E-06  0.3709231E+04  0.7818609E-02  0.8065919E-01
       -2   -1    0    0    0  501  0.00000000000E+00  0.00000000000E+00  0.19386826982E+04  0.19386826982E+04  0.25500000920E-02 0. -1.
        2   -1    0    0  501    0  0.00000000000E+00  0.00000000000E+00 -0.17741932502E+04  0.17741932502E+04  0.25500000920E-02 0.  1.
    10030    2    1    2    0    0  0.00000000000E+00  0.00000000000E+00  0.16448944800E+03  0.37128759483E+04  0.37092305171E+04 0.  0.
        5    1    3    3  502    0  0.90797748305E+03 -0.13397735260E+04  0.98876132839E+03  0.18965988677E+04  0.46999998093E+01 0. -1.
       -5    1    3    3    0  502 -0.90797748305E+03  0.13397735260E+04 -0.82427188039E+03  0.18162770806E+04  0.46999998093E+01 0.  1.
</event>
<event>
 5   0  0.1092116E-06  0.2925024E+04  0.7818609E-02  0.8265471E-01
        2   -1    0    0  501    0  0.00000000000E+00  0.00000000000E+00  0.17956441040E+04  0.17956441040E+04  0.25500000920E-02 0.  1.
       -2   -1    0    0    0  501  0.00000000000E+00  0.00000000000E+00 -0.11911833543E+04  0.11911833543E+04  0.25500000920E-02 0. -1.
    10030    2    1    2    0    0  0.00000000000E+00  0.00000000000E+00  0.60446074973E+03  0.29868274583E+04  0.29250240114E+04 0.  0.
        1    1    3    3  502    0  0.80412789806E+03 -0.21607668249E+03  0.15299787260E+04  0.17418799359E+04  0.50400001928E-02 0.  1.
       -1    1    3    3    0  502 -0.80412789806E+03  0.21607668249E+03 -0.92551797622E+03  0.12449475224E+04  0.50400001928E-02 0. -1.
</event>
<event>
 5   0  0.3682276E-07  0.3417565E+04  0.7818609E-02  0.8133609E-01
        1   -1    0    0  501    0  0.00000000000E+00  0.00000000000E+00  0.11691339842E+04  0.11691339842E+04  0.50400001928E-02 0.  1.
       -1   -1    0    0    0  501  0.00000000000E+00  0.00000000000E+00 -0.24975220478E+04  0.24975220478E+04  0.50400001928E-02 0. -1.
    10030    2    1    2    0    0  0.00000000000E+00  0.00000000000E+00 -0.13283880636E+04  0.36666560320E+04  0.34175651581E+04 0.  0.
        1    1    3    3  502    0  0.11081365184E+03  0.27490005571E+02  0.11650371791E+04  0.11706182104E+04  0.50400001928E-02 0.  1.
       -1    1    3    3    0  502 -0.11081365184E+03 -0.27490005571E+02 -0.24934252427E+04  0.24960378216E+04  0.50400001928E-02 0. -1.
</event>
<event>
 5   0  0.1051123E-06  0.3937888E+04  0.7818609E-02  0.8017195E-01
       -2   -1    0    0    0  501  0.00000000000E+00  0.00000000000E+00  0.21857601367E+04  0.21857601367E+04  0.25500000920E-02 0.  1.
        2   -1    0    0  501    0  0.00000000000E+00  0.00000000000E+00 -0.17736348777E+04  0.17736348777E+04  0.25500000920E-02 0. -1.
    10030    2    1    2    0    0  0.00000000000E+00  0.00000000000E+00  0.41212525900E+03  0.39593950144E+04  0.39378879683E+04 0.  0.
        2    1    3    3  502    0 -0.17549118617E+04 -0.35871690328E+03 -0.61592723378E+03  0.18941382781E+04  0.25500000920E-02 0. -1.
       -2    1    3    3    0  502  0.17549118617E+04  0.35871690328E+03  0.10280524928E+04  0.20652567364E+04  0.25500000920E-02 0.  1.
</event>
<event>
 5   0  0.3675819E-07  0.3558600E+04  0.7818609E-02  0.8100041E-01
        1   -1    0    0  501    0  0.00000000000E+00  0.00000000000E+00  0.16571918982E+04  0.16571918982E+04  0.50400001928E-02 0. -1.
       -1   -1    0    0    0  501  0.00000000000E+00  0.00000000000E+00 -0.19104055804E+04  0.19104055804E+04  0.50400001928E-02 0.  1.
    10030    2    1    2    0    0  0.00000000000E+00  0.00000000000E+00 -0.25321368216E+03  0.35675974786E+04  0.35586000900E+04 0.  0.
        5    1    3    3  502    0  0.45663162205E+03  0.11766498349E+04 -0.13839186053E+04  0.18730376580E+04  0.46999998093E+01 0.  1.
       -5    1    3    3    0  502 -0.45663162205E+03 -0.11766498349E+04  0.11307049231E+04  0.16945598206E+04  0.46999998093E+01 0. -1.
</event>
<event>
 5   0  0.1128530E-06  0.2855020E+04  0.7818609E-02  0.8286388E-01
       -2   -1    0    0    0  501  0.00000000000E+00  0.00000000000E+00  0.96284048550E+03  0.96284048550E+03  0.25500000920E-02 0.  1.
        2   -1    0    0  501    0  0.00000000000E+00  0.00000000000E+00 -0.21164303603E+04  0.21164303603E+04  0.25500000920E-02 0. -1.
    10030    2    1    2    0    0  0.00000000000E+00  0.00000000000E+00 -0.11535898748E+04  0.30792708458E+04  0.28550200249E+04 0.  0.
        5    1    3    3  502    0 -0.91340171523E+03 -0.10918322717E+04 -0.69176179866E+03  0.15827055566E+04  0.46999998093E+01 0.  1.
       -5    1    3    3    0  502  0.91340171523E+03  0.10918322717E+04 -0.46182807613E+03  0.14965652892E+04  0.46999998093E+01 0. -1.
</event>
<event>
 5   0  0.3764495E-07  0.3673333E+04  0.7818609E-02  0.8073897E-01
       -1   -1    0    0    0  501  0.00000000000E+00  0.00000000000E+00  0.15423059495E+04  0.15423059495E+04  0.50400001928E-02 0.  1.
        1   -1    0    0  501    0  0.00000000000E+00  0.00000000000E+00 -0.21872077097E+04  0.21872077098E+04  0.50400001928E-02 0. -1.
    10030    2    1    2    0    0  0.00000000000E+00  0.00000000000E+00 -0.64490176027E+03  0.37295136592E+04  0.36733327992E+04 0.  0.
        4    1    3    3  502    0 -0.73721377171E+02 -0.18282124803E+04 -0.48472697075E+03  0.18928173614E+04  0.12699999809E+01 0.  1.
       -4    1    3    3    0  502  0.73721377171E+02  0.18282124803E+04 -0.16017478952E+03  0.18366962979E+04  0.12699999809E+01 0. -1.
</event>
<event>
 5   0  0.1066907E-06  0.3617537E+04  0.7818609E-02  0.8086486E-01
        2   -1    0    0  501    0  0.00000000000E+00  0.00000000000E+00  0.19005829209E+04  0.19005829209E+04  0.25500000920E-02 0.  1.
       -2   -1    0    0    0  501  0.00000000000E+00  0.00000000000E+00 -0.17213895529E+04  0.17213895529E+04  0.25500000920E-02 0. -1.
    10030    2    1    2    0    0  0.00000000000E+00  0.00000000000E+00  0.17919336805E+03  0.36219724738E+04  0.36175370541E+04 0.  0.
        4    1    3    3  502    0 -0.13855280249E+03  0.12272714015E+04 -0.12334810680E+04  0.17455283240E+04  0.12699999809E+01 0. -1.
       -4    1    3    3    0  502  0.13855280249E+03 -0.12272714015E+04  0.14126744360E+04  0.18764441498E+04  0.12699999809E+01 0.  1.
</event>
<event>
 5   0  0.3682276E-07  0.3501657E+04  0.7818609E-02  0.8113397E-01
       -1   -1    0    0    0  501  0.00000000000E+00  0.00000000000E+00  0.13060130152E+04  0.13060130152E+04  0.50400001928E-02 0. -1.
        1   -1    0    0  501    0  0.00000000000E+00  0.00000000000E+00 -0.23471443230E+04  0.23471443230E+04  0.50400001928E-02 0.  1.
    10030    2    1    2    0    0  0.00000000000E+00  0.00000000000E+00 -0.10411313078E+04  0.36531573382E+04  0.35016573415E+04 0.  0.
        1    1    3    3  502    0 -0.88802661318E+03 -0.13030194679E+04  0.27324198532E+03  0.16003475191E+04  0.50400001928E-02 0. -1.
       -1    1    3    3    0  502  0.88802661318E+03  0.13030194679E+04 -0.13143732931E+04  0.20528098190E+04  0.50400001928E-02 0.  1.
</event>
<event>
 5   0  0.1092116E-06  0.3801431E+04  0.7818609E-02  0.8045848E-01
       -2   -1    0    0    0  501  0.00000000000E+00  0.00000000000E+00  0.20957760003E+04  0.20957760003E+04  0.25500000920E-02 0. -1.
        2   -1    0    0  501    0  0.00000000000E+00  0.00000000000E+00 -0.17238099934E+04  0.17238099934E+04  0.25500000920E-02 0.  1.
    10030    2    1    2    0    0  0.00000000000E+00  0.00000000000E+00  0.37196600693E+03  0.38195859937E+04  0.38014311059E+04 0.  0.
        1    1    3    3  502    0  0.81915623204E+03 -0.17132420569E+04  0.10494837854E+03  0.19019015327E+04  0.50400001928E-02 0.  1.
       -1    1    3    3    0  502 -0.81915623204E+03  0.17132420569E+04  0.26701762839E+03  0.19176844610E+04  0.50400001928E-02 0. -1.
</event>
<event>
 5   0  0.3764495E-07  0.3712031E+04  0.7818609E-02  0.8065301E-01
        1   -1    0    0  501    0  0.00000000000E+00  0.00000000000E+00  0.16682754071E+04  0.16682754071E+04  0.50400001928E-02 0.  1.
       -1   -1    0    0    0  501  0.00000000000E+00  0.00000000000E+00 -0.20648834822E+04  0.20648834822E+04  0.50400001928E-02 0. -1.
    10030    2    1    2    0    0  0.00000000000E+00  0.00000000000E+00 -0.39660807507E+03  0.37331588893E+04  0.37120314286E+04 0.  0.
        4    1    3    3  502    0 -0.14870606518E+04 -0.31169224179E+02  0.91818208244E+03  0.17479647743E+04  0.12699999809E+01 0.  1.
       -4    1    3    3    0  502  0.14870606518E+04  0.31169224179E+02 -0.13147901575E+04  0.19851941149E+04  0.12699999809E+01 0. -1.
</event>
<event>
 5   0  0.1128166E-06  0.3115291E+04  0.7818609E-02  0.8211554E-01
       -2   -1    0    0    0  501  0.00000000000E+00  0.00000000000E+00  0.77808695775E+03  0.77808695775E+03  0.25500000920E-02 0. -1.
        2   -1    0    0  501    0  0.00000000000E+00  0.00000000000E+00 -0.31182377175E+04  0.31182377175E+04  0.25500000920E-02 0.  1.
    10030    2    1    2    0    0  0.00000000000E+00  0.00000000000E+00 -0.23401507597E+04  0.38963246752E+04  0.31152913823E+04 0.  0.
        3    1    3    3  502    0 -0.83618199552E+03  0.79804044724E+03 -0.24759690054E+04  0.27324881355E+04  0.10100000352E+00 0.  1.
       -3    1    3    3    0  502  0.83618199552E+03 -0.79804044724E+03  0.13581824565E+03  0.11638365397E+04  0.10100000352E+00 0. -1.
</event>
<event>
 5   0  0.3704306E-07  0.2834889E+04  0.7818609E-02  0.8292518E-01
        1   -1    0    0  501    0  0.00000000000E+00  0.00000000000E+00  0.19301748560E+04  0.19301748560E+04  0.50400001928E-02 0.  1.
       -1   -1    0    0    0  501  0.00000000000E+00  0.00000000000E+00 -0.10409157085E+04  0.10409157085E+04  0.50400001928E-02 0. -1.
    10030    2    1    2    0    0  0.00000000000E+00  0.00000000000E+00  0.88925914742E+03  0.29710905645E+04  0.28348892943E+04 0.  0.
        3    1    3    3  502    0  0.23651207899E+02 -0.59948373432E+03  0.17905446546E+04  0.18883829849E+04  0.10100000352E+00 0.  1.
       -3    1    3    3    0  502 -0.23651207899E+02  0.59948373432E+03 -0.90128550716E+03  0.10827075796E+04  0.10100000352E+00 0. -1.
</event>
<event>
 5   0  0.1092116E-06  0.3716749E+04  0.7818609E-02  0.8064260E-01
        2   -1    0    0  501    0  0.00000000000E+00  0.00000000000E+00  0.11183862688E+04  0.11183862688E+04  0.25500000920E-02 0.  1.
       -2   -1    0    0    0  501  0.00000000000E+00  0.00000000000E+00 -0.30879814969E+04  0.30879814969E+04  0.25500000920E-02 0. -1.
    10030    2    1    2    0    0  0.00000000000E+00  0.00000000000E+00 -0.19695952281E+04  0.42063677658E+04  0.37167491734E+04 0.  0.
        1    1    3    3  502    0  0.87155065135E+03 -0.40774053152E+03  0.81451667346E+03  0.12606705717E+04  0.50400001928E-02 0.  1.
       -1    1    3    3    0  502 -0.87155065135E+03  0.40774053152E+03 -0.27841119015E+04  0.29456971941E+04  0.50400001928E-02 0. -1.
</event>
<event>
 5   0  0.3764495E-07  0.3669537E+04  0.7818609E-02  0.8074746E-01
       -1   -1    0    0    0  501  0.00000000000E+00  0.00000000000E+00  0.12847588860E+04  0.12847588860E+04  0.50400001928E-02 0. -1.
        1   -1    0    0  501    0  0.00000000000E+00  0.00000000000E+00 -0.26202397223E+04  0.26202397223E+04  0.50400001928E-02 0.  1.
    10030    2    1    2    0    0  0.00000000000E+00  0.00000000000E+00 -0.13354808363E+04  0.39049986083E+04  0.36695374459E+04 0.  0.
        4    1    3    3  502    0 -0.15018785502E+04 -0.94379274869E+03 -0.16861263848E+03  0.17818012703E+04  0.12699999809E+01 0. -1.
       -4    1    3    3    0  502  0.15018785502E+04  0.94379274869E+03 -0.11668681978E+04  0.21231973380E+04  0.12699999809E+01 0.  1.
</event>
<event>
 5   0  0.1128166E-06  0.3752245E+04  0.7818609E-02  0.8056481E-01
       -2   -1    0    0    0  501  0.00000000000E+00  0.00000000000E+00  0.21847312971E+04  0.21847312971E+04  0.25500000920E-02 0. -1.
        2   -1    0    0  501    0  0.00000000000E+00  0.00000000000E+00 -0.16111070917E+04  0.16111070917E+04  0.25500000920E-02 0.  1.
    10030    2    1    2    0    0  0.00000000000E+00  0.00000000000E+00  0.57362420540E+03  0.37958383888E+04  0.37522452405E+04 0.  0.
        3    1    3    3  502    0  0.25653635740E+03  0.75291235335E+03 -0.14320895691E+04  0.16381600833E+04  0.10100000352E+00 0.  1.
       -3    1    3    3    0  502 -0.25653635740E+03 -0.75291235335E+03  0.20057137745E+04  0.21576783055E+04  0.10100000352E+00 0. -1.
</event>
<event>
 5   0  0.3764495E-07  0.3271458E+04  0.7818609E-02  0.8170196E-01
       -1   -1    0    0    0  501  0.00000000000E+00  0.00000000000E+00  0.22743870434E+04  0.22743870434E+04  0.50400001928E-02 0. -1.
        1   -1    0    0  501    0  0.00000000000E+00  0.00000000000E+00 -0.11764092880E+04  0.11764092880E+04  0.50400001928E-02 0.  1.
    10030    2    1    2    0    0  0.00000000000E+00  0.00000000000E+00  0.10979777555E+04  0.34507963314E+04  0.32714584163E+04 0.  0.
        4    1    3    3  502    0  0.11950389121E+04  0.29299689422E+03  0.16858680482E+04  0.20871314933E+04  0.12699999809E+01 0. -1.
       -4    1    3    3    0  502 -0.11950389121E+04 -0.29299689422E+03 -0.58789029278E+03  0.13636648381E+04  0.12699999809E+01 0.  1.
</event>
<event>
 5   0  0.3764495E-07  0.3589419E+04  0.7818609E-02  0.8092920E-01
       -1   -1    0    0    0  501  0.00000000000E+00  0.00000000000E+00  0.14506415921E+04  0.14506415921E+04  0.50400001928E-02 0. -1.
        1   -1    0    0  501    0  0.00000000000E+00  0.00000000000E+00 -0.22203840628E+04  0.22203840628E+04  0.50400001928E-02 0.  1.
    10030    2    1    2    0    0  0.00000000000E+00  0.00000000000E+00 -0.76974247069E+03  0.36710256549E+04  0.35894186002E+04 0.  0.
        4    1    3    3  502    0 -0.66102264899E+03 -0.12982766747E+04 -0.14567968388E+04  0.20602747169E+04  0.12699999809E+01 0. -1.
       -4    1    3    3    0  502  0.66102264899E+03  0.12982766747E+04  0.68705436814E+03  0.16107509380E+04  0.12699999809E+01 0.  1.
</event>
<event>
 5   0  0.3675819E-07  0.3638750E+04  0.7818609E-02  0.8081673E-01
       -1   -1    0    0    0  501  0.00000000000E+00  0.00000000000E+00  0.16398561910E+04  0.16398561910E+04  0.50400001928E-02 0.  1.
        1   -1    0    0  501    0  0.00000000000E+00  0.00000000000E+00 -0.20185463244E+04  0.20185463244E+04  0.50400001928E-02 0. -1.
    10030    2    1    2    0    0  0.00000000000E+00  0.00000000000E+00 -0.37869013336E+03  0.36584025154E+04  0.36387501629E+04 0.  0.
        5    1    3    3  502    0 -0.10312164377E+04 -0.68281001847E+03  0.11522028248E+04  0.16903343758E+04  0.46999998093E+01 0.  1.
       -5    1    3    3    0  502  0.10312164377E+04  0.68281001847E+03 -0.15308929582E+04  0.19680681396E+04  0.46999998093E+01 0. -1.
</event>
<event>
 5   0  0.1051123E-06  0.3683968E+04  0.7818609E-02  0.8071524E-01
        2   -1    0    0  501    0  0.00000000000E+00  0.00000000000E+00  0.21761146080E+04  0.21761146080E+04  0.25500000920E-02 0.  1.
       -2   -1    0    0    0  501  0.00000000000E+00  0.00000000000E+00 -0.15591570373E+04  0.15591570373E+04  0.25500000920E-02 0. -1.
    10030    2    1    2    0    0  0.00000000000E+00  0.00000000000E+00  0.61695757069E+03  0.37352716453E+04  0.36839676464E+04 0.  0.
        2    1    3    3  502    0  0.56767512310E+03  0.16679137392E+04  0.85328197598E+03  0.19576213672E+04  0.25500000920E-02 0.  1.
       -2    1    3    3    0  502 -0.56767512310E+03 -0.16679137392E+04 -0.23632440529E+03  0.17776502781E+04  0.25500000920E-02 0. -1.
</event>
<event>
 5   0  0.1066907E-06  0.2486836E+04  0.7818609E-02  0.8407690E-01
        2   -1    0    0  501    0  0.00000000000E+00  0.00000000000E+00  0.15652496498E+04  0.15652496498E+04  0.25500000920E-02 0. -1.
       -2   -1    0    0    0  501  0.00000000000E+00  0.00000000000E+00 -0.98775859602E+03  0.98775859602E+03  0.25500000920E-02 0.  1.
    10030    2    1    2    0    0  0.00000000000E+00  0.00000000000E+00  0.57749105379E+03  0.25530082458E+04  0.24868363810E+04 0.  0.
        4    1    3    3  502    0  0.78601209212E+02 -0.39995372431E+03  0.14947142915E+04  0.15492945355E+04  0.12699999809E+01 0. -1.
       -4    1    3    3    0  502 -0.78601209212E+02  0.39995372431E+03 -0.91722323768E+03  0.10037137103E+04  0.12699999809E+01 0.  1.
</event>
<event>
 5   0  0.1128530E-06  0.3241164E+04  0.7818609E-02  0.8178030E-01
       -2   -1    0    0    0  501  0.00000000000E+00  0.00000000000E+00  0.13023668738E+04  0.13023668738E+04  0.25500000920E-02 0. -1.
        2   -1    0    0  501    0  0.00000000000E+00  0.00000000000E+00 -0.20165481557E+04  0.20165481557E+04  0.25500000920E-02 0.  1.
    10030    2    1    2    0    0  0.00000000000E+00  0.00000000000E+00 -0.71418128199E+03  0.33189150295E+04  0.32411636906E+04 0.  0.
        5    1    3    3  502    0 -0.10661220471E+04 -0.79288391495E+03 -0.13072408797E+04  0.18639157517E+04  0.46999998093E+01 0.  1.
       -5    1    3    3    0  502  0.10661220471E+04  0.79288391495E+03  0.59305959769E+03  0.14549992778E+04  0.46999998093E+01 0. -1.
</event>
<event>
 5   0  0.1128530E-06  0.3730697E+04  0.7818609E-02  0.8061193E-01
       -2   -1    0    0    0  501  0.00000000000E+00  0.00000000000E+00  0.17782270730E+04  0.17782270730E+04  0.25500000920E-02 0.  1.
        2   -1    0    0  501    0  0.00000000000E+00  0.00000000000E+00 -0.19567380116E+04  0.19567380116E+04  0.25500000920E-02 0. -1.
    10030    2    1    2    0    0  0.00000000000E+00  0.00000000000E+00 -0.17851093859E+03  0.37349650846E+04  0.37306967215E+04 0.  0.
        5    1    3    3  502    0 -0.62939147819E+03  0.11807825752E+04 -0.13904044304E+04  0.19296703585E+04  0.46999998093E+01 0. -1.
       -5    1    3    3    0  502  0.62939147819E+03 -0.11807825752E+04  0.12118934918E+04  0.18052947261E+04  0.46999998093E+01 0.  1.
</event>
<event>
 5   0  0.3764495E-07  0.3680556E+04  0.7818609E-02  0.8072284E-01
       -1   -1    0    0    0  501  0.00000000000E+00  0.00000000000E+00  0.15953830540E+04  0.15953830540E+04  0.50400001928E-02 0.  1.
        1   -1    0    0  501    0  0.00000000000E+00  0.00000000000E+00 -0.21227654223E+04  0.21227654223E+04  0.50400001928E-02 0. -1.
    10030    2    1    2    0    0  0.00000000000E+00  0.00000000000E+00 -0.52738236825E+03  0.37181484763E+04  0.36805564701E+04 0.  0.
        4    1    3    3  502    0 -0.10003399997E+04 -0.14166455113E+02  0.12966692937E+04  0.16377526289E+04  0.12699999809E+01 0.  1.
       -4    1    3    3    0  502  0.10003399997E+04  0.14166455113E+02 -0.18240516619E+04  0.20803958474E+04  0.12699999809E+01 0. -1.
</event>
<event>
 5   0  0.3682276E-07  0.3349444E+04  0.7818609E-02  0.8150427E-01
        1   -1    0    0  501    0  0.00000000000E+00  0.00000000000E+00  0.18361897576E+04  0.18361897576E+04  0.50400001928E-02 0.  1.
       -1   -1    0    0    0  501  0.00000000000E+00  0.00000000000E+00 -0.15274531639E+04  0.15274531639E+04  0.50400001928E-02 0. -1.
    10030    2    1    2    0    0  0.00000000000E+00  0.00000000000E+00  0.30873659365E+03  0.33636429215E+04  0.33494440463E+04 0.  0.
        1    1    3    3  502    0 -0.14961890641E+04  0.71059147974E+02 -0.59784823053E+03  0.16127782318E+04  0.50400001928E-02 0. -1.
       -1    1    3    3    0  502  0.14961890641E+04 -0.71059147974E+02  0.90658482418E+03  0.17508646897E+04  0.50400001928E-02 0.  1.
</event>
<event>
 5   0  0.1128166E-06  0.2741796E+04  0.7818609E-02  0.8321570E-01
        2   -1    0    0  501    0  0.00000000000E+00  0.00000000000E+00  0.12801652137E+04  0.12801652138E+04  0.25500000920E-02 0.  1.
       -2   -1    0    0    0  501  0.00000000000E+00  0.00000000000E+00 -0.14680610446E+04  0.14680610446E+04  0.25500000920E-02 0. -1.
    10030    2    1    2    0    0  0.00000000000E+00  0.00000000000E+00 -0.18789583084E+03  0.27482262583E+04  0.27417955292E+04 0.  0.
        3    1    3    3  502    0  0.13091046399E+04 -0.30988290651E+03 -0.35834357282E+03  0.13921898219E+04  0.10100000352E+00 0. -1.
       -3    1    3    3    0  502 -0.13091046399E+04  0.30988290651E+03  0.17044774198E+03  0.13560364364E+04  0.10100000352E+00 0.  1.
</event>
<event>
 5   0  0.1092116E-06  0.3689735E+04  0.7818609E-02  0.8070241E-01
        2   -1    0    0  501    0  0.00000000000E+00  0.00000000000E+00  0.18411933358E+04  0.18411933358E+04  0.25500000920E-02 0. -1.
       -2   -1    0    0    0  501  0.00000000000E+00  0.00000000000E+00 -0.18485488362E+04  0.18485488362E+04  0.25500000920E-02 0.  1.
    10030    2    1    2    0    0  0.00000000000E+00  0.00000000000E+00 -0.73555004057E+01  0.36897421720E+04  0.36897348404E+04 0.  0.
        1    1    3    3  502    0  0.97728812937E+03  0.11539951267E+04 -0.10604385537E+04  0.18469777385E+04  0.50400001928E-02 0.  1.
       -1    1    3    3    0  502 -0.97728812937E+03 -0.11539951267E+04  0.10530830533E+04  0.18427644335E+04  0.50400001928E-02 0. -1.
</event>
<event>
 5   0  0.1128530E-06  0.3627140E+04  0.7818609E-02  0.8084303E-01
       -2   -1    0    0    0  501  0.00000000000E+00  0.00000000000E+00  0.21783569633E+04  0.21783569633E+04  0.25500000920E-02 0. -1.
        2   -1    0    0  501    0  0.00000000000E+00  0.00000000000E+00 -0.15098701519E+04  0.15098701519E+04  0.25500000920E-02 0.  1.
    10030    2    1    2    0    0  0.00000000000E+00  0.00000000000E+00  0.66848681140E+03  0.36882271153E+04  0.36271400079E+04 0.  0.
        5    1    3    3  502    0 -0.29443065112E+03 -0.16893560697E+04 -0.26595227448E+03  0.17353287990E+04  0.46999998093E+01 0.  1.
       -5    1    3    3    0  502  0.29443065112E+03  0.16893560697E+04  0.93443908589E+03  0.19528983163E+04  0.46999998093E+01 0. -1.
</event>
<event>
 5   0  0.3675819E-07  0.3701513E+04  0.7818609E-02  0.8067627E-01
        1   -1    0    0  501    0  0.00000000000E+00  0.00000000000E+00  0.15529794061E+04  0.15529794061E+04  0.50400001928E-02 0. -1.
       -1   -1    0    0    0  501  0.00000000000E+00  0.00000000000E+00 -0.22056314703E+04  0.22056314703E+04  0.50400001928E-02 0.  1.
    10030    2    1    2    0    0  0.00000000000E+00  0.00000000000E+00 -0.65265206422E+03  0.37586108764E+04  0.37015133396E+04 0.  0.
        5    1    3    3  502    0  0.13192201404E+02  0.16515597624E+04 -0.11743458092E+04  0.20265571427E+04  0.46999998093E+01 0.  1.
       -5    1    3    3    0  502 -0.13192201404E+02 -0.16515597624E+04  0.52169374499E+03  0.17320537337E+04  0.46999998093E+01 0. -1.
</event>
<event>
 5   0  0.1051123E-06  0.3736001E+04  0.7818609E-02  0.8060030E-01
        2   -1    0    0  501    0  0.00000000000E+00  0.00000000000E+00  0.24076088096E+04  0.24076088096E+04  0.25500000920E-02 0. -1.
       -2   -1    0    0    0  501  0.00000000000E+00  0.00000000000E+00 -0.14493327875E+04  0.14493327875E+04  0.25500000920E-02 0.  1.
    10030    2    1    2    0    0  0.00000000000E+00  0.00000000000E+00  0.95827602212E+03  0.38569415971E+04  0.37360012779E+04 0.  0.
        2    1    3    3  502    0  0.11676743322E+04  0.31386705220E+03  0.19491171720E+04  0.22936943176E+04  0.25500000920E-02 0. -1.
       -2    1    3    3    0  502 -0.11676743322E+04 -0.31386705220E+03 -0.99084114988E+03  0.15632472795E+04  0.25500000920E-02 0.  1.
</event>
<event>
 5   0  0.3682276E-07  0.3695736E+04  0.7818609E-02  0.8068907E-01
       -1   -1    0    0    0  501  0.00000000000E+00  0.00000000000E+00  0.26305333626E+04  0.26305333626E+04  0.50400001928E-02 0.  1.
        1   -1    0    0  501    0  0.00000000000E+00  0.00000000000E+00 -0.12980698159E+04  0.12980698159E+04  0.50400001928E-02 0. -1.
    10030    2    1    2    0    0  0.00000000000E+00  0.00000000000E+00  0.13324635466E+04  0.39286031785E+04  0.36957358984E+04 0.  0.
        1    1    3    3  502    0 -0.15575065042E+04 -0.81845852397E+03  0.65922888970E+02  0.17606949462E+04  0.50400001928E-02 0. -1.
       -1    1    3    3    0  502  0.15575065042E+04  0.81845852397E+03  0.12665406577E+04  0.21679082323E+04  0.50400001928E-02 0.  1.
</event>
<event>
 5   0  0.1128166E-06  0.2795904E+04  0.7818609E-02  0.8304541E-01
        2   -1    0    0  501    0  0.00000000000E+00  0.00000000000E+00  0.20097015405E+04  0.20097015405E+04  0.25500000920E-02 0.  1.
       -2   -1    0    0    0  501  0.00000000000E+00  0.00000000000E+00 -0.97241796085E+03  0.97241796085E+03  0.25500000920E-02 0. -1.
    10030    2    1    2    0    0  0.00000000000E+00  0.00000000000E+00  0.10372835797E+04  0.29821195014E+04  0.27959040570E+04 0.  0.
        3    1    3    3  502    0 -0.43473651555E+03  0.13169576999E+04  0.33116089573E+03  0.14258474569E+04  0.10100000352E+00 0.  1.
       -3    1    3    3    0  502  0.43473651555E+03 -0.13169576999E+04  0.70612268393E+03  0.15562720444E+04  0.10100000352E+00 0. -1.
</event>
<event>
 5   0  0.1051123E-06  0.3662177E+04  0.7818609E-02  0.8076396E-01
       -2   -1    0    0    0  501  0.00000000000E+00  0.00000000000E+00  0.13428781299E+04  0.13428781299E+04  0.25500000920E-02 0.  1.
        2   -1    0    0  501    0  0.00000000000E+00  0.00000000000E+00 -0.24967897170E+04  0.24967897170E+04  0.25500000920E-02 0. -1.
    10030    2    1    2    0    0  0.00000000000E+00  0.00000000000E+00 -0.11539115871E+04  0.38396678469E+04  0.36621765691E+04 0.  0.
        2    1    3    3  502    0 -0.54209945047E+03  0.70270102239E+02 -0.24092457381E+04  0.24704806674E+04  0.25500000920E-02 0. -1.
       -2    1    3    3    0  502  0.54209945047E+03 -0.70270102239E+02  0.12553341511E+04  0.13691871794E+04  0.25500000920E-02 0.  1.
</event>
<event>
 5   0  0.3704306E-07  0.3770660E+04  0.7818609E-02  0.8052481E-01
       -1   -1    0    0    0  501  0.00000000000E+00  0.00000000000E+00  0.10766358689E+04  0.10766358689E+04  0.50400001928E-02 0. -1.
        1   -1    0    0  501    0  0.00000000000E+00  0.00000000000E+00 -0.33014582368E+04  0.33014582368E+04  0.50400001928E-02 0.  1.
    10030    2    1    2    0    0  0.00000000000E+00  0.00000000000E+00 -0.22248223679E+04  0.43780941057E+04  0.37706595483E+04 0.  0.
        3    1    3    3  502    0 -0.12436440975E+04  0.12091193643E+03  0.52683051416E+03  0.13560312454E+04  0.10100000352E+00 0. -1.
       -3    1    3    3    0  502  0.12436440975E+04 -0.12091193643E+03 -0.27516528821E+04  0.30220628602E+04  0.10100000352E+00 0.  1.
</event>
<event>
 5   0  0.1128530E-06  0.3571524E+04  0.7818609E-02  0.8097046E-01
        2   -1    0    0  501    0  0.00000000000E+00  0.00000000000E+00  0.19501580168E+04  0.19501580168E+04  0.25500000920E-02 0. -1.
       -2   -1    0    0    0  501  0.00000000000E+00  0.00000000000E+00 -0.16352242536E+04  0.16352242536E+04  0.25500000920E-02 0.  1.
    10030    2    1    2    0    0  0.00000000000E+00  0.00000000000E+00  0.31493376329E+03  0.35853822704E+04  0.35715238694E+04 0.  0.
        5    1    3    3  502    0 -0.80541136102E+03 -0.11791959520E+04  0.12338835552E+04  0.18872417098E+04  0.46999998093E+01 0. -1.
       -5    1    3    3    0  502  0.80541136102E+03  0.11791959520E+04 -0.91894979187E+03  0.16981405606E+04  0.46999998093E+01 0.  1.
</event>
<event>
 5   0  0.1051123E-06  0.2767326E+04  0.7818609E-02  0.8313485E-01
       -2   -1    0    0    0  501  0.00000000000E+00  0.00000000000E+00  0.76673492646E+03  0.76673492647E+03  0.25500000920E-02 0.  1.
        2   -1    0    0  501    0  0.00000000000E+00  0.00000000000E+00 -0.24969814325E+04  0.24969814325E+04  0.25500000920E-02 0. -1.
    10030    2    1    2    0    0  0.00000000000E+00  0.00000000000E+00 -0.17302465060E+04  0.32637163589E+04  0.27673256946E+04 0.  0.
        2    1    3    3  502    0 -0.91957005132E+03  0.79388893674E+03 -0.16462351543E+04  0.20459616093E+04  0.25500000920E-02 0. -1.
       -2    1    3    3    0  502  0.91957005132E+03 -0.79388893674E+03 -0.84011351679E+02  0.12177547497E+04  0.25500000920E-02 0.  1.
</event>
<event>
 5   0  0.1128530E-06  0.2381572E+04  0.7818609E-02  0.8446435E-01
       -2   -1    0    0    0  501  0.00000000000E+00  0.00000000000E+00  0.87924075272E+03  0.87924075272E+03  0.25500000920E-02 0. -1.
        2   -1    0    0  501    0  0.00000000000E+00  0.00000000000E+00 -0.16127226247E+04  0.16127226247E+04  0.25500000920E-02 0.  1.
    10030    2    1    2    0    0  0.00000000000E+00  0.00000000000E+00 -0.73348187200E+03  0.24919633774E+04  0.23815721316E+04 0.  0.
        5    1    3    3  502    0 -0.11245515656E+04  0.21897701823E+03 -0.70641435227E+03  0.13459608038E+04  0.46999998093E+01 0.  1.
       -5    1    3    3    0  502  0.11245515656E+04 -0.21897701823E+03 -0.27067519735E+02  0.11460025737E+04  0.46999998093E+01 0. -1.
</event>
<event>
 5   0  0.3682276E-07  0.3735284E+04  0.7818609E-02  0.8060187E-01
        1   -1    0    0  501    0  0.00000000000E+00  0.00000000000E+00  0.23303071612E+04  0.23303071612E+04  0.50400001928E-02 0.  1.
       -1   -1    0    0    0  501  0.00000000000E+00  0.00000000000E+00 -0.14968359245E+04  0.14968359245E+04  0.50400001928E-02 0. -1.
    10030    2    1    2    0    0  0.00000000000E+00  0.00000000000E+00  0.83347123666E+03  0.38271430857E+04  0.37352844465E+04 0.  0.
        1    1    3    3  502    0  0.72260460882E+03  0.15140978905E+04 -0.42407794832E+03  0.17304600397E+04  0.50400001928E-02 0. -1.
       -1    1    3    3    0  502 -0.72260460882E+03 -0.15140978905E+04  0.12575491850E+04  0.20966830460E+04  0.50400001928E-02 0.  1.
</event>
<event>
 5   0  0.1066907E-06  0.3715628E+04  0.7818609E-02  0.8064507E-01
       -2   -1    0    0    0  501  0.00000000000E+00  0.00000000000E+00  0.18526432113E+04  0.18526432113E+04  0.25500000920E-02 0.  1.
        2   -1    0    0  501    0  0.00000000000E+00  0.00000000000E+00 -0.18629994585E+04  0.18629994585E+04  0.25500000920E-02 0. -1.
    10030    2    1    2    0    0  0.00000000000E+00  0.00000000000E+00 -0.10356247197E+02  0.37156426698E+04  0.37156282373E+04 0.  0.
        4    1    3    3  502    0 -0.10768029840E+04 -0.66293197287E+03  0.13558885943E+04  0.18540277668E+04  0.12699999809E+01 0.  1.
       -4    1    3    3    0  502  0.10768029840E+04  0.66293197287E+03 -0.13662448415E+04  0.18616149030E+04  0.12699999809E+01 0. -1.
</event>
<event>
 5   0  0.1128166E-06  0.3739645E+04  0.7818609E-02  0.8059232E-01
       -2   -1    0    0    0  501  0.00000000000E+00  0.00000000000E+00  0.16385855797E+04  0.16385855797E+04  0.25500000920E-02 0.  1.
        2   -1    0    0  501    0  0.00000000000E+00  0.00000000000E+00 -0.21336911983E+04  0.21336911983E+04  0.25500000920E-02 0. -1.
    10030    2    1    2    0    0  0.00000000000E+00  0.00000000000E+00 -0.49510561857E+03  0.37722767780E+04  0.37396447045E+04 0.  0.
        3    1    3    3  502    0 -0.68287207891E+03 -0.14419775918E+04 -0.12310590733E+04  0.20152220978E+04  0.10100000352E+00 0. -1.
       -3    1    3    3    0  502  0.68287207891E+03  0.14419775918E+04  0.73595345477E+03  0.17570546802E+04  0.10100000352E+00 0.  1.
</event>
<event>
 5   0  0.1128530E-06  0.3670309E+04  0.7818609E-02  0.8074574E-01
       -2   -1    0    0    0  501  0.00000000000E+00  0.00000000000E+00  0.23014022637E+04  0.23014022637E+04  0.25500000920E-02 0.  1.
        2   -1    0    0  501    0  0.00000000000E+00  0.00000000000E+00 -0.14633652339E+04  0.14633652339E+04  0.25500000920E-02 0. -1.
    10030    2    1    2    0    0  0.00000000000E+00  0.00000000000E+00  0.83803702982E+03  0.37647674975E+04  0.36703090125E+04 0.  0.
        5    1    3    3  502    0  0.17489242412E+04  0.55507839292E+03  0.45016354554E+03  0.18893166308E+04  0.46999998093E+01 0. -1.
       -5    1    3    3    0  502 -0.17489242412E+04 -0.55507839292E+03  0.38787348429E+03  0.18754508667E+04  0.46999998093E+01 0.  1.
</event>
<event>
 5   0  0.1128166E-06  0.3564675E+04  0.7818609E-02  0.8098632E-01
       -2   -1    0    0    0  501  0.00000000000E+00  0.00000000000E+00  0.11967074199E+04  0.11967074199E+04  0.25500000920E-02 0.  1.
        2   -1    0    0  501    0  0.00000000000E+00  0.00000000000E+00 -0.26545564073E+04  0.26545564073E+04  0.25500000920E-02 0. -1.
    10030    2    1    2    0    0  0.00000000000E+00  0.00000000000E+00 -0.14578489874E+04  0.38512638272E+04  0.35646752161E+04 0.  0.
        3    1    3    3  502    0  0.13908690037E+04  0.52639110443E+03 -0.17903137135E+04  0.23274078679E+04  0.10100000352E+00 0. -1.
       -3    1    3    3    0  502 -0.13908690037E+04 -0.52639110443E+03  0.33246472612E+03  0.15238559593E+04  0.10100000352E+00 0.  1.
</event>
<event>
 5   0  0.3704306E-07  0.3821849E+04  0.7818609E-02  0.8041482E-01
        1   -1    0    0  501    0  0.00000000000E+00  0.00000000000E+00  0.10382810774E+04  0.10382810774E+04  0.50400001928E-02 0.  1.
       -1   -1    0    0    0  501  0.00000000000E+00  0.00000000000E+00 -0.35169983323E+04  0.35169983323E+04  0.50400001928E-02 0. -1.
    10030    2    1    2    0    0  0.00000000000E+00  0.00000000000E+00 -0.24787172549E+04  0.45552794097E+04  0.38218491952E+04 0.  0.
        3    1    3    3  502    0  0.15994587241E+04 -0.58318939465E+03 -0.20490171206E+03  0.17147486119E+04  0.10100000352E+00 0.  1.
       -3    1    3    3    0  502 -0.15994587241E+04  0.58318939465E+03 -0.22738155428E+04  0.28405307978E+04  0.10100000352E+00 0. -1.
</event>
<event>
 5   0  0.3675819E-07  0.3721510E+04  0.7818609E-02  0.8063212E-01
       -1   -1    0    0    0  501  0.00000000000E+00  0.00000000000E+00  0.22242081527E+04  0.22242081528E+04  0.50400001928E-02 0. -1.
        1   -1    0    0  501    0  0.00000000000E+00  0.00000000000E+00 -0.15566927517E+04  0.15566927517E+04  0.50400001928E-02 0.  1.
    10030    2    1    2    0    0  0.00000000000E+00  0.00000000000E+00  0.66751540102E+03  0.37809009045E+04  0.37215097526E+04 0.  0.
        5    1    3    3  502    0 -0.18542127396E+04  0.15581002268E+03  0.33602332098E+03  0.18908504460E+04  0.46999998093E+01 0.  1.
       -5    1    3    3    0  502  0.18542127396E+04 -0.15581002268E+03  0.33149208003E+03  0.18900504585E+04  0.46999998093E+01 0. -1.
</event>
<event>
 5   0  0.1066907E-06  0.3682590E+04  0.7818609E-02  0.8071831E-01
        2   -1    0    0  501    0  0.00000000000E+00  0.00000000000E+00  0.24771715732E+04  0.24771715732E+04  0.25500000920E-02 0.  1.
       -2   -1    0    0    0  501  0.00000000000E+00  0.00000000000E+00 -0.13686443689E+04  0.13686443689E+04  0.25500000920E-02 0. -1.
    10030    2    1    2    0    0  0.00000000000E+00  0.00000000000E+00  0.11085272044E+04  0.38458159421E+04  0.36825898085E+04 0.  0.
        4    1    3    3  502    0 -0.12878170746E+04  0.66903110640E+03 -0.62923207883E+03  0.15817743395E+04  0.12699999809E+01 0. -1.
       -4    1    3    3    0  502  0.12878170746E+04 -0.66903110640E+03  0.17377592832E+04  0.22640416026E+04  0.12699999809E+01 0.  1.
</event>
<event>
 5   0  0.3675819E-07  0.3430904E+04  0.7818609E-02  0.8130363E-01
        1   -1    0    0  501    0  0.00000000000E+00  0.00000000000E+00  0.17108941533E+04  0.17108941533E+04  0.50400001928E-02 0.  1.
       -1   -1    0    0    0  501  0.00000000000E+00  0.00000000000E+00 -0.17200221055E+04  0.17200221055E+04  0.50400001928E-02 0. -1.
    10030    2    1    2    0    0  0.00000000000E+00  0.00000000000E+00 -0.91279522467E+01  0.34309162588E+04  0.34309041163E+04 0.  0.
        5    1    3    3  502    0 -0.39196718121E+02  0.60923347391E+02  0.17093573842E+04  0.17108982419E+04  0.46999998093E+01 0.  1.
       -5    1    3    3    0  502  0.39196718121E+02 -0.60923347391E+02 -0.17184853365E+04  0.17200180170E+04  0.46999998093E+01 0. -1.
</event>
<event>
 5   0  0.3675819E-07  0.2977465E+04  0.7818609E-02  0.8250195E-01
        1   -1    0    0  501    0  0.00000000000E+00  0.00000000000E+00  0.16938967177E+04  0.16938967177E+04  0.50400001928E-02 0. -1.
       -1   -1    0    0    0  501  0.00000000000E+00  0.00000000000E+00 -0.13084174106E+04  0.13084174106E+04  0.50400001928E-02 0.  1.
    10030    2    1    2    0    0  0.00000000000E+00  0.00000000000E+00  0.38547930704E+03  0.30023141283E+04  0.29774646646E+04 0.  0.
        5    1    3    3  502    0  0.11384016644E+04 -0.89628761310E+03 -0.15218542767E+03  0.14568707318E+04  0.46999998093E+01 0. -1.
       -5    1    3    3    0  502 -0.11384016644E+04  0.89628761310E+03  0.53766473471E+03  0.15454433965E+04  0.46999998093E+01 0.  1.
</event>
<event>
 5   0  0.3704306E-07  0.3753288E+04  0.7818609E-02  0.8056254E-01
       -1   -1    0    0    0  501  0.00000000000E+00  0.00000000000E+00  0.12698205205E+04  0.12698205205E+04  0.50400001928E-02 0. -1.
        1   -1    0    0  501    0  0.00000000000E+00  0.00000000000E+00 -0.27734568531E+04  0.27734568531E+04  0.50400001928E-02 0.  1.
    10030    2    1    2    0    0  0.00000000000E+00  0.00000000000E+00 -0.15036363326E+04  0.40432773736E+04  0.37532878519E+04 0.  0.
        3    1    3    3  502    0 -0.38406394587E+03  0.56232360375E+03  0.11320306454E+04  0.13210625807E+04  0.10100000352E+00 0. -1.
       -3    1    3    3    0  502  0.38406394587E+03 -0.56232360375E+03 -0.26356669780E+04  0.27222147929E+04  0.10100000352E+00 0.  1.
</event>
<event>
 5   0  0.1092116E-06  0.3170609E+04  0.7818609E-02  0.8196623E-01
        2   -1    0    0  501    0  0.00000000000E+00  0.00000000000E+00  0.17487771943E+04  0.17487771943E+04  0.25500000920E-02 0.  1.
       -2   -1    0    0    0  501  0.00000000000E+00  0.00000000000E+00 -0.14371131321E+04  0.14371131321E+04  0.25500000920E-02 0. -1.
    10030    2    1    2    0    0  0.00000000000E+00  0.00000000000E+00  0.31166406222E+03  0.31858903265E+04  0.31706091977E+04 0.  0.
        1    1    3    3  502    0  0.12085245194E+04 -0.10153444583E+04  0.76942582640E+01  0.15784533838E+04  0.50400001928E-02 0. -1.
       -1    1    3    3    0  502 -0.12085245194E+04  0.10153444583E+04  0.30396980395E+03  0.16074369427E+04  0.50400001928E-02 0.  1.
</event>
<event>
 5   0  0.3848431E-07  0.3574338E+04  0.7818609E-02  0.8096395E-01
       -1   -1    0    0    0  501  0.00000000000E+00  0.00000000000E+00  0.25271964804E+04  0.25271964804E+04  0.50400001928E-02 0.  1.
        1   -1    0    0  501    0  0.00000000000E+00  0.00000000000E+00 -0.12638404809E+04  0.12638404809E+04  0.50400001928E-02 0. -1.
    10030    2    1    2    0    0  0.00000000000E+00  0.00000000000E+00  0.12633559996E+04  0.37910369613E+04  0.35743381010E+04 0.  0.
        2    1    3    3  502    0  0.17144067698E+04  0.45863342542E+03  0.40809449659E+03  0.18210096950E+04  0.25500000920E-02 0. -1.
       -2    1    3    3    0  502 -0.17144067698E+04 -0.45863342542E+03  0.85526150298E+03  0.19700272663E+04  0.25500000920E-02 0.  1.
</event>
<event>
 5   0  0.3675819E-07  0.3813712E+04  0.7818609E-02  0.8043219E-01
        1   -1    0    0  501    0  0.00000000000E+00  0.00000000000E+00  0.22644295646E+04  0.22644295647E+04  0.50400001928E-02 0.  1.
       -1   -1    0    0    0  501  0.00000000000E+00  0.00000000000E+00 -0.16057461052E+04  0.16057461052E+04  0.50400001928E-02 0. -1.
    10030    2    1    2    0    0  0.00000000000E+00  0.00000000000E+00  0.65868345947E+03  0.38701756698E+04  0.38137115538E+04 0.  0.
        5    1    3    3  502    0  0.38073253927E+03  0.12261153745E+04 -0.11014119919E+04  0.16915811077E+04  0.46999998093E+01 0. -1.
       -5    1    3    3    0  502 -0.38073253927E+03 -0.12261153745E+04  0.17600954514E+04  0.21785945621E+04  0.46999998093E+01 0.  1.
</event>
<event>
 5   0  0.3848431E-07  0.3743286E+04  0.7818609E-02  0.8058436E-01
        1   -1    0    0  501    0  0.00000000000E+00  0.00000000000E+00  0.24005082909E+04  0.24005082909E+04  0.50400001928E-02 0. -1.
       -1   -1    0    0    0  501  0.00000000000E+00  0.00000000000E+00 -0.14592939023E+04  0.14592939023E+04  0.50400001928E-02 0.  1.
    10030    2    1    2    0    0  0.00000000000E+00  0.00000000000E+00  0.94121438861E+03  0.38598021931E+04  0.37432857819E+04 0.  0.
        2    1    3    3  502    0 -0.13543832846E+04  0.42484843907E+01  0.18025879216E+04  0.22547051573E+04  0.25500000920E-02 0.  1.
       -2    1    3    3    0  502  0.13543832846E+04 -0.42484843907E+01 -0.86137353294E+03  0.16050970359E+04  0.25500000920E-02 0. -1.
</event>
<event>
 5   0  0.3704306E-07  0.3528885E+04  0.7818609E-02  0.8106979E-01
       -1   -1    0    0    0  501  0.00000000000E+00  0.00000000000E+00  0.10650899747E+04  0.10650899747E+04  0.50400001928E-02 0.  1.
        1   -1    0    0  501    0  0.00000000000E+00  0.00000000000E+00 -0.29229987542E+04  0.29229987542E+04  0.50400001928E-02 0. -1.
    10030    2    1    2    0    0  0.00000000000E+00  0.00000000000E+00 -0.18579087795E+04  0.39880887289E+04  0.35288846222E+04 0.  0.
        3    1    3    3  502    0  0.82535530543E+03  0.98057406891E+03 -0.22994031027E+04  0.26324877063E+04  0.10100000352E+00 0. -1.
       -3    1    3    3    0  502 -0.82535530543E+03 -0.98057406891E+03  0.44149432327E+03  0.13556010226E+04  0.10100000352E+00 0.  1.
</event>
<event>
 5   0  0.1128530E-06  0.3690887E+04  0.7818609E-02  0.8069984E-01
        2   -1    0    0  501    0  0.00000000000E+00  0.00000000000E+00  0.35066403016E+04  0.35066403016E+04  0.25500000920E-02 0.  1.
       -2   -1    0    0    0  501  0.00000000000E+00  0.00000000000E+00 -0.97120383315E+03  0.97120383316E+03  0.25500000920E-02 0. -1.
    10030    2    1    2    0    0  0.00000000000E+00  0.00000000000E+00  0.25354364685E+04  0.44778441348E+04  0.36908874285E+04 0.  0.
        5    1    3    3  502    0  0.97309986208E+03 -0.88725763387E+03  0.28362386990E+04  0.31270467694E+04  0.46999998093E+01 0.  1.
       -5    1    3    3    0  502 -0.97309986208E+03  0.88725763387E+03 -0.30080223051E+03  0.13507973654E+04  0.46999998093E+01 0. -1.
</event>
<event>
 5   0  0.1092116E-06  0.3743857E+04  0.7818609E-02  0.8058311E-01
       -2   -1    0    0    0  501  0.00000000000E+00  0.00000000000E+00  0.33589736784E+04  0.33589736784E+04  0.25500000920E-02 0.  1.
        2   -1    0    0  501    0  0.00000000000E+00  0.00000000000E+00 -0.10432106206E+04  0.10432106206E+04  0.25500000920E-02 0. -1.
    10030    2    1    2    0    0  0.00000000000E+00  0.00000000000E+00  0.23157630577E+04  0.44021842990E+04  0.37438573775E+04 0.  0.
        1    1    3    3  502    0  0.28380401040E+03  0.16363090807E+04  0.14224754009E+03  0.16668192723E+04  0.50400001928E-02 0. -1.
       -1    1    3    3    0  502 -0.28380401040E+03 -0.16363090807E+04  0.21735155176E+04  0.27353650267E+04  0.50400001928E-02 0.  1.
</event>
<event>
 5   0  0.3682276E-07  0.3624457E+04  0.7818609E-02  0.8084912E-01
        1   -1    0    0  501    0  0.00000000000E+00  0.00000000000E+00  0.27799893645E+04  0.27799893645E+04  0.50400001928E-02 0.  1.
       -1   -1    0    0    0  501  0.00000000000E+00  0.00000000000E+00 -0.11813615122E+04  0.11813615122E+04  0.50400001928E-02 0. -1.
    10030    2    1    2    0    0  0.00000000000E+00  0.00000000000E+00  0.15986278523E+04  0.39613508768E+04  0.36244571674E+04 0.  0.
        1    1    3    3  502    0  0.29821688970E+03 -0.16601414131E+00 -0.11543597322E+04  0.11922582489E+04  0.50400001928E-02 0. -1.
       -1    1    3    3    0  502 -0.29821688970E+03  0.16601414131E+00  0.27529875845E+04  0.27690926278E+04  0.50400001928E-02 0.  1.
</event>
<event>
 5   0  0.1051123E-06  0.3663587E+04  0.7818609E-02  0.8076080E-01
        2   -1    0    0  501    0  0.00000000000E+00  0.00000000000E+00  0.30144521746E+04  0.30144521746E+04  0.25500000920E-02 0.  1.
       -2   -1    0    0    0  501  0.00000000000E+00  0.00000000000E+00 -0.11131267547E+04  0.11131267548E+04  0.25500000920E-02 0. -1.
    10030    2    1    2    0    0  0.00000000000E+00  0.00000000000E+00  0.19013254198E+04  0.41275789293E+04  0.36635869671E+04 0.  0.
        2    1    3    3  502    0  0.68857021574E+02 -0.59482635693E+03  0.29010711332E+04  0.29622244014E+04  0.25500000920E-02 0.  1.
       -2    1    3    3    0  502 -0.68857021574E+02  0.59482635693E+03 -0.99974571338E+03  0.11653545279E+04  0.25500000920E-02 0. -1.
</event>
<event>
 5   0  0.1128530E-06  0.3626617E+04  0.7818609E-02  0.8084422E-01
        2   -1    0    0  501    0  0.00000000000E+00  0.00000000000E+00  0.19091753759E+04  0.19091753759E+04  0.25500000920E-02 0.  1.
       -2   -1    0    0    0  501  0.00000000000E+00  0.00000000000E+00 -0.17222554273E+04  0.17222554273E+04  0.25500000920E-02 0. -1.
    10030    2    1    2    0    0  0.00000000000E+00  0.00000000000E+00  0.18691994857E+03  0.36314308032E+04  0.36266169651E+04 0.  0.
        5    1    3    3  502    0  0.79867900271E+03  0.15429166330E+04 -0.42644562122E+03  0.17889543996E+04  0.46999998093E+01 0. -1.
       -5    1    3    3    0  502 -0.79867900271E+03 -0.15429166330E+04  0.61336556979E+03  0.18424764037E+04  0.46999998093E+01 0.  1.
</event>
<event>
 5   0  0.4833487E-07  0.2282708E+04  0.7818609E-02  0.8484770E-01
        1   -1    0    0  501    0  0.00000000000E+00  0.00000000000E+00  0.93247431733E+03  0.93247431734E+03  0.50400001928E-02 0. -1.
       -1   -1    0    0    0  501  0.00000000000E+00  0.00000000000E+00 -0.13970238522E+04  0.13970238522E+04  0.50400001928E-02 0.  1.
    10030    2    1    2    0    0  0.00000000000E+00  0.00000000000E+00 -0.46454953486E+03  0.23294981695E+04  0.22827079208E+04 0.  0.
        2    1    3    3  502    0 -0.20513221685E+03 -0.82090233779E+03  0.54940847300E+03  0.10088654741E+04  0.25500000920E-02 0.  1.
       -2    1    3    3    0  502  0.20513221685E+03  0.82090233779E+03 -0.10139580079E+04  0.13206326955E+04  0.25500000920E-02 0. -1.
</event>
<event>
 5   0  0.1051123E-06  0.4091022E+04  0.7818609E-02  0.7986432E-01
       -2   -1    0    0    0  501  0.00000000000E+00  0.00000000000E+00  0.22751437516E+04  0.22751437516E+04  0.25500000920E-02 0.  1.
        2   -1    0    0  501    0  0.00000000000E+00  0.00000000000E+00 -0.18390555587E+04  0.18390555587E+04  0.25500000920E-02 0. -1.
    10030    2    1    2    0    0  0.00000000000E+00  0.00000000000E+00  0.43608819291E+03  0.41141993103E+04  0.40910222503E+04 0.  0.
        2    1    3    3  502    0 -0.50696609441E+03  0.15254610510E+04  0.14901490372E+04  0.21919375429E+04  0.25500000920E-02 0.  1.
       -2    1    3    3    0  502  0.50696609441E+03 -0.15254610510E+04 -0.10540608443E+04  0.19222617674E+04  0.25500000920E-02 0. -1.
</event>
<event>
 5   0  0.1128166E-06  0.3745889E+04  0.7818609E-02  0.8057868E-01
       -2   -1    0    0    0  501  0.00000000000E+00  0.00000000000E+00  0.21104044046E+04  0.21104044046E+04  0.25500000920E-02 0.  1.
        2   -1    0    0  501    0  0.00000000000E+00  0.00000000000E+00 -0.16622032235E+04  0.16622032235E+04  0.25500000920E-02 0. -1.
    10030    2    1    2    0    0  0.00000000000E+00  0.00000000000E+00  0.44820118105E+03  0.37726076281E+04  0.37458889488E+04 0.  0.
        3    1    3    3  502    0 -0.14317769853E+04 -0.89873508937E+02 -0.98858868432E+03  0.17422313796E+04  0.10100000352E+00 0. -1.
       -3    1    3    3    0  502  0.14317769853E+04  0.89873508937E+02  0.14367898654E+04  0.20303762485E+04  0.10100000352E+00 0.  1.
</event>
<event>
 5   0  0.3675819E-07  0.3037120E+04  0.7818609E-02  0.8233210E-01
        1   -1    0    0  501    0  0.00000000000E+00  0.00000000000E+00  0.18079980242E+04  0.18079980242E+04  0.50400001928E-02 0.  1.
       -1   -1    0    0    0  501  0.00000000000E+00  0.00000000000E+00 -0.12754571908E+04  0.12754571908E+04  0.50400001928E-02 0. -1.
    10030    2    1    2    0    0  0.00000000000E+00  0.00000000000E+00  0.53254083349E+03  0.30834552150E+04  0.30371197414E+04 0.  0.
        5    1    3    3  502    0 -0.14242836776E+04  0.42948525138E+03 -0.43275270973E+02  0.14882662445E+04  0.46999998093E+01 0. -1.
       -5    1    3    3    0  502  0.14242836776E+04 -0.42948525138E+03  0.57581610446E+03  0.15951889705E+04  0.46999998093E+01 0.  1.
</event>
<event>
 5   0  0.1092116E-06  0.3691568E+04  0.7818609E-02  0.8069833E-01
        2   -1    0    0  501    0  0.00000000000E+00  0.00000000000E+00  0.25263058709E+04  0.25263058709E+04  0.25500000920E-02 0.  1.
       -2   -1    0    0    0  501  0.00000000000E+00  0.00000000000E+00 -0.13485773205E+04  0.13485773205E+04  0.25500000920E-02 0. -1.
    10030    2    1    2    0    0  0.00000000000E+00  0.00000000000E+00  0.11777285504E+04  0.38748831915E+04  0.36915681233E+04 0.  0.
        1    1    3    3  502    0  0.11008650549E+03 -0.59276121393E+03 -0.12423099442E+04  0.13808761323E+04  0.50400001928E-02 0. -1.
       -1    1    3    3    0  502 -0.11008650549E+03  0.59276121393E+03  0.24200384946E+04  0.24940070591E+04  0.50400001928E-02 0.  1.
</event>
<event>
 5   0  0.4894122E-07  0.2296626E+04  0.7818609E-02  0.8479253E-01
       -1   -1    0    0    0  501  0.00000000000E+00  0.00000000000E+00  0.10150661621E+04  0.10150661621E+04  0.50400001928E-02 0. -1.
        1   -1    0    0  501    0  0.00000000000E+00  0.00000000000E+00 -0.12990508340E+04  0.12990508340E+04  0.50400001928E-02 0.  1.
    10030    2    1    2    0    0  0.00000000000E+00  0.00000000000E+00 -0.28398467194E+03  0.23141169961E+04  0.22966258245E+04 0.  0.
        4    1    3    3  502    0 -0.50775742237E+03  0.93298226240E+03  0.29761868993E+03  0.11031101484E+04  0.12699999809E+01 0.  1.
       -4    1    3    3    0  502  0.50775742237E+03 -0.93298226240E+03 -0.58160336186E+03  0.12110068478E+04  0.12699999809E+01 0. -1.
</event>
<event>
 5   0  0.3848431E-07  0.3509350E+04  0.7818609E-02  0.8111578E-01
        1   -1    0    0  501    0  0.00000000000E+00  0.00000000000E+00  0.20188786272E+04  0.20188786272E+04  0.50400001928E-02 0.  1.
       -1   -1    0    0    0  501  0.00000000000E+00  0.00000000000E+00 -0.15250467543E+04  0.15250467543E+04  0.50400001928E-02 0. -1.
    10030    2    1    2    0    0  0.00000000000E+00  0.00000000000E+00  0.49383187296E+03  0.35439253815E+04  0.35093499670E+04 0.  0.
        2    1    3    3  502    0  0.86734598486E+03 -0.40527928533E+03 -0.12380629400E+04  0.15650368046E+04  0.25500000920E-02 0. -1.
       -2    1    3    3    0  502 -0.86734598486E+03  0.40527928533E+03  0.17318948129E+04  0.19788885769E+04  0.25500000920E-02 0.  1.
</event>
<event>
 5   0  0.1066907E-06  0.3563342E+04  0.7818609E-02  0.8098941E-01
        2   -1    0    0  501    0  0.00000000000E+00  0.00000000000E+00  0.23340483998E+04  0.23340483998E+04  0.25500000920E-02 0. -1.
       -2   -1    0    0    0  501  0.00000000000E+00  0.00000000000E+00 -0.13600197714E+04  0.13600197714E+04  0.25500000920E-02 0.  1.
    10030    2    1    2    0    0  0.00000000000E+00  0.00000000000E+00  0.97402862846E+03  0.36940681712E+04  0.35633422351E+04 0.  0.
        4    1    3    3  502    0  0.17734403125E+04  0.16745962763E+03  0.45084763751E+03  0.18374978841E+04  0.12699999809E+01 0. -1.
       -4    1    3    3    0  502 -0.17734403125E+04 -0.16745962763E+03  0.52318099095E+03  0.18565702871E+04  0.12699999809E+01 0.  1.
</event>
<event>
 5   0  0.1051123E-06  0.3356339E+04  0.7818609E-02  0.8148706E-01
       -2   -1    0    0    0  501  0.00000000000E+00  0.00000000000E+00  0.15915609226E+04  0.15915609226E+04  0.25500000920E-02 0.  1.
        2   -1    0    0  501    0  0.00000000000E+00  0.00000000000E+00 -0.17694911029E+04  0.17694911029E+04  0.25500000920E-02 0. -1.
    10030    2    1    2    0    0  0.00000000000E+00  0.00000000000E+00 -0.17793018033E+03  0.33610520255E+04  0.33563390129E+04 0.  0.
        2    1    3    3  502    0  0.15242408930E+04  0.13761943745E+03  0.60048078919E+03  0.16440275508E+04  0.25500000920E-02 0.  1.
       -2    1    3    3    0  502 -0.15242408930E+04 -0.13761943745E+03 -0.77841096952E+03  0.17170244748E+04  0.25500000920E-02 0. -1.
</event>
<event>
 5   0  0.1128166E-06  0.3578062E+04  0.7818609E-02  0.8095535E-01
       -2   -1    0    0    0  501  0.00000000000E+00  0.00000000000E+00  0.17300649574E+04  0.17300649574E+04  0.25500000920E-02 0.  1.
        2   -1    0    0  501    0  0.00000000000E+00  0.00000000000E+00 -0.18500067721E+04  0.18500067721E+04  0.25500000920E-02 0. -1.
    10030    2    1    2    0    0  0.00000000000E+00  0.00000000000E+00 -0.11994181473E+03  0.35800717295E+04  0.35780619823E+04 0.  0.
        3    1    3    3  502    0 -0.88724233908E+01 -0.12404123771E+04 -0.13498537634E+04  0.18332503314E+04  0.10100000352E+00 0. -1.
       -3    1    3    3    0  502  0.88724233908E+01  0.12404123771E+04  0.12299119486E+04  0.17468213980E+04  0.10100000352E+00 0.  1.
</event>
<event>
 5   0  0.3848431E-07  0.2802806E+04  0.7818609E-02  0.8302398E-01
        1   -1    0    0  501    0  0.00000000000E+00  0.00000000000E+00  0.16555738853E+04  0.16555738853E+04  0.50400001928E-02 0. -1.
       -1   -1    0    0    0  501  0.00000000000E+00  0.00000000000E+00 -0.11862538684E+04  0.11862538684E+04  0.50400001928E-02 0.  1.
    10030    2    1    2    0    0  0.00000000000E+00  0.00000000000E+00  0.46932001686E+03  0.28418277537E+04  0.28028063977E+04 0.  0.
        2    1    3    3  502    0 -0.10292053496E+04  0.93044302547E+03  0.43474735960E+03  0.14539577511E+04  0.25500000920E-02 0.  1.
       -2    1    3    3    0  502  0.10292053496E+04 -0.93044302547E+03  0.34572657259E+02  0.13878700025E+04  0.25500000920E-02 0. -1.
</event>
<event>
 5   0  0.1066907E-06  0.2958626E+04  0.7818609E-02  0.8255645E-01
       -2   -1    0    0    0  501  0.00000000000E+00  0.00000000000E+00  0.13402112732E+04  0.13402112732E+04  0.25500000920E-02 0.  1.
        2   -1    0    0  501    0  0.00000000000E+00  0.00000000000E+00 -0.16328520631E+04  0.16328520631E+04  0.25500000920E-02 0. -1.
    10030    2    1    2    0    0  0.00000000000E+00  0.00000000000E+00 -0.29264078993E+03  0.29730633363E+04  0.29586258583E+04 0.  0.
        4    1    3    3  502    0 -0.10343999101E+04  0.46613596275E+03 -0.11002150590E+04  0.15804242148E+04  0.12699999809E+01 0. -1.
       -4    1    3    3    0  502  0.10343999101E+04 -0.46613596275E+03  0.80757426903E+03  0.13926391215E+04  0.12699999809E+01 0.  1.
</event>
<event>
 5   0  0.1128166E-06  0.3434217E+04  0.7818609E-02  0.8129559E-01
       -2   -1    0    0    0  501  0.00000000000E+00  0.00000000000E+00  0.19940341110E+04  0.19940341110E+04  0.25500000920E-02 0.  1.
        2   -1    0    0  501    0  0.00000000000E+00  0.00000000000E+00 -0.14786419099E+04  0.14786419099E+04  0.25500000920E-02 0. -1.
    10030    2    1    2    0    0  0.00000000000E+00  0.00000000000E+00  0.51539220111E+03  0.34726760209E+04  0.34342174691E+04 0.  0.
        3    1    3    3  502    0 -0.16752881764E+04 -0.37305000925E+03  0.20509809405E+03  0.17285317532E+04  0.10100000352E+00 0. -1.
       -3    1    3    3    0  502  0.16752881764E+04  0.37305000925E+03  0.31029410706E+03  0.17441442677E+04  0.10100000352E+00 0.  1.
</event>
<event>
 5   0  0.3675819E-07  0.3676266E+04  0.7818609E-02  0.8073242E-01
       -1   -1    0    0    0  501  0.00000000000E+00  0.00000000000E+00  0.13335710692E+04  0.13335710692E+04  0.50400001928E-02 0. -1.
        1   -1    0    0  501    0  0.00000000000E+00  0.00000000000E+00 -0.25335980790E+04  0.25335980790E+04  0.50400001928E-02 0.  1.
    10030    2    1    2    0    0  0.00000000000E+00  0.00000000000E+00 -0.12000270097E+04  0.38671691482E+04  0.36762660944E+04 0.  0.
        5    1    3    3  502    0  0.15055098806E+04  0.10544291585E+04 -0.58089969045E+03  0.19276533379E+04  0.46999998093E+01 0. -1.
       -5    1    3    3    0  502 -0.15055098806E+04 -0.10544291585E+04 -0.61912731930E+03  0.19395158103E+04  0.46999998093E+01 0.  1.
</event>
<event>
 5   0  0.1092116E-06  0.3618220E+04  0.7818609E-02  0.8086331E-01
        2   -1    0    0  501    0  0.00000000000E+00  0.00000000000E+00  0.18708561095E+04  0.18708561096E+04  0.25500000920E-02 0.  1.
       -2   -1    0    0    0  501  0.00000000000E+00  0.00000000000E+00 -0.17494020541E+04  0.17494020541E+04  0.25500000920E-02 0. -1.
    10030    2    1    2    0    0  0.00000000000E+00  0.00000000000E+00  0.12145405545E+03  0.36202581637E+04  0.36182202923E+04 0.  0.
        1    1    3    3  502    0  0.25531770128E+03  0.97007026950E+03 -0.14456627151E+04  0.17595920386E+04  0.50400001928E-02 0. -1.
       -1    1    3    3    0  502 -0.25531770128E+03 -0.97007026950E+03  0.15671167706E+04  0.18606661251E+04  0.50400001928E-02 0.  1.
</event>
<event>
 5   0  0.3848431E-07  0.3712710E+04  0.7818609E-02  0.8065151E-01
        1   -1    0    0  501    0  0.00000000000E+00  0.00000000000E+00  0.24538868544E+04  0.24538868544E+04  0.50400001928E-02 0. -1.
       -1   -1    0    0    0  501  0.00000000000E+00  0.00000000000E+00 -0.14043245937E+04  0.14043245937E+04  0.50400001928E-02 0.  1.
    10030    2    1    2    0    0  0.00000000000E+00  0.00000000000E+00  0.10495622607E+04  0.38582114482E+04  0.37127098782E+04 0.  0.
        2    1    3    3  502    0 -0.32772337631E+03 -0.52193619653E+03 -0.12949098185E+04  0.14340890637E+04  0.25500000920E-02 0.  1.
       -2    1    3    3    0  502  0.32772337631E+03  0.52193619653E+03  0.23444720792E+04  0.24241223844E+04  0.25500000920E-02 0. -1.
</event>
<event>
 5   0  0.3682276E-07  0.3734945E+04  0.7818609E-02  0.8060261E-01
       -1   -1    0    0    0  501  0.00000000000E+00  0.00000000000E+00  0.15897142515E+04  0.15897142515E+04  0.50400001928E-02 0.  1.
        1   -1    0    0  501    0  0.00000000000E+00  0.00000000000E+00 -0.21937609447E+04  0.21937609447E+04  0.50400001928E-02 0. -1.
    10030    2    1    2    0    0  0.00000000000E+00  0.00000000000E+00 -0.60404669319E+03  0.37834751961E+04  0.37349447321E+04 0.  0.
        1    1    3    3  502    0 -0.86518814371E+03  0.84597420045E+03  0.11388617762E+04  0.16616946221E+04  0.50400001928E-02 0.  1.
       -1    1    3    3    0  502  0.86518814371E+03 -0.84597420045E+03 -0.17429084693E+04  0.21217805740E+04  0.50400001928E-02 0. -1.
</event>
<event>
 5   0  0.1066907E-06  0.2844564E+04  0.7818609E-02  0.8289565E-01
        2   -1    0    0  501    0  0.00000000000E+00  0.00000000000E+00  0.11018182727E+04  0.11018182727E+04  0.25500000920E-02 0.  1.
       -2   -1    0    0    0  501  0.00000000000E+00  0.00000000000E+00 -0.18359521050E+04  0.18359521050E+04  0.25500000920E-02 0. -1.
    10030    2    1    2    0    0  0.00000000000E+00  0.00000000000E+00 -0.73413383227E+03  0.29377703777E+04  0.28445636411E+04 0.  0.
        4    1    3    3  502    0  0.27439888052E+03  0.12963075622E+04 -0.90089430458E+03  0.16022859302E+04  0.12699999809E+01 0. -1.
       -4    1    3    3    0  502 -0.27439888052E+03 -0.12963075622E+04  0.16676047231E+03  0.13354844474E+04  0.12699999809E+01 0.  1.
</event>
<event>
 5   0  0.1066907E-06  0.3746056E+04  0.7818609E-02  0.8057831E-01
       -2   -1    0    0    0  501  0.00000000000E+00  0.00000000000E+00  0.15844406904E+04  0.15844406904E+04  0.25500000920E-02 0.  1.
        2   -1    0    0  501    0  0.00000000000E+00  0.00000000000E+00 -0.22141781064E+04  0.22141781064E+04  0.25500000920E-02 0. -1.
    10030    2    1    2    0    0  0.00000000000E+00  0.00000000000E+00 -0.62973741603E+03  0.37986187968E+04  0.37460559994E+04 0.  0.
        4    1    3    3  502    0 -0.13880415539E+04 -0.12551766904E+04 -0.23564178780E+03  0.18861751097E+04  0.12699999809E+01 0. -1.
       -4    1    3    3    0  502  0.13880415539E+04  0.12551766904E+04 -0.39409562823E+03  0.19124436871E+04  0.12699999809E+01 0.  1.
</event>
<event>
 5   0  0.1066907E-06  0.2549461E+04  0.7818609E-02  0.8385574E-01
        2   -1    0    0  501    0  0.00000000000E+00  0.00000000000E+00  0.21324119677E+04  0.21324119677E+04  0.25500000920E-02 0.  1.
       -2   -1    0    0    0  501  0.00000000000E+00  0.00000000000E+00 -0.76201889624E+03  0.76201889624E+03  0.25500000920E-02 0. -1.
    10030    2    1    2    0    0  0.00000000000E+00  0.00000000000E+00  0.13703930714E+04  0.28944308639E+04  0.25494612874E+04 0.  0.
        4    1    3    3  502    0 -0.20786930550E+03  0.92980422385E+03 -0.27626561403E+03  0.99200294619E+03  0.12699999809E+01 0. -1.
       -4    1    3    3    0  502  0.20786930550E+03 -0.92980422385E+03  0.16466586855E+04  0.19024279177E+04  0.12699999809E+01 0.  1.
</event>
<event>
 5   0  0.3704306E-07  0.3638549E+04  0.7818609E-02  0.8081718E-01
        1   -1    0    0  501    0  0.00000000000E+00  0.00000000000E+00  0.17383470887E+04  0.17383470887E+04  0.50400001928E-02 0. -1.
       -1   -1    0    0    0  501  0.00000000000E+00  0.00000000000E+00 -0.19039689029E+04  0.19039689029E+04  0.50400001928E-02 0.  1.
    10030    2    1    2    0    0  0.00000000000E+00  0.00000000000E+00 -0.16562181426E+03  0.36423159916E+04  0.36385485014E+04 0.  0.
        3    1    3    3  502    0 -0.69409279221E+03  0.10265439464E+04 -0.14161816595E+04  0.18817884528E+04  0.10100000352E+00 0.  1.
       -3    1    3    3    0  502  0.69409279221E+03 -0.10265439464E+04  0.12505598453E+04  0.17605275388E+04  0.10100000352E+00 0. -1.
</event>
<event>
 5   0  0.1128166E-06  0.3602814E+04  0.7818609E-02  0.8089847E-01
       -2   -1    0    0    0  501  0.00000000000E+00  0.00000000000E+00  0.14012447578E+04  0.14012447578E+04  0.25500000920E-02 0. -1.
        2   -1    0    0  501    0  0.00000000000E+00  0.00000000000E+00 -0.23158462138E+04  0.23158462138E+04  0.25500000920E-02 0.  1.
    10030    2    1    2    0    0  0.00000000000E+00  0.00000000000E+00 -0.91460145602E+03  0.37170909716E+04  0.36028141039E+04 0.  0.
        3    1    3    3  502    0 -0.14930203818E+04 -0.78168542592E+03  0.19922060261E+03  0.16970064302E+04  0.10100000352E+00 0.  1.
       -3    1    3    3    0  502  0.14930203818E+04  0.78168542592E+03 -0.11138220586E+04  0.20200845413E+04  0.10100000352E+00 0. -1.
</event>
<event>
 5   0  0.1092116E-06  0.3712343E+04  0.7818609E-02  0.8065232E-01
        2   -1    0    0  501    0  0.00000000000E+00  0.00000000000E+00  0.15784065895E+04  0.15784065895E+04  0.25500000920E-02 0. -1.
       -2   -1    0    0    0  501  0.00000000000E+00  0.00000000000E+00 -0.21828164249E+04  0.21828164249E+04  0.25500000920E-02 0.  1.
    10030    2    1    2    0    0  0.00000000000E+00  0.00000000000E+00 -0.60440983544E+03  0.37612230144E+04  0.37123425644E+04 0.  0.
        1    1    3    3  502    0  0.50885684468E+03  0.17551739790E+04  0.27348337495E+02  0.18276539378E+04  0.50400001928E-02 0. -1.
       -1    1    3    3    0  502 -0.50885684468E+03 -0.17551739790E+04 -0.63175817293E+03  0.19335690766E+04  0.50400001928E-02 0.  1.
</event>
<event>
 5   0  0.3848431E-07  0.3669567E+04  0.7818609E-02  0.8074740E-01
        1   -1    0    0  501    0  0.00000000000E+00  0.00000000000E+00  0.28860172571E+04  0.28860172571E+04  0.50400001928E-02 0.  1.
       -1   -1    0    0    0  501  0.00000000000E+00  0.00000000000E+00 -0.11664624421E+04  0.11664624422E+04  0.50400001928E-02 0. -1.
    10030    2    1    2    0    0  0.00000000000E+00  0.00000000000E+00  0.17195548149E+04  0.40524796992E+04  0.36695671340E+04 0.  0.
        2    1    3    3  502    0  0.95805086686E+03  0.47351748986E+03  0.25068305713E+04  0.27251201423E+04  0.25500000920E-02 0.  1.
       -2    1    3    3    0  502 -0.95805086686E+03 -0.47351748986E+03 -0.78727575641E+03  0.13273595569E+04  0.25500000920E-02 0. -1.
</event>
<event>
 5   0  0.3682276E-07  0.3235725E+04  0.7818609E-02  0.8179445E-01
        1   -1    0    0  501    0  0.00000000000E+00  0.00000000000E+00  0.18894146804E+04  0.18894146804E+04  0.50400001928E-02 0. -1.
       -1   -1    0    0    0  501  0.00000000000E+00  0.00000000000E+00 -0.13853388510E+04  0.13853388511E+04  0.50400001928E-02 0.  1.
    10030    2    1    2    0    0  0.00000000000E+00  0.00000000000E+00  0.50407582936E+03  0.32747535315E+04  0.32357253051E+04 0.  0.
        1    1    3    3  502    0 -0.52205564086E+03 -0.71604451286E+03 -0.11178830565E+04  0.14265077513E+04  0.50400001928E-02 0.  1.
       -1    1    3    3    0  502  0.52205564086E+03  0.71604451286E+03  0.16219588858E+04  0.18482457802E+04  0.50400001928E-02 0. -1.
</event>
<event>
 5   0  0.3848431E-07  0.3301645E+04  0.7818609E-02  0.8162477E-01
        1   -1    0    0  501    0  0.00000000000E+00  0.00000000000E+00  0.19551924381E+04  0.19551924381E+04  0.50400001928E-02 0. -1.
       -1   -1    0    0    0  501  0.00000000000E+00  0.00000000000E+00 -0.13938349545E+04  0.13938349545E+04  0.50400001928E-02 0.  1.
    10030    2    1    2    0    0  0.00000000000E+00  0.00000000000E+00  0.56135748360E+03  0.33490273925E+04  0.33016453855E+04 0.  0.
        2    1    3    3  502    0  0.71336485163E+03  0.75867311782E+03 -0.10186179197E+04  0.14567281069E+04  0.25500000920E-02 0.  1.
       -2    1    3    3    0  502 -0.71336485163E+03 -0.75867311782E+03  0.15799754033E+04  0.18922992856E+04  0.25500000920E-02 0. -1.
</event>
<event>
 5   0  0.1128166E-06  0.2944627E+04  0.7818609E-02  0.8259722E-01
        2   -1    0    0  501    0  0.00000000000E+00  0.00000000000E+00  0.13051113407E+04  0.13051113407E+04  0.25500000920E-02 0. -1.
       -2   -1    0    0    0  501  0.00000000000E+00  0.00000000000E+00 -0.16609369134E+04  0.16609369134E+04  0.25500000920E-02 0.  1.
    10030    2    1    2    0    0  0.00000000000E+00  0.00000000000E+00 -0.35582557272E+03  0.29660482541E+04  0.29446273801E+04 0.  0.
        3    1    3    3  502    0  0.88644933621E+02  0.13275058875E+04 -0.81303736792E+03  0.15592176171E+04  0.10100000352E+00 0.  1.
       -3    1    3    3    0  502 -0.88644933621E+02 -0.13275058875E+04  0.45721179521E+03  0.14068306371E+04  0.10100000352E+00 0. -1.
</event>
<event>
 5   0  0.3848431E-07  0.2502043E+04  0.7818609E-02  0.8402258E-01
        1   -1    0    0  501    0  0.00000000000E+00  0.00000000000E+00  0.16626491281E+04  0.16626491281E+04  0.50400001928E-02 0.  1.
       -1   -1    0    0    0  501  0.00000000000E+00  0.00000000000E+00 -0.94130223962E+03  0.94130223963E+03  0.50400001928E-02 0. -1.
    10030    2    1    2    0    0  0.00000000000E+00  0.00000000000E+00  0.72134688852E+03  0.26039513678E+04  0.25020434433E+04 0.  0.
        2    1    3    3  502    0 -0.82438203507E+03  0.27415041285E+03  0.12974986629E+04  0.15614951069E+04  0.25500000920E-02 0.  1.
       -2    1    3    3    0  502  0.82438203507E+03 -0.27415041285E+03 -0.57615177443E+03  0.10424562609E+04  0.25500000920E-02 0. -1.
</event>
<event>
 5   0  0.1051123E-06  0.3719153E+04  0.7818609E-02  0.8063730E-01
       -2   -1    0    0    0  501  0.00000000000E+00  0.00000000000E+00  0.22336728354E+04  0.22336728354E+04  0.25500000920E-02 0. -1.
        2   -1    0    0  501    0  0.00000000000E+00  0.00000000000E+00 -0.15481341393E+04  0.15481341393E+04  0.25500000920E-02 0.  1.
    10030    2    1    2    0    0  0.00000000000E+00  0.00000000000E+00  0.68553869617E+03  0.37818069747E+04  0.37191532222E+04 0.  0.
        2    1    3    3  502    0  0.53506312050E+03 -0.80150965877E+03 -0.12744046078E+04  0.15977538548E+04  0.25500000920E-02 0.  1.
       -2    1    3    3    0  502 -0.53506312050E+03  0.80150965877E+03  0.19599433040E+04  0.21840531200E+04  0.25500000920E-02 0. -1.
</event>
<event>
 5   0  0.3704306E-07  0.3131064E+04  0.7818609E-02  0.8207264E-01
        1   -1    0    0  501    0  0.00000000000E+00  0.00000000000E+00  0.15548663399E+04  0.15548663399E+04  0.50400001928E-02 0. -1.
       -1   -1    0    0    0  501  0.00000000000E+00  0.00000000000E+00 -0.15762705188E+04  0.15762705189E+04  0.50400001928E-02 0.  1.
    10030    2    1    2    0    0  0.00000000000E+00  0.00000000000E+00 -0.21404178954E+02  0.31311368588E+04  0.31310636994E+04 0.  0.
        3    1    3    3  502    0  0.70964380771E+03  0.62439718323E+03 -0.12586991116E+04  0.15740996284E+04  0.10100000352E+00 0.  1.
       -3    1    3    3    0  502 -0.70964380771E+03 -0.62439718323E+03  0.12372949327E+04  0.15570372304E+04  0.10100000352E+00 0. -1.
</event>
<event>
 5   0  0.3682276E-07  0.2648510E+04  0.7818609E-02  0.8351908E-01
        1   -1    0    0  501    0  0.00000000000E+00  0.00000000000E+00  0.12965015836E+04  0.12965015836E+04  0.50400001928E-02 0. -1.
       -1   -1    0    0    0  501  0.00000000000E+00  0.00000000000E+00 -0.13526028606E+04  0.13526028606E+04  0.50400001928E-02 0.  1.
    10030    2    1    2    0    0  0.00000000000E+00  0.00000000000E+00 -0.56101276941E+02  0.26491044442E+04  0.26485103366E+04 0.  0.
        1    1    3    3  502    0  0.62634293914E+03  0.95962423323E+03 -0.69187684753E+03  0.13386103685E+04  0.50400001928E-02 0.  1.
       -1    1    3    3    0  502 -0.62634293914E+03 -0.95962423323E+03  0.63577557059E+03  0.13104940758E+04  0.50400001928E-02 0. -1.
</event>
<event>
 5   0  0.1066907E-06  0.3576286E+04  0.7818609E-02  0.8095945E-01
       -2   -1    0    0    0  501  0.00000000000E+00  0.00000000000E+00  0.12711128171E+04  0.12711128172E+04  0.25500000920E-02 0.  1.
        2   -1    0    0  501    0  0.00000000000E+00  0.00000000000E+00 -0.25154779267E+04  0.25154779267E+04  0.25500000920E-02 0. -1.
    10030    2    1    2    0    0  0.00000000000E+00  0.00000000000E+00 -0.12443651095E+04  0.37865907438E+04  0.35762864728E+04 0.  0.
        4    1    3    3  502    0 -0.40447014419E+03  0.47626393490E+03  0.11517605550E+04  0.13103348511E+04  0.12699999809E+01 0.  1.
       -4    1    3    3    0  502  0.40447014419E+03 -0.47626393490E+03 -0.23961256645E+04  0.24762558927E+04  0.12699999809E+01 0. -1.
</event>
<event>
 5   0  0.1128530E-06  0.3683582E+04  0.7818609E-02  0.8071610E-01
       -2   -1    0    0    0  501  0.00000000000E+00  0.00000000000E+00  0.13474903113E+04  0.13474903113E+04  0.25500000920E-02 0. -1.
        2   -1    0    0  501    0  0.00000000000E+00  0.00000000000E+00 -0.25174162620E+04  0.25174162620E+04  0.25500000920E-02 0.  1.
    10030    2    1    2    0    0  0.00000000000E+00  0.00000000000E+00 -0.11699259507E+04  0.38649065733E+04  0.36835819646E+04 0.  0.
        5    1    3    3  502    0 -0.18074753880E+03  0.12473930332E+04  0.82409313109E+03  0.15059251743E+04  0.46999998093E+01 0. -1.
       -5    1    3    3    0  502  0.18074753880E+03 -0.12473930332E+04 -0.19940190818E+04  0.23589813990E+04  0.46999998093E+01 0.  1.
</event>
<event>
 5   0  0.3848431E-07  0.3575540E+04  0.7818609E-02  0.8096118E-01
        1   -1    0    0  501    0  0.00000000000E+00  0.00000000000E+00  0.26176628181E+04  0.26176628181E+04  0.50400001928E-02 0. -1.
       -1   -1    0    0    0  501  0.00000000000E+00  0.00000000000E+00 -0.12209829087E+04  0.12209829087E+04  0.50400001928E-02 0.  1.
    10030    2    1    2    0    0  0.00000000000E+00  0.00000000000E+00  0.13966799094E+04  0.38386457268E+04  0.35755399937E+04 0.  0.
        2    1    3    3  502    0  0.16254470874E+04 -0.59384687800E+03  0.21655360090E+03  0.17440263216E+04  0.25500000920E-02 0.  1.
       -2    1    3    3    0  502 -0.16254470874E+04  0.59384687800E+03  0.11801263085E+04  0.20946194052E+04  0.25500000920E-02 0. -1.
</event>
<event>
 5   0  0.3764495E-07  0.3405131E+04  0.7818609E-02  0.8136648E-01
        1   -1    0    0  501    0  0.00000000000E+00  0.00000000000E+00  0.20977986987E+04  0.20977986987E+04  0.50400001928E-02 0. -1.
       -1   -1    0    0    0  501  0.00000000000E+00  0.00000000000E+00 -0.13817958381E+04  0.13817958381E+04  0.50400001928E-02 0.  1.
    10030    2    1    2    0    0  0.00000000000E+00  0.00000000000E+00  0.71600286054E+03  0.34795945368E+04  0.34051311347E+04 0.  0.
        4    1    3    3  502    0  0.64032849960E+03 -0.31107856086E+03  0.19384112046E+04  0.20650012274E+04  0.12699999809E+01 0. -1.
       -4    1    3    3    0  502 -0.64032849960E+03  0.31107856086E+03 -0.12224083440E+04  0.14145933094E+04  0.12699999809E+01 0.  1.
</event>
<event>
 5   0  0.3682276E-07  0.2857856E+04  0.7818609E-02  0.8285528E-01
        1   -1    0    0  501    0  0.00000000000E+00  0.00000000000E+00  0.19287791192E+04  0.19287791192E+04  0.50400001928E-02 0.  1.
       -1   -1    0    0    0  501  0.00000000000E+00  0.00000000000E+00 -0.10586155650E+04  0.10586155650E+04  0.50400001928E-02 0. -1.
    10030    2    1    2    0    0  0.00000000000E+00  0.00000000000E+00  0.87016355425E+03  0.29873946842E+04  0.28578562574E+04 0.  0.
        1    1    3    3  502    0  0.90004980632E+03 -0.10999321305E+04  0.58975929374E+03  0.15387515622E+04  0.50400001928E-02 0.  1.
       -1    1    3    3    0  502 -0.90004980632E+03  0.10999321305E+04  0.28040426051E+03  0.14486431220E+04  0.50400001928E-02 0. -1.
</event>
<event>
 5   0  0.3490375E-07  0.3695539E+04  0.7818609E-02  0.8068951E-01
       -3   -1    0    0    0  501  0.00000000000E+00  0.00000000000E+00  0.29391312802E+04  0.29391312819E+04  0.10100000352E+00 0.  1.
        3   -1    0    0  501    0  0.00000000000E+00  0.00000000000E+00 -0.11616536971E+04  0.11616537015E+04  0.10100000352E+00 0. -1.
    10030    2    1    2    0    0  0.00000000000E+00  0.00000000000E+00  0.17774775831E+04  0.41007849834E+04  0.36955393276E+04 0.  0.
        2    1    3    3  502    0 -0.19732587384E+03  0.11284622716E+04  0.24975088289E+04  0.27477108562E+04  0.25500000920E-02 0.  1.
       -2    1    3    3    0  502  0.19732587384E+03 -0.11284622716E+04 -0.72003124573E+03  0.13530741272E+04  0.25500000920E-02 0. -1.
</event>
<event>
 5   0  0.3704306E-07  0.2571493E+04  0.7818609E-02  0.8377949E-01
       -1   -1    0    0    0  501  0.00000000000E+00  0.00000000000E+00  0.10047525703E+04  0.10047525703E+04  0.50400001928E-02 0. -1.
        1   -1    0    0  501    0  0.00000000000E+00  0.00000000000E+00 -0.16453247180E+04  0.16453247180E+04  0.50400001928E-02 0.  1.
    10030    2    1    2    0    0  0.00000000000E+00  0.00000000000E+00 -0.64057214769E+03  0.26500772884E+04  0.25714931378E+04 0.  0.
        3    1    3    3  502    0 -0.26347056989E+03  0.99110117363E+03 -0.11195155147E+04  0.15182270171E+04  0.10100000352E+00 0.  1.
       -3    1    3    3    0  502  0.26347056989E+03 -0.99110117363E+03  0.47894336703E+03  0.11318502713E+04  0.10100000352E+00 0. -1.
</event>
<event>
 5   0  0.1092116E-06  0.3659943E+04  0.7818609E-02  0.8076897E-01
        2   -1    0    0  501    0  0.00000000000E+00  0.00000000000E+00  0.21652117611E+04  0.21652117611E+04  0.25500000920E-02 0. -1.
       -2   -1    0    0    0  501  0.00000000000E+00  0.00000000000E+00 -0.15466364551E+04  0.15466364551E+04  0.25500000920E-02 0.  1.
    10030    2    1    2    0    0  0.00000000000E+00  0.00000000000E+00  0.61857530608E+03  0.37118482162E+04  0.36599428644E+04 0.  0.
        1    1    3    3  502    0  0.14770912732E+04  0.55193963727E+03  0.12510906470E+04  0.20128745116E+04  0.50400001928E-02 0. -1.
       -1    1    3    3    0  502 -0.14770912732E+04 -0.55193963727E+03 -0.63251534093E+03  0.16989737046E+04  0.50400001928E-02 0.  1.
</event>
<event>
 5   0  0.3675819E-07  0.3686530E+04  0.7818609E-02  0.8070953E-01
       -1   -1    0    0    0  501  0.00000000000E+00  0.00000000000E+00  0.16337115023E+04  0.16337115023E+04  0.50400001928E-02 0. -1.
        1   -1    0    0  501    0  0.00000000000E+00  0.00000000000E+00 -0.20796979147E+04  0.20796979147E+04  0.50400001928E-02 0.  1.
    10030    2    1    2    0    0  0.00000000000E+00  0.00000000000E+00 -0.44598641235E+03  0.37134094170E+04  0.36865302953E+04 0.  0.
        5    1    3    3  502    0 -0.13089433762E+04  0.10753914960E+03 -0.15257548075E+04  0.20131684612E+04  0.46999998093E+01 0.  1.
       -5    1    3    3    0  502  0.13089433762E+04 -0.10753914960E+03  0.10797683951E+04  0.17002409558E+04  0.46999998093E+01 0. -1.
</event>
<event>
 5   0  0.3682276E-07  0.3446030E+04  0.7818609E-02  0.8126701E-01
        1   -1    0    0  501    0  0.00000000000E+00  0.00000000000E+00  0.18251255734E+04  0.18251255734E+04  0.50400001928E-02 0. -1.
       -1   -1    0    0    0  501  0.00000000000E+00  0.00000000000E+00 -0.16266172661E+04  0.16266172661E+04  0.50400001928E-02 0.  1.
    10030    2    1    2    0    0  0.00000000000E+00  0.00000000000E+00  0.19850830731E+03  0.34517428395E+04  0.34460300466E+04 0.  0.
        1    1    3    3  502    0 -0.12007235462E+04 -0.11901948278E+04 -0.23368220170E+03  0.17067243873E+04  0.50400001928E-02 0. -1.
       -1    1    3    3    0  502  0.12007235462E+04  0.11901948278E+04  0.43219050901E+03  0.17450184523E+04  0.50400001928E-02 0.  1.
</event>
<event>
 5   0  0.3704306E-07  0.3656493E+04  0.7818609E-02  0.8077672E-01
        1   -1    0    0  501    0  0.00000000000E+00  0.00000000000E+00  0.28763730260E+04  0.28763730260E+04  0.50400001928E-02 0.  1.
       -1   -1    0    0    0  501  0.00000000000E+00  0.00000000000E+00 -0.11620485876E+04  0.11620485876E+04  0.50400001928E-02 0. -1.
    10030    2    1    2    0    0  0.00000000000E+00  0.00000000000E+00  0.17143244383E+04  0.40384216136E+04  0.36564929713E+04 0.  0.
        3    1    3    3  502    0 -0.23199034486E+03  0.17749199960E+04  0.12679303740E+04  0.21935833596E+04  0.10100000352E+00 0. -1.
       -3    1    3    3    0  502  0.23199034486E+03 -0.17749199960E+04  0.44639406439E+03  0.18448382540E+04  0.10100000352E+00 0.  1.
</event>
<event>
 5   0  0.3764495E-07  0.3551000E+04  0.7818609E-02  0.8101809E-01
       -1   -1    0    0    0  501  0.00000000000E+00  0.00000000000E+00  0.16780438440E+04  0.16780438440E+04  0.50400001928E-02 0. -1.
        1   -1    0    0  501    0  0.00000000000E+00  0.00000000000E+00 -0.18786159976E+04  0.18786159976E+04  0.50400001928E-02 0.  1.
    10030    2    1    2    0    0  0.00000000000E+00  0.00000000000E+00 -0.20057215364E+03  0.35566598416E+04  0.35509998649E+04 0.  0.
        4    1    3    3  502    0 -0.50226443757E+01  0.16790754816E+04 -0.67833567595E+03  0.18109281051E+04  0.12699999809E+01 0.  1.
       -4    1    3    3    0  502  0.50226443757E+01 -0.16790754816E+04  0.47776352231E+03  0.17457317365E+04  0.12699999809E+01 0. -1.
</event>
<event>
 5   0  0.3675819E-07  0.3602784E+04  0.7818609E-02  0.8089854E-01
       -1   -1    0    0    0  501  0.00000000000E+00  0.00000000000E+00  0.13833040232E+04  0.13833040232E+04  0.50400001928E-02 0.  1.
        1   -1    0    0  501    0  0.00000000000E+00  0.00000000000E+00 -0.23458428419E+04  0.23458428419E+04  0.50400001928E-02 0. -1.
    10030    2    1    2    0    0  0.00000000000E+00  0.00000000000E+00 -0.96253881871E+03  0.37291468651E+04  0.36027843904E+04 0.  0.
        5    1    3    3  502    0 -0.10258942918E+04  0.75353443295E+03 -0.18006201932E+04  0.22051141489E+04  0.46999998093E+01 0. -1.
       -5    1    3    3    0  502  0.10258942918E+04 -0.75353443295E+03  0.83808137453E+03  0.15240327161E+04  0.46999998093E+01 0.  1.
</event>
<event>
 5   0  0.1092116E-06  0.3552456E+04  0.7818609E-02  0.8101470E-01
       -2   -1    0    0    0  501  0.00000000000E+00  0.00000000000E+00  0.11904925560E+04  0.11904925560E+04  0.25500000920E-02 0. -1.
        2   -1    0    0  501    0  0.00000000000E+00  0.00000000000E+00 -0.26501522225E+04  0.26501522225E+04  0.25500000920E-02 0.  1.
    10030    2    1    2    0    0  0.00000000000E+00  0.00000000000E+00 -0.14596596665E+04  0.38406447785E+04  0.35524563294E+04 0.  0.
        1    1    3    3  502    0 -0.10685476375E+04  0.55833597990E+03  0.68038545739E+03  0.13843617630E+04  0.50400001928E-02 0. -1.
       -1    1    3    3    0  502  0.10685476375E+04 -0.55833597990E+03 -0.21400451239E+04  0.24562830155E+04  0.50400001928E-02 0.  1.
</event>
<event>
 5   0  0.1128166E-06  0.3717148E+04  0.7818609E-02  0.8064172E-01
        2   -1    0    0  501    0  0.00000000000E+00  0.00000000000E+00  0.26914993306E+04  0.26914993306E+04  0.25500000920E-02 0. -1.
       -2   -1    0    0    0  501  0.00000000000E+00  0.00000000000E+00 -0.12834101111E+04  0.12834101111E+04  0.25500000920E-02 0.  1.
    10030    2    1    2    0    0  0.00000000000E+00  0.00000000000E+00  0.14080892196E+04  0.39749094417E+04  0.37171480761E+04 0.  0.
        3    1    3    3  502    0 -0.42362801141E+03 -0.13218859988E+04  0.20256489904E+04  0.24556256083E+04  0.10100000352E+00 0. -1.
       -3    1    3    3    0  502  0.42362801141E+03  0.13218859988E+04 -0.61755977081E+03  0.15192838334E+04  0.10100000352E+00 0.  1.
</event>
<event>
 5   0  0.3704306E-07  0.3730328E+04  0.7818609E-02  0.8061274E-01
       -1   -1    0    0    0  501  0.00000000000E+00  0.00000000000E+00  0.26154588031E+04  0.26154588031E+04  0.50400001928E-02 0.  1.
        1   -1    0    0  501    0  0.00000000000E+00  0.00000000000E+00 -0.13301054731E+04  0.13301054732E+04  0.50400001928E-02 0. -1.
    10030    2    1    2    0    0  0.00000000000E+00  0.00000000000E+00  0.12853533300E+04  0.39455642763E+04  0.37303276365E+04 0.  0.
        3    1    3    3  502    0 -0.41243915049E+03  0.63950722085E+03 -0.11584456683E+04  0.13860273861E+04  0.10100000352E+00 0. -1.
       -3    1    3    3    0  502  0.41243915049E+03 -0.63950722085E+03  0.24437989982E+04  0.25595368902E+04  0.10100000352E+00 0.  1.
</event>
<event>
 5   0  0.1128530E-06  0.3050857E+04  0.7818609E-02  0.8229356E-01
        2   -1    0    0  501    0  0.00000000000E+00  0.00000000000E+00  0.13544539556E+04  0.13544539556E+04  0.25500000920E-02 0.  1.
       -2   -1    0    0    0  501  0.00000000000E+00  0.00000000000E+00 -0.17179853007E+04  0.17179853007E+04  0.25500000920E-02 0. -1.
    10030    2    1    2    0    0  0.00000000000E+00  0.00000000000E+00 -0.36353134506E+03  0.30724392563E+04  0.30508569198E+04 0.  0.
        5    1    3    3  502    0 -0.15761300894E+03  0.18099464982E+03  0.13353136188E+04  0.13567186424E+04  0.46999998093E+01 0.  1.
       -5    1    3    3    0  502  0.15761300894E+03 -0.18099464982E+03 -0.16988449639E+04  0.17157206140E+04  0.46999998093E+01 0. -1.
</event>
<event>
 5   0  0.3764495E-07  0.3897965E+04  0.7818609E-02  0.8025453E-01
       -1   -1    0    0    0  501  0.00000000000E+00  0.00000000000E+00  0.14029334261E+04  0.14029334261E+04  0.50400001928E-02 0.  1.
        1   -1    0    0  501    0  0.00000000000E+00  0.00000000000E+00 -0.27075644883E+04  0.27075644883E+04  0.50400001928E-02 0. -1.
    10030    2    1    2    0    0  0.00000000000E+00  0.00000000000E+00 -0.13046310622E+04  0.41104979145E+04  0.38979649686E+04 0.  0.
        4    1    3    3  502    0 -0.30598746785E+03 -0.17808287749E+04  0.11795757747E+03  0.18107719511E+04  0.12699999809E+01 0.  1.
       -4    1    3    3    0  502  0.30598746785E+03  0.17808287749E+04 -0.14225886397E+04  0.22997259634E+04  0.12699999809E+01 0. -1.
</event>
<event>
 5   0  0.3848431E-07  0.3769466E+04  0.7818609E-02  0.8052739E-01
        1   -1    0    0  501    0  0.00000000000E+00  0.00000000000E+00  0.22939522013E+04  0.22939522013E+04  0.50400001928E-02 0. -1.
       -1   -1    0    0    0  501  0.00000000000E+00  0.00000000000E+00 -0.15485145438E+04  0.15485145439E+04  0.50400001928E-02 0.  1.
    10030    2    1    2    0    0  0.00000000000E+00  0.00000000000E+00  0.74543765747E+03  0.38424667452E+04  0.37694659286E+04 0.  0.
        2    1    3    3  502    0 -0.14031518634E+04  0.12312588391E+04  0.10810564362E+03  0.18698984760E+04  0.25500000920E-02 0.  1.
       -2    1    3    3    0  502  0.14031518634E+04 -0.12312588391E+04  0.63733201385E+03  0.19725682691E+04  0.25500000920E-02 0. -1.
</event>
<event>
 5   0  0.3682276E-07  0.3641189E+04  0.7818609E-02  0.8081122E-01
        1   -1    0    0  501    0  0.00000000000E+00  0.00000000000E+00  0.14495780747E+04  0.14495780747E+04  0.50400001928E-02 0.  1.
       -1   -1    0    0    0  501  0.00000000000E+00  0.00000000000E+00 -0.22865715428E+04  0.22865715428E+04  0.50400001928E-02 0. -1.
    10030    2    1    2    0    0  0.00000000000E+00  0.00000000000E+00 -0.83699346811E+03  0.37361496176E+04  0.36411888030E+04 0.  0.
        1    1    3    3  502    0 -0.11371992389E+01 -0.11313044166E+04 -0.18821312440E+04  0.21959665288E+04  0.50400001928E-02 0. -1.
       -1    1    3    3    0  502  0.11371992389E+01  0.11313044166E+04  0.10451377759E+04  0.15401830887E+04  0.50400001928E-02 0.  1.
</event>
<event>
 5   0  0.3675819E-07  0.2425363E+04  0.7818609E-02  0.8430069E-01
        1   -1    0    0  501    0  0.00000000000E+00  0.00000000000E+00  0.21863266864E+04  0.21863266864E+04  0.50400001928E-02 0.  1.
       -1   -1    0    0    0  501  0.00000000000E+00  0.00000000000E+00 -0.67263362696E+03  0.67263362698E+03  0.50400001928E-02 0. -1.
    10030    2    1    2    0    0  0.00000000000E+00  0.00000000000E+00  0.15136930595E+04  0.28589603134E+04  0.24253633533E+04 0.  0.
        5    1    3    3  502    0  0.80183262157E+03  0.39141741344E+03 -0.21120901206E+03  0.91693755585E+03  0.46999998093E+01 0. -1.
       -5    1    3    3    0  502 -0.80183262157E+03 -0.39141741344E+03  0.17249020715E+04  0.19420227576E+04  0.46999998093E+01 0.  1.
</event>
<event>
 5   0  0.1128530E-06  0.3686661E+04  0.7818609E-02  0.8070924E-01
        2   -1    0    0  501    0  0.00000000000E+00  0.00000000000E+00  0.26076016091E+04  0.26076016091E+04  0.25500000920E-02 0. -1.
       -2   -1    0    0    0  501  0.00000000000E+00  0.00000000000E+00 -0.13030619896E+04  0.13030619896E+04  0.25500000920E-02 0.  1.
    10030    2    1    2    0    0  0.00000000000E+00  0.00000000000E+00  0.13045396195E+04  0.39106635987E+04  0.36866605706E+04 0.  0.
        5    1    3    3  502    0 -0.23654592490E+03  0.10379919916E+04  0.22485162029E+04  0.24878160210E+04  0.46999998093E+01 0. -1.
       -5    1    3    3    0  502  0.23654592490E+03 -0.10379919916E+04 -0.94397658344E+03  0.14228475777E+04  0.46999998093E+01 0.  1.
</event>
<event>
 5   0  0.1066907E-06  0.3700798E+04  0.7818609E-02  0.8067785E-01
       -2   -1    0    0    0  501  0.00000000000E+00  0.00000000000E+00  0.15443648704E+04  0.15443648704E+04  0.25500000920E-02 0.  1.
        2   -1    0    0  501    0  0.00000000000E+00  0.00000000000E+00 -0.22170770306E+04  0.22170770306E+04  0.25500000920E-02 0. -1.
    10030    2    1    2    0    0  0.00000000000E+00  0.00000000000E+00 -0.67271216013E+03  0.37614419010E+04  0.37007976876E+04 0.  0.
        4    1    3    3  502    0  0.87365042282E+03 -0.64468570023E+03  0.11865595667E+04  0.16083562825E+04  0.12699999809E+01 0.  1.
       -4    1    3    3    0  502 -0.87365042282E+03  0.64468570023E+03 -0.18592717268E+04  0.21530856185E+04  0.12699999809E+01 0. -1.
</event>
<event>
 5   0  0.3490375E-07  0.3507303E+04  0.7818609E-02  0.8112061E-01
       -3   -1    0    0    0  501  0.00000000000E+00  0.00000000000E+00  0.11659960094E+04  0.11659960138E+04  0.10100000352E+00 0.  1.
        3   -1    0    0  501    0  0.00000000000E+00  0.00000000000E+00 -0.26374827037E+04  0.26374827056E+04  0.10100000352E+00 0. -1.
    10030    2    1    2    0    0  0.00000000000E+00  0.00000000000E+00 -0.14714866943E+04  0.38034787194E+04  0.35073034196E+04 0.  0.
        2    1    3    3  502    0  0.14546621664E+04 -0.53996302033E+03  0.15038333878E+03  0.15589154019E+04  0.25500000920E-02 0. -1.
       -2    1    3    3    0  502 -0.14546621664E+04  0.53996302033E+03 -0.16218700330E+04  0.22445633174E+04  0.25500000920E-02 0.  1.
</event>
<event>
 5   0  0.1092116E-06  0.3776758E+04  0.7818609E-02  0.8051161E-01
        2   -1    0    0  501    0  0.00000000000E+00  0.00000000000E+00  0.23568969143E+04  0.23568969143E+04  0.25500000920E-02 0. -1.
       -2   -1    0    0    0  501  0.00000000000E+00  0.00000000000E+00 -0.15129958322E+04  0.15129958322E+04  0.25500000920E-02 0.  1.
    10030    2    1    2    0    0  0.00000000000E+00  0.00000000000E+00  0.84390108208E+03  0.38698927466E+04  0.37767579792E+04 0.  0.
        1    1    3    3  502    0  0.56903878232E+03 -0.17387501496E+04  0.90137534502E+03  0.20394937438E+04  0.50400001928E-02 0. -1.
       -1    1    3    3    0  502 -0.56903878232E+03  0.17387501496E+04 -0.57474262934E+02  0.18303990028E+04  0.50400001928E-02 0.  1.
</event>
<event>
 5   0  0.1066907E-06  0.3247700E+04  0.7818609E-02  0.8176332E-01
       -2   -1    0    0    0  501  0.00000000000E+00  0.00000000000E+00  0.15597383412E+04  0.15597383412E+04  0.25500000920E-02 0.  1.
        2   -1    0    0  501    0  0.00000000000E+00  0.00000000000E+00 -0.16905972017E+04  0.16905972017E+04  0.25500000920E-02 0. -1.
    10030    2    1    2    0    0  0.00000000000E+00  0.00000000000E+00 -0.13085886050E+03  0.32503355428E+04  0.32477002786E+04 0.  0.
        4    1    3    3  502    0  0.58315113337E+03  0.14755195572E+04 -0.41163562623E+03  0.16391060703E+04  0.12699999809E+01 0. -1.
       -4    1    3    3    0  502 -0.58315113337E+03 -0.14755195572E+04  0.28077676573E+03  0.16112294725E+04  0.12699999809E+01 0.  1.
</event>
<event>
 5   0  0.1066907E-06  0.3637889E+04  0.7818609E-02  0.8081867E-01
       -2   -1    0    0    0  501  0.00000000000E+00  0.00000000000E+00  0.27578998127E+04  0.27578998127E+04  0.25500000920E-02 0.  1.
        2   -1    0    0  501    0  0.00000000000E+00  0.00000000000E+00 -0.11996664231E+04  0.11996664231E+04  0.25500000920E-02 0. -1.
    10030    2    1    2    0    0  0.00000000000E+00  0.00000000000E+00  0.15582333896E+04  0.39575662358E+04  0.36378893901E+04 0.  0.
        4    1    3    3  502    0  0.81946006734E+03  0.15664715259E+04  0.31347302755E+03  0.17954427853E+04  0.12699999809E+01 0. -1.
       -4    1    3    3    0  502 -0.81946006734E+03 -0.15664715259E+04  0.12447603620E+04  0.21621234505E+04  0.12699999809E+01 0.  1.
</event>
<event>
 5   0  0.3682276E-07  0.3783000E+04  0.7818609E-02  0.8049813E-01
        1   -1    0    0  501    0  0.00000000000E+00  0.00000000000E+00  0.12987054403E+04  0.12987054403E+04  0.50400001928E-02 0. -1.
       -1   -1    0    0    0  501  0.00000000000E+00  0.00000000000E+00 -0.27548759809E+04  0.27548759809E+04  0.50400001928E-02 0.  1.
    10030    2    1    2    0    0  0.00000000000E+00  0.00000000000E+00 -0.14561705405E+04  0.40535814212E+04  0.37830000919E+04 0.  0.
        1    1    3    3  502    0 -0.11137395878E+04  0.15190420854E+04 -0.54290128778E+03  0.19602669550E+04  0.50400001928E-02 0. -1.
       -1    1    3    3    0  502  0.11137395878E+04 -0.15190420854E+04 -0.91326925275E+03  0.20933144662E+04  0.50400001928E-02 0.  1.
</event>
<event>
 5   0  0.3675819E-07  0.3177020E+04  0.7818609E-02  0.8194913E-01
        1   -1    0    0  501    0  0.00000000000E+00  0.00000000000E+00  0.26333364346E+04  0.26333364346E+04  0.50400001928E-02 0. -1.
       -1   -1    0    0    0  501  0.00000000000E+00  0.00000000000E+00 -0.95823850047E+03  0.95823850048E+03  0.50400001928E-02 0.  1.
    10030    2    1    2    0    0  0.00000000000E+00  0.00000000000E+00  0.16750979342E+04  0.35915749351E+04  0.31770202117E+04 0.  0.
        5    1    3    3  502    0 -0.15811791599E+04  0.20718965906E+02  0.66690387215E+03  0.17161991947E+04  0.46999998093E+01 0. -1.
       -5    1    3    3    0  502  0.15811791599E+04 -0.20718965906E+02  0.10081940620E+04  0.18753757404E+04  0.46999998093E+01 0.  1.
</event>
<event>
 5   0  0.3704306E-07  0.3742172E+04  0.7818609E-02  0.8058680E-01
       -1   -1    0    0    0  501  0.00000000000E+00  0.00000000000E+00  0.15647491330E+04  0.15647491330E+04  0.50400001928E-02 0.  1.
        1   -1    0    0  501    0  0.00000000000E+00  0.00000000000E+00 -0.22373953839E+04  0.22373953839E+04  0.50400001928E-02 0. -1.
    10030    2    1    2    0    0  0.00000000000E+00  0.00000000000E+00 -0.67264625093E+03  0.38021445169E+04  0.37421718225E+04 0.  0.
        3    1    3    3  502    0  0.88903853433E+03 -0.11412332444E+04  0.86935350358E+03  0.16877731951E+04  0.10100000352E+00 0.  1.
       -3    1    3    3    0  502 -0.88903853433E+03  0.11412332444E+04 -0.15419997545E+04  0.21143713219E+04  0.10100000352E+00 0. -1.
</event>
<event>
 5   0  0.1066907E-06  0.3686278E+04  0.7818609E-02  0.8071010E-01
       -2   -1    0    0    0  501  0.00000000000E+00  0.00000000000E+00  0.15341949812E+04  0.15341949813E+04  0.25500000920E-02 0.  1.
        2   -1    0    0  501    0  0.00000000000E+00  0.00000000000E+00 -0.22142960387E+04  0.22142960387E+04  0.25500000920E-02 0. -1.
    10030    2    1    2    0    0  0.00000000000E+00  0.00000000000E+00 -0.68010105743E+03  0.37484910199E+04  0.36862782692E+04 0.  0.
        4    1    3    3  502    0  0.42800188437E+03 -0.14544837719E+04  0.72570801223E+03  0.16808814318E+04  0.12699999809E+01 0.  1.
       -4    1    3    3    0  502 -0.42800188437E+03  0.14544837719E+04 -0.14058090697E+04  0.20676095882E+04  0.12699999809E+01 0. -1.
</event>
<event>
 5   0  0.3682276E-07  0.3694641E+04  0.7818609E-02  0.8069151E-01
        1   -1    0    0  501    0  0.00000000000E+00  0.00000000000E+00  0.22240722282E+04  0.22240722282E+04  0.50400001928E-02 0. -1.
       -1   -1    0    0    0  501  0.00000000000E+00  0.00000000000E+00 -0.15343890923E+04  0.15343890923E+04  0.50400001928E-02 0.  1.
    10030    2    1    2    0    0  0.00000000000E+00  0.00000000000E+00  0.68968313590E+03  0.37584613205E+04  0.36946405333E+04 0.  0.
        1    1    3    3  502    0  0.13164087083E+04  0.98875007985E+02  0.16594034896E+04  0.21204546908E+04  0.50400001928E-02 0. -1.
       -1    1    3    3    0  502 -0.13164087083E+04 -0.98875007985E+02 -0.96972035368E+03  0.16380066297E+04  0.50400001928E-02 0.  1.
</event>
<event>
 5   0  0.1092116E-06  0.3745651E+04  0.7818609E-02  0.8057920E-01
       -2   -1    0    0    0  501  0.00000000000E+00  0.00000000000E+00  0.12611502544E+04  0.12611502544E+04  0.25500000920E-02 0. -1.
        2   -1    0    0  501    0  0.00000000000E+00  0.00000000000E+00 -0.27811715195E+04  0.27811715195E+04  0.25500000920E-02 0.  1.
    10030    2    1    2    0    0  0.00000000000E+00  0.00000000000E+00 -0.15200212651E+04  0.40423217739E+04  0.37456509017E+04 0.  0.
        1    1    3    3  502    0  0.10421966979E+04 -0.65258434514E+03  0.76447158509E+03  0.14479147382E+04  0.50400001928E-02 0. -1.
       -1    1    3    3    0  502 -0.10421966979E+04  0.65258434514E+03 -0.22844928501E+04  0.25944070357E+04  0.50400001928E-02 0.  1.
</event>
<event>
 5   0  0.3675819E-07  0.3601457E+04  0.7818609E-02  0.8090158E-01
        1   -1    0    0  501    0  0.00000000000E+00  0.00000000000E+00  0.23203809165E+04  0.23203809165E+04  0.50400001928E-02 0. -1.
       -1   -1    0    0    0  501  0.00000000000E+00  0.00000000000E+00 -0.13974532063E+04  0.13974532064E+04  0.50400001928E-02 0.  1.
    10030    2    1    2    0    0  0.00000000000E+00  0.00000000000E+00  0.92292771015E+03  0.37178341228E+04  0.36014573449E+04 0.  0.
        5    1    3    3  502    0  0.23811992493E+03  0.54665312830E+03 -0.12925800500E+04  0.14234872732E+04  0.46999998093E+01 0.  1.
       -5    1    3    3    0  502 -0.23811992493E+03 -0.54665312830E+03  0.22155077601E+04  0.22943468497E+04  0.46999998093E+01 0. -1.
</event>
<event>
 5   0  0.1128166E-06  0.2787831E+04  0.7818609E-02  0.8307056E-01
       -2   -1    0    0    0  501  0.00000000000E+00  0.00000000000E+00  0.91784233199E+03  0.91784233200E+03  0.25500000920E-02 0. -1.
        2   -1    0    0  501    0  0.00000000000E+00  0.00000000000E+00 -0.21169222799E+04  0.21169222799E+04  0.25500000920E-02 0.  1.
    10030    2    1    2    0    0  0.00000000000E+00  0.00000000000E+00 -0.11990799479E+04  0.30347646119E+04  0.27878313306E+04 0.  0.
        3    1    3    3  502    0  0.13153163243E+04 -0.31619138961E+03 -0.23366389634E+03  0.13728193088E+04  0.10100000352E+00 0. -1.
       -3    1    3    3    0  502 -0.13153163243E+04  0.31619138961E+03 -0.96541605155E+03  0.16619453031E+04  0.10100000352E+00 0.  1.
</event>
<event>
 5   0  0.1092116E-06  0.3690524E+04  0.7818609E-02  0.8070065E-01
       -2   -1    0    0    0  501  0.00000000000E+00  0.00000000000E+00  0.24002274755E+04  0.24002274755E+04  0.25500000920E-02 0.  1.
        2   -1    0    0  501    0  0.00000000000E+00  0.00000000000E+00 -0.14186123863E+04  0.14186123863E+04  0.25500000920E-02 0. -1.
    10030    2    1    2    0    0  0.00000000000E+00  0.00000000000E+00  0.98161508923E+03  0.38188398618E+04  0.36905243132E+04 0.  0.
        1    1    3    3  502    0  0.42009648687E+03  0.73746082397E+03 -0.12046552229E+04  0.14736090836E+04  0.50400001928E-02 0. -1.
       -1    1    3    3    0  502 -0.42009648687E+03 -0.73746082397E+03  0.21862703121E+04  0.23452307782E+04  0.50400001928E-02 0.  1.
</event>
<event>
 5   0  0.3675819E-07  0.3488296E+04  0.7818609E-02  0.8116569E-01
       -1   -1    0    0    0  501  0.00000000000E+00  0.00000000000E+00  0.21204786986E+04  0.21204786986E+04  0.50400001928E-02 0. -1.
        1   -1    0    0  501    0  0.00000000000E+00  0.00000000000E+00 -0.14346061513E+04  0.14346061513E+04  0.50400001928E-02 0.  1.
    10030    2    1    2    0    0  0.00000000000E+00  0.00000000000E+00  0.68587254733E+03  0.35550848499E+04  0.34882957356E+04 0.  0.
        5    1    3    3  502    0 -0.41825982282E+03 -0.17756602316E+02  0.20685092678E+04  0.21104523821E+04  0.46999998093E+01 0. -1.
       -5    1    3    3    0  502  0.41825982282E+03  0.17756602316E+02 -0.13826367204E+04  0.14446324678E+04  0.46999998093E+01 0.  1.
</event>
<event>
 5   0  0.3848431E-07  0.3709883E+04  0.7818609E-02  0.8065775E-01
        1   -1    0    0  501    0  0.00000000000E+00  0.00000000000E+00  0.27714301594E+04  0.27714301594E+04  0.50400001928E-02 0.  1.
       -1   -1    0    0    0  501  0.00000000000E+00  0.00000000000E+00 -0.12415276475E+04  0.12415276475E+04  0.50400001928E-02 0. -1.
    10030    2    1    2    0    0  0.00000000000E+00  0.00000000000E+00  0.15299025119E+04  0.40129578069E+04  0.37098825675E+04 0.  0.
        2    1    3    3  502    0  0.12947046456E+04  0.94206245547E+03 -0.24807432960E+03  0.16202724038E+04  0.25500000920E-02 0. -1.
       -2    1    3    3    0  502 -0.12947046456E+04 -0.94206245547E+03  0.17779768415E+04  0.23926854032E+04  0.25500000920E-02 0.  1.
</event>
<event>
 5   0  0.1051123E-06  0.3615154E+04  0.7818609E-02  0.8087029E-01
       -2   -1    0    0    0  501  0.00000000000E+00  0.00000000000E+00  0.13173962718E+04  0.13173962718E+04  0.25500000920E-02 0. -1.
        2   -1    0    0  501    0  0.00000000000E+00  0.00000000000E+00 -0.24801450785E+04  0.24801450785E+04  0.25500000920E-02 0.  1.
    10030    2    1    2    0    0  0.00000000000E+00  0.00000000000E+00 -0.11627488067E+04  0.37975413503E+04  0.36151535956E+04 0.  0.
        2    1    3    3  502    0  0.14663512895E+04 -0.21401081795E+03  0.50590426146E+03  0.15658626556E+04  0.25500000920E-02 0. -1.
       -2    1    3    3    0  502 -0.14663512895E+04  0.21401081795E+03 -0.16686530681E+04  0.22316786947E+04  0.25500000920E-02 0.  1.
</event>
<event>
 5   0  0.1051123E-06  0.3685508E+04  0.7818609E-02  0.8071181E-01
       -2   -1    0    0    0  501  0.00000000000E+00  0.00000000000E+00  0.19949746367E+04  0.19949746367E+04  0.25500000920E-02 0.  1.
        2   -1    0    0  501    0  0.00000000000E+00  0.00000000000E+00 -0.17021484131E+04  0.17021484131E+04  0.25500000920E-02 0. -1.
    10030    2    1    2    0    0  0.00000000000E+00  0.00000000000E+00  0.29282622351E+03  0.36971230498E+04  0.36855083297E+04 0.  0.
        2    1    3    3  502    0 -0.10826150066E+04 -0.13005517223E+04  0.87826890838E+03  0.19065272908E+04  0.25500000920E-02 0.  1.
       -2    1    3    3    0  502  0.10826150066E+04  0.13005517223E+04 -0.58544268486E+03  0.17905957590E+04  0.25500000920E-02 0. -1.
</event>
<event>
 5   0  0.3704306E-07  0.3708366E+04  0.7818609E-02  0.8066110E-01
        1   -1    0    0  501    0  0.00000000000E+00  0.00000000000E+00  0.16599506168E+04  0.16599506168E+04  0.50400001928E-02 0. -1.
       -1   -1    0    0    0  501  0.00000000000E+00  0.00000000000E+00 -0.20711429731E+04  0.20711429731E+04  0.50400001928E-02 0.  1.
    10030    2    1    2    0    0  0.00000000000E+00  0.00000000000E+00 -0.41119235631E+03  0.37310935898E+04  0.37083662471E+04 0.  0.
        3    1    3    3  502    0  0.60911244015E+03 -0.16928294382E+04 -0.65701682985E+03  0.19152964774E+04  0.10100000352E+00 0.  1.
       -3    1    3    3    0  502 -0.60911244015E+03  0.16928294382E+04  0.24582447354E+03  0.18157971124E+04  0.10100000352E+00 0. -1.
</event>
<event>
 5   0  0.3848431E-07  0.3318519E+04  0.7818609E-02  0.8158199E-01
        1   -1    0    0  501    0  0.00000000000E+00  0.00000000000E+00  0.18618799825E+04  0.18618799825E+04  0.50400001928E-02 0. -1.
       -1   -1    0    0    0  501  0.00000000000E+00  0.00000000000E+00 -0.14786892793E+04  0.14786892793E+04  0.50400001928E-02 0.  1.
    10030    2    1    2    0    0  0.00000000000E+00  0.00000000000E+00  0.38319070316E+03  0.33405692618E+04  0.33185189284E+04 0.  0.
        2    1    3    3  502    0 -0.75281373840E+03 -0.83423154923E+03  0.14205559834E+04  0.18112564988E+04  0.25500000920E-02 0. -1.
       -2    1    3    3    0  502  0.75281373840E+03  0.83423154923E+03 -0.10373652802E+04  0.15293127630E+04  0.25500000920E-02 0.  1.
</event>
<event>
 5   0  0.1092116E-06  0.2760324E+04  0.7818609E-02  0.8315693E-01
       -2   -1    0    0    0  501  0.00000000000E+00  0.00000000000E+00  0.12921747927E+04  0.12921747927E+04  0.25500000920E-02 0.  1.
        2   -1    0    0  501    0  0.00000000000E+00  0.00000000000E+00 -0.14741403039E+04  0.14741403039E+04  0.25500000920E-02 0. -1.
    10030    2    1    2    0    0  0.00000000000E+00  0.00000000000E+00 -0.18196551123E+03  0.27663150967E+04  0.27603238518E+04 0.  0.
        1    1    3    3  502    0 -0.10484703500E+04 -0.57016294585E+03  0.60368195284E+03  0.13374631808E+04  0.50400001928E-02 0.  1.
       -1    1    3    3    0  502  0.10484703500E+04  0.57016294585E+03 -0.78564746407E+03  0.14288519159E+04  0.50400001928E-02 0. -1.
</event>
<event>
 5   0  0.3764495E-07  0.3566485E+04  0.7818609E-02  0.8098212E-01
        1   -1    0    0  501    0  0.00000000000E+00  0.00000000000E+00  0.15679081604E+04  0.15679081604E+04  0.50400001928E-02 0.  1.
       -1   -1    0    0    0  501  0.00000000000E+00  0.00000000000E+00 -0.20281502202E+04  0.20281502202E+04  0.50400001928E-02 0. -1.
    10030    2    1    2    0    0  0.00000000000E+00  0.00000000000E+00 -0.46024205975E+03  0.35960583806E+04  0.35664847011E+04 0.  0.
        4    1    3    3  502    0  0.10008103810E+04  0.47120484503E+03  0.11801535530E+04  0.16175349908E+04  0.12699999809E+01 0.  1.
       -4    1    3    3    0  502 -0.10008103810E+04 -0.47120484503E+03 -0.16403956128E+04  0.19785233898E+04  0.12699999809E+01 0. -1.
</event>
<event>
 5   0  0.1092116E-06  0.3487997E+04  0.7818609E-02  0.8116640E-01
        2   -1    0    0  501    0  0.00000000000E+00  0.00000000000E+00  0.23000413658E+04  0.23000413658E+04  0.25500000920E-02 0.  1.
       -2   -1    0    0    0  501  0.00000000000E+00  0.00000000000E+00 -0.13223810216E+04  0.13223810216E+04  0.25500000920E-02 0. -1.
    10030    2    1    2    0    0  0.00000000000E+00  0.00000000000E+00  0.97766034420E+03  0.36224223874E+04  0.34879971623E+04 0.  0.
        1    1    3    3  502    0  0.89867697267E+03 -0.93591472118E+03  0.16990625155E+04  0.21378423932E+04  0.50400001928E-02 0.  1.
       -1    1    3    3    0  502 -0.89867697267E+03  0.93591472118E+03 -0.72140217126E+03  0.14845799942E+04  0.50400001928E-02 0. -1.
</event>
<event>
 5   0  0.3682276E-07  0.3658314E+04  0.7818609E-02  0.8077263E-01
        1   -1    0    0  501    0  0.00000000000E+00  0.00000000000E+00  0.17225136893E+04  0.17225136893E+04  0.50400001928E-02 0. -1.
       -1   -1    0    0    0  501  0.00000000000E+00  0.00000000000E+00 -0.19424031910E+04  0.19424031911E+04  0.50400001928E-02 0.  1.
    10030    2    1    2    0    0  0.00000000000E+00  0.00000000000E+00 -0.21988950171E+03  0.36649168804E+04  0.36583144134E+04 0.  0.
        1    1    3    3  502    0  0.11836387523E+04  0.47525919715E+03 -0.14233960559E+04  0.19112635434E+04  0.50400001928E-02 0.  1.
       -1    1    3    3    0  502 -0.11836387523E+04 -0.47525919715E+03  0.12035065542E+04  0.17536533370E+04  0.50400001928E-02 0. -1.
</event>
<event>
 5   0  0.1066907E-06  0.3738604E+04  0.7818609E-02  0.8059460E-01
        2   -1    0    0  501    0  0.00000000000E+00  0.00000000000E+00  0.20925452302E+04  0.20925452302E+04  0.25500000920E-02 0.  1.
       -2   -1    0    0    0  501  0.00000000000E+00  0.00000000000E+00 -0.16698755446E+04  0.16698755446E+04  0.25500000920E-02 0. -1.
    10030    2    1    2    0    0  0.00000000000E+00  0.00000000000E+00  0.42266968564E+03  0.37624207748E+04  0.37386040742E+04 0.  0.
        4    1    3    3  502    0 -0.77680427436E+03 -0.30370399388E+02 -0.14994775831E+04  0.16890180215E+04  0.12699999809E+01 0. -1.
       -4    1    3    3    0  502  0.77680427436E+03  0.30370399388E+02  0.19221472687E+04  0.20734027533E+04  0.12699999809E+01 0.  1.
</event>
<event>
 5   0  0.1128166E-06  0.3779229E+04  0.7818609E-02  0.8050627E-01
       -2   -1    0    0    0  501  0.00000000000E+00  0.00000000000E+00  0.21181163596E+04  0.21181163596E+04  0.25500000920E-02 0.  1.
        2   -1    0    0  501    0  0.00000000000E+00  0.00000000000E+00 -0.16857634915E+04  0.16857634915E+04  0.25500000920E-02 0. -1.
    10030    2    1    2    0    0  0.00000000000E+00  0.00000000000E+00  0.43235286817E+03  0.38038798511E+04  0.37792291435E+04 0.  0.
        3    1    3    3  502    0  0.52744222212E+03  0.12003255220E+04  0.15858117889E+04  0.20576140786E+04  0.10100000352E+00 0.  1.
       -3    1    3    3    0  502 -0.52744222212E+03 -0.12003255220E+04 -0.11534589207E+04  0.17462657725E+04  0.10100000352E+00 0. -1.
</event>
<event>
 5   0  0.1051123E-06  0.3704662E+04  0.7818609E-02  0.8066929E-01
       -2   -1    0    0    0  501  0.00000000000E+00  0.00000000000E+00  0.27701874105E+04  0.27701874105E+04  0.25500000920E-02 0.  1.
        2   -1    0    0  501    0  0.00000000000E+00  0.00000000000E+00 -0.12385912633E+04  0.12385912633E+04  0.25500000920E-02 0. -1.
    10030    2    1    2    0    0  0.00000000000E+00  0.00000000000E+00  0.15315961472E+04  0.40087786739E+04  0.37046618871E+04 0.  0.
        2    1    3    3  502    0 -0.17480860161E+04  0.38291354434E+03  0.24831174072E+03  0.18066782288E+04  0.25500000920E-02 0. -1.
       -2    1    3    3    0  502  0.17480860161E+04 -0.38291354434E+03  0.12832844065E+04  0.22021004450E+04  0.25500000920E-02 0.  1.
</event>
<event>
 5   0  0.1092116E-06  0.3671273E+04  0.7818609E-02  0.8074358E-01
        2   -1    0    0  501    0  0.00000000000E+00  0.00000000000E+00  0.20375707710E+04  0.20375707710E+04  0.25500000920E-02 0.  1.
       -2   -1    0    0    0  501  0.00000000000E+00  0.00000000000E+00 -0.16537148973E+04  0.16537148973E+04  0.25500000920E-02 0. -1.
    10030    2    1    2    0    0  0.00000000000E+00  0.00000000000E+00  0.38385587377E+03  0.36912856683E+04  0.36712728791E+04 0.  0.
        1    1    3    3  502    0  0.47461029280E+03  0.13690849093E+04 -0.94111906772E+03  0.17278175594E+04  0.50400001928E-02 0. -1.
       -1    1    3    3    0  502 -0.47461029280E+03 -0.13690849093E+04  0.13249749415E+04  0.19634681089E+04  0.50400001928E-02 0.  1.
</event>
<event>
 5   0  0.3764495E-07  0.3716163E+04  0.7818609E-02  0.8064389E-01
        1   -1    0    0  501    0  0.00000000000E+00  0.00000000000E+00  0.19169683405E+04  0.19169683405E+04  0.50400001928E-02 0.  1.
       -1   -1    0    0    0  501  0.00000000000E+00  0.00000000000E+00 -0.18010037077E+04  0.18010037077E+04  0.50400001928E-02 0. -1.
    10030    2    1    2    0    0  0.00000000000E+00  0.00000000000E+00  0.11596463279E+03  0.37179720481E+04  0.37161631227E+04 0.  0.
        4    1    3    3  502    0  0.11800423612E+04 -0.13521378351E+04  0.53955722313E+03  0.18740064859E+04  0.12699999809E+01 0.  1.
       -4    1    3    3    0  502 -0.11800423612E+04  0.13521378351E+04 -0.42359259034E+03  0.18439655622E+04  0.12699999809E+01 0. -1.
</event>
<event>
 5   0  0.1051123E-06  0.3666719E+04  0.7818609E-02  0.8075378E-01
        2   -1    0    0  501    0  0.00000000000E+00  0.00000000000E+00  0.26246029392E+04  0.26246029392E+04  0.25500000920E-02 0. -1.
       -2   -1    0    0    0  501  0.00000000000E+00  0.00000000000E+00 -0.12806532137E+04  0.12806532137E+04  0.25500000920E-02 0.  1.
    10030    2    1    2    0    0  0.00000000000E+00  0.00000000000E+00  0.13439497255E+04  0.39052561529E+04  0.36667185268E+04 0.  0.
        2    1    3    3  502    0 -0.35110797887E+03 -0.57261422359E+03 -0.11448857303E+04  0.13273760572E+04  0.25500000920E-02 0.  1.
       -2    1    3    3    0  502  0.35110797887E+03  0.57261422359E+03  0.24888354557E+04  0.25778800957E+04  0.25500000920E-02 0. -1.
</event>
<event>
 5   0  0.3675819E-07  0.3630847E+04  0.7818609E-02  0.8083462E-01
        1   -1    0    0  501    0  0.00000000000E+00  0.00000000000E+00  0.17116886047E+04  0.17116886047E+04  0.50400001928E-02 0. -1.
       -1   -1    0    0    0  501  0.00000000000E+00  0.00000000000E+00 -0.19254447631E+04  0.19254447631E+04  0.50400001928E-02 0.  1.
    10030    2    1    2    0    0  0.00000000000E+00  0.00000000000E+00 -0.21375615837E+03  0.36371333678E+04  0.36308466561E+04 0.  0.
        5    1    3    3  502    0  0.16824386040E+04  0.23213157856E+03 -0.74928015793E+03  0.18563209774E+04  0.46999998093E+01 0.  1.
       -5    1    3    3    0  502 -0.16824386040E+04 -0.23213157856E+03  0.53552399956E+03  0.17808123905E+04  0.46999998093E+01 0. -1.
</event>
<event>
 5   0  0.3764495E-07  0.3674098E+04  0.7818609E-02  0.8073726E-01
        1   -1    0    0  501    0  0.00000000000E+00  0.00000000000E+00  0.17951999454E+04  0.17951999454E+04  0.50400001928E-02 0. -1.
       -1   -1    0    0    0  501  0.00000000000E+00  0.00000000000E+00 -0.18798732536E+04  0.18798732536E+04  0.50400001928E-02 0.  1.
    10030    2    1    2    0    0  0.00000000000E+00  0.00000000000E+00 -0.84673308213E+02  0.36750731991E+04  0.36740976374E+04 0.  0.
        4    1    3    3  502    0 -0.53620922124E+03  0.17569942279E+04 -0.28272202302E+02  0.18372125560E+04  0.12699999809E+01 0.  1.
       -4    1    3    3    0  502  0.53620922124E+03 -0.17569942279E+04 -0.56401105911E+02  0.18378606431E+04  0.12699999809E+01 0. -1.
</event>
<event>
 5   0  0.3764495E-07  0.3680701E+04  0.7818609E-02  0.8072252E-01
       -1   -1    0    0    0  501  0.00000000000E+00  0.00000000000E+00  0.14196088171E+04  0.14196088172E+04  0.50400001928E-02 0. -1.
        1   -1    0    0  501    0  0.00000000000E+00  0.00000000000E+00 -0.23857909619E+04  0.23857909619E+04  0.50400001928E-02 0.  1.
    10030    2    1    2    0    0  0.00000000000E+00  0.00000000000E+00 -0.96618214474E+03  0.38053997790E+04  0.36807009579E+04 0.  0.
        4    1    3    3  502    0  0.47404847797E+03  0.34862293592E+03 -0.22859071624E+04  0.23604306977E+04  0.12699999809E+01 0.  1.
       -4    1    3    3    0  502 -0.47404847797E+03 -0.34862293592E+03  0.13197250176E+04  0.14449690813E+04  0.12699999809E+01 0. -1.
</event>
<event>
 5   0  0.3490375E-07  0.3724339E+04  0.7818609E-02  0.8062589E-01
        3   -1    0    0  501    0  0.00000000000E+00  0.00000000000E+00  0.24889688879E+04  0.24889688900E+04  0.10100000352E+00 0. -1.
       -3   -1    0    0    0  501  0.00000000000E+00  0.00000000000E+00 -0.13932173171E+04  0.13932173207E+04  0.10100000352E+00 0.  1.
    10030    2    1    2    0    0  0.00000000000E+00  0.00000000000E+00  0.10957515709E+04  0.38821862107E+04  0.37243386352E+04 0.  0.
        2    1    3    3  502    0 -0.72552592258E+02 -0.10105860751E+04 -0.10807538780E+04  0.14814104896E+04  0.25500000920E-02 0.  1.
       -2    1    3    3    0  502  0.72552592258E+02  0.10105860751E+04  0.21765054489E+04  0.24007757211E+04  0.25500000920E-02 0. -1.
</event>
<event>
 5   0  0.1092116E-06  0.3656710E+04  0.7818609E-02  0.8077624E-01
        2   -1    0    0  501    0  0.00000000000E+00  0.00000000000E+00  0.22076871422E+04  0.22076871422E+04  0.25500000920E-02 0.  1.
       -2   -1    0    0    0  501  0.00000000000E+00  0.00000000000E+00 -0.15142007047E+04  0.15142007047E+04  0.25500000920E-02 0. -1.
    10030    2    1    2    0    0  0.00000000000E+00  0.00000000000E+00  0.69348643745E+03  0.37218878469E+04  0.36567096830E+04 0.  0.
        1    1    3    3  502    0  0.63706955621E+03 -0.41891083118E+03 -0.13446643698E+04  0.15457898212E+04  0.50400001928E-02 0. -1.
       -1    1    3    3    0  502 -0.63706955621E+03  0.41891083118E+03  0.20381508073E+04  0.21760980256E+04  0.50400001928E-02 0.  1.
</event>
<event>
 5   0  0.1066907E-06  0.3723160E+04  0.7818609E-02  0.8062849E-01
       -2   -1    0    0    0  501  0.00000000000E+00  0.00000000000E+00  0.13221327319E+04  0.13221327319E+04  0.25500000920E-02 0.  1.
        2   -1    0    0  501    0  0.00000000000E+00  0.00000000000E+00 -0.26211289745E+04  0.26211289745E+04  0.25500000920E-02 0. -1.
    10030    2    1    2    0    0  0.00000000000E+00  0.00000000000E+00 -0.12989962426E+04  0.39432617063E+04  0.37231601693E+04 0.  0.
        4    1    3    3  502    0  0.14938326288E+04  0.57110923043E+03 -0.16585964765E+04  0.23040498173E+04  0.12699999809E+01 0. -1.
       -4    1    3    3    0  502 -0.14938326288E+04 -0.57110923043E+03  0.35960023391E+03  0.16392118890E+04  0.12699999809E+01 0.  1.
</event>
<event>
 5   0  0.1128166E-06  0.3111518E+04  0.7818609E-02  0.8212584E-01
        2   -1    0    0  501    0  0.00000000000E+00  0.00000000000E+00  0.13770337467E+04  0.13770337467E+04  0.25500000920E-02 0. -1.
       -2   -1    0    0    0  501  0.00000000000E+00  0.00000000000E+00 -0.17576804750E+04  0.17576804751E+04  0.25500000920E-02 0.  1.
    10030    2    1    2    0    0  0.00000000000E+00  0.00000000000E+00 -0.38064672833E+03  0.31347142218E+04  0.31115175269E+04 0.  0.
        3    1    3    3  502    0  0.33818722899E+03 -0.11638879335E+04 -0.11729818731E+04  0.16866808259E+04  0.10100000352E+00 0.  1.
       -3    1    3    3    0  502 -0.33818722899E+03  0.11638879335E+04  0.79233514479E+03  0.14480333959E+04  0.10100000352E+00 0. -1.
</event>
<event>
 5   0  0.3848431E-07  0.3579188E+04  0.7818609E-02  0.8095276E-01
        1   -1    0    0  501    0  0.00000000000E+00  0.00000000000E+00  0.18181879216E+04  0.18181879216E+04  0.50400001928E-02 0. -1.
       -1   -1    0    0    0  501  0.00000000000E+00  0.00000000000E+00 -0.17614494050E+04  0.17614494050E+04  0.50400001928E-02 0.  1.
    10030    2    1    2    0    0  0.00000000000E+00  0.00000000000E+00  0.56738516527E+02  0.35796373266E+04  0.35791876356E+04 0.  0.
        2    1    3    3  502    0  0.93478179944E+03 -0.14933124155E+04 -0.28606974964E+03  0.17848346939E+04  0.25500000920E-02 0.  1.
       -2    1    3    3    0  502 -0.93478179944E+03  0.14933124155E+04  0.34280826617E+03  0.17948026327E+04  0.25500000920E-02 0. -1.
</event>
<event>
 5   0  0.3848431E-07  0.3762959E+04  0.7818609E-02  0.8054151E-01
        1   -1    0    0  501    0  0.00000000000E+00  0.00000000000E+00  0.16272585152E+04  0.16272585152E+04  0.50400001928E-02 0.  1.
       -1   -1    0    0    0  501  0.00000000000E+00  0.00000000000E+00 -0.21754169245E+04  0.21754169245E+04  0.50400001928E-02 0. -1.
    10030    2    1    2    0    0  0.00000000000E+00  0.00000000000E+00 -0.54815840925E+03  0.38026754397E+04  0.37629593219E+04 0.  0.
        2    1    3    3  502    0  0.65986232470E+03  0.77307033410E+03 -0.18741127219E+04  0.21319837062E+04  0.25500000920E-02 0. -1.
       -2    1    3    3    0  502 -0.65986232470E+03 -0.77307033410E+03  0.13259543127E+04  0.16706917335E+04  0.25500000920E-02 0.  1.
</event>
<event>
 5   0  0.3764495E-07  0.3683929E+04  0.7818609E-02  0.8071533E-01
        1   -1    0    0  501    0  0.00000000000E+00  0.00000000000E+00  0.19675748377E+04  0.19675748377E+04  0.50400001928E-02 0. -1.
       -1   -1    0    0    0  501  0.00000000000E+00  0.00000000000E+00 -0.17243731315E+04  0.17243731315E+04  0.50400001928E-02 0.  1.
    10030    2    1    2    0    0  0.00000000000E+00  0.00000000000E+00  0.24320170618E+03  0.36919479692E+04  0.36839289810E+04 0.  0.
        4    1    3    3  502    0 -0.15418117325E+04  0.95486617685E+03  0.44460466946E+03  0.18672513915E+04  0.12699999809E+01 0. -1.
       -4    1    3    3    0  502  0.15418117325E+04 -0.95486617685E+03 -0.20140296328E+03  0.18246965777E+04  0.12699999809E+01 0.  1.
</event>
<event>
 5   0  0.3704306E-07  0.3209115E+04  0.7818609E-02  0.8186414E-01
        1   -1    0    0  501    0  0.00000000000E+00  0.00000000000E+00  0.17155717369E+04  0.17155717369E+04  0.50400001928E-02 0.  1.
       -1   -1    0    0    0  501  0.00000000000E+00  0.00000000000E+00 -0.15007274295E+04  0.15007274295E+04  0.50400001928E-02 0. -1.
    10030    2    1    2    0    0  0.00000000000E+00  0.00000000000E+00  0.21484430747E+03  0.32162991664E+04  0.32091154936E+04 0.  0.
        3    1    3    3  502    0  0.14771328686E+04 -0.51456437529E+03 -0.25102007767E+03  0.15842061411E+04  0.10100000352E+00 0. -1.
       -3    1    3    3    0  502 -0.14771328686E+04  0.51456437529E+03  0.46586438514E+03  0.16320930253E+04  0.10100000352E+00 0.  1.
</event>
<event>
 5   0  0.1066907E-06  0.3344079E+04  0.7818609E-02  0.8151769E-01
        2   -1    0    0  501    0  0.00000000000E+00  0.00000000000E+00  0.14481638332E+04  0.14481638332E+04  0.25500000920E-02 0.  1.
       -2   -1    0    0    0  501  0.00000000000E+00  0.00000000000E+00 -0.19305245888E+04  0.19305245888E+04  0.25500000920E-02 0. -1.
    10030    2    1    2    0    0  0.00000000000E+00  0.00000000000E+00 -0.48236075556E+03  0.33786884220E+04  0.33440788799E+04 0.  0.
        4    1    3    3  502    0  0.89844191755E+03  0.13871555058E+04  0.15050309386E+02  0.16527632623E+04  0.12699999809E+01 0. -1.
       -4    1    3    3    0  502 -0.89844191755E+03 -0.13871555058E+04 -0.49741106494E+03  0.17259251597E+04  0.12699999809E+01 0.  1.
</event>
<event>
 5   0  0.1128530E-06  0.3728445E+04  0.7818609E-02  0.8061687E-01
       -2   -1    0    0    0  501  0.00000000000E+00  0.00000000000E+00  0.25276879826E+04  0.25276879826E+04  0.25500000920E-02 0. -1.
        2   -1    0    0  501    0  0.00000000000E+00  0.00000000000E+00 -0.13749031631E+04  0.13749031631E+04  0.25500000920E-02 0.  1.
    10030    2    1    2    0    0  0.00000000000E+00  0.00000000000E+00  0.11527848195E+04  0.39025911457E+04  0.37284453611E+04 0.  0.
        5    1    3    3  502    0  0.79723626440E+03 -0.93251725502E+03  0.20455646580E+04  0.23852737689E+04  0.46999998093E+01 0. -1.
       -5    1    3    3    0  502 -0.79723626440E+03  0.93251725502E+03 -0.89277983852E+03  0.15173173769E+04  0.46999998093E+01 0.  1.
</event>
<event>
 5   0  0.3675819E-07  0.3407861E+04  0.7818609E-02  0.8135980E-01
        1   -1    0    0  501    0  0.00000000000E+00  0.00000000000E+00  0.17269356719E+04  0.17269356719E+04  0.50400001928E-02 0. -1.
       -1   -1    0    0    0  501  0.00000000000E+00  0.00000000000E+00 -0.16812317026E+04  0.16812317026E+04  0.50400001928E-02 0.  1.
    10030    2    1    2    0    0  0.00000000000E+00  0.00000000000E+00  0.45703969287E+02  0.34081673745E+04  0.34078609126E+04 0.  0.
        5    1    3    3  502    0 -0.14572344453E+04  0.79794267763E+03 -0.35548372001E+03  0.16990101561E+04  0.46999998093E+01 0.  1.
       -5    1    3    3    0  502  0.14572344453E+04 -0.79794267763E+03  0.40118768930E+03  0.17091572184E+04  0.46999998093E+01 0. -1.
</event>
<event>
 5   0  0.1092116E-06  0.3628137E+04  0.7818609E-02  0.8084077E-01
       -2   -1    0    0    0  501  0.00000000000E+00  0.00000000000E+00  0.13233426277E+04  0.13233426277E+04  0.25500000920E-02 0. -1.
        2   -1    0    0  501    0  0.00000000000E+00  0.00000000000E+00 -0.24867670238E+04  0.24867670238E+04  0.25500000920E-02 0.  1.
    10030    2    1    2    0    0  0.00000000000E+00  0.00000000000E+00 -0.11634243962E+04  0.38101096515E+04  0.36281371571E+04 0.  0.
        1    1    3    3  502    0 -0.11170044270E+04 -0.18831230809E+03 -0.20697072917E+04  0.23594170231E+04  0.50400001928E-02 0.  1.
       -1    1    3    3    0  502  0.11170044270E+04  0.18831230809E+03  0.90628289558E+03  0.14506926284E+04  0.50400001928E-02 0. -1.
</event>
<event>
 5   0  0.1051123E-06  0.3711401E+04  0.7818609E-02  0.8065440E-01
        2   -1    0    0  501    0  0.00000000000E+00  0.00000000000E+00  0.30102752962E+04  0.30102752962E+04  0.25500000920E-02 0. -1.
       -2   -1    0    0    0  501  0.00000000000E+00  0.00000000000E+00 -0.11439567251E+04  0.11439567251E+04  0.25500000920E-02 0.  1.
    10030    2    1    2    0    0  0.00000000000E+00  0.00000000000E+00  0.18663185711E+04  0.41542320213E+04  0.37114011744E+04 0.  0.
        2    1    3    3  502    0  0.40354189711E+03 -0.67458971713E+03 -0.94839362940E+03  0.12318148503E+04  0.25500000920E-02 0.  1.
       -2    1    3    3    0  502 -0.40354189711E+03  0.67458971713E+03  0.28147122005E+04  0.29224171709E+04  0.25500000920E-02 0. -1.
</event>
<event>
 5   0  0.1051123E-06  0.3676139E+04  0.7818609E-02  0.8073270E-01
        2   -1    0    0  501    0  0.00000000000E+00  0.00000000000E+00  0.13899424194E+04  0.13899424194E+04  0.25500000920E-02 0. -1.
       -2   -1    0    0    0  501  0.00000000000E+00  0.00000000000E+00 -0.24306761128E+04  0.24306761128E+04  0.25500000920E-02 0.  1.
    10030    2    1    2    0    0  0.00000000000E+00  0.00000000000E+00 -0.10407336935E+04  0.38206185322E+04  0.36761391905E+04 0.  0.
        2    1    3    3  502    0  0.12501081017E+03  0.42594309508E+03 -0.23741285874E+04  0.24152726083E+04  0.25500000920E-02 0.  1.
       -2    1    3    3    0  502 -0.12501081017E+03 -0.42594309508E+03  0.13333948939E+04  0.14053459240E+04  0.25500000920E-02 0. -1.
</event>
<event>
 5   0  0.3764495E-07  0.3721550E+04  0.7818609E-02  0.8063203E-01
        1   -1    0    0  501    0  0.00000000000E+00  0.00000000000E+00  0.19495545974E+04  0.19495545974E+04  0.50400001928E-02 0.  1.
       -1   -1    0    0    0  501  0.00000000000E+00  0.00000000000E+00 -0.17760379400E+04  0.17760379400E+04  0.50400001928E-02 0. -1.
    10030    2    1    2    0    0  0.00000000000E+00  0.00000000000E+00  0.17351665736E+03  0.37255925374E+04  0.37215496402E+04 0.  0.
        4    1    3    3  502    0 -0.86632010821E+03 -0.15503431653E+04 -0.46918887774E+03  0.18369034477E+04  0.12699999809E+01 0.  1.
       -4    1    3    3    0  502  0.86632010821E+03  0.15503431653E+04  0.64270553510E+03  0.18886890898E+04  0.12699999809E+01 0. -1.
</event>
<event>
 5   0  0.3682276E-07  0.3535022E+04  0.7818609E-02  0.8105540E-01
        1   -1    0    0  501    0  0.00000000000E+00  0.00000000000E+00  0.12883671809E+04  0.12883671809E+04  0.50400001928E-02 0.  1.
       -1   -1    0    0    0  501  0.00000000000E+00  0.00000000000E+00 -0.24248486217E+04  0.24248486217E+04  0.50400001928E-02 0. -1.
    10030    2    1    2    0    0  0.00000000000E+00  0.00000000000E+00 -0.11364814408E+04  0.37132158026E+04  0.35350221401E+04 0.  0.
        1    1    3    3  502    0 -0.15584973292E+04 -0.76365504169E+03 -0.21668742670E+03  0.17490101168E+04  0.50400001928E-02 0.  1.
       -1    1    3    3    0  502  0.15584973292E+04  0.76365504169E+03 -0.91979401407E+03  0.19642056858E+04  0.50400001928E-02 0. -1.
</event>
<event>
 5   0  0.1128530E-06  0.3248628E+04  0.7818609E-02  0.8176091E-01
        2   -1    0    0  501    0  0.00000000000E+00  0.00000000000E+00  0.15038011914E+04  0.15038011914E+04  0.25500000920E-02 0.  1.
       -2   -1    0    0    0  501  0.00000000000E+00  0.00000000000E+00 -0.17544849726E+04  0.17544849726E+04  0.25500000920E-02 0. -1.
    10030    2    1    2    0    0  0.00000000000E+00  0.00000000000E+00 -0.25068378114E+03  0.32582861640E+04  0.32486283827E+04 0.  0.
        5    1    3    3  502    0  0.93180648169E+03 -0.57912737465E+03  0.10760181149E+04  0.15367136717E+04  0.46999998093E+01 0.  1.
       -5    1    3    3    0  502 -0.93180648169E+03  0.57912737465E+03 -0.13267018960E+04  0.17215724923E+04  0.46999998093E+01 0. -1.
</event>
<event>
 5   0  0.3675819E-07  0.3781657E+04  0.7818609E-02  0.8050103E-01
       -1   -1    0    0    0  501  0.00000000000E+00  0.00000000000E+00  0.18946952875E+04  0.18946952876E+04  0.50400001928E-02 0.  1.
        1   -1    0    0  501    0  0.00000000000E+00  0.00000000000E+00 -0.18869691872E+04  0.18869691872E+04  0.50400001928E-02 0. -1.
    10030    2    1    2    0    0  0.00000000000E+00  0.00000000000E+00  0.77261003612E+01  0.37816644747E+04  0.37816565824E+04 0.  0.
        5    1    3    3  502    0  0.58277167289E+03 -0.47722724602E+03 -0.17304533640E+04  0.18872889556E+04  0.46999998093E+01 0. -1.
       -5    1    3    3    0  502 -0.58277167289E+03  0.47722724602E+03  0.17381794644E+04  0.18943755191E+04  0.46999998093E+01 0.  1.
</event>
<event>
 5   0  0.1051123E-06  0.3684957E+04  0.7818609E-02  0.8071304E-01
       -2   -1    0    0    0  501  0.00000000000E+00  0.00000000000E+00  0.20060214876E+04  0.20060214876E+04  0.25500000920E-02 0.  1.
        2   -1    0    0  501    0  0.00000000000E+00  0.00000000000E+00 -0.16922684346E+04  0.16922684346E+04  0.25500000920E-02 0. -1.
    10030    2    1    2    0    0  0.00000000000E+00  0.00000000000E+00  0.31375305294E+03  0.36982899222E+04  0.36849569021E+04 0.  0.
        2    1    3    3  502    0 -0.58438331777E+03 -0.62889665980E+03  0.17930241939E+04  0.19879513653E+04  0.25500000920E-02 0.  1.
       -2    1    3    3    0  502  0.58438331777E+03  0.62889665980E+03 -0.14792711410E+04  0.17103385569E+04  0.25500000920E-02 0. -1.
</event>
<event>
 5   0  0.1066907E-06  0.3673302E+04  0.7818609E-02  0.8073904E-01
       -2   -1    0    0    0  501  0.00000000000E+00  0.00000000000E+00  0.16691953009E+04  0.16691953009E+04  0.25500000920E-02 0.  1.
        2   -1    0    0  501    0  0.00000000000E+00  0.00000000000E+00 -0.20209058407E+04  0.20209058407E+04  0.25500000920E-02 0. -1.
    10030    2    1    2    0    0  0.00000000000E+00  0.00000000000E+00 -0.35171053972E+03  0.36901011416E+04  0.36733018024E+04 0.  0.
        4    1    3    3  502    0 -0.12292097303E+04  0.82599615233E+03  0.91541787126E+03  0.17410392576E+04  0.12699999809E+01 0.  1.
       -4    1    3    3    0  502  0.12292097303E+04 -0.82599615233E+03 -0.12671284110E+04  0.19490618840E+04  0.12699999809E+01 0. -1.
</event>
<event>
 5   0  0.3764495E-07  0.3798927E+04  0.7818609E-02  0.8046385E-01
       -1   -1    0    0    0  501  0.00000000000E+00  0.00000000000E+00  0.15049799181E+04  0.15049799181E+04  0.50400001928E-02 0. -1.
        1   -1    0    0  501    0  0.00000000000E+00  0.00000000000E+00 -0.23973492529E+04  0.23973492529E+04  0.50400001928E-02 0.  1.
    10030    2    1    2    0    0  0.00000000000E+00  0.00000000000E+00 -0.89236933481E+03  0.39023291710E+04  0.37989274709E+04 0.  0.
        4    1    3    3  502    0  0.15806856071E+04 -0.93169269131E+03 -0.95082260949E+03  0.20665632115E+04  0.12699999809E+01 0.  1.
       -4    1    3    3    0  502 -0.15806856071E+04  0.93169269131E+03  0.58453274688E+02  0.18357659594E+04  0.12699999809E+01 0. -1.
</event>
<event>
 5   0  0.1128530E-06  0.3541114E+04  0.7818609E-02  0.8104115E-01
        2   -1    0    0  501    0  0.00000000000E+00  0.00000000000E+00  0.18333023817E+04  0.18333023817E+04  0.25500000920E-02 0.  1.
       -2   -1    0    0    0  501  0.00000000000E+00  0.00000000000E+00 -0.17099589062E+04  0.17099589062E+04  0.25500000920E-02 0. -1.
    10030    2    1    2    0    0  0.00000000000E+00  0.00000000000E+00  0.12334347544E+03  0.35432612879E+04  0.35411137996E+04 0.  0.
        5    1    3    3  502    0  0.16047130401E+04 -0.74152946659E+03  0.16112897085E+03  0.17750928218E+04  0.46999998093E+01 0. -1.
       -5    1    3    3    0  502 -0.16047130401E+04  0.74152946659E+03 -0.37785495408E+02  0.17681684661E+04  0.46999998093E+01 0.  1.
</event>
<event>
 5   0  0.1128166E-06  0.3681721E+04  0.7818609E-02  0.8072025E-01
        2   -1    0    0  501    0  0.00000000000E+00  0.00000000000E+00  0.25407175103E+04  0.25407175104E+04  0.25500000920E-02 0.  1.
       -2   -1    0    0    0  501  0.00000000000E+00  0.00000000000E+00 -0.13337835384E+04  0.13337835384E+04  0.25500000920E-02 0. -1.
    10030    2    1    2    0    0  0.00000000000E+00  0.00000000000E+00  0.12069339719E+04  0.38745010488E+04  0.36817208971E+04 0.  0.
        3    1    3    3  502    0  0.19377748738E+03 -0.14596134015E+04 -0.55925961395E+03  0.15750531173E+04  0.10100000352E+00 0. -1.
       -3    1    3    3    0  502 -0.19377748738E+03  0.14596134015E+04  0.17661935859E+04  0.22994479314E+04  0.10100000352E+00 0.  1.
</event>
<event>
 5   0  0.1066907E-06  0.3701328E+04  0.7818609E-02  0.8067668E-01
       -2   -1    0    0    0  501  0.00000000000E+00  0.00000000000E+00  0.16911056306E+04  0.16911056306E+04  0.25500000920E-02 0. -1.
        2   -1    0    0  501    0  0.00000000000E+00  0.00000000000E+00 -0.20252770127E+04  0.20252770127E+04  0.25500000920E-02 0.  1.
    10030    2    1    2    0    0  0.00000000000E+00  0.00000000000E+00 -0.33417138217E+03  0.37163826433E+04  0.37013280642E+04 0.  0.
        4    1    3    3  502    0 -0.12094407883E+04 -0.97365556350E+03 -0.11782585648E+04  0.19491144233E+04  0.12699999809E+01 0.  1.
       -4    1    3    3    0  502  0.12094407883E+04  0.97365556350E+03  0.84408718265E+03  0.17672682200E+04  0.12699999809E+01 0. -1.
</event>
<event>
 5   0  0.3848431E-07  0.3747623E+04  0.7818609E-02  0.8057489E-01
       -1   -1    0    0    0  501  0.00000000000E+00  0.00000000000E+00  0.20253264388E+04  0.20253264389E+04  0.50400001928E-02 0.  1.
        1   -1    0    0  501    0  0.00000000000E+00  0.00000000000E+00 -0.17336311479E+04  0.17336311479E+04  0.50400001928E-02 0. -1.
    10030    2    1    2    0    0  0.00000000000E+00  0.00000000000E+00  0.29169529094E+03  0.37589575868E+04  0.37476227126E+04 0.  0.
        2    1    3    3  502    0 -0.65155213189E+02  0.12960490901E+04 -0.12099731642E+04  0.17742670328E+04  0.25500000920E-02 0. -1.
       -2    1    3    3    0  502  0.65155213189E+02 -0.12960490901E+04  0.15016684551E+04  0.19846905539E+04  0.25500000920E-02 0.  1.
</event>
<event>
 5   0  0.1128166E-06  0.3687507E+04  0.7818609E-02  0.8070736E-01
        2   -1    0    0  501    0  0.00000000000E+00  0.00000000000E+00  0.16910112075E+04  0.16910112075E+04  0.25500000920E-02 0.  1.
       -2   -1    0    0    0  501  0.00000000000E+00  0.00000000000E+00 -0.20102927714E+04  0.20102927714E+04  0.25500000920E-02 0. -1.
    10030    2    1    2    0    0  0.00000000000E+00  0.00000000000E+00 -0.31928156387E+03  0.37013039789E+04  0.36875073461E+04 0.  0.
        3    1    3    3  502    0  0.15057403685E+04  0.49104089885E+03  0.78784668934E+03  0.17689199071E+04  0.10100000352E+00 0.  1.
       -3    1    3    3    0  502 -0.15057403685E+04 -0.49104089885E+03 -0.11071282532E+04  0.19323840718E+04  0.10100000352E+00 0. -1.
</event>
<event>
 5   0  0.3675819E-07  0.3704859E+04  0.7818609E-02  0.8066886E-01
       -1   -1    0    0    0  501  0.00000000000E+00  0.00000000000E+00  0.24151042926E+04  0.24151042926E+04  0.50400001928E-02 0. -1.
        1   -1    0    0  501    0  0.00000000000E+00  0.00000000000E+00 -0.14208478260E+04  0.14208478260E+04  0.50400001928E-02 0.  1.
    10030    2    1    2    0    0  0.00000000000E+00  0.00000000000E+00  0.99425646662E+03  0.38359521186E+04  0.37048593408E+04 0.  0.
        5    1    3    3  502    0  0.36241202861E+03  0.16491325310E+04 -0.29173179513E+03  0.17135081305E+04  0.46999998093E+01 0.  1.
       -5    1    3    3    0  502 -0.36241202861E+03 -0.16491325310E+04  0.12859882618E+04  0.21224439881E+04  0.46999998093E+01 0. -1.
</event>
<event>
 5   0  0.1066907E-06  0.3733681E+04  0.7818609E-02  0.8060539E-01
        2   -1    0    0  501    0  0.00000000000E+00  0.00000000000E+00  0.21164442296E+04  0.21164442296E+04  0.25500000920E-02 0. -1.
       -2   -1    0    0    0  501  0.00000000000E+00  0.00000000000E+00 -0.16466735153E+04  0.16466735153E+04  0.25500000920E-02 0.  1.
    10030    2    1    2    0    0  0.00000000000E+00  0.00000000000E+00  0.46977071425E+03  0.37631177449E+04  0.37336805753E+04 0.  0.
        4    1    3    3  502    0 -0.29721430368E+03  0.35275451188E+03  0.20581027750E+04  0.21091611445E+04  0.12699999809E+01 0. -1.
       -4    1    3    3    0  502  0.29721430368E+03 -0.35275451188E+03 -0.15883320608E+04  0.16539566004E+04  0.12699999809E+01 0.  1.
</event>
<event>
 5   0  0.3682276E-07  0.3864017E+04  0.7818609E-02  0.8032555E-01
        1   -1    0    0  501    0  0.00000000000E+00  0.00000000000E+00  0.29842980059E+04  0.29842980059E+04  0.50400001928E-02 0.  1.
       -1   -1    0    0    0  501  0.00000000000E+00  0.00000000000E+00 -0.12507655752E+04  0.12507655752E+04  0.50400001928E-02 0. -1.
    10030    2    1    2    0    0  0.00000000000E+00  0.00000000000E+00  0.17335324306E+04  0.42350635811E+04  0.38640171904E+04 0.  0.
        1    1    3    3  502    0 -0.29341687958E+02  0.73222465993E+02 -0.12489998410E+04  0.12514883407E+04  0.50400001928E-02 0. -1.
       -1    1    3    3    0  502  0.29341687958E+02 -0.73222465993E+02  0.29825322716E+04  0.29835752404E+04  0.50400001928E-02 0.  1.
</event>
<event>
 5   0  0.1128530E-06  0.3775987E+04  0.7818609E-02  0.8051328E-01
       -2   -1    0    0    0  501  0.00000000000E+00  0.00000000000E+00  0.17686017792E+04  0.17686017792E+04  0.25500000920E-02 0. -1.
        2   -1    0    0  501    0  0.00000000000E+00  0.00000000000E+00 -0.20154447473E+04  0.20154447473E+04  0.25500000920E-02 0.  1.
    10030    2    1    2    0    0  0.00000000000E+00  0.00000000000E+00 -0.24684296801E+03  0.37840465265E+04  0.37759868464E+04 0.  0.
        5    1    3    3  502    0  0.62562302298E+03 -0.17678579056E+04 -0.34245455045E+03  0.19063113466E+04  0.46999998093E+01 0.  1.
       -5    1    3    3    0  502 -0.62562302298E+03  0.17678579056E+04  0.95611582441E+02  0.18777351799E+04  0.46999998093E+01 0. -1.
</event>
<event>
 5   0  0.3675819E-07  0.3653091E+04  0.7818609E-02  0.8078438E-01
       -1   -1    0    0    0  501  0.00000000000E+00  0.00000000000E+00  0.11292033664E+04  0.11292033664E+04  0.50400001928E-02 0. -1.
        1   -1    0    0  501    0  0.00000000000E+00  0.00000000000E+00 -0.29545332867E+04  0.29545332867E+04  0.50400001928E-02 0.  1.
    10030    2    1    2    0    0  0.00000000000E+00  0.00000000000E+00 -0.18253299202E+04  0.40837366531E+04  0.36530912573E+04 0.  0.
        5    1    3    3  502    0  0.17218930545E+04  0.20203524049E+03 -0.26998993471E+03  0.17546083849E+04  0.46999998093E+01 0. -1.
       -5    1    3    3    0  502 -0.17218930545E+04 -0.20203524049E+03 -0.15553399855E+04  0.23291282682E+04  0.46999998093E+01 0.  1.
</event>
<event>
 5   0  0.3675819E-07  0.3276125E+04  0.7818609E-02  0.8168997E-01
       -1   -1    0    0    0  501  0.00000000000E+00  0.00000000000E+00  0.95184347972E+03  0.95184347974E+03  0.50400001928E-02 0. -1.
        1   -1    0    0  501    0  0.00000000000E+00  0.00000000000E+00 -0.28190020656E+04  0.28190020656E+04  0.50400001928E-02 0.  1.
    10030    2    1    2    0    0  0.00000000000E+00  0.00000000000E+00 -0.18671585859E+04  0.37708455453E+04  0.32761249888E+04 0.  0.
        5    1    3    3  502    0  0.47148114060E+03  0.94186366312E+03  0.51038516720E+03  0.11704344214E+04  0.46999998093E+01 0. -1.
       -5    1    3    3    0  502 -0.47148114060E+03 -0.94186366312E+03 -0.23775437531E+04  0.26004111239E+04  0.46999998093E+01 0.  1.
</event>
<event>
 5   0  0.1128530E-06  0.3933661E+04  0.7818609E-02  0.8018065E-01
        2   -1    0    0  501    0  0.00000000000E+00  0.00000000000E+00  0.19671010065E+04  0.19671010065E+04  0.25500000920E-02 0.  1.
       -2   -1    0    0    0  501  0.00000000000E+00  0.00000000000E+00 -0.19665602945E+04  0.19665602945E+04  0.25500000920E-02 0. -1.
    10030    2    1    2    0    0  0.00000000000E+00  0.00000000000E+00  0.54071205327E+00  0.39336613010E+04  0.39336612639E+04 0.  0.
        5    1    3    3  502    0  0.16461503796E+04 -0.89350560409E+03  0.60046808576E+03  0.19669131523E+04  0.46999998093E+01 0.  1.
       -5    1    3    3    0  502 -0.16461503796E+04  0.89350560409E+03 -0.59992737371E+03  0.19667481487E+04  0.46999998093E+01 0. -1.
</event>
<event>
 5   0  0.3682276E-07  0.3663680E+04  0.7818609E-02  0.8076059E-01
       -1   -1    0    0    0  501  0.00000000000E+00  0.00000000000E+00  0.13037236654E+04  0.13037236654E+04  0.50400001928E-02 0. -1.
        1   -1    0    0  501    0  0.00000000000E+00  0.00000000000E+00 -0.25738877702E+04  0.25738877702E+04  0.50400001928E-02 0.  1.
    10030    2    1    2    0    0  0.00000000000E+00  0.00000000000E+00 -0.12701641048E+04  0.38776114356E+04  0.36636803344E+04 0.  0.
        1    1    3    3  502    0 -0.17539131327E+04  0.49546215877E+03 -0.44008385681E+03  0.18749314198E+04  0.50400001928E-02 0. -1.
       -1    1    3    3    0  502  0.17539131327E+04 -0.49546215877E+03 -0.83008024800E+03  0.20026800159E+04  0.50400001928E-02 0.  1.
</event>
<event>
 5   0  0.3764495E-07  0.2870864E+04  0.7818609E-02  0.8281599E-01
       -1   -1    0    0    0  501  0.00000000000E+00  0.00000000000E+00  0.12661059587E+04  0.12661059587E+04  0.50400001928E-02 0.  1.
        1   -1    0    0  501    0  0.00000000000E+00  0.00000000000E+00 -0.16274038229E+04  0.16274038229E+04  0.50400001928E-02 0. -1.
    10030    2    1    2    0    0  0.00000000000E+00  0.00000000000E+00 -0.36129786423E+03  0.28935097816E+04  0.28708644533E+04 0.  0.
        4    1    3    3  502    0  0.23728784320E+03 -0.83374435877E+03  0.97250393281E+03  0.13027665518E+04  0.12699999809E+01 0.  1.
       -4    1    3    3    0  502 -0.23728784320E+03  0.83374435877E+03 -0.13338017970E+04  0.15907432298E+04  0.12699999809E+01 0. -1.
</event>
<event>
 5   0  0.3675819E-07  0.3702560E+04  0.7818609E-02  0.8067395E-01
       -1   -1    0    0    0  501  0.00000000000E+00  0.00000000000E+00  0.24049734291E+04  0.24049734291E+04  0.50400001928E-02 0.  1.
        1   -1    0    0  501    0  0.00000000000E+00  0.00000000000E+00 -0.14250622564E+04  0.14250622564E+04  0.50400001928E-02 0. -1.
    10030    2    1    2    0    0  0.00000000000E+00  0.00000000000E+00  0.97991117262E+03  0.38300356855E+04  0.37025595804E+04 0.  0.
        5    1    3    3  502    0  0.69064328829E+03  0.82472888390E+03 -0.10685859097E+04  0.15162664080E+04  0.46999998093E+01 0. -1.
       -5    1    3    3    0  502 -0.69064328829E+03 -0.82472888390E+03  0.20484970823E+04  0.23137692775E+04  0.46999998093E+01 0.  1.
</event>
<event>
 5   0  0.3764495E-07  0.3707443E+04  0.7818609E-02  0.8066314E-01
        1   -1    0    0  501    0  0.00000000000E+00  0.00000000000E+00  0.23389732499E+04  0.23389732499E+04  0.50400001928E-02 0. -1.
       -1   -1    0    0    0  501  0.00000000000E+00  0.00000000000E+00 -0.14691415159E+04  0.14691415160E+04  0.50400001928E-02 0.  1.
    10030    2    1    2    0    0  0.00000000000E+00  0.00000000000E+00  0.86983173393E+03  0.38081147658E+04  0.37074426259E+04 0.  0.
        4    1    3    3  502    0  0.72549451527E+03  0.16272655324E+04 -0.90788054601E+02  0.17839785561E+04  0.12699999809E+01 0.  1.
       -4    1    3    3    0  502 -0.72549451527E+03 -0.16272655324E+04  0.96061978853E+03  0.20241362098E+04  0.12699999809E+01 0. -1.
</event>
<event>
 5   0  0.3764495E-07  0.3786541E+04  0.7818609E-02  0.8049049E-01
        1   -1    0    0  501    0  0.00000000000E+00  0.00000000000E+00  0.15907122733E+04  0.15907122733E+04  0.50400001928E-02 0.  1.
       -1   -1    0    0    0  501  0.00000000000E+00  0.00000000000E+00 -0.22533758174E+04  0.22533758174E+04  0.50400001928E-02 0. -1.
    10030    2    1    2    0    0  0.00000000000E+00  0.00000000000E+00 -0.66266354417E+03  0.38440880907E+04  0.37865406741E+04 0.  0.
        4    1    3    3  502    0  0.26360066838E+03  0.15834224418E+04  0.68779697216E+03  0.17463614258E+04  0.12699999809E+01 0.  1.
       -4    1    3    3    0  502 -0.26360066838E+03 -0.15834224418E+04 -0.13504605163E+04  0.20977266649E+04  0.12699999809E+01 0. -1.
</event>
<event>
 5   0  0.3764495E-07  0.3275393E+04  0.7818609E-02  0.8169185E-01
       -1   -1    0    0    0  501  0.00000000000E+00  0.00000000000E+00  0.17258820675E+04  0.17258820675E+04  0.50400001928E-02 0.  1.
        1   -1    0    0  501    0  0.00000000000E+00  0.00000000000E+00 -0.15540168971E+04  0.15540168971E+04  0.50400001928E-02 0. -1.
    10030    2    1    2    0    0  0.00000000000E+00  0.00000000000E+00  0.17186517036E+03  0.32798989646E+04  0.32753930423E+04 0.  0.
        4    1    3    3  502    0 -0.39800282738E+03 -0.12662858968E+04  0.10465029963E+04  0.16902829222E+04  0.12699999809E+01 0.  1.
       -4    1    3    3    0  502  0.39800282738E+03  0.12662858968E+04 -0.87463782594E+03  0.15896160424E+04  0.12699999809E+01 0. -1.
</event>
<event>
 5   0  0.3704306E-07  0.3568832E+04  0.7818609E-02  0.8097669E-01
       -1   -1    0    0    0  501  0.00000000000E+00  0.00000000000E+00  0.18372170533E+04  0.18372170533E+04  0.50400001928E-02 0.  1.
        1   -1    0    0  501    0  0.00000000000E+00  0.00000000000E+00 -0.17331327771E+04  0.17331327771E+04  0.50400001928E-02 0. -1.
    10030    2    1    2    0    0  0.00000000000E+00  0.00000000000E+00  0.10408427629E+03  0.35703498304E+04  0.35688323546E+04 0.  0.
        3    1    3    3  502    0 -0.17236008295E+04  0.44958848383E+03 -0.53887062864E+02  0.17820868245E+04  0.10100000352E+00 0.  1.
       -3    1    3    3    0  502  0.17236008295E+04 -0.44958848383E+03  0.15797133916E+03  0.17882630059E+04  0.10100000352E+00 0. -1.
</event>
<event>
 5   0  0.1051123E-06  0.3661718E+04  0.7818609E-02  0.8076499E-01
        2   -1    0    0  501    0  0.00000000000E+00  0.00000000000E+00  0.14193248440E+04  0.14193248440E+04  0.25500000920E-02 0. -1.
       -2   -1    0    0    0  501  0.00000000000E+00  0.00000000000E+00 -0.23617183571E+04  0.23617183571E+04  0.25500000920E-02 0.  1.
    10030    2    1    2    0    0  0.00000000000E+00  0.00000000000E+00 -0.94239351317E+03  0.37810432011E+04  0.36617184702E+04 0.  0.
        2    1    3    3  502    0 -0.15793435813E+04 -0.72881168496E+03 -0.10612666733E+04  0.20375916107E+04  0.25500000920E-02 0. -1.
       -2    1    3    3    0  502  0.15793435813E+04  0.72881168496E+03  0.11887316017E+03  0.17434515904E+04  0.25500000920E-02 0.  1.
</event>
<event>
 5   0  0.3704306E-07  0.3219273E+04  0.7818609E-02  0.8183746E-01
        1   -1    0    0  501    0  0.00000000000E+00  0.00000000000E+00  0.12004185862E+04  0.12004185862E+04  0.50400001928E-02 0.  1.
       -1   -1    0    0    0  501  0.00000000000E+00  0.00000000000E+00 -0.21583557013E+04  0.21583557013E+04  0.50400001928E-02 0. -1.
    10030    2    1    2    0    0  0.00000000000E+00  0.00000000000E+00 -0.95793711510E+03  0.33587742875E+04  0.32192733959E+04 0.  0.
        3    1    3    3  502    0  0.67161499446E+02  0.13314231866E+04 -0.14201289356E+04  0.19478101994E+04  0.10100000352E+00 0. -1.
       -3    1    3    3    0  502 -0.67161499446E+02 -0.13314231866E+04  0.46219182053E+03  0.14109640881E+04  0.10100000352E+00 0.  1.
</event>
<event>
 5   0  0.3682276E-07  0.3711160E+04  0.7818609E-02  0.8065493E-01
       -1   -1    0    0    0  501  0.00000000000E+00  0.00000000000E+00  0.20921489946E+04  0.20921489946E+04  0.50400001928E-02 0. -1.
        1   -1    0    0  501    0  0.00000000000E+00  0.00000000000E+00 -0.16457611688E+04  0.16457611688E+04  0.50400001928E-02 0.  1.
    10030    2    1    2    0    0  0.00000000000E+00  0.00000000000E+00  0.44638782580E+03  0.37379101634E+04  0.37111602362E+04 0.  0.
        1    1    3    3  502    0 -0.20778886538E+03  0.43489474239E+03  0.20279992810E+04  0.20844881226E+04  0.50400001928E-02 0. -1.
       -1    1    3    3    0  502  0.20778886538E+03 -0.43489474239E+03 -0.15816114552E+04  0.16534220408E+04  0.50400001928E-02 0.  1.
</event>
<event>
 5   0  0.1128530E-06  0.3454582E+04  0.7818609E-02  0.8124638E-01
       -2   -1    0    0    0  501  0.00000000000E+00  0.00000000000E+00  0.13712141808E+04  0.13712141808E+04  0.25500000920E-02 0. -1.
        2   -1    0    0  501    0  0.00000000000E+00  0.00000000000E+00 -0.21758343704E+04  0.21758343704E+04  0.25500000920E-02 0.  1.
    10030    2    1    2    0    0  0.00000000000E+00  0.00000000000E+00 -0.80462018953E+03  0.35470485512E+04  0.34545824314E+04 0.  0.
        5    1    3    3  502    0  0.16844890960E+03  0.10725971021E+04 -0.17816486207E+04  0.20864164196E+04  0.46999998093E+01 0.  1.
       -5    1    3    3    0  502 -0.16844890960E+03 -0.10725971021E+04  0.97702843114E+03  0.14606321316E+04  0.46999998093E+01 0. -1.
</event>
<event>
 5   0  0.3490375E-07  0.3599086E+04  0.7818609E-02  0.8090701E-01
        4   -1    0    0  501    0  0.00000000000E+00  0.00000000000E+00  0.19379337269E+04  0.19379341430E+04  0.12699999809E+01 0. -1.
       -4   -1    0    0    0  501  0.00000000000E+00  0.00000000000E+00 -0.16710344546E+04  0.16710349372E+04  0.12699999809E+01 0.  1.
    10030    2    1    2    0    0  0.00000000000E+00  0.00000000000E+00  0.26689927230E+03  0.36089690802E+04  0.35990863564E+04 0.  0.
        3    1    3    3  502    0  0.13305891622E+04  0.12021877156E+04  0.28430480913E+03  0.18156409493E+04  0.10100000352E+00 0.  1.
       -3    1    3    3    0  502 -0.13305891622E+04 -0.12021877156E+04 -0.17405536839E+02  0.17933281309E+04  0.10100000352E+00 0. -1.
</event>
<event>
 5   0  0.3675819E-07  0.3723352E+04  0.7818609E-02  0.8062806E-01
       -1   -1    0    0    0  501  0.00000000000E+00  0.00000000000E+00  0.15837469432E+04  0.15837469432E+04  0.50400001928E-02 0.  1.
        1   -1    0    0  501    0  0.00000000000E+00  0.00000000000E+00 -0.21883787185E+04  0.21883787185E+04  0.50400001928E-02 0. -1.
    10030    2    1    2    0    0  0.00000000000E+00  0.00000000000E+00 -0.60463177533E+03  0.37721256617E+04  0.37233523100E+04 0.  0.
        5    1    3    3  502    0  0.11953495166E+04  0.74324448137E+03 -0.15366946437E+04  0.20839206664E+04  0.46999998093E+01 0. -1.
       -5    1    3    3    0  502 -0.11953495166E+04 -0.74324448137E+03  0.93206286834E+03  0.16882049954E+04  0.46999998093E+01 0.  1.
</event>
<event>
 5   0  0.3764495E-07  0.3440835E+04  0.7818609E-02  0.8127956E-01
       -1   -1    0    0    0  501  0.00000000000E+00  0.00000000000E+00  0.11644164478E+04  0.11644164479E+04  0.50400001928E-02 0.  1.
        1   -1    0    0  501    0  0.00000000000E+00  0.00000000000E+00 -0.25419049792E+04  0.25419049792E+04  0.50400001928E-02 0. -1.
    10030    2    1    2    0    0  0.00000000000E+00  0.00000000000E+00 -0.13774885313E+04  0.37063214270E+04  0.34408347630E+04 0.  0.
        4    1    3    3  502    0 -0.67873815993E+03 -0.14329290419E+04 -0.14079946283E+04  0.21204767424E+04  0.12699999809E+01 0. -1.
       -4    1    3    3    0  502  0.67873815993E+03  0.14329290419E+04  0.30506096982E+02  0.15858446846E+04  0.12699999809E+01 0.  1.
</event>
<event>
 5   0  0.3764495E-07  0.3694305E+04  0.7818609E-02  0.8069225E-01
       -1   -1    0    0    0  501  0.00000000000E+00  0.00000000000E+00  0.28296407640E+04  0.28296407640E+04  0.50400001928E-02 0. -1.
        1   -1    0    0  501    0  0.00000000000E+00  0.00000000000E+00 -0.12057969643E+04  0.12057969643E+04  0.50400001928E-02 0.  1.
    10030    2    1    2    0    0  0.00000000000E+00  0.00000000000E+00  0.16238437997E+04  0.40354377283E+04  0.36943049378E+04 0.  0.
        4    1    3    3  502    0  0.81329980799E+03 -0.14217420032E+04 -0.12083922672E+03  0.16423795642E+04  0.12699999809E+01 0.  1.
       -4    1    3    3    0  502 -0.81329980799E+03  0.14217420032E+04  0.17446830264E+04  0.23930581641E+04  0.12699999809E+01 0. -1.
</event>
<event>
 5   0  0.1066907E-06  0.3656602E+04  0.7818609E-02  0.8077648E-01
       -2   -1    0    0    0  501  0.00000000000E+00  0.00000000000E+00  0.15104970342E+04  0.15104970342E+04  0.25500000920E-02 0.  1.
        2   -1    0    0  501    0  0.00000000000E+00  0.00000000000E+00 -0.22129701423E+04  0.22129701423E+04  0.25500000920E-02 0. -1.
    10030    2    1    2    0    0  0.00000000000E+00  0.00000000000E+00 -0.70247310804E+03  0.37234671765E+04  0.36566021587E+04 0.  0.
        4    1    3    3  502    0 -0.71574511216E+03  0.10237505990E+04 -0.17106873571E+04  0.21182089607E+04  0.12699999809E+01 0. -1.
       -4    1    3    3    0  502  0.71574511216E+03 -0.10237505990E+04  0.10082142490E+04  0.16052582158E+04  0.12699999809E+01 0.  1.
</event>
<event>
 5   0  0.3704306E-07  0.3588831E+04  0.7818609E-02  0.8093055E-01
        1   -1    0    0  501    0  0.00000000000E+00  0.00000000000E+00  0.21706867411E+04  0.21706867411E+04  0.50400001928E-02 0. -1.
       -1   -1    0    0    0  501  0.00000000000E+00  0.00000000000E+00 -0.14833678694E+04  0.14833678694E+04  0.50400001928E-02 0.  1.
    10030    2    1    2    0    0  0.00000000000E+00  0.00000000000E+00  0.68731887166E+03  0.36540546105E+04  0.35888309887E+04 0.  0.
        3    1    3    3  502    0  0.13795293693E+04  0.10791557104E+04 -0.53622410920E+02  0.17522995467E+04  0.10100000352E+00 0.  1.
       -3    1    3    3    0  502 -0.13795293693E+04 -0.10791557104E+04  0.74094128258E+03  0.19017550638E+04  0.10100000352E+00 0. -1.
</event>
<event>
 5   0  0.1051123E-06  0.3778471E+04  0.7818609E-02  0.8050791E-01
       -2   -1    0    0    0  501  0.00000000000E+00  0.00000000000E+00  0.11868261680E+04  0.11868261680E+04  0.25500000920E-02 0. -1.
        2   -1    0    0  501    0  0.00000000000E+00  0.00000000000E+00 -0.30073570880E+04  0.30073570880E+04  0.25500000920E-02 0.  1.
    10030    2    1    2    0    0  0.00000000000E+00  0.00000000000E+00 -0.18205309200E+04  0.41941832559E+04  0.37784706369E+04 0.  0.
        2    1    3    3  502    0  0.41885525324E+02 -0.75049280182E+03  0.10136985583E+04  0.12619740924E+04  0.25500000920E-02 0. -1.
       -2    1    3    3    0  502 -0.41885525324E+02  0.75049280182E+03 -0.28342294783E+04  0.29322091635E+04  0.25500000920E-02 0.  1.
</event>
<event>
 5   0  0.1128530E-06  0.2359144E+04  0.7818609E-02  0.8454960E-01
       -2   -1    0    0    0  501  0.00000000000E+00  0.00000000000E+00  0.98901166592E+03  0.98901166592E+03  0.25500000920E-02 0. -1.
        2   -1    0    0  501    0  0.00000000000E+00  0.00000000000E+00 -0.14068489125E+04  0.14068489125E+04  0.25500000920E-02 0.  1.
    10030    2    1    2    0    0  0.00000000000E+00  0.00000000000E+00 -0.41783724658E+03  0.23958605784E+04  0.23591439012E+04 0.  0.
        5    1    3    3  502    0  0.24087664773E+03 -0.33704616270E+03 -0.13305285645E+04  0.13935386705E+04  0.46999998093E+01 0.  1.
       -5    1    3    3    0  502 -0.24087664773E+03  0.33704616270E+03  0.91269131795E+03  0.10023219079E+04  0.46999998093E+01 0. -1.
</event>
<event>
 5   0  0.1128166E-06  0.3693584E+04  0.7818609E-02  0.8069385E-01
        2   -1    0    0  501    0  0.00000000000E+00  0.00000000000E+00  0.21105830985E+04  0.21105830985E+04  0.25500000920E-02 0.  1.
       -2   -1    0    0    0  501  0.00000000000E+00  0.00000000000E+00 -0.16159704193E+04  0.16159704193E+04  0.25500000920E-02 0. -1.
    10030    2    1    2    0    0  0.00000000000E+00  0.00000000000E+00  0.49461267922E+03  0.37265535178E+04  0.36935835470E+04 0.  0.
        3    1    3    3  502    0 -0.16431216511E+03  0.13931639582E+03  0.20978631566E+04  0.21088948242E+04  0.10100000352E+00 0.  1.
       -3    1    3    3    0  502  0.16431216511E+03 -0.13931639582E+03 -0.16032504773E+04  0.16176586936E+04  0.10100000352E+00 0. -1.
</event>
<event>
 5   0  0.3848431E-07  0.3585889E+04  0.7818609E-02  0.8093732E-01
       -1   -1    0    0    0  501  0.00000000000E+00  0.00000000000E+00  0.14702709454E+04  0.14702709454E+04  0.50400001928E-02 0.  1.
        1   -1    0    0  501    0  0.00000000000E+00  0.00000000000E+00 -0.21864334454E+04  0.21864334454E+04  0.50400001928E-02 0. -1.
    10030    2    1    2    0    0  0.00000000000E+00  0.00000000000E+00 -0.71616249998E+03  0.36567043908E+04  0.35858887706E+04 0.  0.
        2    1    3    3  502    0  0.23918460702E+03  0.10254183964E+04 -0.18379317054E+04  0.21181796707E+04  0.25500000920E-02 0. -1.
       -2    1    3    3    0  502 -0.23918460702E+03 -0.10254183964E+04  0.11217692054E+04  0.15385247200E+04  0.25500000920E-02 0.  1.
</event>
<event>
 5   0  0.1128166E-06  0.3634170E+04  0.7818609E-02  0.8082709E-01
       -2   -1    0    0    0  501  0.00000000000E+00  0.00000000000E+00  0.28993911749E+04  0.28993911749E+04  0.25500000920E-02 0. -1.
        2   -1    0    0  501    0  0.00000000000E+00  0.00000000000E+00 -0.11387901810E+04  0.11387901810E+04  0.25500000920E-02 0.  1.
    10030    2    1    2    0    0  0.00000000000E+00  0.00000000000E+00  0.17606009939E+04  0.40381813559E+04  0.36341701670E+04 0.  0.
        3    1    3    3  502    0 -0.55337530596E+03 -0.50551876810E+03  0.27196226526E+04  0.28210141504E+04  0.10100000352E+00 0. -1.
       -3    1    3    3    0  502  0.55337530596E+03  0.50551876810E+03 -0.95902165863E+03  0.12171672055E+04  0.10100000352E+00 0.  1.
</event>
<event>
 5   0  0.3675819E-07  0.2497504E+04  0.7818609E-02  0.8403875E-01
       -1   -1    0    0    0  501  0.00000000000E+00  0.00000000000E+00  0.99402090127E+03  0.99402090128E+03  0.50400001928E-02 0. -1.
        1   -1    0    0  501    0  0.00000000000E+00  0.00000000000E+00 -0.15687615557E+04  0.15687615558E+04  0.50400001928E-02 0.  1.
    10030    2    1    2    0    0  0.00000000000E+00  0.00000000000E+00 -0.57474065448E+03  0.25627824570E+04  0.24975041746E+04 0.  0.
        5    1    3    3  502    0 -0.11936582039E+03 -0.10465568963E+04  0.40085365097E+03  0.11270471489E+04  0.46999998093E+01 0. -1.
       -5    1    3    3    0  502  0.11936582039E+03  0.10465568963E+04 -0.97559430546E+03  0.14357353082E+04  0.46999998093E+01 0.  1.
</event>
<event>
 5   0  0.3675819E-07  0.3531488E+04  0.7818609E-02  0.8106368E-01
        1   -1    0    0  501    0  0.00000000000E+00  0.00000000000E+00  0.20168726615E+04  0.20168726615E+04  0.50400001928E-02 0.  1.
       -1   -1    0    0    0  501  0.00000000000E+00  0.00000000000E+00 -0.15458843489E+04  0.15458843489E+04  0.50400001928E-02 0. -1.
    10030    2    1    2    0    0  0.00000000000E+00  0.00000000000E+00  0.47098831258E+03  0.35627570104E+04  0.35314880043E+04 0.  0.
        5    1    3    3  502    0  0.56721318990E+03 -0.13267530656E+03 -0.14461471852E+04  0.15590693734E+04  0.46999998093E+01 0. -1.
       -5    1    3    3    0  502 -0.56721318990E+03  0.13267530656E+03  0.19171354978E+04  0.20036876370E+04  0.46999998093E+01 0.  1.
</event>
<event>
 5   0  0.3682276E-07  0.2334585E+04  0.7818609E-02  0.8464408E-01
        1   -1    0    0  501    0  0.00000000000E+00  0.00000000000E+00  0.86051308228E+03  0.86051308229E+03  0.50400001928E-02 0.  1.
       -1   -1    0    0    0  501  0.00000000000E+00  0.00000000000E+00 -0.15834406273E+04  0.15834406273E+04  0.50400001928E-02 0. -1.
    10030    2    1    2    0    0  0.00000000000E+00  0.00000000000E+00 -0.72292754504E+03  0.24439537096E+04  0.23345846524E+04 0.  0.
        1    1    3    3  502    0 -0.34807067777E+03  0.11093783018E+04 -0.25318735747E+03  0.11899484237E+04  0.50400001928E-02 0. -1.
       -1    1    3    3    0  502  0.34807067777E+03 -0.11093783018E+04 -0.46974018757E+03  0.12540052859E+04  0.50400001928E-02 0.  1.
</event>
<event>
 5   0  0.1066907E-06  0.3661297E+04  0.7818609E-02  0.8076593E-01
       -2   -1    0    0    0  501  0.00000000000E+00  0.00000000000E+00  0.18240050562E+04  0.18240050562E+04  0.25500000920E-02 0. -1.
        2   -1    0    0  501    0  0.00000000000E+00  0.00000000000E+00 -0.18373164080E+04  0.18373164080E+04  0.25500000920E-02 0.  1.
    10030    2    1    2    0    0  0.00000000000E+00  0.00000000000E+00 -0.13311351833E+02  0.36613214642E+04  0.36612972663E+04 0.  0.
        4    1    3    3  502    0  0.31995619000E+03  0.88907920417E+02 -0.18069442816E+04  0.18372059850E+04  0.12699999809E+01 0.  1.
       -4    1    3    3    0  502 -0.31995619000E+03 -0.88907920417E+02  0.17936329297E+04  0.18241154792E+04  0.12699999809E+01 0. -1.
</event>
<event>
 5   0  0.3682276E-07  0.3656216E+04  0.7818609E-02  0.8077735E-01
        1   -1    0    0  501    0  0.00000000000E+00  0.00000000000E+00  0.24314728852E+04  0.24314728852E+04  0.50400001928E-02 0. -1.
       -1   -1    0    0    0  501  0.00000000000E+00  0.00000000000E+00 -0.13744664856E+04  0.13744664856E+04  0.50400001928E-02 0.  1.
    10030    2    1    2    0    0  0.00000000000E+00  0.00000000000E+00  0.10570063996E+04  0.38059393708E+04  0.36562155251E+04 0.  0.
        1    1    3    3  502    0 -0.16300238998E+03 -0.25946131300E+02 -0.13666943442E+04  0.13766250075E+04  0.50400001928E-02 0.  1.
       -1    1    3    3    0  502  0.16300238998E+03  0.25946131300E+02  0.24237007437E+04  0.24293143634E+04  0.50400001928E-02 0. -1.
</event>
<event>
 5   0  0.1128530E-06  0.3699277E+04  0.7818609E-02  0.8068122E-01
       -2   -1    0    0    0  501  0.00000000000E+00  0.00000000000E+00  0.13424317160E+04  0.13424317160E+04  0.25500000920E-02 0. -1.
        2   -1    0    0  501    0  0.00000000000E+00  0.00000000000E+00 -0.25484818644E+04  0.25484818644E+04  0.25500000920E-02 0.  1.
    10030    2    1    2    0    0  0.00000000000E+00  0.00000000000E+00 -0.12060501484E+04  0.38909135805E+04  0.36992771632E+04 0.  0.
        5    1    3    3  502    0 -0.13600205545E+04  0.12261975929E+04 -0.87714931972E+03  0.20304259318E+04  0.46999998093E+01 0.  1.
       -5    1    3    3    0  502  0.13600205545E+04 -0.12261975929E+04 -0.32890082869E+03  0.18604876486E+04  0.46999998093E+01 0. -1.
</event>
<event>
 5   0  0.3675819E-07  0.3644012E+04  0.7818609E-02  0.8080484E-01
       -1   -1    0    0    0  501  0.00000000000E+00  0.00000000000E+00  0.16725804416E+04  0.16725804416E+04  0.50400001928E-02 0. -1.
        1   -1    0    0  501    0  0.00000000000E+00  0.00000000000E+00 -0.19847809751E+04  0.19847809751E+04  0.50400001928E-02 0.  1.
    10030    2    1    2    0    0  0.00000000000E+00  0.00000000000E+00 -0.31220053352E+03  0.36573614167E+04  0.36440119867E+04 0.  0.
        5    1    3    3  502    0  0.18201450941E+04  0.41153962073E+02 -0.22750820315E+03  0.18347762492E+04  0.46999998093E+01 0.  1.
       -5    1    3    3    0  502 -0.18201450941E+04 -0.41153962073E+02 -0.84692330370E+02  0.18225851675E+04  0.46999998093E+01 0. -1.
</event>
<event>
 5   0  0.1051123E-06  0.3600235E+04  0.7818609E-02  0.8090438E-01
       -2   -1    0    0    0  501  0.00000000000E+00  0.00000000000E+00  0.12473262699E+04  0.12473262699E+04  0.25500000920E-02 0.  1.
        2   -1    0    0  501    0  0.00000000000E+00  0.00000000000E+00 -0.25978949830E+04  0.25978949830E+04  0.25500000920E-02 0. -1.
    10030    2    1    2    0    0  0.00000000000E+00  0.00000000000E+00 -0.13505687131E+04  0.38452212529E+04  0.36002348028E+04 0.  0.
        2    1    3    3  502    0 -0.13221922564E+04  0.10834089173E+04 -0.72565434225E+02  0.17109158329E+04  0.25500000920E-02 0.  1.
       -2    1    3    3    0  502  0.13221922564E+04 -0.10834089173E+04 -0.12780032789E+04  0.21343054200E+04  0.25500000920E-02 0. -1.
</event>
<event>
 5   0  0.1066907E-06  0.3371494E+04  0.7818609E-02  0.8144938E-01
       -2   -1    0    0    0  501  0.00000000000E+00  0.00000000000E+00  0.12321622920E+04  0.12321622920E+04  0.25500000920E-02 0.  1.
        2   -1    0    0  501    0  0.00000000000E+00  0.00000000000E+00 -0.23063060781E+04  0.23063060781E+04  0.25500000920E-02 0. -1.
    10030    2    1    2    0    0  0.00000000000E+00  0.00000000000E+00 -0.10741437861E+04  0.35384683700E+04  0.33714942581E+04 0.  0.
        4    1    3    3  502    0 -0.51940976080E+03  0.15835813607E+04 -0.27109364844E+03  0.16884933534E+04  0.12699999809E+01 0.  1.
       -4    1    3    3    0  502  0.51940976080E+03 -0.15835813607E+04 -0.80305013764E+03  0.18499750166E+04  0.12699999809E+01 0. -1.
</event>
<event>
 5   0  0.1051123E-06  0.3685332E+04  0.7818609E-02  0.8071220E-01
       -2   -1    0    0    0  501  0.00000000000E+00  0.00000000000E+00  0.13599439088E+04  0.13599439088E+04  0.25500000920E-02 0.  1.
        2   -1    0    0  501    0  0.00000000000E+00  0.00000000000E+00 -0.24967342852E+04  0.24967342852E+04  0.25500000920E-02 0. -1.
    10030    2    1    2    0    0  0.00000000000E+00  0.00000000000E+00 -0.11367903764E+04  0.38566781941E+04  0.36853323233E+04 0.  0.
        2    1    3    3  502    0 -0.16178178485E+04  0.72637716976E+02  0.35157230429E+03  0.16571704541E+04  0.25500000920E-02 0.  1.
       -2    1    3    3    0  502  0.16178178485E+04 -0.72637716976E+02 -0.14883626807E+04  0.21995077400E+04  0.25500000920E-02 0. -1.
</event>
<event>
 5   0  0.5896559E-07  0.2276496E+04  0.7818609E-02  0.8487246E-01
        1   -1    0    0  501    0  0.00000000000E+00  0.00000000000E+00  0.12254010654E+04  0.12254010654E+04  0.50400001928E-02 0.  1.
       -1   -1    0    0    0  501  0.00000000000E+00  0.00000000000E+00 -0.10572935975E+04  0.10572935975E+04  0.50400001928E-02 0. -1.
    10030    2    1    2    0    0  0.00000000000E+00  0.00000000000E+00  0.16810746788E+03  0.22826946629E+04  0.22764961681E+04 0.  0.
        4    1    3    3  502    0 -0.43721123431E+03  0.65350994906E+03 -0.74121710276E+03  0.10805708321E+04  0.12699999809E+01 0. -1.
       -4    1    3    3    0  502  0.43721123431E+03 -0.65350994906E+03  0.90932457064E+03  0.12021238308E+04  0.12699999809E+01 0.  1.
</event>
<event>
 5   0  0.1128530E-06  0.2626982E+04  0.7818609E-02  0.8359093E-01
        2   -1    0    0  501    0  0.00000000000E+00  0.00000000000E+00  0.12259513987E+04  0.12259513987E+04  0.25500000920E-02 0.  1.
       -2   -1    0    0    0  501  0.00000000000E+00  0.00000000000E+00 -0.14072817996E+04  0.14072817996E+04  0.25500000920E-02 0. -1.
    10030    2    1    2    0    0  0.00000000000E+00  0.00000000000E+00 -0.18133040092E+03  0.26332331983E+04  0.26269823681E+04 0.  0.
        5    1    3    3  502    0 -0.10808166480E+04 -0.61651399206E+03  0.33102914996E+03  0.12875777713E+04  0.46999998093E+01 0. -1.
       -5    1    3    3    0  502  0.10808166480E+04  0.61651399206E+03 -0.51235955089E+03  0.13456554270E+04  0.46999998093E+01 0.  1.
</event>
<event>
 5   0  0.3848431E-07  0.3731738E+04  0.7818609E-02  0.8060965E-01
       -1   -1    0    0    0  501  0.00000000000E+00  0.00000000000E+00  0.19566975406E+04  0.19566975407E+04  0.50400001928E-02 0. -1.
        1   -1    0    0  501    0  0.00000000000E+00  0.00000000000E+00 -0.17792561822E+04  0.17792561822E+04  0.50400001928E-02 0.  1.
    10030    2    1    2    0    0  0.00000000000E+00  0.00000000000E+00  0.17744135843E+03  0.37359537229E+04  0.37317375020E+04 0.  0.
        2    1    3    3  502    0 -0.26653764630E+03  0.17214444768E+04  0.75809617061E+03  0.18997692511E+04  0.25500000920E-02 0. -1.
       -2    1    3    3    0  502  0.26653764630E+03 -0.17214444768E+04 -0.58065481217E+03  0.18361844718E+04  0.25500000920E-02 0.  1.
</event>
<event>
 5   0  0.3682276E-07  0.2784773E+04  0.7818609E-02  0.8308011E-01
        1   -1    0    0  501    0  0.00000000000E+00  0.00000000000E+00  0.22226431652E+04  0.22226431652E+04  0.50400001928E-02 0.  1.
       -1   -1    0    0    0  501  0.00000000000E+00  0.00000000000E+00 -0.87226768144E+03  0.87226768146E+03  0.50400001928E-02 0. -1.
    10030    2    1    2    0    0  0.00000000000E+00  0.00000000000E+00  0.13503754838E+04  0.30949108467E+04  0.27847727379E+04 0.  0.
        1    1    3    3  502    0  0.79494884088E+03  0.11430682222E+04  0.65982106606E+03  0.15407506156E+04  0.50400001928E-02 0.  1.
       -1    1    3    3    0  502 -0.79494884088E+03 -0.11430682222E+04  0.69055441772E+03  0.15541602311E+04  0.50400001928E-02 0. -1.
</event>
<event>
 5   0  0.3675819E-07  0.3646407E+04  0.7818609E-02  0.8079944E-01
        1   -1    0    0  501    0  0.00000000000E+00  0.00000000000E+00  0.20222265033E+04  0.20222265033E+04  0.50400001928E-02 0. -1.
       -1   -1    0    0    0  501  0.00000000000E+00  0.00000000000E+00 -0.16437676303E+04  0.16437676303E+04  0.50400001928E-02 0.  1.
    10030    2    1    2    0    0  0.00000000000E+00  0.00000000000E+00  0.37845887300E+03  0.36659941336E+04  0.36464067065E+04 0.  0.
        5    1    3    3  502    0  0.11190726888E+03  0.52691443925E+01 -0.16402977471E+04  0.16441258437E+04  0.46999998093E+01 0.  1.
       -5    1    3    3    0  502 -0.11190726888E+03 -0.52691443925E+01  0.20187566201E+04  0.20218682899E+04  0.46999998093E+01 0. -1.
</event>
<event>
 5   0  0.3764495E-07  0.3735068E+04  0.7818609E-02  0.8060235E-01
        1   -1    0    0  501    0  0.00000000000E+00  0.00000000000E+00  0.17520590287E+04  0.17520590287E+04  0.50400001928E-02 0.  1.
       -1   -1    0    0    0  501  0.00000000000E+00  0.00000000000E+00 -0.19906193415E+04  0.19906193415E+04  0.50400001928E-02 0. -1.
    10030    2    1    2    0    0  0.00000000000E+00  0.00000000000E+00 -0.23856031273E+03  0.37426783702E+04  0.37350676513E+04 0.  0.
        4    1    3    3  502    0  0.98817788102E+03 -0.12230359652E+03 -0.17024448561E+04  0.19722509463E+04  0.12699999809E+01 0. -1.
       -4    1    3    3    0  502 -0.98817788102E+03  0.12230359652E+03  0.14638845433E+04  0.17704274239E+04  0.12699999809E+01 0.  1.
</event>
<event>
 5   0  0.1092116E-06  0.2800637E+04  0.7818609E-02  0.8303071E-01
        2   -1    0    0  501    0  0.00000000000E+00  0.00000000000E+00  0.19511544205E+04  0.19511544205E+04  0.25500000920E-02 0. -1.
       -2   -1    0    0    0  501  0.00000000000E+00  0.00000000000E+00 -0.10049903667E+04  0.10049903667E+04  0.25500000920E-02 0.  1.
    10030    2    1    2    0    0  0.00000000000E+00  0.00000000000E+00  0.94616405373E+03  0.29561447872E+04  0.28006366395E+04 0.  0.
        1    1    3    3  502    0 -0.95500369585E+03 -0.92494567122E+03  0.93719531167E+03  0.16266196870E+04  0.50400001928E-02 0. -1.
       -1    1    3    3    0  502  0.95500369585E+03  0.92494567122E+03  0.89687420592E+01  0.13295251002E+04  0.50400001928E-02 0.  1.
</event>
<event>
 5   0  0.3682276E-07  0.3657353E+04  0.7818609E-02  0.8077479E-01
       -1   -1    0    0    0  501  0.00000000000E+00  0.00000000000E+00  0.21124444139E+04  0.21124444139E+04  0.50400001928E-02 0.  1.
        1   -1    0    0  501    0  0.00000000000E+00  0.00000000000E+00 -0.15830279912E+04  0.15830279912E+04  0.50400001928E-02 0. -1.
    10030    2    1    2    0    0  0.00000000000E+00  0.00000000000E+00  0.52941642262E+03  0.36954724051E+04  0.36573534897E+04 0.  0.
        1    1    3    3  502    0 -0.33483384201E+03 -0.17370451465E+04  0.73280666332E+03  0.19147963726E+04  0.50400001928E-02 0.  1.
       -1    1    3    3    0  502  0.33483384201E+03  0.17370451465E+04 -0.20339024071E+03  0.17806760325E+04  0.50400001928E-02 0. -1.
</event>
<event>
 5   0  0.1128166E-06  0.3705107E+04  0.7818609E-02  0.8066831E-01
       -2   -1    0    0    0  501  0.00000000000E+00  0.00000000000E+00  0.22184310080E+04  0.22184310080E+04  0.25500000920E-02 0.  1.
        2   -1    0    0  501    0  0.00000000000E+00  0.00000000000E+00 -0.15470187795E+04  0.15470187795E+04  0.25500000920E-02 0. -1.
    10030    2    1    2    0    0  0.00000000000E+00  0.00000000000E+00  0.67141222848E+03  0.37654497874E+04  0.37051069784E+04 0.  0.
        3    1    3    3  502    0 -0.35440843323E+03  0.55538822873E+03 -0.14239352908E+04  0.15689656289E+04  0.10100000352E+00 0. -1.
       -3    1    3    3    0  502  0.35440843323E+03 -0.55538822873E+03  0.20953475192E+04  0.21964841585E+04  0.10100000352E+00 0.  1.
</event>
<event>
 5   0  0.1092116E-06  0.3649579E+04  0.7818609E-02  0.8079228E-01
       -2   -1    0    0    0  501  0.00000000000E+00  0.00000000000E+00  0.17640525246E+04  0.17640525246E+04  0.25500000920E-02 0. -1.
        2   -1    0    0  501    0  0.00000000000E+00  0.00000000000E+00 -0.18876180901E+04  0.18876180901E+04  0.25500000920E-02 0.  1.
    10030    2    1    2    0    0  0.00000000000E+00  0.00000000000E+00 -0.12356556546E+03  0.36516706147E+04  0.36495794045E+04 0.  0.
        1    1    3    3  502    0 -0.10778871971E+04 -0.72842958107E+02 -0.15332411508E+04  0.18756266507E+04  0.50400001928E-02 0.  1.
       -1    1    3    3    0  502  0.10778871971E+04  0.72842958107E+02  0.14096755853E+04  0.17760439640E+04  0.50400001928E-02 0. -1.
</event>
<event>
 5   0  0.1092116E-06  0.3626953E+04  0.7818609E-02  0.8084345E-01
       -2   -1    0    0    0  501  0.00000000000E+00  0.00000000000E+00  0.14056156611E+04  0.14056156611E+04  0.25500000920E-02 0.  1.
        2   -1    0    0  501    0  0.00000000000E+00  0.00000000000E+00 -0.23396848139E+04  0.23396848139E+04  0.25500000920E-02 0. -1.
    10030    2    1    2    0    0  0.00000000000E+00  0.00000000000E+00 -0.93406915281E+03  0.37453004749E+04  0.36269533310E+04 0.  0.
        1    1    3    3  502    0 -0.10456373164E+04  0.11256866199E+04  0.52781730899E+03  0.16245365110E+04  0.50400001928E-02 0.  1.
       -1    1    3    3    0  502  0.10456373164E+04 -0.11256866199E+04 -0.14618864618E+04  0.21207639640E+04  0.50400001928E-02 0. -1.
</event>
<event>
 5   0  0.1128530E-06  0.3584568E+04  0.7818609E-02  0.8094036E-01
       -2   -1    0    0    0  501  0.00000000000E+00  0.00000000000E+00  0.20530028325E+04  0.20530028325E+04  0.25500000920E-02 0. -1.
        2   -1    0    0  501    0  0.00000000000E+00  0.00000000000E+00 -0.15646751091E+04  0.15646751091E+04  0.25500000920E-02 0.  1.
    10030    2    1    2    0    0  0.00000000000E+00  0.00000000000E+00  0.48832772344E+03  0.36176779416E+04  0.35845682758E+04 0.  0.
        5    1    3    3  502    0  0.10421768451E+04 -0.10722529975E+04 -0.75309341436E+03  0.16742254471E+04  0.46999998093E+01 0.  1.
       -5    1    3    3    0  502 -0.10421768451E+04  0.10722529975E+04  0.12414211378E+04  0.19434524945E+04  0.46999998093E+01 0. -1.
</event>
<event>
 5   0  0.3675819E-07  0.2841713E+04  0.7818609E-02  0.8290434E-01
        1   -1    0    0  501    0  0.00000000000E+00  0.00000000000E+00  0.18520686874E+04  0.18520686874E+04  0.50400001928E-02 0.  1.
       -1   -1    0    0    0  501  0.00000000000E+00  0.00000000000E+00 -0.10900422180E+04  0.10900422180E+04  0.50400001928E-02 0. -1.
    10030    2    1    2    0    0  0.00000000000E+00  0.00000000000E+00  0.76202646940E+03  0.29421109055E+04  0.28417129060E+04 0.  0.
        5    1    3    3  502    0  0.12945075677E+03  0.93547064640E+03  0.14800970330E+04  0.17557255326E+04  0.46999998093E+01 0.  1.
       -5    1    3    3    0  502 -0.12945075677E+03 -0.93547064640E+03 -0.71807056360E+03  0.11863853729E+04  0.46999998093E+01 0. -1.
</event>
<event>
 5   0  0.1128166E-06  0.3681297E+04  0.7818609E-02  0.8072119E-01
        2   -1    0    0  501    0  0.00000000000E+00  0.00000000000E+00  0.20971308377E+04  0.20971308377E+04  0.25500000920E-02 0.  1.
       -2   -1    0    0    0  501  0.00000000000E+00  0.00000000000E+00 -0.16155340842E+04  0.16155340842E+04  0.25500000920E-02 0. -1.
    10030    2    1    2    0    0  0.00000000000E+00  0.00000000000E+00  0.48159675348E+03  0.37126649220E+04  0.36812966995E+04 0.  0.
        3    1    3    3  502    0  0.60881875592E+03 -0.49488400690E+03  0.19200436021E+04  0.20741595652E+04  0.10100000352E+00 0.  1.
       -3    1    3    3    0  502 -0.60881875592E+03  0.49488400690E+03 -0.14384468486E+04  0.16385053568E+04  0.10100000352E+00 0. -1.
</event>
<event>
 5   0  0.3764495E-07  0.3650363E+04  0.7818609E-02  0.8079052E-01
       -1   -1    0    0    0  501  0.00000000000E+00  0.00000000000E+00  0.20243214466E+04  0.20243214466E+04  0.50400001928E-02 0. -1.
        1   -1    0    0  501    0  0.00000000000E+00  0.00000000000E+00 -0.16456320900E+04  0.16456320901E+04  0.50400001928E-02 0.  1.
    10030    2    1    2    0    0  0.00000000000E+00  0.00000000000E+00  0.37868935658E+03  0.36699535367E+04  0.36503634521E+04 0.  0.
        4    1    3    3  502    0  0.70808829303E+03  0.65818709395E+01  0.18805895840E+04  0.20094902707E+04  0.12699999809E+01 0. -1.
       -4    1    3    3    0  502 -0.70808829303E+03 -0.65818709395E+01 -0.15019002274E+04  0.16604632660E+04  0.12699999809E+01 0.  1.
</event>
<event>
 5   0  0.3682276E-07  0.3808572E+04  0.7818609E-02  0.8044318E-01
        1   -1    0    0  501    0  0.00000000000E+00  0.00000000000E+00  0.22861419825E+04  0.22861419825E+04  0.50400001928E-02 0.  1.
       -1   -1    0    0    0  501  0.00000000000E+00  0.00000000000E+00 -0.15862117526E+04  0.15862117526E+04  0.50400001928E-02 0. -1.
    10030    2    1    2    0    0  0.00000000000E+00  0.00000000000E+00  0.69993022995E+03  0.38723537351E+04  0.38085720583E+04 0.  0.
        1    1    3    3  502    0  0.35445363914E+03 -0.54938938079E+03 -0.14685170711E+04  0.16074851359E+04  0.50400001928E-02 0. -1.
       -1    1    3    3    0  502 -0.35445363914E+03  0.54938938079E+03  0.21684473011E+04  0.22648685992E+04  0.50400001928E-02 0.  1.
</event>
<event>
 5   0  0.3704306E-07  0.3717466E+04  0.7818609E-02  0.8064102E-01
       -1   -1    0    0    0  501  0.00000000000E+00  0.00000000000E+00  0.13779456141E+04  0.13779456141E+04  0.50400001928E-02 0.  1.
        1   -1    0    0  501    0  0.00000000000E+00  0.00000000000E+00 -0.25072745368E+04  0.25072745368E+04  0.50400001928E-02 0. -1.
    10030    2    1    2    0    0  0.00000000000E+00  0.00000000000E+00 -0.11293289227E+04  0.38852201509E+04  0.37174657773E+04 0.  0.
        3    1    3    3  502    0  0.17737822668E+04 -0.13594117689E+03 -0.11275833441E+04  0.21062354431E+04  0.10100000352E+00 0. -1.
       -3    1    3    3    0  502 -0.17737822668E+04  0.13594117689E+03 -0.17455786250E+01  0.17789847079E+04  0.10100000352E+00 0.  1.
</event>
<event>
 5   0  0.3704306E-07  0.3639488E+04  0.7818609E-02  0.8081506E-01
       -1   -1    0    0    0  501  0.00000000000E+00  0.00000000000E+00  0.23817224289E+04  0.23817224289E+04  0.50400001928E-02 0. -1.
        1   -1    0    0  501    0  0.00000000000E+00  0.00000000000E+00 -0.13903668757E+04  0.13903668757E+04  0.50400001928E-02 0.  1.
    10030    2    1    2    0    0  0.00000000000E+00  0.00000000000E+00  0.99135555320E+03  0.37720893047E+04  0.36394878609E+04 0.  0.
        3    1    3    3  502    0 -0.71921413559E+03 -0.11666494024E+04 -0.74507200093E+03  0.15599590052E+04  0.10100000352E+00 0.  1.
       -3    1    3    3    0  502  0.71921413559E+03  0.11666494024E+04  0.17364275541E+04  0.22121302995E+04  0.10100000352E+00 0. -1.
</event>
<event>
 5   0  0.1051123E-06  0.3416404E+04  0.7818609E-02  0.8133892E-01
        2   -1    0    0  501    0  0.00000000000E+00  0.00000000000E+00  0.30574292179E+04  0.30574292179E+04  0.25500000920E-02 0. -1.
       -2   -1    0    0    0  501  0.00000000000E+00  0.00000000000E+00 -0.95438157985E+03  0.95438157985E+03  0.25500000920E-02 0.  1.
    10030    2    1    2    0    0  0.00000000000E+00  0.00000000000E+00  0.21030476380E+04  0.40118107977E+04  0.34164040319E+04 0.  0.
        2    1    3    3  502    0 -0.53104229742E+03  0.13455152907E+03 -0.84843026824E+03  0.10099227474E+04  0.25500000920E-02 0.  1.
       -2    1    3    3    0  502  0.53104229742E+03 -0.13455152907E+03  0.29514779063E+04  0.30018880503E+04  0.25500000920E-02 0. -1.
</event>
<event>
 5   0  0.3675819E-07  0.3249731E+04  0.7818609E-02  0.8175805E-01
       -1   -1    0    0    0  501  0.00000000000E+00  0.00000000000E+00  0.14525460866E+04  0.14525460866E+04  0.50400001928E-02 0.  1.
        1   -1    0    0  501    0  0.00000000000E+00  0.00000000000E+00 -0.18176279700E+04  0.18176279700E+04  0.50400001928E-02 0. -1.
    10030    2    1    2    0    0  0.00000000000E+00  0.00000000000E+00 -0.36508188339E+03  0.32701740566E+04  0.32497313087E+04 0.  0.
        5    1    3    3  502    0  0.27577100489E+03 -0.10659867349E+04  0.10198769251E+04  0.15008492257E+04  0.46999998093E+01 0. -1.
       -5    1    3    3    0  502 -0.27577100489E+03  0.10659867349E+04 -0.13849588085E+04  0.17693248309E+04  0.46999998093E+01 0.  1.
</event>
<event>
 5   0  0.1128530E-06  0.3672619E+04  0.7818609E-02  0.8074057E-01
       -2   -1    0    0    0  501  0.00000000000E+00  0.00000000000E+00  0.15679314639E+04  0.15679314639E+04  0.25500000920E-02 0. -1.
        2   -1    0    0  501    0  0.00000000000E+00  0.00000000000E+00 -0.21506244006E+04  0.21506244006E+04  0.25500000920E-02 0.  1.
    10030    2    1    2    0    0  0.00000000000E+00  0.00000000000E+00 -0.58269293674E+03  0.37185558646E+04  0.36726185017E+04 0.  0.
        5    1    3    3  502    0  0.30366422202E+03 -0.45727239666E+03  0.14829131029E+04  0.15812537321E+04  0.46999998093E+01 0. -1.
       -5    1    3    3    0  502 -0.30366422202E+03  0.45727239666E+03 -0.20656060396E+04  0.21373021325E+04  0.46999998093E+01 0.  1.
</event>
<event>
 5   0  0.3848431E-07  0.3747775E+04  0.7818609E-02  0.8057456E-01
       -1   -1    0    0    0  501  0.00000000000E+00  0.00000000000E+00  0.14136017664E+04  0.14136017664E+04  0.50400001928E-02 0. -1.
        1   -1    0    0  501    0  0.00000000000E+00  0.00000000000E+00 -0.24840480043E+04  0.24840480043E+04  0.50400001928E-02 0.  1.
    10030    2    1    2    0    0  0.00000000000E+00  0.00000000000E+00 -0.10704462379E+04  0.38976497707E+04  0.37477751516E+04 0.  0.
        2    1    3    3  502    0  0.21655732614E+03  0.81161588408E+03 -0.22772727403E+04  0.24272594737E+04  0.25500000920E-02 0.  1.
       -2    1    3    3    0  502 -0.21655732614E+03 -0.81161588408E+03  0.12068265024E+04  0.14703902970E+04  0.25500000920E-02 0. -1.
</event>
<event>
 5   0  0.3848431E-07  0.3673475E+04  0.7818609E-02  0.8073866E-01
       -1   -1    0    0    0  501  0.00000000000E+00  0.00000000000E+00  0.30512901623E+04  0.30512901623E+04  0.50400001928E-02 0.  1.
        1   -1    0    0  501    0  0.00000000000E+00  0.00000000000E+00 -0.11056324876E+04  0.11056324876E+04  0.50400001928E-02 0. -1.
    10030    2    1    2    0    0  0.00000000000E+00  0.00000000000E+00  0.19456576747E+04  0.41569226499E+04  0.36734754838E+04 0.  0.
        2    1    3    3  502    0  0.12561108076E+04 -0.13126470383E+04  0.12780453923E+04  0.22213186698E+04  0.25500000920E-02 0.  1.
       -2    1    3    3    0  502 -0.12561108076E+04  0.13126470383E+04  0.66761228234E+03  0.19356039801E+04  0.25500000920E-02 0. -1.
</event>
<event>
 5   0  0.3682276E-07  0.3914860E+04  0.7818609E-02  0.8021946E-01
       -1   -1    0    0    0  501  0.00000000000E+00  0.00000000000E+00  0.13747831807E+04  0.13747831807E+04  0.50400001928E-02 0.  1.
        1   -1    0    0  501    0  0.00000000000E+00  0.00000000000E+00 -0.27870081483E+04  0.27870081483E+04  0.50400001928E-02 0. -1.
    10030    2    1    2    0    0  0.00000000000E+00  0.00000000000E+00 -0.14122249676E+04  0.41617913289E+04  0.39148598578E+04 0.  0.
        1    1    3    3  502    0 -0.12098520907E+04  0.66432328959E+03  0.76940573514E+03  0.15802065371E+04  0.50400001928E-02 0.  1.
       -1    1    3    3    0  502  0.12098520907E+04 -0.66432328959E+03 -0.21816307027E+04  0.25815847919E+04  0.50400001928E-02 0. -1.
</event>
<event>
 5   0  0.3848431E-07  0.3661928E+04  0.7818609E-02  0.8076452E-01
       -1   -1    0    0    0  501  0.00000000000E+00  0.00000000000E+00  0.14754064734E+04  0.14754064734E+04  0.50400001928E-02 0. -1.
        1   -1    0    0  501    0  0.00000000000E+00  0.00000000000E+00 -0.22722076542E+04  0.22722076542E+04  0.50400001928E-02 0.  1.
    10030    2    1    2    0    0  0.00000000000E+00  0.00000000000E+00 -0.79680118083E+03  0.37476141276E+04  0.36619283892E+04 0.  0.
        2    1    3    3  502    0  0.60220406442E+03 -0.14938105425E+04  0.49278564869E+03  0.16843269777E+04  0.25500000920E-02 0. -1.
       -2    1    3    3    0  502 -0.60220406442E+03  0.14938105425E+04 -0.12895868295E+04  0.20632871499E+04  0.25500000920E-02 0.  1.
</event>
<event>
 5   0  0.1092116E-06  0.3641319E+04  0.7818609E-02  0.8081092E-01
       -2   -1    0    0    0  501  0.00000000000E+00  0.00000000000E+00  0.11680347363E+04  0.11680347363E+04  0.25500000920E-02 0. -1.
        2   -1    0    0  501    0  0.00000000000E+00  0.00000000000E+00 -0.28379301909E+04  0.28379301909E+04  0.25500000920E-02 0.  1.
    10030    2    1    2    0    0  0.00000000000E+00  0.00000000000E+00 -0.16698954546E+04  0.40059649272E+04  0.36413190150E+04 0.  0.
        1    1    3    3  502    0 -0.10684042116E+04 -0.88928985274E+03  0.45858486966E+03  0.14637705026E+04  0.50400001928E-02 0. -1.
       -1    1    3    3    0  502  0.10684042116E+04  0.88928985274E+03 -0.21284803243E+04  0.25421944246E+04  0.50400001928E-02 0.  1.
</event>
<event>
 5   0  0.1092116E-06  0.3699171E+04  0.7818609E-02  0.8068146E-01
       -2   -1    0    0    0  501  0.00000000000E+00  0.00000000000E+00  0.13625391681E+04  0.13625391681E+04  0.25500000920E-02 0. -1.
        2   -1    0    0  501    0  0.00000000000E+00  0.00000000000E+00 -0.25107292949E+04  0.25107292949E+04  0.25500000920E-02 0.  1.
    10030    2    1    2    0    0  0.00000000000E+00  0.00000000000E+00 -0.11481901267E+04  0.38732684630E+04  0.36991712612E+04 0.  0.
        1    1    3    3  502    0  0.22080379914E+03  0.60441700887E+03 -0.23897450530E+04  0.24748647755E+04  0.50400001928E-02 0.  1.
       -1    1    3    3    0  502 -0.22080379914E+03 -0.60441700887E+03  0.12415549263E+04  0.13984036876E+04  0.50400001928E-02 0. -1.
</event>
<event>
 5   0  0.3764495E-07  0.4040679E+04  0.7818609E-02  0.7996390E-01
       -1   -1    0    0    0  501  0.00000000000E+00  0.00000000000E+00  0.23709298752E+04  0.23709298752E+04  0.50400001928E-02 0.  1.
        1   -1    0    0  501    0  0.00000000000E+00  0.00000000000E+00 -0.17215914069E+04  0.17215914069E+04  0.50400001928E-02 0. -1.
    10030    2    1    2    0    0  0.00000000000E+00  0.00000000000E+00  0.64933846836E+03  0.40925212821E+04  0.40406793981E+04 0.  0.
        4    1    3    3  502    0  0.15859180147E+04  0.11763723687E+04  0.75768572743E+03  0.21149650526E+04  0.12699999809E+01 0.  1.
       -4    1    3    3    0  502 -0.15859180147E+04 -0.11763723687E+04 -0.10834725907E+03  0.19775562295E+04  0.12699999809E+01 0. -1.
</event>
<event>
 5   0  0.1128530E-06  0.3674014E+04  0.7818609E-02  0.8073745E-01
       -2   -1    0    0    0  501  0.00000000000E+00  0.00000000000E+00  0.17382439035E+04  0.17382439035E+04  0.25500000920E-02 0. -1.
        2   -1    0    0  501    0  0.00000000000E+00  0.00000000000E+00 -0.19413816428E+04  0.19413816428E+04  0.25500000920E-02 0.  1.
    10030    2    1    2    0    0  0.00000000000E+00  0.00000000000E+00 -0.20313773931E+03  0.36796255462E+04  0.36740140473E+04 0.  0.
        5    1    3    3  502    0  0.86500277193E+03  0.12596564278E+04 -0.11227381589E+04  0.18961875369E+04  0.46999998093E+01 0.  1.
       -5    1    3    3    0  502 -0.86500277193E+03 -0.12596564278E+04  0.91960041958E+03  0.17834380094E+04  0.46999998093E+01 0. -1.
</event>
<event>
 5   0  0.3675819E-07  0.3791037E+04  0.7818609E-02  0.8048081E-01
        1   -1    0    0  501    0  0.00000000000E+00  0.00000000000E+00  0.12172077543E+04  0.12172077543E+04  0.50400001928E-02 0. -1.
       -1   -1    0    0    0  501  0.00000000000E+00  0.00000000000E+00 -0.29518306218E+04  0.29518306218E+04  0.50400001928E-02 0.  1.
    10030    2    1    2    0    0  0.00000000000E+00  0.00000000000E+00 -0.17346228675E+04  0.41690383762E+04  0.37910373896E+04 0.  0.
        5    1    3    3  502    0  0.14476932386E+03 -0.60136601381E+03 -0.28377157732E+04  0.29043505537E+04  0.46999998093E+01 0.  1.
       -5    1    3    3    0  502 -0.14476932386E+03  0.60136601381E+03  0.11030929057E+04  0.12646878224E+04  0.46999998093E+01 0. -1.
</event>
<event>
 5   0  0.3848431E-07  0.3658089E+04  0.7818609E-02  0.8077314E-01
        1   -1    0    0  501    0  0.00000000000E+00  0.00000000000E+00  0.22236812732E+04  0.22236812732E+04  0.50400001928E-02 0.  1.
       -1   -1    0    0    0  501  0.00000000000E+00  0.00000000000E+00 -0.15044440449E+04  0.15044440449E+04  0.50400001928E-02 0. -1.
    10030    2    1    2    0    0  0.00000000000E+00  0.00000000000E+00  0.71923722826E+03  0.37281253181E+04  0.36580891455E+04 0.  0.
        2    1    3    3  502    0 -0.65040066763E+01  0.61850664235E+03 -0.13946181659E+04  0.15256318683E+04  0.25500000920E-02 0. -1.
       -2    1    3    3    0  502  0.65040066763E+01 -0.61850664235E+03  0.21138553942E+04  0.22024934498E+04  0.25500000920E-02 0.  1.
</event>
<event>
 5   0  0.1128530E-06  0.3564872E+04  0.7818609E-02  0.8098586E-01
       -2   -1    0    0    0  501  0.00000000000E+00  0.00000000000E+00  0.16649624139E+04  0.16649624139E+04  0.25500000920E-02 0.  1.
        2   -1    0    0  501    0  0.00000000000E+00  0.00000000000E+00 -0.19081983278E+04  0.19081983278E+04  0.25500000920E-02 0. -1.
    10030    2    1    2    0    0  0.00000000000E+00  0.00000000000E+00 -0.24323591388E+03  0.35731607417E+04  0.35648722244E+04 0.  0.
        5    1    3    3  502    0 -0.89146844422E+03 -0.15411009017E+04 -0.35695674138E+02  0.17807313799E+04  0.46999998093E+01 0.  1.
       -5    1    3    3    0  502  0.89146844422E+03  0.15411009017E+04 -0.20754023974E+03  0.17924293619E+04  0.46999998093E+01 0. -1.
</event>
<event>
 5   0  0.1092116E-06  0.3702013E+04  0.7818609E-02  0.8067516E-01
       -2   -1    0    0    0  501  0.00000000000E+00  0.00000000000E+00  0.19372168816E+04  0.19372168816E+04  0.25500000920E-02 0. -1.
        2   -1    0    0  501    0  0.00000000000E+00  0.00000000000E+00 -0.17686329465E+04  0.17686329465E+04  0.25500000920E-02 0.  1.
    10030    2    1    2    0    0  0.00000000000E+00  0.00000000000E+00  0.16858393513E+03  0.37058498280E+04  0.37020132907E+04 0.  0.
        1    1    3    3  502    0  0.13400210553E+04  0.76049617140E+03  0.11111302100E+04  0.18996371230E+04  0.50400001928E-02 0. -1.
       -1    1    3    3    0  502 -0.13400210553E+04 -0.76049617140E+03 -0.94254627492E+03  0.18062127050E+04  0.50400001928E-02 0.  1.
</event>
<event>
 5   0  0.3764495E-07  0.3773625E+04  0.7818609E-02  0.8051839E-01
       -1   -1    0    0    0  501  0.00000000000E+00  0.00000000000E+00  0.16314937699E+04  0.16314937700E+04  0.50400001928E-02 0.  1.
        1   -1    0    0  501    0  0.00000000000E+00  0.00000000000E+00 -0.21820875764E+04  0.21820875764E+04  0.50400001928E-02 0. -1.
    10030    2    1    2    0    0  0.00000000000E+00  0.00000000000E+00 -0.55059380646E+03  0.38135813464E+04  0.37736254644E+04 0.  0.
        4    1    3    3  502    0  0.14830144750E+04  0.29023058502E+03 -0.14170804248E+04  0.20716380642E+04  0.12699999809E+01 0. -1.
       -4    1    3    3    0  502 -0.14830144750E+04 -0.29023058502E+03  0.86648661837E+03  0.17419432822E+04  0.12699999809E+01 0.  1.
</event>
<event>
 5   0  0.3675819E-07  0.3552619E+04  0.7818609E-02  0.8101432E-01
        1   -1    0    0  501    0  0.00000000000E+00  0.00000000000E+00  0.16369979127E+04  0.16369979127E+04  0.50400001928E-02 0.  1.
       -1   -1    0    0    0  501  0.00000000000E+00  0.00000000000E+00 -0.19274766774E+04  0.19274766774E+04  0.50400001928E-02 0. -1.
    10030    2    1    2    0    0  0.00000000000E+00  0.00000000000E+00 -0.29047876475E+03  0.35644745902E+04  0.35526189200E+04 0.  0.
        5    1    3    3  502    0  0.78373676108E+03 -0.51713842868E+03 -0.16581100523E+04  0.19055252558E+04  0.46999998093E+01 0. -1.
       -5    1    3    3    0  502 -0.78373676108E+03  0.51713842868E+03  0.13676312876E+04  0.16589493343E+04  0.46999998093E+01 0.  1.
</event>
<event>
 5   0  0.3704306E-07  0.3461146E+04  0.7818609E-02  0.8123060E-01
        1   -1    0    0  501    0  0.00000000000E+00  0.00000000000E+00  0.17971802393E+04  0.17971802393E+04  0.50400001928E-02 0. -1.
       -1   -1    0    0    0  501  0.00000000000E+00  0.00000000000E+00 -0.16664348393E+04  0.16664348393E+04  0.50400001928E-02 0.  1.
    10030    2    1    2    0    0  0.00000000000E+00  0.00000000000E+00  0.13074539999E+03  0.34636150787E+04  0.34611464941E+04 0.  0.
        3    1    3    3  502    0 -0.16105707644E+04  0.60168585415E+03  0.26279416804E+03  0.17392598538E+04  0.10100000352E+00 0. -1.
       -3    1    3    3    0  502  0.16105707644E+04 -0.60168585415E+03 -0.13204876805E+03  0.17243552248E+04  0.10100000352E+00 0.  1.
</event>
<event>
 5   0  0.3490375E-07  0.2406579E+04  0.7818609E-02  0.8437045E-01
        3   -1    0    0  501    0  0.00000000000E+00  0.00000000000E+00  0.31764451316E+04  0.31764451333E+04  0.10100000352E+00 0.  1.
       -3   -1    0    0    0  501  0.00000000000E+00  0.00000000000E+00 -0.45582580933E+03  0.45582582052E+03  0.10100000352E+00 0. -1.
    10030    2    1    2    0    0  0.00000000000E+00  0.00000000000E+00  0.27206193223E+04  0.36322709538E+04  0.24065790626E+04 0.  0.
        1    1    3    3  502    0  0.96041240237E+03 -0.48403197781E+03  0.21748146366E+04  0.24262105518E+04  0.50400001928E-02 0.  1.
       -1    1    3    3    0  502 -0.96041240237E+03  0.48403197781E+03  0.54580468570E+03  0.12060604019E+04  0.50400001928E-02 0. -1.
</event>
<event>
 5   0  0.3764495E-07  0.3544206E+04  0.7818609E-02  0.8103393E-01
       -1   -1    0    0    0  501  0.00000000000E+00  0.00000000000E+00  0.17330544846E+04  0.17330544846E+04  0.50400001928E-02 0.  1.
        1   -1    0    0  501    0  0.00000000000E+00  0.00000000000E+00 -0.18120314923E+04  0.18120314924E+04  0.50400001928E-02 0. -1.
    10030    2    1    2    0    0  0.00000000000E+00  0.00000000000E+00 -0.78977007708E+02  0.35450859770E+04  0.35442061476E+04 0.  0.
        4    1    3    3  502    0  0.10867129666E+04 -0.12982381294E+04 -0.56304979351E+03  0.17842068252E+04  0.12699999809E+01 0.  1.
       -4    1    3    3    0  502 -0.10867129666E+04  0.12982381294E+04  0.48407278580E+03  0.17608791518E+04  0.12699999809E+01 0. -1.
</event>
<event>
 5   0  0.3675819E-07  0.2745510E+04  0.7818609E-02  0.8320388E-01
        1   -1    0    0  501    0  0.00000000000E+00  0.00000000000E+00  0.20126655992E+04  0.20126655992E+04  0.50400001928E-02 0.  1.
       -1   -1    0    0    0  501  0.00000000000E+00  0.00000000000E+00 -0.93629870033E+03  0.93629870034E+03  0.50400001928E-02 0. -1.
    10030    2    1    2    0    0  0.00000000000E+00  0.00000000000E+00  0.10763668989E+04  0.29489642995E+04  0.27455099233E+04 0.  0.
        5    1    3    3  502    0 -0.33147359263E+03  0.10730959648E+04 -0.30962750926E+03  0.11650326076E+04  0.46999998093E+01 0. -1.
       -5    1    3    3    0  502  0.33147359263E+03 -0.10730959648E+04  0.13859944081E+04  0.17839316920E+04  0.46999998093E+01 0.  1.
</event>
<event>
 5   0  0.1066907E-06  0.3713324E+04  0.7818609E-02  0.8065015E-01
       -2   -1    0    0    0  501  0.00000000000E+00  0.00000000000E+00  0.14576704698E+04  0.14576704698E+04  0.25500000920E-02 0. -1.
        2   -1    0    0  501    0  0.00000000000E+00  0.00000000000E+00 -0.23648655005E+04  0.23648655005E+04  0.25500000920E-02 0.  1.
    10030    2    1    2    0    0  0.00000000000E+00  0.00000000000E+00 -0.90719503070E+03  0.38225359704E+04  0.37133244433E+04 0.  0.
        4    1    3    3  502    0  0.12759928270E+04  0.67205041424E+03  0.75014571602E+03  0.16255859442E+04  0.12699999809E+01 0. -1.
       -4    1    3    3    0  502 -0.12759928270E+04 -0.67205041424E+03 -0.16573407467E+04  0.21969500262E+04  0.12699999809E+01 0.  1.
</event>
<event>
 5   0  0.3675819E-07  0.3064086E+04  0.7818609E-02  0.8225664E-01
       -1   -1    0    0    0  501  0.00000000000E+00  0.00000000000E+00  0.13291246590E+04  0.13291246590E+04  0.50400001928E-02 0.  1.
        1   -1    0    0  501    0  0.00000000000E+00  0.00000000000E+00 -0.17659406141E+04  0.17659406141E+04  0.50400001928E-02 0. -1.
    10030    2    1    2    0    0  0.00000000000E+00  0.00000000000E+00 -0.43681595510E+03  0.30950652731E+04  0.30640856493E+04 0.  0.
        5    1    3    3  502    0  0.15265052477E+04  0.56838903552E+02 -0.10024578817E+03  0.15308560482E+04  0.46999998093E+01 0. -1.
       -5    1    3    3    0  502 -0.15265052477E+04 -0.56838903552E+02 -0.33657016693E+03  0.15642092250E+04  0.46999998093E+01 0.  1.
</event>
<event>
 5   0  0.1128166E-06  0.3697888E+04  0.7818609E-02  0.8068430E-01
       -2   -1    0    0    0  501  0.00000000000E+00  0.00000000000E+00  0.10205409090E+04  0.10205409090E+04  0.25500000920E-02 0. -1.
        2   -1    0    0  501    0  0.00000000000E+00  0.00000000000E+00 -0.33497868932E+04  0.33497868932E+04  0.25500000920E-02 0.  1.
    10030    2    1    2    0    0  0.00000000000E+00  0.00000000000E+00 -0.23292459842E+04  0.43703278022E+04  0.36978883493E+04 0.  0.
        3    1    3    3  502    0  0.14530059222E+04  0.66804180478E+03 -0.67932419378E+02  0.16006626399E+04  0.10100000352E+00 0. -1.
       -3    1    3    3    0  502 -0.14530059222E+04 -0.66804180478E+03 -0.22613135648E+04  0.27696651623E+04  0.10100000352E+00 0.  1.
</event>
<event>
 5   0  0.1128166E-06  0.3587303E+04  0.7818609E-02  0.8093406E-01
        2   -1    0    0  501    0  0.00000000000E+00  0.00000000000E+00  0.28956949401E+04  0.28956949401E+04  0.25500000920E-02 0. -1.
       -2   -1    0    0    0  501  0.00000000000E+00  0.00000000000E+00 -0.11110237771E+04  0.11110237771E+04  0.25500000920E-02 0.  1.
    10030    2    1    2    0    0  0.00000000000E+00  0.00000000000E+00  0.17846711630E+04  0.40067187172E+04  0.35873031262E+04 0.  0.
        3    1    3    3  502    0 -0.71715717753E+03 -0.15055635547E+04  0.16299657317E+04  0.23319143061E+04  0.10100000352E+00 0. -1.
       -3    1    3    3    0  502  0.71715717753E+03  0.15055635547E+04  0.15470543129E+03  0.16748044111E+04  0.10100000352E+00 0.  1.
</event>
<event>
 5   0  0.3848431E-07  0.3890591E+04  0.7818609E-02  0.8026989E-01
        1   -1    0    0  501    0  0.00000000000E+00  0.00000000000E+00  0.14377777532E+04  0.14377777532E+04  0.50400001928E-02 0.  1.
       -1   -1    0    0    0  501  0.00000000000E+00  0.00000000000E+00 -0.26319607938E+04  0.26319607938E+04  0.50400001928E-02 0. -1.
    10030    2    1    2    0    0  0.00000000000E+00  0.00000000000E+00 -0.11941830407E+04  0.40697385470E+04  0.38905910485E+04 0.  0.
        2    1    3    3  502    0  0.13522767031E+04  0.48541543423E+01  0.86569081414E+03  0.16056451757E+04  0.25500000920E-02 0.  1.
       -2    1    3    3    0  502 -0.13522767031E+04 -0.48541543423E+01 -0.20598738548E+04  0.24640933713E+04  0.25500000920E-02 0. -1.
</event>
<event>
 5   0  0.1128530E-06  0.3757629E+04  0.7818609E-02  0.8055309E-01
       -2   -1    0    0    0  501  0.00000000000E+00  0.00000000000E+00  0.21396642361E+04  0.21396642361E+04  0.25500000920E-02 0.  1.
        2   -1    0    0  501    0  0.00000000000E+00  0.00000000000E+00 -0.16497650259E+04  0.16497650259E+04  0.25500000920E-02 0. -1.
    10030    2    1    2    0    0  0.00000000000E+00  0.00000000000E+00  0.48989921018E+03  0.37894292620E+04  0.37576286267E+04 0.  0.
        5    1    3    3  502    0  0.13519498049E+04 -0.72638457985E+03  0.13378733028E+04  0.20360083244E+04  0.46999998093E+01 0.  1.
       -5    1    3    3    0  502 -0.13519498049E+04  0.72638457985E+03 -0.84797409259E+03  0.17534209376E+04  0.46999998093E+01 0. -1.
</event>
<event>
 5   0  0.3490375E-07  0.3219477E+04  0.7818609E-02  0.8183692E-01
       -3   -1    0    0    0  501  0.00000000000E+00  0.00000000000E+00  0.14568293029E+04  0.14568293064E+04  0.10100000352E+00 0.  1.
        3   -1    0    0  501    0  0.00000000000E+00  0.00000000000E+00 -0.17786975705E+04  0.17786975734E+04  0.10100000352E+00 0. -1.
    10030    2    1    2    0    0  0.00000000000E+00  0.00000000000E+00 -0.32186826761E+03  0.32355268798E+04  0.32194774433E+04 0.  0.
        4    1    3    3  502    0 -0.11653025203E+04  0.15749252244E+03 -0.12657429622E+04  0.17276691575E+04  0.12699999809E+01 0. -1.
       -4    1    3    3    0  502  0.11653025203E+04 -0.15749252244E+03  0.94387469461E+03  0.15078577223E+04  0.12699999809E+01 0.  1.
</event>
<event>
 5   0  0.3764495E-07  0.3636567E+04  0.7818609E-02  0.8082167E-01
       -1   -1    0    0    0  501  0.00000000000E+00  0.00000000000E+00  0.15560755451E+04  0.15560755451E+04  0.50400001928E-02 0.  1.
        1   -1    0    0  501    0  0.00000000000E+00  0.00000000000E+00 -0.21246748330E+04  0.21246748330E+04  0.50400001928E-02 0. -1.
    10030    2    1    2    0    0  0.00000000000E+00  0.00000000000E+00 -0.56859928793E+03  0.36807503781E+04  0.36365668144E+04 0.  0.
        4    1    3    3  502    0  0.13399624034E+04  0.12561061376E+03  0.95320640514E+03  0.16492062735E+04  0.12699999809E+01 0.  1.
       -4    1    3    3    0  502 -0.13399624034E+04 -0.12561061376E+03 -0.15218056931E+04  0.20315441046E+04  0.12699999809E+01 0. -1.
</event>
<event>
 5   0  0.1128530E-06  0.3694331E+04  0.7818609E-02  0.8069219E-01
        2   -1    0    0  501    0  0.00000000000E+00  0.00000000000E+00  0.18484018161E+04  0.18484018161E+04  0.25500000920E-02 0. -1.
       -2   -1    0    0    0  501  0.00000000000E+00  0.00000000000E+00 -0.18459297295E+04  0.18459297295E+04  0.25500000920E-02 0.  1.
    10030    2    1    2    0    0  0.00000000000E+00  0.00000000000E+00  0.24720866091E+01  0.36943315456E+04  0.36943307185E+04 0.  0.
        5    1    3    3  502    0  0.56449208363E+02  0.14355535488E+04 -0.11597970628E+04  0.18463888598E+04  0.46999998093E+01 0.  1.
       -5    1    3    3    0  502 -0.56449208363E+02 -0.14355535488E+04  0.11622691495E+04  0.18479426859E+04  0.46999998093E+01 0. -1.
</event>
<event>
 5   0  0.1092116E-06  0.3322812E+04  0.7818609E-02  0.8157115E-01
       -2   -1    0    0    0  501  0.00000000000E+00  0.00000000000E+00  0.87026489054E+03  0.87026489054E+03  0.25500000920E-02 0. -1.
        2   -1    0    0  501    0  0.00000000000E+00  0.00000000000E+00 -0.31717591638E+04  0.31717591638E+04  0.25500000920E-02 0.  1.
    10030    2    1    2    0    0  0.00000000000E+00  0.00000000000E+00 -0.23014942733E+04  0.40420240544E+04  0.33228124482E+04 0.  0.
        1    1    3    3  502    0  0.67561641933E+03  0.11759555488E+04 -0.23181187285E+04  0.26857035276E+04  0.50400001928E-02 0.  1.
       -1    1    3    3    0  502 -0.67561641933E+03 -0.11759555488E+04  0.16624455179E+02  0.13563205268E+04  0.50400001928E-02 0. -1.
</event>
<event>
 5   0  0.3848431E-07  0.2425156E+04  0.7818609E-02  0.8430145E-01
       -1   -1    0    0    0  501  0.00000000000E+00  0.00000000000E+00  0.81074358644E+03  0.81074358645E+03  0.50400001928E-02 0. -1.
        1   -1    0    0  501    0  0.00000000000E+00  0.00000000000E+00 -0.18135757062E+04  0.18135757062E+04  0.50400001928E-02 0.  1.
    10030    2    1    2    0    0  0.00000000000E+00  0.00000000000E+00 -0.10028321197E+04  0.26243192926E+04  0.24251555598E+04 0.  0.
        2    1    3    3  502    0  0.10404360239E+04  0.35908026497E+03  0.49191735030E+02  0.11017556823E+04  0.25500000920E-02 0. -1.
       -2    1    3    3    0  502 -0.10404360239E+04 -0.35908026497E+03 -0.10520238548E+04  0.15225636104E+04  0.25500000920E-02 0.  1.
</event>
<event>
 5   0  0.1092116E-06  0.3675679E+04  0.7818609E-02  0.8073373E-01
        2   -1    0    0  501    0  0.00000000000E+00  0.00000000000E+00  0.28599198025E+04  0.28599198025E+04  0.25500000920E-02 0.  1.
       -2   -1    0    0    0  501  0.00000000000E+00  0.00000000000E+00 -0.11810310734E+04  0.11810310734E+04  0.25500000920E-02 0. -1.
    10030    2    1    2    0    0  0.00000000000E+00  0.00000000000E+00  0.16788887291E+04  0.40409508760E+04  0.36756790689E+04 0.  0.
        1    1    3    3  502    0  0.48798206606E+03 -0.15070902416E+04  0.18638159954E+04  0.24460698187E+04  0.50400001928E-02 0.  1.
       -1    1    3    3    0  502 -0.48798206606E+03  0.15070902416E+04 -0.18492726629E+03  0.15948810573E+04  0.50400001928E-02 0. -1.
</event>
<event>
 5   0  0.3764495E-07  0.3474511E+04  0.7818609E-02  0.8119857E-01
       -1   -1    0    0    0  501  0.00000000000E+00  0.00000000000E+00  0.10925745176E+04  0.10925745176E+04  0.50400001928E-02 0.  1.
        1   -1    0    0  501    0  0.00000000000E+00  0.00000000000E+00 -0.27623346684E+04  0.27623346684E+04  0.50400001928E-02 0. -1.
    10030    2    1    2    0    0  0.00000000000E+00  0.00000000000E+00 -0.16697601508E+04  0.38549091860E+04  0.34745108823E+04 0.  0.
        4    1    3    3  502    0  0.54095298071E+03 -0.10607392367E+04 -0.22383895310E+04  0.25353869844E+04  0.12699999809E+01 0. -1.
       -4    1    3    3    0  502 -0.54095298071E+03  0.10607392367E+04  0.56862938016E+03  0.13195222016E+04  0.12699999809E+01 0.  1.
</event>
<event>
 5   0  0.1128166E-06  0.3769419E+04  0.7818609E-02  0.8052750E-01
        2   -1    0    0  501    0  0.00000000000E+00  0.00000000000E+00  0.18472892142E+04  0.18472892142E+04  0.25500000920E-02 0. -1.
       -2   -1    0    0    0  501  0.00000000000E+00  0.00000000000E+00 -0.19228875807E+04  0.19228875807E+04  0.25500000920E-02 0.  1.
    10030    2    1    2    0    0  0.00000000000E+00  0.00000000000E+00 -0.75598366411E+02  0.37701767949E+04  0.37694187817E+04 0.  0.
        3    1    3    3  502    0  0.50673713676E+03  0.10133761523E+04 -0.15442281242E+04  0.19152948236E+04  0.10100000352E+00 0.  1.
       -3    1    3    3    0  502 -0.50673713676E+03 -0.10133761523E+04  0.14686297578E+04  0.18548819713E+04  0.10100000352E+00 0. -1.
</event>
<event>
 5   0  0.3764495E-07  0.3660080E+04  0.7818609E-02  0.8076867E-01
       -1   -1    0    0    0  501  0.00000000000E+00  0.00000000000E+00  0.12418750457E+04  0.12418750457E+04  0.50400001928E-02 0. -1.
        1   -1    0    0  501    0  0.00000000000E+00  0.00000000000E+00 -0.26967658108E+04  0.26967658108E+04  0.50400001928E-02 0.  1.
    10030    2    1    2    0    0  0.00000000000E+00  0.00000000000E+00 -0.14548907651E+04  0.39386408565E+04  0.36600798705E+04 0.  0.
        4    1    3    3  502    0 -0.11217484597E+04  0.13916264571E+04 -0.30501203649E+03  0.18132781801E+04  0.12699999809E+01 0.  1.
       -4    1    3    3    0  502  0.11217484597E+04 -0.13916264571E+04 -0.11498787286E+04  0.21253626764E+04  0.12699999809E+01 0. -1.
</event>
<event>
 5   0  0.1128166E-06  0.2405310E+04  0.7818609E-02  0.8437518E-01
        2   -1    0    0  501    0  0.00000000000E+00  0.00000000000E+00  0.22880621969E+04  0.22880621969E+04  0.25500000920E-02 0.  1.
       -2   -1    0    0    0  501  0.00000000000E+00  0.00000000000E+00 -0.63214136775E+03  0.63214136776E+03  0.25500000920E-02 0. -1.
    10030    2    1    2    0    0  0.00000000000E+00  0.00000000000E+00  0.16559208291E+04  0.29202035646E+04  0.24053097652E+04 0.  0.
        3    1    3    3  502    0 -0.34007619471E+03 -0.40154811978E+03  0.21408845572E+04  0.22046041386E+04  0.10100000352E+00 0.  1.
       -3    1    3    3    0  502  0.34007619471E+03  0.40154811978E+03 -0.48496372808E+03  0.71559942598E+03  0.10100000352E+00 0. -1.
</event>
<event>
 5   0  0.1066907E-06  0.3712589E+04  0.7818609E-02  0.8065178E-01
       -2   -1    0    0    0  501  0.00000000000E+00  0.00000000000E+00  0.11552650338E+04  0.11552650338E+04  0.25500000920E-02 0. -1.
        2   -1    0    0  501    0  0.00000000000E+00  0.00000000000E+00 -0.29827174847E+04  0.29827174847E+04  0.25500000920E-02 0.  1.
    10030    2    1    2    0    0  0.00000000000E+00  0.00000000000E+00 -0.18274524510E+04  0.41379825185E+04  0.37125889704E+04 0.  0.
        4    1    3    3  502    0 -0.94907336672E+03  0.15586661129E+04 -0.53469104387E+03  0.19015983888E+04  0.12699999809E+01 0. -1.
       -4    1    3    3    0  502  0.94907336672E+03 -0.15586661129E+04 -0.12927614071E+04  0.22363841297E+04  0.12699999809E+01 0.  1.
</event>
<event>
 5   0  0.1051123E-06  0.3810009E+04  0.7818609E-02  0.8044010E-01
        2   -1    0    0  501    0  0.00000000000E+00  0.00000000000E+00  0.12328307080E+04  0.12328307080E+04  0.25500000920E-02 0.  1.
       -2   -1    0    0    0  501  0.00000000000E+00  0.00000000000E+00 -0.29436657441E+04  0.29436657441E+04  0.25500000920E-02 0. -1.
    10030    2    1    2    0    0  0.00000000000E+00  0.00000000000E+00 -0.17108350361E+04  0.41764964522E+04  0.38100086738E+04 0.  0.
        2    1    3    3  502    0  0.11060767311E+04  0.10591228719E+04 -0.20975011160E+04  0.25970479249E+04  0.25500000920E-02 0. -1.
       -2    1    3    3    0  502 -0.11060767311E+04 -0.10591228719E+04  0.38666607987E+03  0.15794485272E+04  0.25500000920E-02 0.  1.
</event>
<event>
 5   0  0.1051123E-06  0.3690175E+04  0.7818609E-02  0.8070143E-01
       -2   -1    0    0    0  501  0.00000000000E+00  0.00000000000E+00  0.32656356562E+04  0.32656356562E+04  0.25500000920E-02 0.  1.
        2   -1    0    0  501    0  0.00000000000E+00  0.00000000000E+00 -0.10424760555E+04  0.10424760555E+04  0.25500000920E-02 0. -1.
    10030    2    1    2    0    0  0.00000000000E+00  0.00000000000E+00  0.22231596007E+04  0.43081117117E+04  0.36901745095E+04 0.  0.
        2    1    3    3  502    0  0.60808124741E+03  0.44481819085E+02 -0.92146998533E+03  0.11049200738E+04  0.25500000920E-02 0. -1.
       -2    1    3    3    0  502 -0.60808124741E+03 -0.44481819085E+02  0.31446295860E+04  0.32031916379E+04  0.25500000920E-02 0.  1.
</event>
<event>
 5   0  0.3764495E-07  0.3862469E+04  0.7818609E-02  0.8032880E-01
        1   -1    0    0  501    0  0.00000000000E+00  0.00000000000E+00  0.14965101738E+04  0.14965101738E+04  0.50400001928E-02 0. -1.
       -1   -1    0    0    0  501  0.00000000000E+00  0.00000000000E+00 -0.24922429207E+04  0.24922429207E+04  0.50400001928E-02 0.  1.
    10030    2    1    2    0    0  0.00000000000E+00  0.00000000000E+00 -0.99573274691E+03  0.39887530946E+04  0.38624690997E+04 0.  0.
        4    1    3    3  502    0 -0.15098965695E+04  0.11668882857E+03  0.73975805079E+03  0.16854220599E+04  0.12699999809E+01 0. -1.
       -4    1    3    3    0  502  0.15098965695E+04 -0.11668882857E+03 -0.17354907977E+04  0.23033310347E+04  0.12699999809E+01 0.  1.
</event>
<event>
 5   0  0.1051123E-06  0.3747320E+04  0.7818609E-02  0.8057555E-01
       -2   -1    0    0    0  501  0.00000000000E+00  0.00000000000E+00  0.22701954930E+04  0.22701954930E+04  0.25500000920E-02 0. -1.
        2   -1    0    0  501    0  0.00000000000E+00  0.00000000000E+00 -0.15463872662E+04  0.15463872662E+04  0.25500000920E-02 0.  1.
    10030    2    1    2    0    0  0.00000000000E+00  0.00000000000E+00  0.72380822678E+03  0.38165827592E+04  0.37473197901E+04 0.  0.
        2    1    3    3  502    0 -0.98697469456E+03 -0.13074596436E+04  0.12881258920E+04  0.20839477155E+04  0.25500000920E-02 0.  1.
       -2    1    3    3    0  502  0.98697469456E+03  0.13074596436E+04 -0.56431766524E+03  0.17326350437E+04  0.25500000920E-02 0. -1.
</event>
<event>
 5   0  0.1128530E-06  0.3556569E+04  0.7818609E-02  0.8100513E-01
        2   -1    0    0  501    0  0.00000000000E+00  0.00000000000E+00  0.22931035380E+04  0.22931035380E+04  0.25500000920E-02 0.  1.
       -2   -1    0    0    0  501  0.00000000000E+00  0.00000000000E+00 -0.13790458561E+04  0.13790458561E+04  0.25500000920E-02 0. -1.
    10030    2    1    2    0    0  0.00000000000E+00  0.00000000000E+00  0.91405768189E+03  0.36721493942E+04  0.35565685326E+04 0.  0.
        5    1    3    3  502    0  0.13997460364E+04 -0.33373845296E+03 -0.62172268863E+03  0.15675559042E+04  0.46999998093E+01 0. -1.
       -5    1    3    3    0  502 -0.13997460364E+04  0.33373845296E+03  0.15357803705E+04  0.21045934899E+04  0.46999998093E+01 0.  1.
</event>
<event>
 5   0  0.1128530E-06  0.3600784E+04  0.7818609E-02  0.8090312E-01
       -2   -1    0    0    0  501  0.00000000000E+00  0.00000000000E+00  0.15532217700E+04  0.15532217700E+04  0.25500000920E-02 0.  1.
        2   -1    0    0  501    0  0.00000000000E+00  0.00000000000E+00 -0.20868959194E+04  0.20868959194E+04  0.25500000920E-02 0. -1.
    10030    2    1    2    0    0  0.00000000000E+00  0.00000000000E+00 -0.53367414946E+03  0.36401176894E+04  0.36007844555E+04 0.  0.
        5    1    3    3  502    0 -0.38835407725E+03  0.68960248135E+03  0.13679295975E+04  0.15803872770E+04  0.46999998093E+01 0.  1.
       -5    1    3    3    0  502  0.38835407725E+03 -0.68960248135E+03 -0.19016037469E+04  0.20597304124E+04  0.46999998093E+01 0. -1.
</event>
<event>
 5   0  0.1128166E-06  0.3444410E+04  0.7818609E-02  0.8127092E-01
       -2   -1    0    0    0  501  0.00000000000E+00  0.00000000000E+00  0.21749567038E+04  0.21749567038E+04  0.25500000920E-02 0. -1.
        2   -1    0    0  501    0  0.00000000000E+00  0.00000000000E+00 -0.13637005777E+04  0.13637005777E+04  0.25500000920E-02 0.  1.
    10030    2    1    2    0    0  0.00000000000E+00  0.00000000000E+00  0.81125612612E+03  0.35386572814E+04  0.34444097975E+04 0.  0.
        3    1    3    3  502    0  0.79611181563E+03 -0.10981232815E+04  0.14959500410E+04  0.20192907912E+04  0.10100000352E+00 0. -1.
       -3    1    3    3    0  502 -0.79611181563E+03  0.10981232815E+04 -0.68469391485E+03  0.15193664902E+04  0.10100000352E+00 0.  1.
</event>
<event>
 5   0  0.3675819E-07  0.3636009E+04  0.7818609E-02  0.8082293E-01
        1   -1    0    0  501    0  0.00000000000E+00  0.00000000000E+00  0.23001781776E+04  0.23001781776E+04  0.50400001928E-02 0.  1.
       -1   -1    0    0    0  501  0.00000000000E+00  0.00000000000E+00 -0.14369061243E+04  0.14369061243E+04  0.50400001928E-02 0. -1.
    10030    2    1    2    0    0  0.00000000000E+00  0.00000000000E+00  0.86327205325E+03  0.37370843019E+04  0.36360088616E+04 0.  0.
        5    1    3    3  502    0 -0.35447212996E+03 -0.17134598198E+04 -0.75562440746E+02  0.17513785477E+04  0.46999998093E+01 0. -1.
       -5    1    3    3    0  502  0.35447212996E+03  0.17134598198E+04  0.93883449399E+03  0.19857057542E+04  0.46999998093E+01 0.  1.
</event>
<event>
 5   0  0.3682276E-07  0.3603376E+04  0.7818609E-02  0.8089719E-01
       -1   -1    0    0    0  501  0.00000000000E+00  0.00000000000E+00  0.27166326622E+04  0.27166326622E+04  0.50400001928E-02 0. -1.
        1   -1    0    0  501    0  0.00000000000E+00  0.00000000000E+00 -0.11948908757E+04  0.11948908757E+04  0.50400001928E-02 0.  1.
    10030    2    1    2    0    0  0.00000000000E+00  0.00000000000E+00  0.15217417865E+04  0.39115235379E+04  0.36033759619E+04 0.  0.
        1    1    3    3  502    0  0.17404526212E+04 -0.29930904181E+02  0.12653831085E+04  0.21520375455E+04  0.50400001928E-02 0. -1.
       -1    1    3    3    0  502 -0.17404526212E+04  0.29930904181E+02  0.25635867799E+03  0.17594859924E+04  0.50400001928E-02 0.  1.
</event>
<event>
 5   0  0.1128166E-06  0.3690085E+04  0.7818609E-02  0.8070163E-01
       -2   -1    0    0    0  501  0.00000000000E+00  0.00000000000E+00  0.11799989701E+04  0.11799989701E+04  0.25500000920E-02 0.  1.
        2   -1    0    0  501    0  0.00000000000E+00  0.00000000000E+00 -0.28849020993E+04  0.28849020993E+04  0.25500000920E-02 0. -1.
    10030    2    1    2    0    0  0.00000000000E+00  0.00000000000E+00 -0.17049031292E+04  0.40649010694E+04  0.36900848262E+04 0.  0.
        3    1    3    3  502    0  0.14328453999E+04  0.19750716555E+03  0.40938026989E+03  0.15032123057E+04  0.10100000352E+00 0.  1.
       -3    1    3    3    0  502 -0.14328453999E+04 -0.19750716555E+03 -0.21142833991E+04  0.25616887637E+04  0.10100000352E+00 0. -1.
</event>
<event>
 5   0  0.3848431E-07  0.3709597E+04  0.7818609E-02  0.8065838E-01
        1   -1    0    0  501    0  0.00000000000E+00  0.00000000000E+00  0.22372840648E+04  0.22372840648E+04  0.50400001928E-02 0. -1.
       -1   -1    0    0    0  501  0.00000000000E+00  0.00000000000E+00 -0.15377027284E+04  0.15377027284E+04  0.50400001928E-02 0.  1.
    10030    2    1    2    0    0  0.00000000000E+00  0.00000000000E+00  0.69958133635E+03  0.37749867932E+04  0.37095971806E+04 0.  0.
        2    1    3    3  502    0 -0.43765484849E+03 -0.77975035311E+03  0.20034662273E+04  0.21939528946E+04  0.25500000920E-02 0. -1.
       -2    1    3    3    0  502  0.43765484849E+03  0.77975035311E+03 -0.13038848910E+04  0.15810338986E+04  0.25500000920E-02 0.  1.
</event>
<event>
 5   0  0.1066907E-06  0.3283249E+04  0.7818609E-02  0.8167171E-01
       -2   -1    0    0    0  501  0.00000000000E+00  0.00000000000E+00  0.16239082247E+04  0.16239082248E+04  0.25500000920E-02 0.  1.
        2   -1    0    0  501    0  0.00000000000E+00  0.00000000000E+00 -0.16595344777E+04  0.16595344777E+04  0.25500000920E-02 0. -1.
    10030    2    1    2    0    0  0.00000000000E+00  0.00000000000E+00 -0.35626252925E+02  0.32834427024E+04  0.32832494194E+04 0.  0.
        4    1    3    3  502    0 -0.70551637592E+03  0.74341889461E+03  0.12646449403E+04  0.16278063298E+04  0.12699999809E+01 0.  1.
       -4    1    3    3    0  502  0.70551637592E+03 -0.74341889461E+03 -0.13002711932E+04  0.16556363726E+04  0.12699999809E+01 0. -1.
</event>
<event>
 5   0  0.3682276E-07  0.3010392E+04  0.7818609E-02  0.8240770E-01
       -1   -1    0    0    0  501  0.00000000000E+00  0.00000000000E+00  0.14922518560E+04  0.14922518560E+04  0.50400001928E-02 0. -1.
        1   -1    0    0  501    0  0.00000000000E+00  0.00000000000E+00 -0.15182520688E+04  0.15182520688E+04  0.50400001928E-02 0.  1.
    10030    2    1    2    0    0  0.00000000000E+00  0.00000000000E+00 -0.26000212795E+02  0.30105039247E+04  0.30103916472E+04 0.  0.
        1    1    3    3  502    0 -0.99820916026E+03  0.10663468601E+04 -0.37646560342E+03  0.15083910316E+04  0.50400001928E-02 0.  1.
       -1    1    3    3    0  502  0.99820916026E+03 -0.10663468601E+04  0.35046539062E+03  0.15021128931E+04  0.50400001928E-02 0. -1.
</event>
<event>
 5   0  0.1066907E-06  0.3681312E+04  0.7818609E-02  0.8072116E-01
       -2   -1    0    0    0  501  0.00000000000E+00  0.00000000000E+00  0.12555879218E+04  0.12555879218E+04  0.25500000920E-02 0. -1.
        2   -1    0    0  501    0  0.00000000000E+00  0.00000000000E+00 -0.26983485363E+04  0.26983485363E+04  0.25500000920E-02 0.  1.
    10030    2    1    2    0    0  0.00000000000E+00  0.00000000000E+00 -0.14427606145E+04  0.39539364581E+04  0.36813116309E+04 0.  0.
        4    1    3    3  502    0 -0.16309485678E+04 -0.90145664973E+02 -0.16326795335E+04  0.23094942182E+04  0.12699999809E+01 0.  1.
       -4    1    3    3    0  502  0.16309485678E+04  0.90145664973E+02  0.18991891904E+03  0.16444422399E+04  0.12699999809E+01 0. -1.
</event>
<event>
 5   0  0.1092116E-06  0.3531190E+04  0.7818609E-02  0.8106438E-01
        2   -1    0    0  501    0  0.00000000000E+00  0.00000000000E+00  0.15170568240E+04  0.15170568240E+04  0.25500000920E-02 0. -1.
       -2   -1    0    0    0  501  0.00000000000E+00  0.00000000000E+00 -0.20548511762E+04  0.20548511762E+04  0.25500000920E-02 0.  1.
    10030    2    1    2    0    0  0.00000000000E+00  0.00000000000E+00 -0.53779435215E+03  0.35719080002E+04  0.35311901672E+04 0.  0.
        1    1    3    3  502    0 -0.78905282674E+03 -0.49292577847E+03  0.12489877214E+04  0.15574178998E+04  0.50400001928E-02 0. -1.
       -1    1    3    3    0  502  0.78905282674E+03  0.49292577847E+03 -0.17867820735E+04  0.20144901004E+04  0.50400001928E-02 0.  1.
</event>
<event>
 5   0  0.1051123E-06  0.3579535E+04  0.7818609E-02  0.8095196E-01
       -2   -1    0    0    0  501  0.00000000000E+00  0.00000000000E+00  0.13259956911E+04  0.13259956911E+04  0.25500000920E-02 0. -1.
        2   -1    0    0  501    0  0.00000000000E+00  0.00000000000E+00 -0.24157456115E+04  0.24157456115E+04  0.25500000920E-02 0.  1.
    10030    2    1    2    0    0  0.00000000000E+00  0.00000000000E+00 -0.10897499203E+04  0.37417413026E+04  0.35795353172E+04 0.  0.
        2    1    3    3  502    0 -0.80606296771E+03 -0.32084102857E+03 -0.21812490487E+04  0.23474505077E+04  0.25500000920E-02 0.  1.
       -2    1    3    3    0  502  0.80606296771E+03  0.32084102857E+03  0.10914991284E+04  0.13942907949E+04  0.25500000920E-02 0. -1.
</event>
<event>
 5   0  0.3704306E-07  0.2659749E+04  0.7818609E-02  0.8348184E-01
        1   -1    0    0  501    0  0.00000000000E+00  0.00000000000E+00  0.12665155369E+04  0.12665155370E+04  0.50400001928E-02 0. -1.
       -1   -1    0    0    0  501  0.00000000000E+00  0.00000000000E+00 -0.13964035769E+04  0.13964035770E+04  0.50400001928E-02 0.  1.
    10030    2    1    2    0    0  0.00000000000E+00  0.00000000000E+00 -0.12988804000E+03  0.26629191139E+04  0.26597494815E+04 0.  0.
        3    1    3    3  502    0 -0.12198851327E+03  0.57589192295E+03  0.11289677928E+04  0.12732246431E+04  0.10100000352E+00 0. -1.
       -3    1    3    3    0  502  0.12198851327E+03 -0.57589192295E+03 -0.12588558328E+04  0.13896944708E+04  0.10100000352E+00 0.  1.
</event>
<event>
 5   0  0.3682276E-07  0.3597904E+04  0.7818609E-02  0.8090972E-01
       -1   -1    0    0    0  501  0.00000000000E+00  0.00000000000E+00  0.12556035671E+04  0.12556035671E+04  0.50400001928E-02 0. -1.
        1   -1    0    0  501    0  0.00000000000E+00  0.00000000000E+00 -0.25774282736E+04  0.25774282736E+04  0.50400001928E-02 0.  1.
    10030    2    1    2    0    0  0.00000000000E+00  0.00000000000E+00 -0.13218247065E+04  0.38330318408E+04  0.35979039089E+04 0.  0.
        1    1    3    3  502    0  0.51472462121E+02  0.38809892771E+02  0.12543726782E+04  0.12560280403E+04  0.50400001928E-02 0. -1.
       -1    1    3    3    0  502 -0.51472462121E+02 -0.38809892771E+02 -0.25761973848E+04  0.25770038004E+04  0.50400001928E-02 0.  1.
</event>
<event>
 5   0  0.3848431E-07  0.3667313E+04  0.7818609E-02  0.8075245E-01
        1   -1    0    0  501    0  0.00000000000E+00  0.00000000000E+00  0.24973617116E+04  0.24973617116E+04  0.50400001928E-02 0.  1.
       -1   -1    0    0    0  501  0.00000000000E+00  0.00000000000E+00 -0.13463390945E+04  0.13463390945E+04  0.50400001928E-02 0. -1.
    10030    2    1    2    0    0  0.00000000000E+00  0.00000000000E+00  0.11510226171E+04  0.38437008061E+04  0.36673127521E+04 0.  0.
        2    1    3    3  502    0  0.16347914573E+04  0.89427199083E+01  0.14459198016E+04  0.21825002070E+04  0.25500000920E-02 0.  1.
       -2    1    3    3    0  502 -0.16347914573E+04 -0.89427199083E+01 -0.29489718449E+03  0.16612005991E+04  0.25500000920E-02 0. -1.
</event>
<event>
 5   0  0.1051123E-06  0.3482196E+04  0.7818609E-02  0.8118022E-01
        2   -1    0    0  501    0  0.00000000000E+00  0.00000000000E+00  0.21838999353E+04  0.21838999353E+04  0.25500000920E-02 0. -1.
       -2   -1    0    0    0  501  0.00000000000E+00  0.00000000000E+00 -0.13880775837E+04  0.13880775837E+04  0.25500000920E-02 0.  1.
    10030    2    1    2    0    0  0.00000000000E+00  0.00000000000E+00  0.79582235158E+03  0.35719775189E+04  0.34821961720E+04 0.  0.
        2    1    3    3  502    0 -0.18632533849E+03  0.17667605795E+03  0.21643710923E+04  0.21795489869E+04  0.25500000920E-02 0. -1.
       -2    1    3    3    0  502  0.18632533849E+03 -0.17667605795E+03 -0.13685487407E+04  0.13924285321E+04  0.25500000920E-02 0.  1.
</event>
<event>
 5   0  0.1128530E-06  0.3625095E+04  0.7818609E-02  0.8084768E-01
        2   -1    0    0  501    0  0.00000000000E+00  0.00000000000E+00  0.21590699228E+04  0.21590699228E+04  0.25500000920E-02 0. -1.
       -2   -1    0    0    0  501  0.00000000000E+00  0.00000000000E+00 -0.15216401804E+04  0.15216401804E+04  0.25500000920E-02 0.  1.
    10030    2    1    2    0    0  0.00000000000E+00  0.00000000000E+00  0.63742974243E+03  0.36807101032E+04  0.36250945074E+04 0.  0.
        5    1    3    3  502    0 -0.37986672951E+02  0.26577633279E+03  0.21387630164E+04  0.21555531487E+04  0.46999998093E+01 0. -1.
       -5    1    3    3    0  502  0.37986672951E+02 -0.26577633279E+03 -0.15013332740E+04  0.15251569545E+04  0.46999998093E+01 0.  1.
</event>
<event>
 5   0  0.3682276E-07  0.3681025E+04  0.7818609E-02  0.8072180E-01
        1   -1    0    0  501    0  0.00000000000E+00  0.00000000000E+00  0.25248722666E+04  0.25248722666E+04  0.50400001928E-02 0.  1.
       -1   -1    0    0    0  501  0.00000000000E+00  0.00000000000E+00 -0.13416462811E+04  0.13416462811E+04  0.50400001928E-02 0. -1.
    10030    2    1    2    0    0  0.00000000000E+00  0.00000000000E+00  0.11832259855E+04  0.38665185477E+04  0.36810245784E+04 0.  0.
        1    1    3    3  502    0  0.14471976226E+04  0.12175642765E+03 -0.59597106955E+03  0.15698366483E+04  0.50400001928E-02 0. -1.
       -1    1    3    3    0  502 -0.14471976226E+04 -0.12175642765E+03  0.17791970550E+04  0.22966818994E+04  0.50400001928E-02 0.  1.
</event>
<event>
 5   0  0.1092116E-06  0.3353584E+04  0.7818609E-02  0.8149393E-01
        2   -1    0    0  501    0  0.00000000000E+00  0.00000000000E+00  0.20656543746E+04  0.20656543746E+04  0.25500000920E-02 0. -1.
       -2   -1    0    0    0  501  0.00000000000E+00  0.00000000000E+00 -0.13611333797E+04  0.13611333797E+04  0.25500000920E-02 0.  1.
    10030    2    1    2    0    0  0.00000000000E+00  0.00000000000E+00  0.70452099486E+03  0.34267877543E+04  0.33535838264E+04 0.  0.
        1    1    3    3  502    0 -0.53716415582E+03  0.11687824821E+04  0.14513953239E+04  0.19393674760E+04  0.50400001928E-02 0. -1.
       -1    1    3    3    0  502  0.53716415582E+03 -0.11687824821E+04 -0.74687432903E+03  0.14874202783E+04  0.50400001928E-02 0.  1.
</event>
<event>
 5   0  0.3682276E-07  0.3750490E+04  0.7818609E-02  0.8056864E-01
       -1   -1    0    0    0  501  0.00000000000E+00  0.00000000000E+00  0.14000305011E+04  0.14000305011E+04  0.50400001928E-02 0. -1.
        1   -1    0    0  501    0  0.00000000000E+00  0.00000000000E+00 -0.25117620193E+04  0.25117620193E+04  0.50400001928E-02 0.  1.
    10030    2    1    2    0    0  0.00000000000E+00  0.00000000000E+00 -0.11117315183E+04  0.39117925204E+04  0.37504898019E+04 0.  0.
        1    1    3    3  502    0 -0.97591024162E+03  0.16383453038E+03 -0.22172642383E+04  0.24280657436E+04  0.50400001928E-02 0.  1.
       -1    1    3    3    0  502  0.97591024162E+03 -0.16383453038E+03  0.11055327200E+04  0.14837267768E+04  0.50400001928E-02 0. -1.
</event>
<event>
 5   0  0.1128530E-06  0.3394734E+04  0.7818609E-02  0.8139200E-01
       -2   -1    0    0    0  501  0.00000000000E+00  0.00000000000E+00  0.11988767587E+04  0.11988767587E+04  0.25500000920E-02 0.  1.
        2   -1    0    0  501    0  0.00000000000E+00  0.00000000000E+00 -0.24031285201E+04  0.24031285201E+04  0.25500000920E-02 0. -1.
    10030    2    1    2    0    0  0.00000000000E+00  0.00000000000E+00 -0.12042517614E+04  0.36020052788E+04  0.33947341168E+04 0.  0.
        5    1    3    3  502    0  0.92230237835E+03 -0.82508639433E+03  0.63053868755E+03  0.13888881747E+04  0.46999998093E+01 0.  1.
       -5    1    3    3    0  502 -0.92230237835E+03  0.82508639433E+03 -0.18347904489E+04  0.22131171042E+04  0.46999998093E+01 0. -1.
</event>
<event>
 5   0  0.1066907E-06  0.3722644E+04  0.7818609E-02  0.8062962E-01
        2   -1    0    0  501    0  0.00000000000E+00  0.00000000000E+00  0.15793607074E+04  0.15793607074E+04  0.25500000920E-02 0.  1.
       -2   -1    0    0    0  501  0.00000000000E+00  0.00000000000E+00 -0.21936209129E+04  0.21936209129E+04  0.25500000920E-02 0. -1.
    10030    2    1    2    0    0  0.00000000000E+00  0.00000000000E+00 -0.61426020551E+03  0.37729816203E+04  0.37226435106E+04 0.  0.
        4    1    3    3  502    0  0.69309324761E+03  0.77797936993E+03  0.12560900279E+04  0.16319907846E+04  0.12699999809E+01 0.  1.
       -4    1    3    3    0  502 -0.69309324761E+03 -0.77797936993E+03 -0.18703502335E+04  0.21409908357E+04  0.12699999809E+01 0. -1.
</event>
<event>
 5   0  0.1128530E-06  0.2428382E+04  0.7818609E-02  0.8428954E-01
        2   -1    0    0  501    0  0.00000000000E+00  0.00000000000E+00  0.17695827205E+04  0.17695827205E+04  0.25500000920E-02 0.  1.
       -2   -1    0    0    0  501  0.00000000000E+00  0.00000000000E+00 -0.83311163875E+03  0.83311163875E+03  0.25500000920E-02 0. -1.
    10030    2    1    2    0    0  0.00000000000E+00  0.00000000000E+00  0.93647108175E+03  0.26026943592E+04  0.24283821447E+04 0.  0.
        5    1    3    3  502    0 -0.24237748078E+03  0.14489743622E+03 -0.79741770993E+03  0.84595461127E+03  0.46999998093E+01 0. -1.
       -5    1    3    3    0  502  0.24237748078E+03 -0.14489743622E+03  0.17338887917E+04  0.17567397480E+04  0.46999998093E+01 0.  1.
</event>
<event>
 5   0  0.1128530E-06  0.3752093E+04  0.7818609E-02  0.8056515E-01
        2   -1    0    0  501    0  0.00000000000E+00  0.00000000000E+00  0.22030827484E+04  0.22030827484E+04  0.25500000920E-02 0. -1.
       -2   -1    0    0    0  501  0.00000000000E+00  0.00000000000E+00 -0.15975567430E+04  0.15975567430E+04  0.25500000920E-02 0.  1.
    10030    2    1    2    0    0  0.00000000000E+00  0.00000000000E+00  0.60552600543E+03  0.38006394914E+04  0.37520925895E+04 0.  0.
        5    1    3    3  502    0 -0.71767529713E+03  0.23102833748E+03  0.20428652802E+04  0.21775565590E+04  0.46999998093E+01 0. -1.
       -5    1    3    3    0  502  0.71767529713E+03 -0.23102833748E+03 -0.14373392747E+04  0.16230829324E+04  0.46999998093E+01 0.  1.
</event>
<event>
 5   0  0.3848431E-07  0.3785228E+04  0.7818609E-02  0.8049332E-01
       -1   -1    0    0    0  501  0.00000000000E+00  0.00000000000E+00  0.18400498529E+04  0.18400498529E+04  0.50400001928E-02 0. -1.
        1   -1    0    0  501    0  0.00000000000E+00  0.00000000000E+00 -0.19466793781E+04  0.19466793781E+04  0.50400001928E-02 0.  1.
    10030    2    1    2    0    0  0.00000000000E+00  0.00000000000E+00 -0.10662952526E+03  0.37867292310E+04  0.37852276568E+04 0.  0.
        2    1    3    3  502    0  0.10491756557E+04 -0.15597165851E+04  0.16700366415E+03  0.18871607261E+04  0.25500000920E-02 0. -1.
       -2    1    3    3    0  502 -0.10491756557E+04  0.15597165851E+04 -0.27363318941E+03  0.18995685049E+04  0.25500000920E-02 0.  1.
</event>
<event>
 5   0  0.1092116E-06  0.3715662E+04  0.7818609E-02  0.8064500E-01
       -2   -1    0    0    0  501  0.00000000000E+00  0.00000000000E+00  0.27888602045E+04  0.27888602045E+04  0.25500000920E-02 0.  1.
        2   -1    0    0  501    0  0.00000000000E+00  0.00000000000E+00 -0.12376152147E+04  0.12376152147E+04  0.25500000920E-02 0. -1.
    10030    2    1    2    0    0  0.00000000000E+00  0.00000000000E+00  0.15512449898E+04  0.40264754192E+04  0.37156618903E+04 0.  0.
        1    1    3    3  502    0 -0.17527373826E+03 -0.10901417190E+04  0.23947291267E+04  0.26370167692E+04  0.50400001928E-02 0.  1.
       -1    1    3    3    0  502  0.17527373826E+03  0.10901417190E+04 -0.84348413685E+03  0.13894586500E+04  0.50400001928E-02 0. -1.
</event>
<event>
 5   0  0.3848431E-07  0.3593378E+04  0.7818609E-02  0.8092010E-01
       -1   -1    0    0    0  501  0.00000000000E+00  0.00000000000E+00  0.12309167738E+04  0.12309167738E+04  0.50400001928E-02 0.  1.
        1   -1    0    0  501    0  0.00000000000E+00  0.00000000000E+00 -0.26225102515E+04  0.26225102515E+04  0.50400001928E-02 0. -1.
    10030    2    1    2    0    0  0.00000000000E+00  0.00000000000E+00 -0.13915934777E+04  0.38534270253E+04  0.35933782757E+04 0.  0.
        2    1    3    3  502    0 -0.16464947619E+04 -0.70167035652E+03 -0.86469251501E+03  0.19877070799E+04  0.25500000920E-02 0.  1.
       -2    1    3    3    0  502  0.16464947619E+04  0.70167035652E+03 -0.52690096270E+03  0.18657199454E+04  0.25500000920E-02 0. -1.
</event>
<event>
 5   0  0.1066907E-06  0.2465035E+04  0.7818609E-02  0.8415549E-01
        2   -1    0    0  501    0  0.00000000000E+00  0.00000000000E+00  0.18864933031E+04  0.18864933031E+04  0.25500000920E-02 0. -1.
       -2   -1    0    0    0  501  0.00000000000E+00  0.00000000000E+00 -0.80525030320E+03  0.80525030321E+03  0.25500000920E-02 0.  1.
    10030    2    1    2    0    0  0.00000000000E+00  0.00000000000E+00  0.10812429999E+04  0.26917436063E+04  0.24650349322E+04 0.  0.
        4    1    3    3  502    0  0.60891638645E+02 -0.56049145463E+03 -0.65618893008E+03  0.86512657295E+03  0.12699999809E+01 0.  1.
       -4    1    3    3    0  502 -0.60891638645E+02  0.56049145463E+03  0.17374319299E+04  0.18266170333E+04  0.12699999809E+01 0. -1.
</event>
<event>
 5   0  0.3704306E-07  0.3688179E+04  0.7818609E-02  0.8070587E-01
        1   -1    0    0  501    0  0.00000000000E+00  0.00000000000E+00  0.25705274418E+04  0.25705274418E+04  0.50400001928E-02 0. -1.
       -1   -1    0    0    0  501  0.00000000000E+00  0.00000000000E+00 -0.13229449594E+04  0.13229449595E+04  0.50400001928E-02 0.  1.
    10030    2    1    2    0    0  0.00000000000E+00  0.00000000000E+00  0.12475824824E+04  0.38934724013E+04  0.36881791292E+04 0.  0.
        3    1    3    3  502    0  0.68206892086E+03  0.56090175956E+03  0.23328033626E+04  0.24943536909E+04  0.10100000352E+00 0. -1.
       -3    1    3    3    0  502 -0.68206892086E+03 -0.56090175956E+03 -0.10852208802E+04  0.13991187104E+04  0.10100000352E+00 0.  1.
</event>
<event>
 5   0  0.1128166E-06  0.2334855E+04  0.7818609E-02  0.8464304E-01
       -2   -1    0    0    0  501  0.00000000000E+00  0.00000000000E+00  0.54983334152E+03  0.54983334153E+03  0.25500000920E-02 0.  1.
        2   -1    0    0  501    0  0.00000000000E+00  0.00000000000E+00 -0.24787272336E+04  0.24787272336E+04  0.25500000920E-02 0. -1.
    10030    2    1    2    0    0  0.00000000000E+00  0.00000000000E+00 -0.19288938920E+04  0.30285605751E+04  0.23348549227E+04 0.  0.
        3    1    3    3  502    0 -0.31826205458E+03  0.51946984724E+03  0.32729825724E+03  0.69156620577E+03  0.10100000352E+00 0.  1.
       -3    1    3    3    0  502  0.31826205458E+03 -0.51946984724E+03 -0.22561921493E+04  0.23369943693E+04  0.10100000352E+00 0. -1.
</event>
<event>
 5   0  0.3764495E-07  0.3618721E+04  0.7818609E-02  0.8086217E-01
       -1   -1    0    0    0  501  0.00000000000E+00  0.00000000000E+00  0.13469281177E+04  0.13469281177E+04  0.50400001928E-02 0.  1.
        1   -1    0    0  501    0  0.00000000000E+00  0.00000000000E+00 -0.24305565042E+04  0.24305565042E+04  0.50400001928E-02 0. -1.
    10030    2    1    2    0    0  0.00000000000E+00  0.00000000000E+00 -0.10836283865E+04  0.37774846220E+04  0.36187207117E+04 0.  0.
        4    1    3    3  502    0  0.10791516937E+04 -0.11112068354E+04 -0.15179522053E+04  0.21687622091E+04  0.12699999809E+01 0. -1.
       -4    1    3    3    0  502 -0.10791516937E+04  0.11112068354E+04  0.43432381884E+03  0.16087224129E+04  0.12699999809E+01 0.  1.
</event>
<event>
 5   0  0.1092116E-06  0.3767663E+04  0.7818609E-02  0.8053130E-01
       -2   -1    0    0    0  501  0.00000000000E+00  0.00000000000E+00  0.10112813137E+04  0.10112813138E+04  0.25500000920E-02 0.  1.
        2   -1    0    0  501    0  0.00000000000E+00  0.00000000000E+00 -0.35092326228E+04  0.35092326228E+04  0.25500000920E-02 0. -1.
    10030    2    1    2    0    0  0.00000000000E+00  0.00000000000E+00 -0.24979513090E+04  0.45205139365E+04  0.37676631362E+04 0.  0.
        1    1    3    3  502    0 -0.73337937435E+03  0.48435756390E+03  0.75021731969E+03  0.11555403858E+04  0.50400001928E-02 0.  1.
       -1    1    3    3    0  502  0.73337937435E+03 -0.48435756390E+03 -0.32481686287E+04  0.33649735507E+04  0.50400001928E-02 0. -1.
</event>
<event>
 5   0  0.3675819E-07  0.3689331E+04  0.7818609E-02  0.8070330E-01
        1   -1    0    0  501    0  0.00000000000E+00  0.00000000000E+00  0.21942930549E+04  0.21942930549E+04  0.50400001928E-02 0.  1.
       -1   -1    0    0    0  501  0.00000000000E+00  0.00000000000E+00 -0.15507461966E+04  0.15507461966E+04  0.50400001928E-02 0. -1.
    10030    2    1    2    0    0  0.00000000000E+00  0.00000000000E+00  0.64354685835E+03  0.37450392515E+04  0.36893314349E+04 0.  0.
        5    1    3    3  502    0 -0.53566072474E+03 -0.17520264274E+04  0.10349039383E+03  0.18350099090E+04  0.46999998093E+01 0. -1.
       -5    1    3    3    0  502  0.53566072474E+03  0.17520264274E+04  0.54005646453E+03  0.19100293425E+04  0.46999998093E+01 0.  1.
</event>
<event>
 5   0  0.3764495E-07  0.3667435E+04  0.7818609E-02  0.8075217E-01
       -1   -1    0    0    0  501  0.00000000000E+00  0.00000000000E+00  0.17190649723E+04  0.17190649723E+04  0.50400001928E-02 0.  1.
        1   -1    0    0  501    0  0.00000000000E+00  0.00000000000E+00 -0.19560168905E+04  0.19560168905E+04  0.50400001928E-02 0. -1.
    10030    2    1    2    0    0  0.00000000000E+00  0.00000000000E+00 -0.23695191820E+03  0.36750818629E+04  0.36674351375E+04 0.  0.
        4    1    3    3  502    0  0.16509372942E+04 -0.32205509595E+03 -0.85020739460E+03  0.18847195179E+04  0.12699999809E+01 0.  1.
       -4    1    3    3    0  502 -0.16509372942E+04  0.32205509595E+03  0.61325547640E+03  0.17903623450E+04  0.12699999809E+01 0. -1.
</event>
<event>
 5   0  0.1128166E-06  0.4085317E+04  0.7818609E-02  0.7987553E-01
        2   -1    0    0  501    0  0.00000000000E+00  0.00000000000E+00  0.14797201900E+04  0.14797201900E+04  0.25500000920E-02 0.  1.
       -2   -1    0    0    0  501  0.00000000000E+00  0.00000000000E+00 -0.28197582822E+04  0.28197582822E+04  0.25500000920E-02 0. -1.
    10030    2    1    2    0    0  0.00000000000E+00  0.00000000000E+00 -0.13400380922E+04  0.42994784722E+04  0.40853167618E+04 0.  0.
        3    1    3    3  502    0  0.81568949391E+03  0.16944304558E+04 -0.15093278650E+04  0.24113304490E+04  0.10100000352E+00 0. -1.
       -3    1    3    3    0  502 -0.81568949391E+03 -0.16944304558E+04  0.16928977282E+03  0.18881480232E+04  0.10100000352E+00 0.  1.
</event>
<event>
 5   0  0.3490375E-07  0.3672272E+04  0.7818609E-02  0.8074135E-01
        3   -1    0    0  501    0  0.00000000000E+00  0.00000000000E+00  0.25333201202E+04  0.25333201222E+04  0.10100000352E+00 0. -1.
       -3   -1    0    0    0  501  0.00000000000E+00  0.00000000000E+00 -0.13308211839E+04  0.13308211877E+04  0.10100000352E+00 0.  1.
    10030    2    1    2    0    0  0.00000000000E+00  0.00000000000E+00  0.12024989363E+04  0.38641413099E+04  0.36722723715E+04 0.  0.
        5    1    3    3  502    0 -0.17082723803E+04  0.27923969549E+02  0.13089984985E+04  0.21523181531E+04  0.46999998093E+01 0. -1.
       -5    1    3    3    0  502  0.17082723803E+04 -0.27923969549E+02 -0.10649956214E+03  0.17118231568E+04  0.46999998093E+01 0.  1.
</event>
<event>
 5   0  0.3704306E-07  0.3579371E+04  0.7818609E-02  0.8095233E-01
       -1   -1    0    0    0  501  0.00000000000E+00  0.00000000000E+00  0.11568800602E+04  0.11568800602E+04  0.50400001928E-02 0.  1.
        1   -1    0    0  501    0  0.00000000000E+00  0.00000000000E+00 -0.27686308015E+04  0.27686308015E+04  0.50400001928E-02 0. -1.
    10030    2    1    2    0    0  0.00000000000E+00  0.00000000000E+00 -0.16117507412E+04  0.39255108617E+04  0.35793707650E+04 0.  0.
        3    1    3    3  502    0 -0.44467017980E+03  0.41318658200E+03  0.10405390607E+04  0.12046477773E+04  0.10100000352E+00 0.  1.
       -3    1    3    3    0  502  0.44467017980E+03 -0.41318658200E+03 -0.26522898019E+04  0.27208630844E+04  0.10100000352E+00 0. -1.
</event>
<event>
 5   0  0.3848431E-07  0.3702194E+04  0.7818609E-02  0.8067476E-01
        1   -1    0    0  501    0  0.00000000000E+00  0.00000000000E+00  0.18267478857E+04  0.18267478858E+04  0.50400001928E-02 0. -1.
       -1   -1    0    0    0  501  0.00000000000E+00  0.00000000000E+00 -0.18757703786E+04  0.18757703786E+04  0.50400001928E-02 0.  1.
    10030    2    1    2    0    0  0.00000000000E+00  0.00000000000E+00 -0.49022492895E+02  0.37025182644E+04  0.37021937136E+04 0.  0.
        2    1    3    3  502    0 -0.16716146075E+03  0.15927226621E+03 -0.18613129283E+04  0.18755789575E+04  0.25500000920E-02 0.  1.
       -2    1    3    3    0  502  0.16716146075E+03 -0.15927226621E+03  0.18122904354E+04  0.18269393069E+04  0.25500000920E-02 0. -1.
</event>
<event>
 5   0  0.1051123E-06  0.3342809E+04  0.7818609E-02  0.8152087E-01
       -2   -1    0    0    0  501  0.00000000000E+00  0.00000000000E+00  0.99950297041E+03  0.99950297041E+03  0.25500000920E-02 0.  1.
        2   -1    0    0  501    0  0.00000000000E+00  0.00000000000E+00 -0.27949820181E+04  0.27949820181E+04  0.25500000920E-02 0. -1.
    10030    2    1    2    0    0  0.00000000000E+00  0.00000000000E+00 -0.17954790477E+04  0.37944849886E+04  0.33428088963E+04 0.  0.
        2    1    3    3  502    0  0.98121125999E+03  0.49610528299E+03 -0.23266808146E+04  0.25733906819E+04  0.25500000920E-02 0. -1.
       -2    1    3    3    0  502 -0.98121125999E+03 -0.49610528299E+03  0.53120176690E+03  0.12210943066E+04  0.25500000920E-02 0.  1.
</event>
<event>
 5   0  0.3764495E-07  0.3714988E+04  0.7818609E-02  0.8064648E-01
       -1   -1    0    0    0  501  0.00000000000E+00  0.00000000000E+00  0.14929950106E+04  0.14929950106E+04  0.50400001928E-02 0. -1.
        1   -1    0    0  501    0  0.00000000000E+00  0.00000000000E+00 -0.23109816476E+04  0.23109816476E+04  0.50400001928E-02 0.  1.
    10030    2    1    2    0    0  0.00000000000E+00  0.00000000000E+00 -0.81798663701E+03  0.38039766583E+04  0.37149880590E+04 0.  0.
        4    1    3    3  502    0  0.21843674248E+03 -0.13350605864E+04  0.89436011074E+03  0.16217222328E+04  0.12699999809E+01 0. -1.
       -4    1    3    3    0  502 -0.21843674248E+03  0.13350605864E+04 -0.17123467478E+04  0.21822544254E+04  0.12699999809E+01 0.  1.
</event>
<event>
 5   0  0.3848431E-07  0.3709948E+04  0.7818609E-02  0.8065761E-01
       -1   -1    0    0    0  501  0.00000000000E+00  0.00000000000E+00  0.18637453709E+04  0.18637453709E+04  0.50400001928E-02 0.  1.
        1   -1    0    0  501    0  0.00000000000E+00  0.00000000000E+00 -0.18462439174E+04  0.18462439174E+04  0.50400001928E-02 0. -1.
    10030    2    1    2    0    0  0.00000000000E+00  0.00000000000E+00  0.17501453494E+02  0.37099892884E+04  0.37099480076E+04 0.  0.
        2    1    3    3  502    0 -0.42018469737E+03 -0.17010407561E+04 -0.60021723089E+03  0.18521219069E+04  0.25500000920E-02 0. -1.
       -2    1    3    3    0  502  0.42018469737E+03  0.17010407561E+04  0.61771868438E+03  0.18578673814E+04  0.25500000920E-02 0.  1.
</event>
<event>
 5   0  0.3704306E-07  0.3693514E+04  0.7818609E-02  0.8069401E-01
        1   -1    0    0  501    0  0.00000000000E+00  0.00000000000E+00  0.17611253449E+04  0.17611253450E+04  0.50400001928E-02 0.  1.
       -1   -1    0    0    0  501  0.00000000000E+00  0.00000000000E+00 -0.19365520613E+04  0.19365520613E+04  0.50400001928E-02 0. -1.
    10030    2    1    2    0    0  0.00000000000E+00  0.00000000000E+00 -0.17542671639E+03  0.36976774063E+04  0.36935137292E+04 0.  0.
        3    1    3    3  502    0  0.29311403177E+03  0.87193251274E+03 -0.16908707209E+04  0.19248963472E+04  0.10100000352E+00 0. -1.
       -3    1    3    3    0  502 -0.29311403177E+03 -0.87193251274E+03  0.15154440045E+04  0.17727810591E+04  0.10100000352E+00 0.  1.
</event>
<event>
 5   0  0.1092116E-06  0.3613760E+04  0.7818609E-02  0.8087347E-01
        2   -1    0    0  501    0  0.00000000000E+00  0.00000000000E+00  0.20255017412E+04  0.20255017412E+04  0.25500000920E-02 0.  1.
       -2   -1    0    0    0  501  0.00000000000E+00  0.00000000000E+00 -0.16118552089E+04  0.16118552089E+04  0.25500000920E-02 0. -1.
    10030    2    1    2    0    0  0.00000000000E+00  0.00000000000E+00  0.41364653224E+03  0.36373569501E+04  0.36137601095E+04 0.  0.
        1    1    3    3  502    0  0.71987015487E+03 -0.29023675732E+03  0.18491532052E+04  0.20054470802E+04  0.50400001928E-02 0.  1.
       -1    1    3    3    0  502 -0.71987015487E+03  0.29023675732E+03 -0.14355066730E+04  0.16319098699E+04  0.50400001928E-02 0. -1.
</event>
<event>
 5   0  0.1066907E-06  0.2403737E+04  0.7818609E-02  0.8438106E-01
        2   -1    0    0  501    0  0.00000000000E+00  0.00000000000E+00  0.15617721645E+04  0.15617721645E+04  0.25500000920E-02 0. -1.
       -2   -1    0    0    0  501  0.00000000000E+00  0.00000000000E+00 -0.92490270629E+03  0.92490270629E+03  0.25500000920E-02 0.  1.
    10030    2    1    2    0    0  0.00000000000E+00  0.00000000000E+00  0.63686945822E+03  0.24866748708E+04  0.24037365093E+04 0.  0.
        4    1    3    3  502    0 -0.39324280189E+03 -0.97391135448E+03 -0.28596923411E+03  0.10885417968E+04  0.12699999809E+01 0.  1.
       -4    1    3    3    0  502  0.39324280189E+03  0.97391135448E+03  0.92283869233E+03  0.13981330740E+04  0.12699999809E+01 0. -1.
</event>
<event>
 5   0  0.3704306E-07  0.2711158E+04  0.7818609E-02  0.8331394E-01
        1   -1    0    0  501    0  0.00000000000E+00  0.00000000000E+00  0.14594605579E+04  0.14594605579E+04  0.50400001928E-02 0. -1.
       -1   -1    0    0    0  501  0.00000000000E+00  0.00000000000E+00 -0.12590912093E+04  0.12590912093E+04  0.50400001928E-02 0.  1.
    10030    2    1    2    0    0  0.00000000000E+00  0.00000000000E+00  0.20036934858E+03  0.27185517672E+04  0.27111576559E+04 0.  0.
        3    1    3    3  502    0  0.27647209220E+03  0.84519735957E+03  0.11261067890E+04  0.14348909034E+04  0.10100000352E+00 0. -1.
       -3    1    3    3    0  502 -0.27647209220E+03 -0.84519735957E+03 -0.92573744039E+03  0.12836608638E+04  0.10100000352E+00 0.  1.
</event>
<event>
 5   0  0.1092116E-06  0.3668795E+04  0.7818609E-02  0.8074913E-01
        2   -1    0    0  501    0  0.00000000000E+00  0.00000000000E+00  0.15132327534E+04  0.15132327534E+04  0.25500000920E-02 0.  1.
       -2   -1    0    0    0  501  0.00000000000E+00  0.00000000000E+00 -0.22237250955E+04  0.22237250955E+04  0.25500000920E-02 0. -1.
    10030    2    1    2    0    0  0.00000000000E+00  0.00000000000E+00 -0.71049234214E+03  0.37369578489E+04  0.36687947062E+04 0.  0.
        1    1    3    3  502    0  0.13209382330E+04  0.50960987911E+02  0.94020826786E+03  0.16221795291E+04  0.50400001928E-02 0.  1.
       -1    1    3    3    0  502 -0.13209382330E+04 -0.50960987911E+02 -0.16507006100E+04  0.21147783197E+04  0.50400001928E-02 0. -1.
</event>
<event>
 5   0  0.1066907E-06  0.3751345E+04  0.7818609E-02  0.8056677E-01
       -2   -1    0    0    0  501  0.00000000000E+00  0.00000000000E+00  0.15811770605E+04  0.15811770605E+04  0.25500000920E-02 0.  1.
        2   -1    0    0  501    0  0.00000000000E+00  0.00000000000E+00 -0.22250183665E+04  0.22250183665E+04  0.25500000920E-02 0. -1.
    10030    2    1    2    0    0  0.00000000000E+00  0.00000000000E+00 -0.64384130598E+03  0.38061954270E+04  0.37513453588E+04 0.  0.
        4    1    3    3  502    0 -0.10181976860E+04  0.33353312858E+03  0.12401270344E+04  0.16388677646E+04  0.12699999809E+01 0.  1.
       -4    1    3    3    0  502  0.10181976860E+04 -0.33353312858E+03 -0.18839683404E+04  0.21673276624E+04  0.12699999809E+01 0. -1.
</event>
<event>
 5   0  0.1128530E-06  0.3702519E+04  0.7818609E-02  0.8067404E-01
        2   -1    0    0  501    0  0.00000000000E+00  0.00000000000E+00  0.16702524472E+04  0.16702524472E+04  0.25500000920E-02 0. -1.
       -2   -1    0    0    0  501  0.00000000000E+00  0.00000000000E+00 -0.20518819422E+04  0.20518819422E+04  0.25500000920E-02 0.  1.
    10030    2    1    2    0    0  0.00000000000E+00  0.00000000000E+00 -0.38162949494E+03  0.37221343894E+04  0.37025185133E+04 0.  0.
        5    1    3    3  502    0 -0.72500491469E+03  0.93716017735E+03 -0.16207561312E+04  0.20076787221E+04  0.46999998093E+01 0.  1.
       -5    1    3    3    0  502  0.72500491469E+03 -0.93716017735E+03  0.12391266363E+04  0.17144556673E+04  0.46999998093E+01 0. -1.
</event>
<event>
 5   0  0.1092116E-06  0.3699951E+04  0.7818609E-02  0.8067973E-01
        2   -1    0    0  501    0  0.00000000000E+00  0.00000000000E+00  0.18673483413E+04  0.18673483413E+04  0.25500000920E-02 0. -1.
       -2   -1    0    0    0  501  0.00000000000E+00  0.00000000000E+00 -0.18327645697E+04  0.18327645697E+04  0.25500000920E-02 0.  1.
    10030    2    1    2    0    0  0.00000000000E+00  0.00000000000E+00  0.34583771549E+02  0.37001129110E+04  0.36999512858E+04 0.  0.
        1    1    3    3  502    0  0.17725780798E+04  0.68279606206E+02  0.54240026913E+03  0.18549644756E+04  0.50400001928E-02 0. -1.
       -1    1    3    3    0  502 -0.17725780798E+04 -0.68279606206E+02 -0.50781649758E+03  0.18451484355E+04  0.50400001928E-02 0.  1.
</event>
<event>
 5   0  0.1128530E-06  0.3696556E+04  0.7818609E-02  0.8068725E-01
       -2   -1    0    0    0  501  0.00000000000E+00  0.00000000000E+00  0.18215980143E+04  0.18215980143E+04  0.25500000920E-02 0.  1.
        2   -1    0    0  501    0  0.00000000000E+00  0.00000000000E+00 -0.18753490877E+04  0.18753490877E+04  0.25500000920E-02 0. -1.
    10030    2    1    2    0    0  0.00000000000E+00  0.00000000000E+00 -0.53751073425E+02  0.36969471020E+04  0.36965563295E+04 0.  0.
        5    1    3    3  502    0  0.40821420984E+03 -0.17292429256E+04  0.48228548841E+03  0.18410706991E+04  0.46999998093E+01 0. -1.
       -5    1    3    3    0  502 -0.40821420984E+03  0.17292429256E+04 -0.53603656183E+03  0.18558764028E+04  0.46999998093E+01 0.  1.
</event>
<event>
 5   0  0.1092116E-06  0.3643213E+04  0.7818609E-02  0.8080664E-01
        2   -1    0    0  501    0  0.00000000000E+00  0.00000000000E+00  0.17166452074E+04  0.17166452074E+04  0.25500000920E-02 0.  1.
       -2   -1    0    0    0  501  0.00000000000E+00  0.00000000000E+00 -0.19329857881E+04  0.19329857881E+04  0.25500000920E-02 0. -1.
    10030    2    1    2    0    0  0.00000000000E+00  0.00000000000E+00 -0.21634058070E+03  0.36496309954E+04  0.36432133009E+04 0.  0.
        1    1    3    3  502    0  0.14947723064E+04 -0.10369936127E+04 -0.15536926338E+02  0.18193244342E+04  0.50400001928E-02 0. -1.
       -1    1    3    3    0  502 -0.14947723064E+04  0.10369936127E+04 -0.20080365436E+03  0.18303065613E+04  0.50400001928E-02 0.  1.
</event>
<event>
 5   0  0.3764495E-07  0.3802593E+04  0.7818609E-02  0.8045599E-01
        1   -1    0    0  501    0  0.00000000000E+00  0.00000000000E+00  0.16949835421E+04  0.16949835421E+04  0.50400001928E-02 0. -1.
       -1   -1    0    0    0  501  0.00000000000E+00  0.00000000000E+00 -0.21327213638E+04  0.21327213638E+04  0.50400001928E-02 0.  1.
    10030    2    1    2    0    0  0.00000000000E+00  0.00000000000E+00 -0.43773782175E+03  0.38277049059E+04  0.38025925953E+04 0.  0.
        4    1    3    3  502    0 -0.87143226818E+03 -0.70599681655E+02  0.14806374353E+04  0.17194962462E+04  0.12699999809E+01 0. -1.
       -4    1    3    3    0  502  0.87143226818E+03  0.70599681655E+02 -0.19183752570E+04  0.21082086597E+04  0.12699999809E+01 0.  1.
</event>
<event>
 5   0  0.3704306E-07  0.3749985E+04  0.7818609E-02  0.8056974E-01
        1   -1    0    0  501    0  0.00000000000E+00  0.00000000000E+00  0.23520743493E+04  0.23520743493E+04  0.50400001928E-02 0.  1.
       -1   -1    0    0    0  501  0.00000000000E+00  0.00000000000E+00 -0.14946796987E+04  0.14946796987E+04  0.50400001928E-02 0. -1.
    10030    2    1    2    0    0  0.00000000000E+00  0.00000000000E+00  0.85739465061E+03  0.38467540481E+04  0.37499854826E+04 0.  0.
        3    1    3    3  502    0 -0.15535042043E+04  0.10179249278E+04  0.16506084039E+03  0.18646156608E+04  0.10100000352E+00 0. -1.
       -3    1    3    3    0  502  0.15535042043E+04 -0.10179249278E+04  0.69233381022E+03  0.19821383873E+04  0.10100000352E+00 0.  1.
</event>
<event>
 5   0  0.1092116E-06  0.3666603E+04  0.7818609E-02  0.8075403E-01
        2   -1    0    0  501    0  0.00000000000E+00  0.00000000000E+00  0.22505371214E+04  0.22505371214E+04  0.25500000920E-02 0.  1.
       -2   -1    0    0    0  501  0.00000000000E+00  0.00000000000E+00 -0.14934190492E+04  0.14934190492E+04  0.25500000920E-02 0. -1.
    10030    2    1    2    0    0  0.00000000000E+00  0.00000000000E+00  0.75711807217E+03  0.37439561705E+04  0.36666033371E+04 0.  0.
        1    1    3    3  502    0 -0.11993878319E+03 -0.83687373984E+03 -0.12824899080E+04  0.15360739996E+04  0.50400001928E-02 0. -1.
       -1    1    3    3    0  502  0.11993878319E+03  0.83687373984E+03  0.20396079801E+04  0.22078821710E+04  0.50400001928E-02 0.  1.
</event>
<event>
 5   0  0.3848431E-07  0.3705616E+04  0.7818609E-02  0.8066718E-01
       -1   -1    0    0    0  501  0.00000000000E+00  0.00000000000E+00  0.20692274696E+04  0.20692274696E+04  0.50400001928E-02 0. -1.
        1   -1    0    0  501    0  0.00000000000E+00  0.00000000000E+00 -0.16590237406E+04  0.16590237406E+04  0.50400001928E-02 0.  1.
    10030    2    1    2    0    0  0.00000000000E+00  0.00000000000E+00  0.41020372902E+03  0.37282512103E+04  0.37056160065E+04 0.  0.
        2    1    3    3  502    0 -0.58379578116E+03 -0.16923274632E+04  0.68562551163E+03  0.19169955918E+04  0.25500000920E-02 0. -1.
       -2    1    3    3    0  502  0.58379578116E+03  0.16923274632E+04 -0.27542178261E+03  0.18112556184E+04  0.25500000920E-02 0.  1.
</event>
<event>
 5   0  0.1051123E-06  0.3728704E+04  0.7818609E-02  0.8061630E-01
       -2   -1    0    0    0  501  0.00000000000E+00  0.00000000000E+00  0.18130626170E+04  0.18130626170E+04  0.25500000920E-02 0.  1.
        2   -1    0    0  501    0  0.00000000000E+00  0.00000000000E+00 -0.19170918924E+04  0.19170918924E+04  0.25500000920E-02 0. -1.
    10030    2    1    2    0    0  0.00000000000E+00  0.00000000000E+00 -0.10402927533E+03  0.37301545094E+04  0.37287036050E+04 0.  0.
        2    1    3    3  502    0 -0.13673998717E+04  0.18681979510E+03  0.12019177928E+04  0.18301066706E+04  0.25500000920E-02 0.  1.
       -2    1    3    3    0  502  0.13673998717E+04 -0.18681979510E+03 -0.13059470682E+04  0.19000478388E+04  0.25500000920E-02 0. -1.
</event>
<event>
 5   0  0.3764495E-07  0.3511215E+04  0.7818609E-02  0.8111137E-01
        1   -1    0    0  501    0  0.00000000000E+00  0.00000000000E+00  0.28164915792E+04  0.28164915792E+04  0.50400001928E-02 0.  1.
       -1   -1    0    0    0  501  0.00000000000E+00  0.00000000000E+00 -0.10943251930E+04  0.10943251930E+04  0.50400001928E-02 0. -1.
    10030    2    1    2    0    0  0.00000000000E+00  0.00000000000E+00  0.17221663861E+04  0.39108167722E+04  0.35112149983E+04 0.  0.
        4    1    3    3  502    0  0.11930003137E+04 -0.12707871541E+04  0.10947342040E+04  0.20582988922E+04  0.12699999809E+01 0.  1.
       -4    1    3    3    0  502 -0.11930003137E+04  0.12707871541E+04  0.62743218212E+03  0.18525178799E+04  0.12699999809E+01 0. -1.
</event>
<event>
 5   0  0.1128530E-06  0.3504641E+04  0.7818609E-02  0.8112691E-01
        2   -1    0    0  501    0  0.00000000000E+00  0.00000000000E+00  0.18072857453E+04  0.18072857453E+04  0.25500000920E-02 0.  1.
       -2   -1    0    0    0  501  0.00000000000E+00  0.00000000000E+00 -0.16990269365E+04  0.16990269365E+04  0.25500000920E-02 0. -1.
    10030    2    1    2    0    0  0.00000000000E+00  0.00000000000E+00  0.10825880879E+03  0.35063126819E+04  0.35046410163E+04 0.  0.
        5    1    3    3  502    0  0.39285452863E+03  0.16338385121E+04 -0.44293965096E+03  0.17378091347E+04  0.46999998093E+01 0. -1.
       -5    1    3    3    0  502 -0.39285452863E+03 -0.16338385121E+04  0.55119845975E+03  0.17685035472E+04  0.46999998093E+01 0.  1.
</event>
<event>
 5   0  0.3682276E-07  0.3249260E+04  0.7818609E-02  0.8175928E-01
        1   -1    0    0  501    0  0.00000000000E+00  0.00000000000E+00  0.21465337896E+04  0.21465337896E+04  0.50400001928E-02 0. -1.
       -1   -1    0    0    0  501  0.00000000000E+00  0.00000000000E+00 -0.12296208856E+04  0.12296208857E+04  0.50400001928E-02 0.  1.
    10030    2    1    2    0    0  0.00000000000E+00  0.00000000000E+00  0.91691290398E+03  0.33761546753E+04  0.32492600878E+04 0.  0.
        1    1    3    3  502    0  0.56390296767E+03 -0.62008403912E+03 -0.98763262977E+03  0.12953412616E+04  0.50400001928E-02 0.  1.
       -1    1    3    3    0  502 -0.56390296767E+03  0.62008403912E+03  0.19045455337E+04  0.20808134137E+04  0.50400001928E-02 0. -1.
</event>
<event>
 5   0  0.1092116E-06  0.2859095E+04  0.7818609E-02  0.8285153E-01
        2   -1    0    0  501    0  0.00000000000E+00  0.00000000000E+00  0.24106683420E+04  0.24106683420E+04  0.25500000920E-02 0. -1.
       -2   -1    0    0    0  501  0.00000000000E+00  0.00000000000E+00 -0.84773430824E+03  0.84773430824E+03  0.25500000920E-02 0.  1.
    10030    2    1    2    0    0  0.00000000000E+00  0.00000000000E+00  0.15629340337E+04  0.32584026502E+04  0.28590951431E+04 0.  0.
        1    1    3    3  502    0 -0.87870339500E+03 -0.88714229387E+03 -0.11778113678E+02  0.12487112676E+04  0.50400001928E-02 0. -1.
       -1    1    3    3    0  502  0.87870339500E+03  0.88714229387E+03  0.15747121474E+04  0.20096913826E+04  0.50400001928E-02 0.  1.
</event>
<event>
 5   0  0.3848431E-07  0.3690188E+04  0.7818609E-02  0.8070140E-01
       -1   -1    0    0    0  501  0.00000000000E+00  0.00000000000E+00  0.20027497756E+04  0.20027497757E+04  0.50400001928E-02 0. -1.
        1   -1    0    0  501    0  0.00000000000E+00  0.00000000000E+00 -0.16998488645E+04  0.16998488645E+04  0.50400001928E-02 0.  1.
    10030    2    1    2    0    0  0.00000000000E+00  0.00000000000E+00  0.30290091119E+03  0.37025986401E+04  0.36901880342E+04 0.  0.
        2    1    3    3  502    0 -0.11304445158E+04  0.11970229298E+04 -0.68417891446E+03  0.17829384411E+04  0.25500000920E-02 0.  1.
       -2    1    3    3    0  502  0.11304445158E+04 -0.11970229298E+04  0.98707982564E+03  0.19196601991E+04  0.25500000920E-02 0. -1.
</event>
<event>
 5   0  0.3848431E-07  0.3603098E+04  0.7818609E-02  0.8089782E-01
        1   -1    0    0  501    0  0.00000000000E+00  0.00000000000E+00  0.17862263337E+04  0.17862263337E+04  0.50400001928E-02 0.  1.
       -1   -1    0    0    0  501  0.00000000000E+00  0.00000000000E+00 -0.18170028125E+04  0.18170028125E+04  0.50400001928E-02 0. -1.
    10030    2    1    2    0    0  0.00000000000E+00  0.00000000000E+00 -0.30776478853E+02  0.36032291462E+04  0.36030977073E+04 0.  0.
        2    1    3    3  502    0 -0.12340954341E+04  0.30548148851E+03  0.12610860703E+04  0.17907117459E+04  0.25500000920E-02 0.  1.
       -2    1    3    3    0  502  0.12340954341E+04 -0.30548148851E+03 -0.12918625492E+04  0.18125174002E+04  0.25500000920E-02 0. -1.
</event>
<event>
 5   0  0.3675819E-07  0.3681417E+04  0.7818609E-02  0.8072093E-01
        1   -1    0    0  501    0  0.00000000000E+00  0.00000000000E+00  0.16966171911E+04  0.16966171911E+04  0.50400001928E-02 0. -1.
       -1   -1    0    0    0  501  0.00000000000E+00  0.00000000000E+00 -0.19970375359E+04  0.19970375359E+04  0.50400001928E-02 0.  1.
    10030    2    1    2    0    0  0.00000000000E+00  0.00000000000E+00 -0.30042034482E+03  0.36936547271E+04  0.36814172352E+04 0.  0.
        5    1    3    3  502    0  0.91958430260E+02 -0.16614146731E+04 -0.93986581463E+03  0.19110533505E+04  0.46999998093E+01 0.  1.
       -5    1    3    3    0  502 -0.91958430260E+02  0.16614146731E+04  0.63944546981E+03  0.17826013766E+04  0.46999998093E+01 0. -1.
</event>
<event>
 5   0  0.3675819E-07  0.3701289E+04  0.7818609E-02  0.8067676E-01
       -1   -1    0    0    0  501  0.00000000000E+00  0.00000000000E+00  0.11849943871E+04  0.11849943871E+04  0.50400001928E-02 0. -1.
        1   -1    0    0  501    0  0.00000000000E+00  0.00000000000E+00 -0.28902127189E+04  0.28902127189E+04  0.50400001928E-02 0.  1.
    10030    2    1    2    0    0  0.00000000000E+00  0.00000000000E+00 -0.17052183318E+04  0.40752071060E+04  0.37012894236E+04 0.  0.
        5    1    3    3  502    0  0.75760824826E+03  0.41215850273E+03 -0.26554051171E+04  0.27919604788E+04  0.46999998093E+01 0.  1.
       -5    1    3    3    0  502 -0.75760824826E+03 -0.41215850273E+03  0.95018678530E+03  0.12832466272E+04  0.46999998093E+01 0. -1.
</event>
<event>
 5   0  0.3764495E-07  0.3682050E+04  0.7818609E-02  0.8071952E-01
        1   -1    0    0  501    0  0.00000000000E+00  0.00000000000E+00  0.14818936431E+04  0.14818936431E+04  0.50400001928E-02 0. -1.
       -1   -1    0    0    0  501  0.00000000000E+00  0.00000000000E+00 -0.22871900141E+04  0.22871900142E+04  0.50400001928E-02 0.  1.
    10030    2    1    2    0    0  0.00000000000E+00  0.00000000000E+00 -0.80529637102E+03  0.37690836573E+04  0.36820496154E+04 0.  0.
        4    1    3    3  502    0 -0.17193190231E+04 -0.10955136091E+02  0.27108317221E+03  0.17405934670E+04  0.12699999809E+01 0. -1.
       -4    1    3    3    0  502  0.17193190231E+04  0.10955136091E+02 -0.10763795432E+04  0.20284901903E+04  0.12699999809E+01 0.  1.
</event>
<event>
 5   0  0.1066907E-06  0.3675861E+04  0.7818609E-02  0.8073333E-01
       -2   -1    0    0    0  501  0.00000000000E+00  0.00000000000E+00  0.16713670000E+04  0.16713670000E+04  0.25500000920E-02 0. -1.
        2   -1    0    0  501    0  0.00000000000E+00  0.00000000000E+00 -0.20210927776E+04  0.20210927776E+04  0.25500000920E-02 0.  1.
    10030    2    1    2    0    0  0.00000000000E+00  0.00000000000E+00 -0.34972577754E+03  0.36924597776E+04  0.36758605917E+04 0.  0.
        4    1    3    3  502    0  0.27316875470E+03 -0.11962287589E+04  0.11996735576E+04  0.17160427354E+04  0.12699999809E+01 0. -1.
       -4    1    3    3    0  502 -0.27316875470E+03  0.11962287589E+04 -0.15493993351E+04  0.19764170422E+04  0.12699999809E+01 0.  1.
</event>
<event>
 5   0  0.1092116E-06  0.3687906E+04  0.7818609E-02  0.8070647E-01
        2   -1    0    0  501    0  0.00000000000E+00  0.00000000000E+00  0.20031441192E+04  0.20031441192E+04  0.25500000920E-02 0.  1.
       -2   -1    0    0    0  501  0.00000000000E+00  0.00000000000E+00 -0.16974130090E+04  0.16974130090E+04  0.25500000920E-02 0. -1.
    10030    2    1    2    0    0  0.00000000000E+00  0.00000000000E+00  0.30573111024E+03  0.37005571282E+04  0.36879061197E+04 0.  0.
        1    1    3    3  502    0  0.64110765575E+03 -0.33138705902E+03  0.18555442881E+04  0.19909497770E+04  0.50400001928E-02 0.  1.
       -1    1    3    3    0  502 -0.64110765575E+03  0.33138705902E+03 -0.15498131779E+04  0.17096073513E+04  0.50400001928E-02 0. -1.
</event>
<event>
 5   0  0.1128530E-06  0.3863204E+04  0.7818609E-02  0.8032726E-01
        2   -1    0    0  501    0  0.00000000000E+00  0.00000000000E+00  0.15970355290E+04  0.15970355290E+04  0.25500000920E-02 0. -1.
       -2   -1    0    0    0  501  0.00000000000E+00  0.00000000000E+00 -0.23362579310E+04  0.23362579310E+04  0.25500000920E-02 0.  1.
    10030    2    1    2    0    0  0.00000000000E+00  0.00000000000E+00 -0.73922240201E+03  0.39332934601E+04  0.38632043284E+04 0.  0.
        5    1    3    3  502    0 -0.91451757284E+03  0.21063265737E+03  0.13493190248E+04  0.16435913203E+04  0.46999998093E+01 0. -1.
       -5    1    3    3    0  502  0.91451757284E+03 -0.21063265737E+03 -0.20885414268E+04  0.22897021398E+04  0.46999998093E+01 0.  1.
</event>
<event>
 5   0  0.1051123E-06  0.3672531E+04  0.7818609E-02  0.8074077E-01
       -2   -1    0    0    0  501  0.00000000000E+00  0.00000000000E+00  0.22462333226E+04  0.22462333226E+04  0.25500000920E-02 0. -1.
        2   -1    0    0  501    0  0.00000000000E+00  0.00000000000E+00 -0.15011224580E+04  0.15011224580E+04  0.25500000920E-02 0.  1.
    10030    2    1    2    0    0  0.00000000000E+00  0.00000000000E+00  0.74511086458E+03  0.37473557806E+04  0.36725311634E+04 0.  0.
        2    1    3    3  502    0 -0.17293072362E+04  0.61395658838E+03  0.30467886833E+03  0.18601815563E+04  0.25500000920E-02 0.  1.
       -2    1    3    3    0  502  0.17293072362E+04 -0.61395658838E+03  0.44043199625E+03  0.18871742243E+04  0.25500000920E-02 0. -1.
</event>
<event>
 5   0  0.3848431E-07  0.3595984E+04  0.7818609E-02  0.8091412E-01
        1   -1    0    0  501    0  0.00000000000E+00  0.00000000000E+00  0.24259325235E+04  0.24259325235E+04  0.50400001928E-02 0.  1.
       -1   -1    0    0    0  501  0.00000000000E+00  0.00000000000E+00 -0.13325904633E+04  0.13325904633E+04  0.50400001928E-02 0. -1.
    10030    2    1    2    0    0  0.00000000000E+00  0.00000000000E+00  0.10933420602E+04  0.37585229868E+04  0.35959836181E+04 0.  0.
        2    1    3    3  502    0 -0.11366657984E+04 -0.13224050380E+04  0.88674913242E+02  0.17460319190E+04  0.25500000920E-02 0. -1.
       -2    1    3    3    0  502  0.11366657984E+04  0.13224050380E+04  0.10046671470E+04  0.20124910678E+04  0.25500000920E-02 0.  1.
</event>
<event>
 5   0  0.3682276E-07  0.3679028E+04  0.7818609E-02  0.8072625E-01
        1   -1    0    0  501    0  0.00000000000E+00  0.00000000000E+00  0.16163614308E+04  0.16163614308E+04  0.50400001928E-02 0.  1.
       -1   -1    0    0    0  501  0.00000000000E+00  0.00000000000E+00 -0.20934746649E+04  0.20934746649E+04  0.50400001928E-02 0. -1.
    10030    2    1    2    0    0  0.00000000000E+00  0.00000000000E+00 -0.47711323404E+03  0.37098360957E+04  0.36790279720E+04 0.  0.
        1    1    3    3  502    0  0.55135716985E+03 -0.49410463726E+03 -0.19366049887E+04  0.20733000273E+04  0.50400001928E-02 0. -1.
       -1    1    3    3    0  502 -0.55135716985E+03  0.49410463726E+03  0.14594917546E+04  0.16365360684E+04  0.50400001928E-02 0.  1.
</event>
<event>
 5   0  0.1128530E-06  0.3703985E+04  0.7818609E-02  0.8067079E-01
       -2   -1    0    0    0  501  0.00000000000E+00  0.00000000000E+00  0.15543128044E+04  0.15543128044E+04  0.25500000920E-02 0.  1.
        2   -1    0    0  501    0  0.00000000000E+00  0.00000000000E+00 -0.22066829498E+04  0.22066829498E+04  0.25500000920E-02 0. -1.
    10030    2    1    2    0    0  0.00000000000E+00  0.00000000000E+00 -0.65237014537E+03  0.37609957543E+04  0.37039846459E+04 0.  0.
        5    1    3    3  502    0  0.33148005776E+03 -0.15657138321E+04  0.62010054085E+03  0.17163582387E+04  0.46999998093E+01 0.  1.
       -5    1    3    3    0  502 -0.33148005776E+03  0.15657138321E+04 -0.12724706862E+04  0.20446375156E+04  0.46999998093E+01 0. -1.
</event>
<event>
 5   0  0.1092116E-06  0.3664670E+04  0.7818609E-02  0.8075837E-01
       -2   -1    0    0    0  501  0.00000000000E+00  0.00000000000E+00  0.19850083218E+04  0.19850083218E+04  0.25500000920E-02 0.  1.
        2   -1    0    0  501    0  0.00000000000E+00  0.00000000000E+00 -0.16914038245E+04  0.16914038245E+04  0.25500000920E-02 0. -1.
    10030    2    1    2    0    0  0.00000000000E+00  0.00000000000E+00  0.29360449732E+03  0.36764121464E+04  0.36646695170E+04 0.  0.
        1    1    3    3  502    0 -0.29684121843E+03 -0.16028136130E+04 -0.69273318425E+03  0.17711593524E+04  0.50400001928E-02 0. -1.
       -1    1    3    3    0  502  0.29684121843E+03  0.16028136130E+04  0.98633768156E+03  0.19052527940E+04  0.50400001928E-02 0.  1.
</event>
<event>
 5   0  0.3490375E-07  0.2311713E+04  0.7818609E-02  0.8473317E-01
        3   -1    0    0  501    0  0.00000000000E+00  0.00000000000E+00  0.13380667698E+04  0.13380667736E+04  0.10100000352E+00 0. -1.
       -3   -1    0    0    0  501  0.00000000000E+00  0.00000000000E+00 -0.99845862633E+03  0.99845863143E+03  0.10100000352E+00 0.  1.
    10030    2    1    2    0    0  0.00000000000E+00  0.00000000000E+00  0.33960814350E+03  0.23365254051E+04  0.23117130612E+04 0.  0.
        5    1    3    3  502    0 -0.53895215745E+03 -0.66598442477E+03 -0.61439572836E+03  0.10542812163E+04  0.46999998093E+01 0.  1.
       -5    1    3    3    0  502  0.53895215745E+03  0.66598442477E+03  0.95400387186E+03  0.12822441888E+04  0.46999998093E+01 0. -1.
</event>
<event>
 5   0  0.3704306E-07  0.3706599E+04  0.7818609E-02  0.8066501E-01
       -1   -1    0    0    0  501  0.00000000000E+00  0.00000000000E+00  0.16569396935E+04  0.16569396935E+04  0.50400001928E-02 0. -1.
        1   -1    0    0  501    0  0.00000000000E+00  0.00000000000E+00 -0.20729299418E+04  0.20729299418E+04  0.50400001928E-02 0.  1.
    10030    2    1    2    0    0  0.00000000000E+00  0.00000000000E+00 -0.41599024835E+03  0.37298696353E+04  0.37065994672E+04 0.  0.
        3    1    3    3  502    0  0.18048418774E+04 -0.37572304714E+03 -0.39918234188E+03  0.18862578198E+04  0.10100000352E+00 0.  1.
       -3    1    3    3    0  502 -0.18048418774E+04  0.37572304714E+03 -0.16807906470E+02  0.18436118155E+04  0.10100000352E+00 0. -1.
</event>
<event>
 5   0  0.1128530E-06  0.3675821E+04  0.7818609E-02  0.8073341E-01
        2   -1    0    0  501    0  0.00000000000E+00  0.00000000000E+00  0.19145157082E+04  0.19145157082E+04  0.25500000920E-02 0.  1.
       -2   -1    0    0    0  501  0.00000000000E+00  0.00000000000E+00 -0.17643701344E+04  0.17643701344E+04  0.25500000920E-02 0. -1.
    10030    2    1    2    0    0  0.00000000000E+00  0.00000000000E+00  0.15014557376E+03  0.36788858426E+04  0.36758206362E+04 0.  0.
        5    1    3    3  502    0  0.11337992339E+04 -0.89421401150E+01  0.15227614710E+04  0.18985271271E+04  0.46999998093E+01 0.  1.
       -5    1    3    3    0  502 -0.11337992339E+04  0.89421401150E+01 -0.13726158973E+04  0.17803587155E+04  0.46999998093E+01 0. -1.
</event>
<event>
 5   0  0.3704306E-07  0.3563855E+04  0.7818609E-02  0.8098822E-01
       -1   -1    0    0    0  501  0.00000000000E+00  0.00000000000E+00  0.14564748371E+04  0.14564748371E+04  0.50400001928E-02 0.  1.
        1   -1    0    0  501    0  0.00000000000E+00  0.00000000000E+00 -0.21801028971E+04  0.21801028971E+04  0.50400001928E-02 0. -1.
    10030    2    1    2    0    0  0.00000000000E+00  0.00000000000E+00 -0.72362806003E+03  0.36365777342E+04  0.35638546614E+04 0.  0.
        3    1    3    3  502    0 -0.85332495478E+03  0.11764767624E+03 -0.19535359533E+04  0.21350192470E+04  0.10100000352E+00 0. -1.
       -3    1    3    3    0  502  0.85332495478E+03 -0.11764767624E+03  0.12299078933E+04  0.15015584871E+04  0.10100000352E+00 0.  1.
</event>
<event>
 5   0  0.1128166E-06  0.3443960E+04  0.7818609E-02  0.8127201E-01
       -2   -1    0    0    0  501  0.00000000000E+00  0.00000000000E+00  0.17137751176E+04  0.17137751176E+04  0.25500000920E-02 0. -1.
        2   -1    0    0  501    0  0.00000000000E+00  0.00000000000E+00 -0.17302239823E+04  0.17302239823E+04  0.25500000920E-02 0.  1.
    10030    2    1    2    0    0  0.00000000000E+00  0.00000000000E+00 -0.16448864735E+02  0.34439990999E+04  0.34439598190E+04 0.  0.
        3    1    3    3  502    0 -0.14585872287E+04  0.47189494992E+03  0.77603782054E+03  0.17182538394E+04  0.10100000352E+00 0. -1.
       -3    1    3    3    0  502  0.14585872287E+04 -0.47189494992E+03 -0.79248668527E+03  0.17257452605E+04  0.10100000352E+00 0.  1.
</event>
<event>
 5   0  0.3848431E-07  0.3180203E+04  0.7818609E-02  0.8194065E-01
       -1   -1    0    0    0  501  0.00000000000E+00  0.00000000000E+00  0.16422303322E+04  0.16422303322E+04  0.50400001928E-02 0. -1.
        1   -1    0    0  501    0  0.00000000000E+00  0.00000000000E+00 -0.15396275749E+04  0.15396275749E+04  0.50400001928E-02 0.  1.
    10030    2    1    2    0    0  0.00000000000E+00  0.00000000000E+00  0.10260275736E+03  0.31818579071E+04  0.31802032035E+04 0.  0.
        2    1    3    3  502    0 -0.48700283704E+03 -0.13400322861E+04 -0.65302854779E+03  0.15682170052E+04  0.25500000920E-02 0.  1.
       -2    1    3    3    0  502  0.48700283704E+03  0.13400322861E+04  0.75563130516E+03  0.16136409019E+04  0.25500000920E-02 0. -1.
</event>
<event>
 5   0  0.1092116E-06  0.3697121E+04  0.7818609E-02  0.8068600E-01
        2   -1    0    0  501    0  0.00000000000E+00  0.00000000000E+00  0.15381977044E+04  0.15381977044E+04  0.25500000920E-02 0. -1.
       -2   -1    0    0    0  501  0.00000000000E+00  0.00000000000E+00 -0.22215449304E+04  0.22215449304E+04  0.25500000920E-02 0.  1.
    10030    2    1    2    0    0  0.00000000000E+00  0.00000000000E+00 -0.68334722600E+03  0.37597426348E+04  0.36971206700E+04 0.  0.
        1    1    3    3  502    0  0.14052378808E+04 -0.19707257256E+03  0.86314872526E+03  0.16608903704E+04  0.50400001928E-02 0. -1.
       -1    1    3    3    0  502 -0.14052378808E+04  0.19707257256E+03 -0.15464959513E+04  0.20988522644E+04  0.50400001928E-02 0.  1.
</event>
<event>
 5   0  0.3848431E-07  0.3737638E+04  0.7818609E-02  0.8059672E-01
       -1   -1    0    0    0  501  0.00000000000E+00  0.00000000000E+00  0.14517028882E+04  0.14517028882E+04  0.50400001928E-02 0.  1.
        1   -1    0    0  501    0  0.00000000000E+00  0.00000000000E+00 -0.24057851391E+04  0.24057851391E+04  0.50400001928E-02 0. -1.
    10030    2    1    2    0    0  0.00000000000E+00  0.00000000000E+00 -0.95408225089E+03  0.38574880273E+04  0.37376384174E+04 0.  0.
        2    1    3    3  502    0 -0.17585090129E+04  0.62107161515E+03 -0.60089473839E+03  0.19593770404E+04  0.25500000920E-02 0. -1.
       -2    1    3    3    0  502  0.17585090129E+04 -0.62107161515E+03 -0.35318751251E+03  0.18981109869E+04  0.25500000920E-02 0.  1.
</event>
<event>
 5   0  0.1066907E-06  0.3593669E+04  0.7818609E-02  0.8091944E-01
        2   -1    0    0  501    0  0.00000000000E+00  0.00000000000E+00  0.18329029498E+04  0.18329029498E+04  0.25500000920E-02 0.  1.
       -2   -1    0    0    0  501  0.00000000000E+00  0.00000000000E+00 -0.17614754015E+04  0.17614754015E+04  0.25500000920E-02 0. -1.
    10030    2    1    2    0    0  0.00000000000E+00  0.00000000000E+00  0.71427548326E+02  0.35943783513E+04  0.35936685765E+04 0.  0.
        4    1    3    3  502    0  0.15121320650E+04  0.10631387915E+03  0.10006663769E+04  0.18163647303E+04  0.12699999809E+01 0.  1.
       -4    1    3    3    0  502 -0.15121320650E+04 -0.10631387915E+03 -0.92923882860E+03  0.17780136209E+04  0.12699999809E+01 0. -1.
</event>
<event>
 5   0  0.3764495E-07  0.2706291E+04  0.7818609E-02  0.8332967E-01
        1   -1    0    0  501    0  0.00000000000E+00  0.00000000000E+00  0.11228966455E+04  0.11228966455E+04  0.50400001928E-02 0.  1.
       -1   -1    0    0    0  501  0.00000000000E+00  0.00000000000E+00 -0.16306065615E+04  0.16306065615E+04  0.50400001928E-02 0. -1.
    10030    2    1    2    0    0  0.00000000000E+00  0.00000000000E+00 -0.50770991598E+03  0.27535032070E+04  0.27062909215E+04 0.  0.
        4    1    3    3  502    0 -0.66061435671E+03  0.46713006474E+03 -0.13573865593E+04  0.15802283727E+04  0.12699999809E+01 0. -1.
       -4    1    3    3    0  502  0.66061435671E+03 -0.46713006474E+03  0.84967664330E+03  0.11732748343E+04  0.12699999809E+01 0.  1.
</event>
<event>
 5   0  0.3848431E-07  0.3557569E+04  0.7818609E-02  0.8100281E-01
       -1   -1    0    0    0  501  0.00000000000E+00  0.00000000000E+00  0.10422274215E+04  0.10422274215E+04  0.50400001928E-02 0. -1.
        1   -1    0    0  501    0  0.00000000000E+00  0.00000000000E+00 -0.30358775831E+04  0.30358775831E+04  0.50400001928E-02 0.  1.
    10030    2    1    2    0    0  0.00000000000E+00  0.00000000000E+00 -0.19936501615E+04  0.40781050046E+04  0.35575693193E+04 0.  0.
        2    1    3    3  502    0 -0.74407272280E+03  0.14842997838E+04 -0.17283921270E+04  0.23966913464E+04  0.25500000920E-02 0.  1.
       -2    1    3    3    0  502  0.74407272280E+03 -0.14842997838E+04 -0.26525803451E+03  0.16814136582E+04  0.25500000920E-02 0. -1.
</event>
<event>
 5   0  0.3675819E-07  0.3789150E+04  0.7818609E-02  0.8048487E-01
        1   -1    0    0  501    0  0.00000000000E+00  0.00000000000E+00  0.28287703914E+04  0.28287703914E+04  0.50400001928E-02 0. -1.
       -1   -1    0    0    0  501  0.00000000000E+00  0.00000000000E+00 -0.12688957105E+04  0.12688957105E+04  0.50400001928E-02 0.  1.
    10030    2    1    2    0    0  0.00000000000E+00  0.00000000000E+00  0.15598746809E+04  0.40976661019E+04  0.37891500977E+04 0.  0.
        5    1    3    3  502    0 -0.13402633916E+04 -0.12585766885E+04  0.12744096239E+04  0.22370657610E+04  0.46999998093E+01 0.  1.
       -5    1    3    3    0  502  0.13402633916E+04  0.12585766885E+04  0.28546505701E+03  0.18606003409E+04  0.46999998093E+01 0. -1.
</event>
<event>
 5   0  0.3848431E-07  0.3612193E+04  0.7818609E-02  0.8087704E-01
       -1   -1    0    0    0  501  0.00000000000E+00  0.00000000000E+00  0.12888563887E+04  0.12888563887E+04  0.50400001928E-02 0.  1.
        1   -1    0    0  501    0  0.00000000000E+00  0.00000000000E+00 -0.25309137249E+04  0.25309137249E+04  0.50400001928E-02 0. -1.
    10030    2    1    2    0    0  0.00000000000E+00  0.00000000000E+00 -0.12420573362E+04  0.38197701136E+04  0.36121928650E+04 0.  0.
        2    1    3    3  502    0  0.10290774941E+04  0.11812908167E+04 -0.15712990633E+04  0.22188801745E+04  0.25500000920E-02 0. -1.
       -2    1    3    3    0  502 -0.10290774941E+04 -0.11812908167E+04  0.32924172702E+03  0.16008899391E+04  0.25500000920E-02 0.  1.
</event>
<event>
 5   0  0.3704306E-07  0.3647843E+04  0.7818609E-02  0.8079620E-01
        1   -1    0    0  501    0  0.00000000000E+00  0.00000000000E+00  0.18881786094E+04  0.18881786094E+04  0.50400001928E-02 0. -1.
       -1   -1    0    0    0  501  0.00000000000E+00  0.00000000000E+00 -0.17618515651E+04  0.17618515651E+04  0.50400001928E-02 0.  1.
    10030    2    1    2    0    0  0.00000000000E+00  0.00000000000E+00  0.12632704426E+03  0.36500301745E+04  0.36478434386E+04 0.  0.
        3    1    3    3  502    0  0.21232340577E+01 -0.15304382278E+04 -0.92962314918E+03  0.17906548766E+04  0.10100000352E+00 0.  1.
       -3    1    3    3    0  502 -0.21232340577E+01  0.15304382278E+04  0.10559501934E+04  0.18593752979E+04  0.10100000352E+00 0. -1.
</event>
<event>
 5   0  0.3675819E-07  0.3751618E+04  0.7818609E-02  0.8056618E-01
        1   -1    0    0  501    0  0.00000000000E+00  0.00000000000E+00  0.16782821997E+04  0.16782821997E+04  0.50400001928E-02 0. -1.
       -1   -1    0    0    0  501  0.00000000000E+00  0.00000000000E+00 -0.20965836561E+04  0.20965836561E+04  0.50400001928E-02 0.  1.
    10030    2    1    2    0    0  0.00000000000E+00  0.00000000000E+00 -0.41830145643E+03  0.37748658557E+04  0.37516178004E+04 0.  0.
        5    1    3    3  502    0  0.17398506357E+04  0.57181456996E+03 -0.61735524067E+03  0.19326669967E+04  0.46999998093E+01 0.  1.
       -5    1    3    3    0  502 -0.17398506357E+04 -0.57181456996E+03  0.19905378424E+03  0.18421988590E+04  0.46999998093E+01 0. -1.
</event>
<event>
 5   0  0.3675819E-07  0.3679381E+04  0.7818609E-02  0.8072547E-01
       -1   -1    0    0    0  501  0.00000000000E+00  0.00000000000E+00  0.16880622953E+04  0.16880622953E+04  0.50400001928E-02 0.  1.
        1   -1    0    0  501    0  0.00000000000E+00  0.00000000000E+00 -0.20049380887E+04  0.20049380887E+04  0.50400001928E-02 0. -1.
    10030    2    1    2    0    0  0.00000000000E+00  0.00000000000E+00 -0.31687579338E+03  0.36930003840E+04  0.36793805957E+04 0.  0.
        5    1    3    3  502    0 -0.81090744002E+03 -0.16512237361E+04 -0.14027119582E+03  0.18449414086E+04  0.46999998093E+01 0. -1.
       -5    1    3    3    0  502  0.81090744002E+03  0.16512237361E+04 -0.17660459757E+03  0.18480589754E+04  0.46999998093E+01 0.  1.
</event>
<event>
 5   0  0.3675819E-07  0.3555822E+04  0.7818609E-02  0.8100687E-01
        1   -1    0    0  501    0  0.00000000000E+00  0.00000000000E+00  0.18183320467E+04  0.18183320467E+04  0.50400001928E-02 0.  1.
       -1   -1    0    0    0  501  0.00000000000E+00  0.00000000000E+00 -0.17383887737E+04  0.17383887738E+04  0.50400001928E-02 0. -1.
    10030    2    1    2    0    0  0.00000000000E+00  0.00000000000E+00  0.79943272962E+02  0.35567208205E+04  0.35558222773E+04 0.  0.
        5    1    3    3  502    0 -0.88008023541E+03 -0.14640850386E+03  0.15782058986E+04  0.18129348083E+04  0.46999998093E+01 0.  1.
       -5    1    3    3    0  502  0.88008023541E+03  0.14640850386E+03 -0.14982626257E+04  0.17437860122E+04  0.46999998093E+01 0. -1.
</event>
<event>
 5   0  0.1066907E-06  0.3648205E+04  0.7818609E-02  0.8079538E-01
       -2   -1    0    0    0  501  0.00000000000E+00  0.00000000000E+00  0.19187970105E+04  0.19187970105E+04  0.25500000920E-02 0. -1.
        2   -1    0    0  501    0  0.00000000000E+00  0.00000000000E+00 -0.17340809171E+04  0.17340809171E+04  0.25500000920E-02 0.  1.
    10030    2    1    2    0    0  0.00000000000E+00  0.00000000000E+00  0.18471609338E+03  0.36528779276E+04  0.36482046432E+04 0.  0.
        4    1    3    3  502    0  0.81958215167E+02  0.54801991881E+03  0.18324866494E+04  0.19144325305E+04  0.12699999809E+01 0. -1.
       -4    1    3    3    0  502 -0.81958215167E+02 -0.54801991881E+03 -0.16477705561E+04  0.17384453971E+04  0.12699999809E+01 0.  1.
</event>
<event>
 5   0  0.3764495E-07  0.3725082E+04  0.7818609E-02  0.8062426E-01
        1   -1    0    0  501    0  0.00000000000E+00  0.00000000000E+00  0.30666315409E+04  0.30666315409E+04  0.50400001928E-02 0. -1.
       -1   -1    0    0    0  501  0.00000000000E+00  0.00000000000E+00 -0.11312279139E+04  0.11312279139E+04  0.50400001928E-02 0.  1.
    10030    2    1    2    0    0  0.00000000000E+00  0.00000000000E+00  0.19354036270E+04  0.41978594547E+04  0.37250821202E+04 0.  0.
        4    1    3    3  502    0 -0.16908905843E+04 -0.67849598729E+02  0.90917393970E+02  0.16946923383E+04  0.12699999809E+01 0.  1.
       -4    1    3    3    0  502  0.16908905843E+04  0.67849598729E+02  0.18444862330E+04  0.25031671164E+04  0.12699999809E+01 0. -1.
</event>
<event>
 5   0  0.1128166E-06  0.3022287E+04  0.7818609E-02  0.8237395E-01
        2   -1    0    0  501    0  0.00000000000E+00  0.00000000000E+00  0.23775500159E+04  0.23775500159E+04  0.25500000920E-02 0. -1.
       -2   -1    0    0    0  501  0.00000000000E+00  0.00000000000E+00 -0.96046563967E+03  0.96046563968E+03  0.25500000920E-02 0.  1.
    10030    2    1    2    0    0  0.00000000000E+00  0.00000000000E+00  0.14170843763E+04  0.33380156556E+04  0.30222872775E+04 0.  0.
        3    1    3    3  502    0  0.69120738275E+03  0.12674992543E+04  0.12015267871E+04  0.18782940760E+04  0.10100000352E+00 0. -1.
       -3    1    3    3    0  502 -0.69120738275E+03 -0.12674992543E+04  0.21555758921E+03  0.14597215796E+04  0.10100000352E+00 0.  1.
</event>
<event>
 5   0  0.1092116E-06  0.4307116E+04  0.7818609E-02  0.7945304E-01
        2   -1    0    0  501    0  0.00000000000E+00  0.00000000000E+00  0.17541301065E+04  0.17541301065E+04  0.25500000920E-02 0.  1.
       -2   -1    0    0    0  501  0.00000000000E+00  0.00000000000E+00 -0.26439379225E+04  0.26439379225E+04  0.25500000920E-02 0. -1.
    10030    2    1    2    0    0  0.00000000000E+00  0.00000000000E+00 -0.88980781596E+03  0.43980680290E+04  0.43071155590E+04 0.  0.
        1    1    3    3  502    0  0.81160594720E+03 -0.74355054808E+03 -0.23350017063E+04  0.25814346010E+04  0.50400001928E-02 0. -1.
       -1    1    3    3    0  502 -0.81160594720E+03  0.74355054808E+03  0.14451938903E+04  0.18166334280E+04  0.50400001928E-02 0.  1.
</event>
<event>
 5   0  0.3764495E-07  0.3216811E+04  0.7818609E-02  0.8184392E-01
       -1   -1    0    0    0  501  0.00000000000E+00  0.00000000000E+00  0.15646528096E+04  0.15646528097E+04  0.50400001928E-02 0.  1.
        1   -1    0    0  501    0  0.00000000000E+00  0.00000000000E+00 -0.16533815178E+04  0.16533815178E+04  0.50400001928E-02 0. -1.
    10030    2    1    2    0    0  0.00000000000E+00  0.00000000000E+00 -0.88728708133E+02  0.32180343274E+04  0.32168108662E+04 0.  0.
        4    1    3    3  502    0 -0.48678672131E+03 -0.13684179331E+04 -0.73559565605E+03  0.16280760221E+04  0.12699999809E+01 0. -1.
       -4    1    3    3    0  502  0.48678672131E+03  0.13684179331E+04  0.64686694792E+03  0.15899583054E+04  0.12699999809E+01 0.  1.
</event>
<event>
 5   0  0.1092116E-06  0.3387433E+04  0.7818609E-02  0.8140998E-01
        2   -1    0    0  501    0  0.00000000000E+00  0.00000000000E+00  0.12661107667E+04  0.12661107667E+04  0.25500000920E-02 0. -1.
       -2   -1    0    0    0  501  0.00000000000E+00  0.00000000000E+00 -0.22657385035E+04  0.22657385035E+04  0.25500000920E-02 0.  1.
    10030    2    1    2    0    0  0.00000000000E+00  0.00000000000E+00 -0.99962773687E+03  0.35318492702E+04  0.33874331957E+04 0.  0.
        1    1    3    3  502    0 -0.11363355071E+04  0.23182488781E+03  0.78718319802E+03  0.14016627806E+04  0.50400001928E-02 0. -1.
       -1    1    3    3    0  502  0.11363355071E+04 -0.23182488781E+03 -0.17868109349E+04  0.21301864896E+04  0.50400001928E-02 0.  1.
</event>
<event>
 5   0  0.1092116E-06  0.3693272E+04  0.7818609E-02  0.8069454E-01
       -2   -1    0    0    0  501  0.00000000000E+00  0.00000000000E+00  0.14872256528E+04  0.14872256528E+04  0.25500000920E-02 0. -1.
        2   -1    0    0  501    0  0.00000000000E+00  0.00000000000E+00 -0.22929037896E+04  0.22929037896E+04  0.25500000920E-02 0.  1.
    10030    2    1    2    0    0  0.00000000000E+00  0.00000000000E+00 -0.80567813676E+03  0.37801294424E+04  0.36932724435E+04 0.  0.
        1    1    3    3  502    0  0.47449574759E+03  0.15204328691E+04 -0.13592685141E+04  0.20939133739E+04  0.50400001928E-02 0.  1.
       -1    1    3    3    0  502 -0.47449574759E+03 -0.15204328691E+04  0.55359037738E+03  0.16862160685E+04  0.50400001928E-02 0. -1.
</event>
<event>
 5   0  0.3848431E-07  0.3608305E+04  0.7818609E-02  0.8088592E-01
        1   -1    0    0  501    0  0.00000000000E+00  0.00000000000E+00  0.18955180904E+04  0.18955180904E+04  0.50400001928E-02 0.  1.
       -1   -1    0    0    0  501  0.00000000000E+00  0.00000000000E+00 -0.17171911083E+04  0.17171911083E+04  0.50400001928E-02 0. -1.
    10030    2    1    2    0    0  0.00000000000E+00  0.00000000000E+00  0.17832698217E+03  0.36127091987E+04  0.36083053144E+04 0.  0.
        2    1    3    3  502    0 -0.16252185991E+04  0.67897476840E+03  0.48031225947E+03  0.18256620984E+04  0.25500000920E-02 0.  1.
       -2    1    3    3    0  502  0.16252185991E+04 -0.67897476840E+03 -0.30198527730E+03  0.17870471003E+04  0.25500000920E-02 0. -1.
</event>
<event>
 5   0  0.1092116E-06  0.3562600E+04  0.7818609E-02  0.8099113E-01
       -2   -1    0    0    0  501  0.00000000000E+00  0.00000000000E+00  0.28286139123E+04  0.28286139123E+04  0.25500000920E-02 0. -1.
        2   -1    0    0  501    0  0.00000000000E+00  0.00000000000E+00 -0.11217614507E+04  0.11217614507E+04  0.25500000920E-02 0.  1.
    10030    2    1    2    0    0  0.00000000000E+00  0.00000000000E+00  0.17068524617E+04  0.39503753630E+04  0.35626001997E+04 0.  0.
        1    1    3    3  502    0 -0.41179758251E+03 -0.74207829427E+02 -0.10664939726E+04  0.11456410627E+04  0.50400001928E-02 0.  1.
       -1    1    3    3    0  502  0.41179758251E+03  0.74207829427E+02  0.27733464343E+04  0.28047343003E+04  0.50400001928E-02 0. -1.
</event>
<event>
 5   0  0.3682276E-07  0.3687705E+04  0.7818609E-02  0.8070692E-01
       -1   -1    0    0    0  501  0.00000000000E+00  0.00000000000E+00  0.21206185047E+04  0.21206185047E+04  0.50400001928E-02 0. -1.
        1   -1    0    0  501    0  0.00000000000E+00  0.00000000000E+00 -0.16032079521E+04  0.16032079522E+04  0.50400001928E-02 0.  1.
    10030    2    1    2    0    0  0.00000000000E+00  0.00000000000E+00  0.51741055256E+03  0.37238264569E+04  0.36877052215E+04 0.  0.
        1    1    3    3  502    0 -0.17810908012E+04  0.47046076959E+03  0.33805404507E+03  0.18729384174E+04  0.50400001928E-02 0.  1.
       -1    1    3    3    0  502  0.17810908012E+04 -0.47046076959E+03  0.17935650749E+03  0.18508880395E+04  0.50400001928E-02 0. -1.
</event>
<event>
 5   0  0.3848431E-07  0.3440114E+04  0.7818609E-02  0.8128131E-01
        1   -1    0    0  501    0  0.00000000000E+00  0.00000000000E+00  0.18055380719E+04  0.18055380719E+04  0.50400001928E-02 0.  1.
       -1   -1    0    0    0  501  0.00000000000E+00  0.00000000000E+00 -0.16386227936E+04  0.16386227936E+04  0.50400001928E-02 0. -1.
    10030    2    1    2    0    0  0.00000000000E+00  0.00000000000E+00  0.16691527826E+03  0.34441608655E+04  0.34401138582E+04 0.  0.
        2    1    3    3  502    0 -0.49701591644E+03 -0.16273303376E+04  0.33548178475E+03  0.17342943455E+04  0.25500000920E-02 0.  1.
       -2    1    3    3    0  502  0.49701591644E+03  0.16273303376E+04 -0.16856650649E+03  0.17098665200E+04  0.25500000920E-02 0. -1.
</event>
<event>
 5   0  0.3682276E-07  0.3409403E+04  0.7818609E-02  0.8135602E-01
       -1   -1    0    0    0  501  0.00000000000E+00  0.00000000000E+00  0.12711500995E+04  0.12711500995E+04  0.50400001928E-02 0.  1.
        1   -1    0    0  501    0  0.00000000000E+00  0.00000000000E+00 -0.22861244532E+04  0.22861244532E+04  0.50400001928E-02 0. -1.
    10030    2    1    2    0    0  0.00000000000E+00  0.00000000000E+00 -0.10149743537E+04  0.35572745527E+04  0.34094030716E+04 0.  0.
        1    1    3    3  502    0 -0.12836772039E+04  0.10939779616E+04 -0.76600844574E+03  0.18523994934E+04  0.50400001928E-02 0.  1.
       -1    1    3    3    0  502  0.12836772039E+04 -0.10939779616E+04 -0.24896590793E+03  0.17048750592E+04  0.50400001928E-02 0. -1.
</event>
<event>
 5   0  0.1092116E-06  0.3241242E+04  0.7818609E-02  0.8178009E-01
       -2   -1    0    0    0  501  0.00000000000E+00  0.00000000000E+00  0.14745980317E+04  0.14745980317E+04  0.25500000920E-02 0.  1.
        2   -1    0    0  501    0  0.00000000000E+00  0.00000000000E+00 -0.17811036819E+04  0.17811036819E+04  0.25500000920E-02 0. -1.
    10030    2    1    2    0    0  0.00000000000E+00  0.00000000000E+00 -0.30650565019E+03  0.32557017137E+04  0.32412417273E+04 0.  0.
        1    1    3    3  502    0  0.20368263594E+01 -0.16180188480E+04 -0.61067343636E+02  0.16191721223E+04  0.50400001928E-02 0.  1.
       -1    1    3    3    0  502 -0.20368263594E+01  0.16180188480E+04 -0.24543830656E+03  0.16365295914E+04  0.50400001928E-02 0. -1.
</event>
<event>
 5   0  0.3682276E-07  0.2550036E+04  0.7818609E-02  0.8385374E-01
        1   -1    0    0  501    0  0.00000000000E+00  0.00000000000E+00  0.17969408277E+04  0.17969408277E+04  0.50400001928E-02 0. -1.
       -1   -1    0    0    0  501  0.00000000000E+00  0.00000000000E+00 -0.90468790276E+03  0.90468790278E+03  0.50400001928E-02 0.  1.
    10030    2    1    2    0    0  0.00000000000E+00  0.00000000000E+00  0.89225292495E+03  0.27016287305E+04  0.25500357871E+04 0.  0.
        1    1    3    3  502    0 -0.78748266160E+03 -0.97541651245E+03  0.69255746124E+03  0.14322018546E+04  0.50400001928E-02 0.  1.
       -1    1    3    3    0  502  0.78748266160E+03  0.97541651245E+03  0.19969546371E+03  0.12694268759E+04  0.50400001928E-02 0. -1.
</event>
<event>
 5   0  0.3764495E-07  0.3711500E+04  0.7818609E-02  0.8065418E-01
       -1   -1    0    0    0  501  0.00000000000E+00  0.00000000000E+00  0.23774632459E+04  0.23774632459E+04  0.50400001928E-02 0. -1.
        1   -1    0    0  501    0  0.00000000000E+00  0.00000000000E+00 -0.14485219575E+04  0.14485219575E+04  0.50400001928E-02 0.  1.
    10030    2    1    2    0    0  0.00000000000E+00  0.00000000000E+00  0.92894128845E+03  0.38259852034E+04  0.37114998127E+04 0.  0.
        4    1    3    3  502    0 -0.18309078462E+04  0.30258820973E+03  0.46940751328E+03  0.19141912633E+04  0.12699999809E+01 0.  1.
       -4    1    3    3    0  502  0.18309078462E+04 -0.30258820973E+03  0.45953377516E+03  0.19117939401E+04  0.12699999809E+01 0. -1.
</event>
<event>
 5   0  0.1051123E-06  0.3629319E+04  0.7818609E-02  0.8083809E-01
       -2   -1    0    0    0  501  0.00000000000E+00  0.00000000000E+00  0.17050376062E+04  0.17050376062E+04  0.25500000920E-02 0.  1.
        2   -1    0    0  501    0  0.00000000000E+00  0.00000000000E+00 -0.19313292497E+04  0.19313292497E+04  0.25500000920E-02 0. -1.
    10030    2    1    2    0    0  0.00000000000E+00  0.00000000000E+00 -0.22629164348E+03  0.36363668560E+04  0.36293189448E+04 0.  0.
        2    1    3    3  502    0 -0.98411152700E+02 -0.17938931935E+04  0.14279387984E+03  0.18022562628E+04  0.25500000920E-02 0.  1.
       -2    1    3    3    0  502  0.98411152700E+02  0.17938931935E+04 -0.36908552331E+03  0.18341105932E+04  0.25500000920E-02 0. -1.
</event>
<event>
 5   0  0.1051123E-06  0.3637513E+04  0.7818609E-02  0.8081953E-01
        2   -1    0    0  501    0  0.00000000000E+00  0.00000000000E+00  0.21251557625E+04  0.21251557625E+04  0.25500000920E-02 0.  1.
       -2   -1    0    0    0  501  0.00000000000E+00  0.00000000000E+00 -0.15565328284E+04  0.15565328284E+04  0.25500000920E-02 0. -1.
    10030    2    1    2    0    0  0.00000000000E+00  0.00000000000E+00  0.56862293411E+03  0.36816885909E+04  0.36375127270E+04 0.  0.
        2    1    3    3  502    0  0.80128008474E+03 -0.14646147492E+04 -0.44606745934E+03  0.17280400216E+04  0.25500000920E-02 0. -1.
       -2    1    3    3    0  502 -0.80128008474E+03  0.14646147492E+04  0.10146903935E+04  0.19536485693E+04  0.25500000920E-02 0.  1.
</event>
<event>
 5   0  0.1128530E-06  0.2905089E+04  0.7818609E-02  0.8271365E-01
       -2   -1    0    0    0  501  0.00000000000E+00  0.00000000000E+00  0.92637108317E+03  0.92637108317E+03  0.25500000920E-02 0.  1.
        2   -1    0    0  501    0  0.00000000000E+00  0.00000000000E+00 -0.22775810882E+04  0.22775810882E+04  0.25500000920E-02 0. -1.
    10030    2    1    2    0    0  0.00000000000E+00  0.00000000000E+00 -0.13512100050E+04  0.32039521714E+04  0.29050888177E+04 0.  0.
        5    1    3    3  502    0 -0.10741055604E+04 -0.52666748117E+03 -0.15842446807E+04  0.19851787549E+04  0.46999998093E+01 0. -1.
       -5    1    3    3    0  502  0.10741055604E+04  0.52666748117E+03  0.23303467570E+03  0.12187734165E+04  0.46999998093E+01 0.  1.
</event>
<event>
 5   0  0.1092116E-06  0.3650231E+04  0.7818609E-02  0.8079082E-01
       -2   -1    0    0    0  501  0.00000000000E+00  0.00000000000E+00  0.15779818893E+04  0.15779818893E+04  0.25500000920E-02 0.  1.
        2   -1    0    0  501    0  0.00000000000E+00  0.00000000000E+00 -0.21109533365E+04  0.21109533365E+04  0.25500000920E-02 0. -1.
    10030    2    1    2    0    0  0.00000000000E+00  0.00000000000E+00 -0.53297144727E+03  0.36889352258E+04  0.36502307511E+04 0.  0.
        1    1    3    3  502    0  0.81641547929E+03 -0.12371487038E+04  0.80968815636E+03  0.16889837360E+04  0.50400001928E-02 0.  1.
       -1    1    3    3    0  502 -0.81641547929E+03  0.12371487038E+04 -0.13426596036E+04  0.19999514897E+04  0.50400001928E-02 0. -1.
</event>
<event>
 5   0  0.3704306E-07  0.3719780E+04  0.7818609E-02  0.8063592E-01
        1   -1    0    0  501    0  0.00000000000E+00  0.00000000000E+00  0.18721070527E+04  0.18721070527E+04  0.50400001928E-02 0. -1.
       -1   -1    0    0    0  501  0.00000000000E+00  0.00000000000E+00 -0.18477527696E+04  0.18477527697E+04  0.50400001928E-02 0.  1.
    10030    2    1    2    0    0  0.00000000000E+00  0.00000000000E+00  0.24354283014E+02  0.37198598223E+04  0.37197800965E+04 0.  0.
        3    1    3    3  502    0 -0.11961277506E+04  0.14232766943E+04  0.64645753613E+02  0.18602734283E+04  0.10100000352E+00 0.  1.
       -3    1    3    3    0  502  0.11961277506E+04 -0.14232766943E+04 -0.40291470599E+02  0.18595863941E+04  0.10100000352E+00 0. -1.
</event>
<event>
 5   0  0.1066907E-06  0.3306940E+04  0.7818609E-02  0.8161132E-01
       -2   -1    0    0    0  501  0.00000000000E+00  0.00000000000E+00  0.15083366269E+04  0.15083366269E+04  0.25500000920E-02 0.  1.
        2   -1    0    0  501    0  0.00000000000E+00  0.00000000000E+00 -0.18125677297E+04  0.18125677297E+04  0.25500000920E-02 0. -1.
    10030    2    1    2    0    0  0.00000000000E+00  0.00000000000E+00 -0.30423110275E+03  0.33209043566E+04  0.33069395492E+04 0.  0.
        4    1    3    3  502    0  0.11563375304E+04  0.88388582664E+03  0.63579316584E+03  0.15882711360E+04  0.12699999809E+01 0. -1.
       -4    1    3    3    0  502 -0.11563375304E+04 -0.88388582664E+03 -0.94002426858E+03  0.17326332206E+04  0.12699999809E+01 0.  1.
</event>
<event>
 5   0  0.1128530E-06  0.3457165E+04  0.7818609E-02  0.8124017E-01
        2   -1    0    0  501    0  0.00000000000E+00  0.00000000000E+00  0.18820031934E+04  0.18820031934E+04  0.25500000920E-02 0.  1.
       -2   -1    0    0    0  501  0.00000000000E+00  0.00000000000E+00 -0.15876687614E+04  0.15876687614E+04  0.25500000920E-02 0. -1.
    10030    2    1    2    0    0  0.00000000000E+00  0.00000000000E+00  0.29433443197E+03  0.34696719548E+04  0.34571651271E+04 0.  0.
        5    1    3    3  502    0  0.29447310329E+03 -0.16344530887E+04 -0.33396700492E+03  0.16940210619E+04  0.46999998093E+01 0. -1.
       -5    1    3    3    0  502 -0.29447310329E+03  0.16344530887E+04  0.62830143689E+03  0.17756508929E+04  0.46999998093E+01 0.  1.
</event>
<event>
 5   0  0.1092116E-06  0.2580513E+04  0.7818609E-02  0.8374851E-01
       -2   -1    0    0    0  501  0.00000000000E+00  0.00000000000E+00  0.74274652814E+03  0.74274652814E+03  0.25500000920E-02 0. -1.
        2   -1    0    0  501    0  0.00000000000E+00  0.00000000000E+00 -0.22413593542E+04  0.22413593542E+04  0.25500000920E-02 0.  1.
    10030    2    1    2    0    0  0.00000000000E+00  0.00000000000E+00 -0.14986128261E+04  0.29841058824E+04  0.25805130332E+04 0.  0.
        1    1    3    3  502    0  0.99733086903E+03  0.65282455263E+03 -0.13204242873E+04  0.17788673524E+04  0.50400001928E-02 0.  1.
       -1    1    3    3    0  502 -0.99733086903E+03 -0.65282455263E+03 -0.17818853880E+03  0.12052385300E+04  0.50400001928E-02 0. -1.
</event>
<event>
 5   0  0.3682276E-07  0.3840575E+04  0.7818609E-02  0.8037503E-01
       -1   -1    0    0    0  501  0.00000000000E+00  0.00000000000E+00  0.15366480826E+04  0.15366480826E+04  0.50400001928E-02 0.  1.
        1   -1    0    0  501    0  0.00000000000E+00  0.00000000000E+00 -0.23997063870E+04  0.23997063870E+04  0.50400001928E-02 0. -1.
    10030    2    1    2    0    0  0.00000000000E+00  0.00000000000E+00 -0.86305830438E+03  0.39363544696E+04  0.38405750707E+04 0.  0.
        1    1    3    3  502    0  0.10699919275E+04 -0.35104747941E+03  0.11626995618E+04  0.16186374915E+04  0.50400001928E-02 0.  1.
       -1    1    3    3    0  502 -0.10699919275E+04  0.35104747941E+03 -0.20257578662E+04  0.23177169781E+04  0.50400001928E-02 0. -1.
</event>
<event>
 5   0  0.3848431E-07  0.3712692E+04  0.7818609E-02  0.8065155E-01
        1   -1    0    0  501    0  0.00000000000E+00  0.00000000000E+00  0.16956187266E+04  0.16956187266E+04  0.50400001928E-02 0.  1.
       -1   -1    0    0    0  501  0.00000000000E+00  0.00000000000E+00 -0.20323088427E+04  0.20323088427E+04  0.50400001928E-02 0. -1.
    10030    2    1    2    0    0  0.00000000000E+00  0.00000000000E+00 -0.33669011608E+03  0.37279275693E+04  0.37126922479E+04 0.  0.
        2    1    3    3  502    0 -0.17821553806E+04  0.47463842912E+03 -0.38054493738E+03  0.18831287498E+04  0.25500000920E-02 0.  1.
       -2    1    3    3    0  502  0.17821553806E+04 -0.47463842912E+03  0.43854821296E+02  0.18447988195E+04  0.25500000920E-02 0. -1.
</event>
<event>
 5   0  0.3848431E-07  0.3826955E+04  0.7818609E-02  0.8040395E-01
       -1   -1    0    0    0  501  0.00000000000E+00  0.00000000000E+00  0.21471005723E+04  0.21471005723E+04  0.50400001928E-02 0.  1.
        1   -1    0    0  501    0  0.00000000000E+00  0.00000000000E+00 -0.17052745979E+04  0.17052745979E+04  0.50400001928E-02 0. -1.
    10030    2    1    2    0    0  0.00000000000E+00  0.00000000000E+00  0.44182597439E+03  0.38523751702E+04  0.38269549593E+04 0.  0.
        2    1    3    3  502    0  0.69316855507E+03 -0.12859154839E+04 -0.10231499331E+04  0.17835069562E+04  0.25500000920E-02 0. -1.
       -2    1    3    3    0  502 -0.69316855507E+03  0.12859154839E+04  0.14649759075E+04  0.20688682140E+04  0.25500000920E-02 0.  1.
</event>
<event>
 5   0  0.1051123E-06  0.3817186E+04  0.7818609E-02  0.8042477E-01
       -2   -1    0    0    0  501  0.00000000000E+00  0.00000000000E+00  0.23824832324E+04  0.23824832324E+04  0.25500000920E-02 0. -1.
        2   -1    0    0  501    0  0.00000000000E+00  0.00000000000E+00 -0.15289623960E+04  0.15289623960E+04  0.25500000920E-02 0.  1.
    10030    2    1    2    0    0  0.00000000000E+00  0.00000000000E+00  0.85352083638E+03  0.39114456284E+04  0.38171860166E+04 0.  0.
        2    1    3    3  502    0  0.59733510363E+03 -0.54073909263E+03  0.21996635335E+04  0.23425899456E+04  0.25500000920E-02 0. -1.
       -2    1    3    3    0  502 -0.59733510363E+03  0.54073909263E+03 -0.13461426972E+04  0.15688556828E+04  0.25500000920E-02 0.  1.
</event>
<event>
 5   0  0.1066907E-06  0.3660288E+04  0.7818609E-02  0.8076820E-01
        2   -1    0    0  501    0  0.00000000000E+00  0.00000000000E+00  0.11203786655E+04  0.11203786655E+04  0.25500000920E-02 0.  1.
       -2   -1    0    0    0  501  0.00000000000E+00  0.00000000000E+00 -0.29895488781E+04  0.29895488781E+04  0.25500000920E-02 0. -1.
    10030    2    1    2    0    0  0.00000000000E+00  0.00000000000E+00 -0.18691702125E+04  0.41099275436E+04  0.36602878480E+04 0.  0.
        4    1    3    3  502    0  0.22609653480E+03  0.29017248306E+03  0.10784390505E+04  0.11394525490E+04  0.12699999809E+01 0.  1.
       -4    1    3    3    0  502 -0.22609653480E+03 -0.29017248306E+03 -0.29476092630E+04  0.29704749946E+04  0.12699999809E+01 0. -1.
</event>
<event>
 5   0  0.1128530E-06  0.4579159E+04  0.7818609E-02  0.7896923E-01
        2   -1    0    0  501    0  0.00000000000E+00  0.00000000000E+00  0.19839678622E+04  0.19839678622E+04  0.25500000920E-02 0.  1.
       -2   -1    0    0    0  501  0.00000000000E+00  0.00000000000E+00 -0.26422679145E+04  0.26422679145E+04  0.25500000920E-02 0. -1.
    10030    2    1    2    0    0  0.00000000000E+00  0.00000000000E+00 -0.65830005232E+03  0.46262357767E+04  0.45791591480E+04 0.  0.
        5    1    3    3  502    0 -0.22637923769E+04 -0.10883189377E+03 -0.65737810360E+03  0.23598238002E+04  0.46999998093E+01 0. -1.
       -5    1    3    3    0  502  0.22637923769E+04  0.10883189377E+03 -0.92194872208E+00  0.22664119765E+04  0.46999998093E+01 0.  1.
</event>
<event>
 5   0  0.3682276E-07  0.3751186E+04  0.7818609E-02  0.8056712E-01
       -1   -1    0    0    0  501  0.00000000000E+00  0.00000000000E+00  0.16282018441E+04  0.16282018441E+04  0.50400001928E-02 0.  1.
        1   -1    0    0  501    0  0.00000000000E+00  0.00000000000E+00 -0.21605731193E+04  0.21605731193E+04  0.50400001928E-02 0. -1.
    10030    2    1    2    0    0  0.00000000000E+00  0.00000000000E+00 -0.53237127522E+03  0.37887749634E+04  0.37511860190E+04 0.  0.
        1    1    3    3  502    0  0.10975662465E+04 -0.15197165075E+04 -0.20508808992E+03  0.18858024959E+04  0.50400001928E-02 0.  1.
       -1    1    3    3    0  502 -0.10975662465E+04  0.15197165075E+04 -0.32728318529E+03  0.19029724675E+04  0.50400001928E-02 0. -1.
</event>
<event>
 5   0  0.3764495E-07  0.2940336E+04  0.7818609E-02  0.8260977E-01
       -1   -1    0    0    0  501  0.00000000000E+00  0.00000000000E+00  0.26335615412E+04  0.26335615412E+04  0.50400001928E-02 0. -1.
        1   -1    0    0  501    0  0.00000000000E+00  0.00000000000E+00 -0.82071117847E+03  0.82071117848E+03  0.50400001928E-02 0.  1.
    10030    2    1    2    0    0  0.00000000000E+00  0.00000000000E+00  0.18128503627E+04  0.34542727197E+04  0.29403356244E+04 0.  0.
        4    1    3    3  502    0  0.14256703156E+03  0.10539199223E+04 -0.28603975600E+03  0.11013141768E+04  0.12699999809E+01 0.  1.
       -4    1    3    3    0  502 -0.14256703156E+03 -0.10539199223E+04  0.20988901187E+04  0.23529585429E+04  0.12699999809E+01 0. -1.
</event>
<event>
 5   0  0.1051123E-06  0.3677866E+04  0.7818609E-02  0.8072885E-01
       -2   -1    0    0    0  501  0.00000000000E+00  0.00000000000E+00  0.12781356412E+04  0.12781356412E+04  0.25500000920E-02 0.  1.
        2   -1    0    0  501    0  0.00000000000E+00  0.00000000000E+00 -0.26457866015E+04  0.26457866015E+04  0.25500000920E-02 0. -1.
    10030    2    1    2    0    0  0.00000000000E+00  0.00000000000E+00 -0.13676509603E+04  0.39239222426E+04  0.36778657693E+04 0.  0.
        2    1    3    3  502    0 -0.24656460388E+03  0.53829538002E+03  0.11736622315E+04  0.13145489925E+04  0.25500000920E-02 0.  1.
       -2    1    3    3    0  502  0.24656460388E+03 -0.53829538002E+03 -0.25413131918E+04  0.26093732502E+04  0.25500000920E-02 0. -1.
</event>
<event>
 5   0  0.1092116E-06  0.3681361E+04  0.7818609E-02  0.8072105E-01
        2   -1    0    0  501    0  0.00000000000E+00  0.00000000000E+00  0.22152650675E+04  0.22152650675E+04  0.25500000920E-02 0. -1.
       -2   -1    0    0    0  501  0.00000000000E+00  0.00000000000E+00 -0.15294352553E+04  0.15294352553E+04  0.25500000920E-02 0.  1.
    10030    2    1    2    0    0  0.00000000000E+00  0.00000000000E+00  0.68582981216E+03  0.37447003228E+04  0.36813608864E+04 0.  0.
        1    1    3    3  502    0 -0.29891577223E+03  0.13772011871E+04 -0.86154857881E+03  0.16517565506E+04  0.50400001928E-02 0.  1.
       -1    1    3    3    0  502  0.29891577223E+03 -0.13772011871E+04  0.15473783910E+04  0.20929437722E+04  0.50400001928E-02 0. -1.
</event>
<event>
 5   0  0.1066907E-06  0.3759054E+04  0.7818609E-02  0.8054999E-01
        2   -1    0    0  501    0  0.00000000000E+00  0.00000000000E+00  0.27128394951E+04  0.27128394951E+04  0.25500000920E-02 0.  1.
       -2   -1    0    0    0  501  0.00000000000E+00  0.00000000000E+00 -0.13021862681E+04  0.13021862681E+04  0.25500000920E-02 0. -1.
    10030    2    1    2    0    0  0.00000000000E+00  0.00000000000E+00  0.14106532270E+04  0.40150257632E+04  0.37590543162E+04 0.  0.
        4    1    3    3  502    0 -0.15070051956E+04  0.11177589686E+04  0.82316099835E+03  0.20489132275E+04  0.12699999809E+01 0.  1.
       -4    1    3    3    0  502  0.15070051956E+04 -0.11177589686E+04  0.58749222868E+03  0.19661125357E+04  0.12699999809E+01 0. -1.
</event>
<event>
 5   0  0.3848431E-07  0.3569540E+04  0.7818609E-02  0.8097505E-01
        1   -1    0    0  501    0  0.00000000000E+00  0.00000000000E+00  0.14353007845E+04  0.14353007845E+04  0.50400001928E-02 0. -1.
       -1   -1    0    0    0  501  0.00000000000E+00  0.00000000000E+00 -0.22193290540E+04  0.22193290540E+04  0.50400001928E-02 0.  1.
    10030    2    1    2    0    0  0.00000000000E+00  0.00000000000E+00 -0.78402826950E+03  0.36546298386E+04  0.35695404368E+04 0.  0.
        2    1    3    3  502    0  0.83480733245E+03  0.42807809392E+03 -0.19465121113E+04  0.21608015957E+04  0.25500000920E-02 0.  1.
       -2    1    3    3    0  502 -0.83480733245E+03 -0.42807809392E+03  0.11624838418E+04  0.14938282429E+04  0.25500000920E-02 0. -1.
</event>
<event>
 5   0  0.1128530E-06  0.2785173E+04  0.7818609E-02  0.8307886E-01
       -2   -1    0    0    0  501  0.00000000000E+00  0.00000000000E+00  0.99086013835E+03  0.99086013835E+03  0.25500000920E-02 0. -1.
        2   -1    0    0  501    0  0.00000000000E+00  0.00000000000E+00 -0.19571859585E+04  0.19571859585E+04  0.25500000920E-02 0.  1.
    10030    2    1    2    0    0  0.00000000000E+00  0.00000000000E+00 -0.96632582019E+03  0.29480460969E+04  0.27851732798E+04 0.  0.
        5    1    3    3  502    0 -0.51974777851E+03  0.58453419654E+01  0.88432560926E+03  0.10257805781E+04  0.46999998093E+01 0. -1.
       -5    1    3    3    0  502  0.51974777851E+03 -0.58453419654E+01 -0.18506514294E+04  0.19222655188E+04  0.46999998093E+01 0.  1.
</event>
<event>
 5   0  0.3764495E-07  0.3658825E+04  0.7818609E-02  0.8077148E-01
        1   -1    0    0  501    0  0.00000000000E+00  0.00000000000E+00  0.20994981516E+04  0.20994981516E+04  0.50400001928E-02 0.  1.
       -1   -1    0    0    0  501  0.00000000000E+00  0.00000000000E+00 -0.15940714243E+04  0.15940714243E+04  0.50400001928E-02 0. -1.
    10030    2    1    2    0    0  0.00000000000E+00  0.00000000000E+00  0.50542672734E+03  0.36935695759E+04  0.36588249528E+04 0.  0.
        4    1    3    3  502    0  0.93349658611E+03 -0.10491487594E+04 -0.93086191760E+03  0.16848247738E+04  0.12699999809E+01 0. -1.
       -4    1    3    3    0  502 -0.93349658611E+03  0.10491487594E+04  0.14362886449E+04  0.20087448022E+04  0.12699999809E+01 0.  1.
</event>
<event>
 5   0  0.3682276E-07  0.3652647E+04  0.7818609E-02  0.8078538E-01
       -1   -1    0    0    0  501  0.00000000000E+00  0.00000000000E+00  0.15243373255E+04  0.15243373255E+04  0.50400001928E-02 0.  1.
        1   -1    0    0  501    0  0.00000000000E+00  0.00000000000E+00 -0.21881362097E+04  0.21881362097E+04  0.50400001928E-02 0. -1.
    10030    2    1    2    0    0  0.00000000000E+00  0.00000000000E+00 -0.66379888416E+03  0.37124735352E+04  0.36526470937E+04 0.  0.
        1    1    3    3  502    0  0.17071647541E+04  0.64757220543E+03 -0.29003697858E+03  0.18487516620E+04  0.50400001928E-02 0. -1.
       -1    1    3    3    0  502 -0.17071647541E+04 -0.64757220543E+03 -0.37376190558E+03  0.18637218732E+04  0.50400001928E-02 0.  1.
</event>
<event>
 5   0  0.3682276E-07  0.3857007E+04  0.7818609E-02  0.8034031E-01
        1   -1    0    0  501    0  0.00000000000E+00  0.00000000000E+00  0.22137683522E+04  0.22137683522E+04  0.50400001928E-02 0. -1.
       -1   -1    0    0    0  501  0.00000000000E+00  0.00000000000E+00 -0.16799974743E+04  0.16799974743E+04  0.50400001928E-02 0.  1.
    10030    2    1    2    0    0  0.00000000000E+00  0.00000000000E+00  0.53377087786E+03  0.38937658265E+04  0.38570067360E+04 0.  0.
        1    1    3    3  502    0  0.68958631532E+03  0.15947860443E+04 -0.57790123278E+03  0.18310766364E+04  0.50400001928E-02 0.  1.
       -1    1    3    3    0  502 -0.68958631532E+03 -0.15947860443E+04  0.11116721106E+04  0.20626891901E+04  0.50400001928E-02 0. -1.
</event>
<event>
 5   0  0.3848431E-07  0.3632187E+04  0.7818609E-02  0.8083158E-01
       -1   -1    0    0    0  501  0.00000000000E+00  0.00000000000E+00  0.15114105799E+04  0.15114105799E+04  0.50400001928E-02 0. -1.
        1   -1    0    0  501    0  0.00000000000E+00  0.00000000000E+00 -0.21821971476E+04  0.21821971476E+04  0.50400001928E-02 0.  1.
    10030    2    1    2    0    0  0.00000000000E+00  0.00000000000E+00 -0.67078656768E+03  0.36936077275E+04  0.36321871408E+04 0.  0.
        2    1    3    3  502    0 -0.10391672957E+04  0.24345294494E+03 -0.18296137936E+04  0.21181653946E+04  0.25500000920E-02 0.  1.
       -2    1    3    3    0  502  0.10391672957E+04 -0.24345294494E+03  0.11588272259E+04  0.15754423330E+04  0.25500000920E-02 0. -1.
</event>
<event>
 5   0  0.3704306E-07  0.3642652E+04  0.7818609E-02  0.8080791E-01
       -1   -1    0    0    0  501  0.00000000000E+00  0.00000000000E+00  0.18363907851E+04  0.18363907851E+04  0.50400001928E-02 0.  1.
        1   -1    0    0  501    0  0.00000000000E+00  0.00000000000E+00 -0.18063847776E+04  0.18063847776E+04  0.50400001928E-02 0. -1.
    10030    2    1    2    0    0  0.00000000000E+00  0.00000000000E+00  0.30006007531E+02  0.36427755627E+04  0.36426519790E+04 0.  0.
        3    1    3    3  502    0  0.90860499087E+03  0.15586375778E+04 -0.23463363179E+03  0.18193314925E+04  0.10100000352E+00 0. -1.
       -3    1    3    3    0  502 -0.90860499087E+03 -0.15586375778E+04  0.26463963933E+03  0.18234440702E+04  0.10100000352E+00 0.  1.
</event>
<event>
 5   0  0.1092116E-06  0.3635354E+04  0.7818609E-02  0.8082441E-01
        2   -1    0    0  501    0  0.00000000000E+00  0.00000000000E+00  0.24627867940E+04  0.24627867940E+04  0.25500000920E-02 0.  1.
       -2   -1    0    0    0  501  0.00000000000E+00  0.00000000000E+00 -0.13415494683E+04  0.13415494683E+04  0.25500000920E-02 0. -1.
    10030    2    1    2    0    0  0.00000000000E+00  0.00000000000E+00  0.11212373258E+04  0.38043362623E+04  0.36353543508E+04 0.  0.
        1    1    3    3  502    0  0.12072689539E+04 -0.13576697661E+04  0.61967585122E+03  0.19195738281E+04  0.50400001928E-02 0.  1.
       -1    1    3    3    0  502 -0.12072689539E+04  0.13576697661E+04  0.50156147456E+03  0.18847624342E+04  0.50400001928E-02 0. -1.
</event>
<event>
 5   0  0.3704306E-07  0.3229238E+04  0.7818609E-02  0.8181138E-01
       -1   -1    0    0    0  501  0.00000000000E+00  0.00000000000E+00  0.20000666897E+04  0.20000666898E+04  0.50400001928E-02 0. -1.
        1   -1    0    0  501    0  0.00000000000E+00  0.00000000000E+00 -0.13034535075E+04  0.13034535075E+04  0.50400001928E-02 0.  1.
    10030    2    1    2    0    0  0.00000000000E+00  0.00000000000E+00  0.69661318229E+03  0.33035201972E+04  0.32292376450E+04 0.  0.
        3    1    3    3  502    0 -0.88238669549E+03 -0.26262871756E+02  0.17313288430E+04  0.19433979499E+04  0.10100000352E+00 0. -1.
       -3    1    3    3    0  502  0.88238669549E+03  0.26262871756E+02 -0.10347156607E+04  0.13601222473E+04  0.10100000352E+00 0.  1.
</event>
<event>
 5   0  0.1066907E-06  0.2890872E+04  0.7818609E-02  0.8275598E-01
        2   -1    0    0  501    0  0.00000000000E+00  0.00000000000E+00  0.98821268191E+03  0.98821268192E+03  0.25500000920E-02 0. -1.
       -2   -1    0    0    0  501  0.00000000000E+00  0.00000000000E+00 -0.21142062090E+04  0.21142062090E+04  0.25500000920E-02 0.  1.
    10030    2    1    2    0    0  0.00000000000E+00  0.00000000000E+00 -0.11259935271E+04  0.31024188909E+04  0.28908721092E+04 0.  0.
        4    1    3    3  502    0  0.10850144007E+04 -0.17797972254E+02 -0.15877046924E+04  0.19231174745E+04  0.12699999809E+01 0. -1.
       -4    1    3    3    0  502 -0.10850144007E+04  0.17797972254E+02  0.46171116532E+03  0.11793014164E+04  0.12699999809E+01 0.  1.
</event>
<event>
 5   0  0.1128166E-06  0.2869258E+04  0.7818609E-02  0.8282083E-01
       -2   -1    0    0    0  501  0.00000000000E+00  0.00000000000E+00  0.12484712685E+04  0.12484712685E+04  0.25500000920E-02 0.  1.
        2   -1    0    0  501    0  0.00000000000E+00  0.00000000000E+00 -0.16485442169E+04  0.16485442169E+04  0.25500000920E-02 0. -1.
    10030    2    1    2    0    0  0.00000000000E+00  0.00000000000E+00 -0.40007294836E+03  0.28970154854E+04  0.28692578063E+04 0.  0.
        3    1    3    3  502    0  0.89364746248E+03 -0.11180545239E+04 -0.29849070156E+03  0.14621041053E+04  0.10100000352E+00 0.  1.
       -3    1    3    3    0  502 -0.89364746248E+03  0.11180545239E+04 -0.10158224680E+03  0.14349113801E+04  0.10100000352E+00 0. -1.
</event>
<event>
 5   0  0.1051123E-06  0.3860353E+04  0.7818609E-02  0.8033326E-01
       -2   -1    0    0    0  501  0.00000000000E+00  0.00000000000E+00  0.17906547925E+04  0.17906547925E+04  0.25500000920E-02 0. -1.
        2   -1    0    0  501    0  0.00000000000E+00  0.00000000000E+00 -0.20805694656E+04  0.20805694656E+04  0.25500000920E-02 0.  1.
    10030    2    1    2    0    0  0.00000000000E+00  0.00000000000E+00 -0.28991467315E+03  0.38712242581E+04  0.38603531884E+04 0.  0.
        2    1    3    3  502    0 -0.43380210203E+03  0.11267903816E+04 -0.16551000873E+04  0.20487062080E+04  0.25500000920E-02 0.  1.
       -2    1    3    3    0  502  0.43380210203E+03 -0.11267903816E+04  0.13651854142E+04  0.18225180501E+04  0.25500000920E-02 0. -1.
</event>
<event>
 5   0  0.3675819E-07  0.3429689E+04  0.7818609E-02  0.8130658E-01
       -1   -1    0    0    0  501  0.00000000000E+00  0.00000000000E+00  0.23927676516E+04  0.23927676516E+04  0.50400001928E-02 0.  1.
        1   -1    0    0  501    0  0.00000000000E+00  0.00000000000E+00 -0.12289917977E+04  0.12289917977E+04  0.50400001928E-02 0. -1.
    10030    2    1    2    0    0  0.00000000000E+00  0.00000000000E+00  0.11637758539E+04  0.36217594494E+04  0.34296890925E+04 0.  0.
        5    1    3    3  502    0  0.31949766659E+02 -0.74455893250E+03 -0.10490394325E+04  0.12868156870E+04  0.46999998093E+01 0. -1.
       -5    1    3    3    0  502 -0.31949766659E+02  0.74455893250E+03  0.22128152864E+04  0.23349437623E+04  0.46999998093E+01 0.  1.
</event>
<event>
 5   0  0.3682276E-07  0.3634360E+04  0.7818609E-02  0.8082666E-01
        1   -1    0    0  501    0  0.00000000000E+00  0.00000000000E+00  0.22195970269E+04  0.22195970269E+04  0.50400001928E-02 0. -1.
       -1   -1    0    0    0  501  0.00000000000E+00  0.00000000000E+00 -0.14877222339E+04  0.14877222339E+04  0.50400001928E-02 0.  1.
    10030    2    1    2    0    0  0.00000000000E+00  0.00000000000E+00  0.73187479304E+03  0.37073192608E+04  0.36343603823E+04 0.  0.
        1    1    3    3  502    0 -0.10857701055E+04 -0.12093257481E+04  0.11951385619E+04  0.20173551172E+04  0.50400001928E-02 0. -1.
       -1    1    3    3    0  502  0.10857701055E+04  0.12093257481E+04 -0.46326376883E+03  0.16899641435E+04  0.50400001928E-02 0.  1.
</event>
<event>
 5   0  0.1066907E-06  0.3726143E+04  0.7818609E-02  0.8062193E-01
        2   -1    0    0  501    0  0.00000000000E+00  0.00000000000E+00  0.16380678284E+04  0.16380678284E+04  0.25500000920E-02 0.  1.
       -2   -1    0    0    0  501  0.00000000000E+00  0.00000000000E+00 -0.21189809550E+04  0.21189809550E+04  0.25500000920E-02 0. -1.
    10030    2    1    2    0    0  0.00000000000E+00  0.00000000000E+00 -0.48091312657E+03  0.37570487834E+04  0.37261425262E+04 0.  0.
        4    1    3    3  502    0 -0.15069666454E+04  0.88395011680E+03 -0.89290693231E+03  0.19620399287E+04  0.12699999809E+01 0. -1.
       -4    1    3    3    0  502  0.15069666454E+04 -0.88395011680E+03  0.41199380574E+03  0.17950088546E+04  0.12699999809E+01 0.  1.
</event>
<event>
 5   0  0.1066907E-06  0.3704120E+04  0.7818609E-02  0.8067049E-01
        2   -1    0    0  501    0  0.00000000000E+00  0.00000000000E+00  0.16410652614E+04  0.16410652614E+04  0.25500000920E-02 0. -1.
       -2   -1    0    0    0  501  0.00000000000E+00  0.00000000000E+00 -0.20901826696E+04  0.20901826696E+04  0.25500000920E-02 0.  1.
    10030    2    1    2    0    0  0.00000000000E+00  0.00000000000E+00 -0.44911740827E+03  0.37312479310E+04  0.37041199598E+04 0.  0.
        4    1    3    3  502    0  0.16543495191E+04  0.10616605213E+03 -0.10564282021E+04  0.19657532198E+04  0.12699999809E+01 0. -1.
       -4    1    3    3    0  502 -0.16543495191E+04 -0.10616605213E+03  0.60731079386E+03  0.17654947112E+04  0.12699999809E+01 0.  1.
</event>
<event>
 5   0  0.1128530E-06  0.3679991E+04  0.7818609E-02  0.8072410E-01
       -2   -1    0    0    0  501  0.00000000000E+00  0.00000000000E+00  0.14088301392E+04  0.14088301392E+04  0.25500000920E-02 0. -1.
        2   -1    0    0  501    0  0.00000000000E+00  0.00000000000E+00 -0.24031174477E+04  0.24031174477E+04  0.25500000920E-02 0.  1.
    10030    2    1    2    0    0  0.00000000000E+00  0.00000000000E+00 -0.99428730846E+03  0.38119475869E+04  0.36799914610E+04 0.  0.
        5    1    3    3  502    0 -0.71974512969E+03 -0.13229383909E+04  0.59781389931E+03  0.16203711260E+04  0.46999998093E+01 0.  1.
       -5    1    3    3    0  502  0.71974512969E+03  0.13229383909E+04 -0.15921012078E+04  0.21915764608E+04  0.46999998093E+01 0. -1.
</event>
<event>
 5   0  0.1128166E-06  0.3282945E+04  0.7818609E-02  0.8167249E-01
        2   -1    0    0  501    0  0.00000000000E+00  0.00000000000E+00  0.17168409911E+04  0.17168409911E+04  0.25500000920E-02 0.  1.
       -2   -1    0    0    0  501  0.00000000000E+00  0.00000000000E+00 -0.15694131233E+04  0.15694131233E+04  0.25500000920E-02 0. -1.
    10030    2    1    2    0    0  0.00000000000E+00  0.00000000000E+00  0.14742786776E+03  0.32862541144E+04  0.32829454958E+04 0.  0.
        3    1    3    3  502    0 -0.19432885966E+02 -0.97952268483E+03  0.13920797848E+04  0.17022715602E+04  0.10100000352E+00 0.  1.
       -3    1    3    3    0  502  0.19432885966E+02  0.97952268483E+03 -0.12446519171E+04  0.15839825542E+04  0.10100000352E+00 0. -1.
</event>
<event>
 5   0  0.1066907E-06  0.3676591E+04  0.7818609E-02  0.8073169E-01
        2   -1    0    0  501    0  0.00000000000E+00  0.00000000000E+00  0.17465485334E+04  0.17465485334E+04  0.25500000920E-02 0. -1.
       -2   -1    0    0    0  501  0.00000000000E+00  0.00000000000E+00 -0.19348620587E+04  0.19348620587E+04  0.25500000920E-02 0.  1.
    10030    2    1    2    0    0  0.00000000000E+00  0.00000000000E+00 -0.18831352531E+03  0.36814105922E+04  0.36765910793E+04 0.  0.
        4    1    3    3  502    0  0.10104851995E+04  0.71414521645E+03 -0.14554406873E+04  0.19103384349E+04  0.12699999809E+01 0.  1.
       -4    1    3    3    0  502 -0.10104851995E+04 -0.71414521645E+03  0.12671271620E+04  0.17710721573E+04  0.12699999809E+01 0. -1.
</event>
<event>
 5   0  0.3675819E-07  0.3569503E+04  0.7818609E-02  0.8097513E-01
       -1   -1    0    0    0  501  0.00000000000E+00  0.00000000000E+00  0.17383909937E+04  0.17383909937E+04  0.50400001928E-02 0. -1.
        1   -1    0    0  501    0  0.00000000000E+00  0.00000000000E+00 -0.18323486059E+04  0.18323486059E+04  0.50400001928E-02 0.  1.
    10030    2    1    2    0    0  0.00000000000E+00  0.00000000000E+00 -0.93957612285E+02  0.35707395996E+04  0.35695032225E+04 0.  0.
        5    1    3    3  502    0  0.14828534873E+03 -0.31665784028E+03 -0.17977437173E+04  0.18314380403E+04  0.46999998093E+01 0.  1.
       -5    1    3    3    0  502 -0.14828534873E+03  0.31665784028E+03  0.17037861050E+04  0.17393015593E+04  0.46999998093E+01 0. -1.
</event>
<event>
 5   0  0.3848431E-07  0.3683980E+04  0.7818609E-02  0.8071521E-01
        1   -1    0    0  501    0  0.00000000000E+00  0.00000000000E+00  0.27686390282E+04  0.27686390282E+04  0.50400001928E-02 0. -1.
       -1   -1    0    0    0  501  0.00000000000E+00  0.00000000000E+00 -0.12254856756E+04  0.12254856756E+04  0.50400001928E-02 0.  1.
    10030    2    1    2    0    0  0.00000000000E+00  0.00000000000E+00  0.15431533526E+04  0.39941247038E+04  0.36839801682E+04 0.  0.
        2    1    3    3  502    0 -0.16648797737E+04 -0.49216484730E+03  0.10422737154E+03  0.17392280594E+04  0.25500000920E-02 0.  1.
       -2    1    3    3    0  502  0.16648797737E+04  0.49216484730E+03  0.14389259811E+04  0.22548966444E+04  0.25500000920E-02 0. -1.
</event>
<event>
 5   0  0.1066907E-06  0.3416897E+04  0.7818609E-02  0.8133772E-01
       -2   -1    0    0    0  501  0.00000000000E+00  0.00000000000E+00  0.13925183585E+04  0.13925183585E+04  0.25500000920E-02 0.  1.
        2   -1    0    0  501    0  0.00000000000E+00  0.00000000000E+00 -0.20960560874E+04  0.20960560874E+04  0.25500000920E-02 0. -1.
    10030    2    1    2    0    0  0.00000000000E+00  0.00000000000E+00 -0.70353772894E+03  0.34885744460E+04  0.34168971786E+04 0.  0.
        4    1    3    3  502    0  0.33223729545E+03  0.15248435317E+04  0.35798702483E+03  0.16011513793E+04  0.12699999809E+01 0.  1.
       -4    1    3    3    0  502 -0.33223729545E+03 -0.15248435317E+04 -0.10615247538E+04  0.18874230666E+04  0.12699999809E+01 0. -1.
</event>
<event>
 5   0  0.1128166E-06  0.3633444E+04  0.7818609E-02  0.8082874E-01
       -2   -1    0    0    0  501  0.00000000000E+00  0.00000000000E+00  0.15832955615E+04  0.15832955615E+04  0.25500000920E-02 0.  1.
        2   -1    0    0  501    0  0.00000000000E+00  0.00000000000E+00 -0.20845623614E+04  0.20845623614E+04  0.25500000920E-02 0. -1.
    10030    2    1    2    0    0  0.00000000000E+00  0.00000000000E+00 -0.50126679987E+03  0.36678579229E+04  0.36334437298E+04 0.  0.
        3    1    3    3  502    0  0.12734954022E+04  0.28200073364E+03 -0.15271911973E+04  0.20083893837E+04  0.10100000352E+00 0. -1.
       -3    1    3    3    0  502 -0.12734954022E+04 -0.28200073364E+03  0.10259243974E+04  0.16594685392E+04  0.10100000352E+00 0.  1.
</event>
<event>
 5   0  0.1051123E-06  0.3684686E+04  0.7818609E-02  0.8071364E-01
        2   -1    0    0  501    0  0.00000000000E+00  0.00000000000E+00  0.19045218501E+04  0.19045218501E+04  0.25500000920E-02 0. -1.
       -2   -1    0    0    0  501  0.00000000000E+00  0.00000000000E+00 -0.17821937933E+04  0.17821937933E+04  0.25500000920E-02 0.  1.
    10030    2    1    2    0    0  0.00000000000E+00  0.00000000000E+00  0.12232805681E+03  0.36867156434E+04  0.36846856151E+04 0.  0.
        2    1    3    3  502    0  0.45386328836E+03  0.15949375009E+04  0.86435750287E+03  0.18700083981E+04  0.25500000920E-02 0. -1.
       -2    1    3    3    0  502 -0.45386328836E+03 -0.15949375009E+04 -0.74202944605E+03  0.18167072453E+04  0.25500000920E-02 0.  1.
</event>
<event>
 5   0  0.1066907E-06  0.3624548E+04  0.7818609E-02  0.8084892E-01
        2   -1    0    0  501    0  0.00000000000E+00  0.00000000000E+00  0.18946510081E+04  0.18946510081E+04  0.25500000920E-02 0.  1.
       -2   -1    0    0    0  501  0.00000000000E+00  0.00000000000E+00 -0.17334790635E+04  0.17334790635E+04  0.25500000920E-02 0. -1.
    10030    2    1    2    0    0  0.00000000000E+00  0.00000000000E+00  0.16117194465E+03  0.36281300716E+04  0.36245484437E+04 0.  0.
        4    1    3    3  502    0  0.90092430280E+03 -0.10626820262E+04 -0.10796014296E+04  0.17625261836E+04  0.12699999809E+01 0. -1.
       -4    1    3    3    0  502 -0.90092430280E+03  0.10626820262E+04  0.12407733742E+04  0.18656038881E+04  0.12699999809E+01 0.  1.
</event>
<event>
 5   0  0.3682276E-07  0.3523160E+04  0.7818609E-02  0.8108323E-01
       -1   -1    0    0    0  501  0.00000000000E+00  0.00000000000E+00  0.20970991759E+04  0.20970991759E+04  0.50400001928E-02 0.  1.
        1   -1    0    0  501    0  0.00000000000E+00  0.00000000000E+00 -0.14797414198E+04  0.14797414199E+04  0.50400001928E-02 0. -1.
    10030    2    1    2    0    0  0.00000000000E+00  0.00000000000E+00  0.61735775608E+03  0.35768405958E+04  0.35231602360E+04 0.  0.
        1    1    3    3  502    0  0.11837092425E+04 -0.12897426348E+04  0.50804008025E+03  0.18228297666E+04  0.50400001928E-02 0. -1.
       -1    1    3    3    0  502 -0.11837092425E+04  0.12897426348E+04  0.10931767583E+03  0.17540108292E+04  0.50400001928E-02 0.  1.
</event>
<event>
 5   0  0.1051123E-06  0.3782249E+04  0.7818609E-02  0.8049975E-01
        2   -1    0    0  501    0  0.00000000000E+00  0.00000000000E+00  0.23841114917E+04  0.23841114917E+04  0.25500000920E-02 0.  1.
       -2   -1    0    0    0  501  0.00000000000E+00  0.00000000000E+00 -0.15000777027E+04  0.15000777027E+04  0.25500000920E-02 0. -1.
    10030    2    1    2    0    0  0.00000000000E+00  0.00000000000E+00  0.88403378894E+03  0.38841891944E+04  0.37822493252E+04 0.  0.
        2    1    3    3  502    0 -0.85253934929E+02 -0.53980360447E+03  0.23012531462E+04  0.23652530959E+04  0.25500000920E-02 0.  1.
       -2    1    3    3    0  502  0.85253934929E+02  0.53980360447E+03 -0.14172193572E+04  0.15189360985E+04  0.25500000920E-02 0. -1.
</event>
<event>
 5   0  0.3675819E-07  0.3018034E+04  0.7818609E-02  0.8238600E-01
       -1   -1    0    0    0  501  0.00000000000E+00  0.00000000000E+00  0.14729703065E+04  0.14729703065E+04  0.50400001928E-02 0.  1.
        1   -1    0    0  501    0  0.00000000000E+00  0.00000000000E+00 -0.15459457887E+04  0.15459457887E+04  0.50400001928E-02 0. -1.
    10030    2    1    2    0    0  0.00000000000E+00  0.00000000000E+00 -0.72975482206E+02  0.30189160951E+04  0.30180339575E+04 0.  0.
        5    1    3    3  502    0 -0.85205131333E+03  0.71971020826E+03  0.98024229395E+03  0.14848808940E+04  0.46999998093E+01 0.  1.
       -5    1    3    3    0  502  0.85205131333E+03 -0.71971020826E+03 -0.10532177762E+04  0.15340352012E+04  0.46999998093E+01 0. -1.
</event>
<event>
 5   0  0.3704306E-07  0.2638228E+04  0.7818609E-02  0.8355331E-01
        1   -1    0    0  501    0  0.00000000000E+00  0.00000000000E+00  0.13003125939E+04  0.13003125939E+04  0.50400001928E-02 0. -1.
       -1   -1    0    0    0  501  0.00000000000E+00  0.00000000000E+00 -0.13381873820E+04  0.13381873820E+04  0.50400001928E-02 0.  1.
    10030    2    1    2    0    0  0.00000000000E+00  0.00000000000E+00 -0.37874788106E+02  0.26384999760E+04  0.26382281220E+04 0.  0.
        3    1    3    3  502    0  0.84185987400E+03 -0.31457265426E+03 -0.98463406253E+03  0.13331122419E+04  0.10100000352E+00 0.  1.
       -3    1    3    3    0  502 -0.84185987400E+03  0.31457265426E+03  0.94675927442E+03  0.13053877340E+04  0.10100000352E+00 0. -1.
</event>
<event>
 5   0  0.1128530E-06  0.2795202E+04  0.7818609E-02  0.8304759E-01
       -2   -1    0    0    0  501  0.00000000000E+00  0.00000000000E+00  0.18268877154E+04  0.18268877154E+04  0.25500000920E-02 0. -1.
        2   -1    0    0  501    0  0.00000000000E+00  0.00000000000E+00 -0.10691893352E+04  0.10691893352E+04  0.25500000920E-02 0.  1.
    10030    2    1    2    0    0  0.00000000000E+00  0.00000000000E+00  0.75769838019E+03  0.28960770505E+04  0.27952022194E+04 0.  0.
        5    1    3    3  502    0 -0.90021652713E+03 -0.32023860378E+03  0.14356210322E+04  0.17245209182E+04  0.46999998093E+01 0. -1.
       -5    1    3    3    0  502  0.90021652713E+03  0.32023860378E+03 -0.67792265206E+03  0.11715561323E+04  0.46999998093E+01 0.  1.
</event>
<event>
 5   0  0.3675819E-07  0.2621836E+04  0.7818609E-02  0.8360821E-01
        1   -1    0    0  501    0  0.00000000000E+00  0.00000000000E+00  0.19843041114E+04  0.19843041114E+04  0.50400001928E-02 0.  1.
       -1   -1    0    0    0  501  0.00000000000E+00  0.00000000000E+00 -0.86605000677E+03  0.86605000679E+03  0.50400001928E-02 0. -1.
    10030    2    1    2    0    0  0.00000000000E+00  0.00000000000E+00  0.11182541046E+04  0.28503541181E+04  0.26218364473E+04 0.  0.
        5    1    3    3  502    0  0.33795061724E+02 -0.18083539639E+02 -0.86543153363E+03  0.86629264686E+03  0.46999998093E+01 0. -1.
       -5    1    3    3    0  502 -0.33795061724E+02  0.18083539639E+02  0.19836856382E+04  0.19840614713E+04  0.46999998093E+01 0.  1.
</event>
<event>
 5   0  0.1128166E-06  0.3661917E+04  0.7818609E-02  0.8076454E-01
       -2   -1    0    0    0  501  0.00000000000E+00  0.00000000000E+00  0.16701090598E+04  0.16701090598E+04  0.25500000920E-02 0. -1.
        2   -1    0    0  501    0  0.00000000000E+00  0.00000000000E+00 -0.20072991056E+04  0.20072991056E+04  0.25500000920E-02 0.  1.
    10030    2    1    2    0    0  0.00000000000E+00  0.00000000000E+00 -0.33719004577E+03  0.36774081654E+04  0.36619166686E+04 0.  0.
        3    1    3    3  502    0 -0.12604551735E+04 -0.13141774047E+04  0.23522727537E+02  0.18210883626E+04  0.10100000352E+00 0. -1.
       -3    1    3    3    0  502  0.12604551735E+04  0.13141774047E+04 -0.36071277331E+03  0.18563198028E+04  0.10100000352E+00 0.  1.
</event>
<event>
 5   0  0.3682276E-07  0.3663843E+04  0.7818609E-02  0.8076022E-01
        1   -1    0    0  501    0  0.00000000000E+00  0.00000000000E+00  0.20065742133E+04  0.20065742133E+04  0.50400001928E-02 0. -1.
       -1   -1    0    0    0  501  0.00000000000E+00  0.00000000000E+00 -0.16724703903E+04  0.16724703903E+04  0.50400001928E-02 0.  1.
    10030    2    1    2    0    0  0.00000000000E+00  0.00000000000E+00  0.33410382301E+03  0.36790446036E+04  0.36638427683E+04 0.  0.
        1    1    3    3  502    0  0.81622981019E+03  0.15825357790E+04  0.59928576755E+03  0.18787746076E+04  0.50400001928E-02 0. -1.
       -1    1    3    3    0  502 -0.81622981019E+03 -0.15825357790E+04 -0.26518194454E+03  0.18002699960E+04  0.50400001928E-02 0.  1.
</event>
<event>
 5   0  0.3675819E-07  0.3705139E+04  0.7818609E-02  0.8066824E-01
        1   -1    0    0  501    0  0.00000000000E+00  0.00000000000E+00  0.23392053858E+04  0.23392053858E+04  0.50400001928E-02 0. -1.
       -1   -1    0    0    0  501  0.00000000000E+00  0.00000000000E+00 -0.14671708857E+04  0.14671708858E+04  0.50400001928E-02 0.  1.
    10030    2    1    2    0    0  0.00000000000E+00  0.00000000000E+00  0.87203450004E+03  0.38063762715E+04  0.37051391541E+04 0.  0.
        5    1    3    3  502    0  0.17963235090E+04  0.44317167849E+03  0.33957646075E+03  0.18810937107E+04  0.46999998093E+01 0.  1.
       -5    1    3    3    0  502 -0.17963235090E+04 -0.44317167849E+03  0.53245803929E+03  0.19252825609E+04  0.46999998093E+01 0. -1.
</event>
<event>
 5   0  0.1128166E-06  0.2470720E+04  0.7818609E-02  0.8413491E-01
       -2   -1    0    0    0  501  0.00000000000E+00  0.00000000000E+00  0.96672747147E+03  0.96672747148E+03  0.25500000920E-02 0. -1.
        2   -1    0    0  501    0  0.00000000000E+00  0.00000000000E+00 -0.15786401615E+04  0.15786401615E+04  0.25500000920E-02 0.  1.
    10030    2    1    2    0    0  0.00000000000E+00  0.00000000000E+00 -0.61191269001E+03  0.25453676330E+04  0.24707203902E+04 0.  0.
        3    1    3    3  502    0  0.59059487572E+03  0.63669291860E+02  0.80993989041E+03  0.10044195947E+04  0.10100000352E+00 0. -1.
       -3    1    3    3    0  502 -0.59059487572E+03 -0.63669291860E+02 -0.14218525804E+04  0.15409480383E+04  0.10100000352E+00 0.  1.
</event>
<event>
 5   0  0.1128530E-06  0.2625548E+04  0.7818609E-02  0.8359574E-01
       -2   -1    0    0    0  501  0.00000000000E+00  0.00000000000E+00  0.80993851278E+03  0.80993851279E+03  0.25500000920E-02 0. -1.
        2   -1    0    0  501    0  0.00000000000E+00  0.00000000000E+00 -0.21277861197E+04  0.21277861197E+04  0.25500000920E-02 0.  1.
    10030    2    1    2    0    0  0.00000000000E+00  0.00000000000E+00 -0.13178476069E+04  0.29377246325E+04  0.26255482668E+04 0.  0.
        5    1    3    3  502    0 -0.12687669410E+04 -0.18383498486E+03 -0.97497871466E+03  0.16106428643E+04  0.46999998093E+01 0. -1.
       -5    1    3    3    0  502  0.12687669410E+04  0.18383498486E+03 -0.34286889223E+03  0.13270817682E+04  0.46999998093E+01 0.  1.
</event>
<event>
 5   0  0.1128530E-06  0.3082329E+04  0.7818609E-02  0.8220604E-01
        2   -1    0    0  501    0  0.00000000000E+00  0.00000000000E+00  0.19392804090E+04  0.19392804090E+04  0.25500000920E-02 0. -1.
       -2   -1    0    0    0  501  0.00000000000E+00  0.00000000000E+00 -0.12247782465E+04  0.12247782466E+04  0.25500000920E-02 0.  1.
    10030    2    1    2    0    0  0.00000000000E+00  0.00000000000E+00  0.71450216243E+03  0.31640586555E+04  0.30823292873E+04 0.  0.
        5    1    3    3  502    0 -0.18279600047E+03  0.80998125478E+03  0.16900154206E+04  0.18829918276E+04  0.46999998093E+01 0. -1.
       -5    1    3    3    0  502  0.18279600047E+03 -0.80998125478E+03 -0.97551325815E+03  0.12810668280E+04  0.46999998093E+01 0.  1.
</event>
<event>
 5   0  0.3764495E-07  0.3261757E+04  0.7818609E-02  0.8172695E-01
       -1   -1    0    0    0  501  0.00000000000E+00  0.00000000000E+00  0.11716579604E+04  0.11716579604E+04  0.50400001928E-02 0.  1.
        1   -1    0    0  501    0  0.00000000000E+00  0.00000000000E+00 -0.22700867465E+04  0.22700867465E+04  0.50400001928E-02 0. -1.
    10030    2    1    2    0    0  0.00000000000E+00  0.00000000000E+00 -0.10984287862E+04  0.34417447069E+04  0.32617573223E+04 0.  0.
        4    1    3    3  502    0 -0.32186825942E+03  0.23642086744E+03 -0.22176921707E+04  0.22533650791E+04  0.12699999809E+01 0. -1.
       -4    1    3    3    0  502  0.32186825942E+03 -0.23642086744E+03  0.11192633845E+04  0.11883796278E+04  0.12699999809E+01 0.  1.
</event>
<event>
 5   0  0.3764495E-07  0.3675061E+04  0.7818609E-02  0.8073511E-01
        1   -1    0    0  501    0  0.00000000000E+00  0.00000000000E+00  0.20975848672E+04  0.20975848672E+04  0.50400001928E-02 0. -1.
       -1   -1    0    0    0  501  0.00000000000E+00  0.00000000000E+00 -0.16097174405E+04  0.16097174405E+04  0.50400001928E-02 0.  1.
    10030    2    1    2    0    0  0.00000000000E+00  0.00000000000E+00  0.48786742670E+03  0.37073023077E+04  0.36750613294E+04 0.  0.
        4    1    3    3  502    0  0.44510907992E+03 -0.13009031893E+04  0.14736631131E+04  0.20154790459E+04  0.12699999809E+01 0. -1.
       -4    1    3    3    0  502 -0.44510907992E+03  0.13009031893E+04 -0.98579568637E+03  0.16918232618E+04  0.12699999809E+01 0.  1.
</event>
<event>
 5   0  0.3704306E-07  0.3430194E+04  0.7818609E-02  0.8130535E-01
       -1   -1    0    0    0  501  0.00000000000E+00  0.00000000000E+00  0.12855054274E+04  0.12855054274E+04  0.50400001928E-02 0.  1.
        1   -1    0    0  501    0  0.00000000000E+00  0.00000000000E+00 -0.22882497716E+04  0.22882497716E+04  0.50400001928E-02 0. -1.
    10030    2    1    2    0    0  0.00000000000E+00  0.00000000000E+00 -0.10027443442E+04  0.35737551990E+04  0.34301938725E+04 0.  0.
        3    1    3    3  502    0  0.84851892120E+03  0.63128117988E+03 -0.19080876998E+04  0.21815817582E+04  0.10100000352E+00 0. -1.
       -3    1    3    3    0  502 -0.84851892120E+03 -0.63128117988E+03  0.90534335551E+03  0.13921734408E+04  0.10100000352E+00 0.  1.
</event>
<event>
 5   0  0.3682276E-07  0.3027848E+04  0.7818609E-02  0.8235823E-01
       -1   -1    0    0    0  501  0.00000000000E+00  0.00000000000E+00  0.93191792142E+03  0.93191792143E+03  0.50400001928E-02 0. -1.
        1   -1    0    0  501    0  0.00000000000E+00  0.00000000000E+00 -0.24594068798E+04  0.24594068798E+04  0.50400001928E-02 0.  1.
    10030    2    1    2    0    0  0.00000000000E+00  0.00000000000E+00 -0.15274889584E+04  0.33913248013E+04  0.30278476497E+04 0.  0.
        1    1    3    3  502    0 -0.35655445580E+03 -0.96452693702E+03 -0.20082155154E+04  0.22561854641E+04  0.50400001928E-02 0.  1.
       -1    1    3    3    0  502  0.35655445580E+03  0.96452693702E+03  0.48072655696E+03  0.11351393372E+04  0.50400001928E-02 0. -1.
</event>
<event>
 5   0  0.1128166E-06  0.3720712E+04  0.7818609E-02  0.8063387E-01
       -2   -1    0    0    0  501  0.00000000000E+00  0.00000000000E+00  0.13815458555E+04  0.13815458555E+04  0.25500000920E-02 0.  1.
        2   -1    0    0  501    0  0.00000000000E+00  0.00000000000E+00 -0.25051095357E+04  0.25051095357E+04  0.25500000920E-02 0. -1.
    10030    2    1    2    0    0  0.00000000000E+00  0.00000000000E+00 -0.11235636802E+04  0.38866553912E+04  0.37207115968E+04 0.  0.
        3    1    3    3  502    0  0.15528340123E+04  0.67401779017E+03 -0.13677706232E+04  0.21763248698E+04  0.10100000352E+00 0.  1.
       -3    1    3    3    0  502 -0.15528340123E+04 -0.67401779017E+03  0.24420694295E+03  0.17103305214E+04  0.10100000352E+00 0. -1.
</event>
<event>
 5   0  0.1128530E-06  0.3261573E+04  0.7818609E-02  0.8172742E-01
       -2   -1    0    0    0  501  0.00000000000E+00  0.00000000000E+00  0.21914779482E+04  0.21914779482E+04  0.25500000920E-02 0. -1.
        2   -1    0    0  501    0  0.00000000000E+00  0.00000000000E+00 -0.12135485969E+04  0.12135485969E+04  0.25500000920E-02 0.  1.
    10030    2    1    2    0    0  0.00000000000E+00  0.00000000000E+00  0.97792935128E+03  0.34050265451E+04  0.32615732334E+04 0.  0.
        5    1    3    3  502    0  0.17466827792E+03  0.16115969925E+04  0.30312098975E+03  0.16491386534E+04  0.46999998093E+01 0. -1.
       -5    1    3    3    0  502 -0.17466827792E+03 -0.16115969925E+04  0.67480836153E+03  0.17558878917E+04  0.46999998093E+01 0.  1.
</event>
<event>
 5   0  0.1128530E-06  0.3156363E+04  0.7818609E-02  0.8200438E-01
       -2   -1    0    0    0  501  0.00000000000E+00  0.00000000000E+00  0.98169185636E+03  0.98169185636E+03  0.25500000920E-02 0. -1.
        2   -1    0    0  501    0  0.00000000000E+00  0.00000000000E+00 -0.25371065746E+04  0.25371065746E+04  0.25500000920E-02 0.  1.
    10030    2    1    2    0    0  0.00000000000E+00  0.00000000000E+00 -0.15554147182E+04  0.35187984310E+04  0.31563630102E+04 0.  0.
        5    1    3    3  502    0 -0.14581051664E+04 -0.15754474309E+03 -0.14275125599E+04  0.20466326541E+04  0.46999998093E+01 0.  1.
       -5    1    3    3    0  502  0.14581051664E+04  0.15754474309E+03 -0.12790215837E+03  0.14721657768E+04  0.46999998093E+01 0. -1.
</event>
<event>
 5   0  0.3682276E-07  0.3151099E+04  0.7818609E-02  0.8201852E-01
       -1   -1    0    0    0  501  0.00000000000E+00  0.00000000000E+00  0.10268331850E+04  0.10268331850E+04  0.50400001928E-02 0.  1.
        1   -1    0    0  501    0  0.00000000000E+00  0.00000000000E+00 -0.24174875721E+04  0.24174875721E+04  0.50400001928E-02 0. -1.
    10030    2    1    2    0    0  0.00000000000E+00  0.00000000000E+00 -0.13906543871E+04  0.34443207572E+04  0.31510991501E+04 0.  0.
        1    1    3    3  502    0 -0.61862353013E+02 -0.19349598774E+03 -0.24031126502E+04  0.24116836562E+04  0.50400001928E-02 0. -1.
       -1    1    3    3    0  502  0.61862353013E+02  0.19349598774E+03  0.10124582631E+04  0.10326371010E+04  0.50400001928E-02 0.  1.
</event>
<event>
 5   0  0.1092116E-06  0.3480108E+04  0.7818609E-02  0.8118520E-01
        2   -1    0    0  501    0  0.00000000000E+00  0.00000000000E+00  0.25485561060E+04  0.25485561060E+04  0.25500000920E-02 0. -1.
       -2   -1    0    0    0  501  0.00000000000E+00  0.00000000000E+00 -0.11880403832E+04  0.11880403832E+04  0.25500000920E-02 0.  1.
    10030    2    1    2    0    0  0.00000000000E+00  0.00000000000E+00  0.13605157229E+04  0.37365964892E+04  0.34801077988E+04 0.  0.
        1    1    3    3  502    0 -0.67346250836E+03  0.92490526004E+03  0.20879070000E+04  0.23808311849E+04  0.50400001928E-02 0. -1.
       -1    1    3    3    0  502  0.67346250836E+03 -0.92490526004E+03 -0.72739127716E+03  0.13557653043E+04  0.50400001928E-02 0.  1.
</event>
<event>
 5   0  0.1092116E-06  0.3662290E+04  0.7818609E-02  0.8076370E-01
        2   -1    0    0  501    0  0.00000000000E+00  0.00000000000E+00  0.19446289189E+04  0.19446289189E+04  0.25500000920E-02 0. -1.
       -2   -1    0    0    0  501  0.00000000000E+00  0.00000000000E+00 -0.17242840482E+04  0.17242840482E+04  0.25500000920E-02 0.  1.
    10030    2    1    2    0    0  0.00000000000E+00  0.00000000000E+00  0.22034487071E+03  0.36689129672E+04  0.36622903351E+04 0.  0.
        1    1    3    3  502    0 -0.47462657563E+03 -0.12212377747E+04 -0.11713595361E+04  0.17574911810E+04  0.50400001928E-02 0.  1.
       -1    1    3    3    0  502  0.47462657563E+03  0.12212377747E+04  0.13917044068E+04  0.19114217861E+04  0.50400001928E-02 0. -1.
</event>
<event>
 5   0  0.3704306E-07  0.3708429E+04  0.7818609E-02  0.8066097E-01
        1   -1    0    0  501    0  0.00000000000E+00  0.00000000000E+00  0.10285351332E+04  0.10285351332E+04  0.50400001928E-02 0.  1.
       -1   -1    0    0    0  501  0.00000000000E+00  0.00000000000E+00 -0.33427256184E+04  0.33427256184E+04  0.50400001928E-02 0. -1.
    10030    2    1    2    0    0  0.00000000000E+00  0.00000000000E+00 -0.23141904852E+04  0.43712607515E+04  0.37084286371E+04 0.  0.
        3    1    3    3  502    0 -0.19786014343E+03 -0.18237461253E+04 -0.14753806870E+04  0.23541339698E+04  0.10100000352E+00 0. -1.
       -3    1    3    3    0  502  0.19786014343E+03  0.18237461253E+04 -0.83880979822E+03  0.20171267818E+04  0.10100000352E+00 0.  1.
</event>
<event>
 5   0  0.1066907E-06  0.3554064E+04  0.7818609E-02  0.8101096E-01
       -2   -1    0    0    0  501  0.00000000000E+00  0.00000000000E+00  0.15591007438E+04  0.15591007438E+04  0.25500000920E-02 0. -1.
        2   -1    0    0  501    0  0.00000000000E+00  0.00000000000E+00 -0.20254253166E+04  0.20254253166E+04  0.25500000920E-02 0.  1.
    10030    2    1    2    0    0  0.00000000000E+00  0.00000000000E+00 -0.46632457277E+03  0.35845260604E+04  0.35540636559E+04 0.  0.
        4    1    3    3  502    0 -0.15628505292E+04 -0.65398473684E+03 -0.77408250190E+03  0.18626333899E+04  0.12699999809E+01 0.  1.
       -4    1    3    3    0  502  0.15628505292E+04  0.65398473684E+03  0.30775792913E+03  0.17218926704E+04  0.12699999809E+01 0. -1.
</event>
<event>
 5   0  0.3848431E-07  0.3501123E+04  0.7818609E-02  0.8113524E-01
        1   -1    0    0  501    0  0.00000000000E+00  0.00000000000E+00  0.21263096245E+04  0.21263096245E+04  0.50400001928E-02 0.  1.
       -1   -1    0    0    0  501  0.00000000000E+00  0.00000000000E+00 -0.14412131116E+04  0.14412131116E+04  0.50400001928E-02 0. -1.
    10030    2    1    2    0    0  0.00000000000E+00  0.00000000000E+00  0.68509651287E+03  0.35675227361E+04  0.35011228543E+04 0.  0.
        2    1    3    3  502    0  0.89282571385E+02 -0.65327480454E+03 -0.13098496886E+04  0.14664397548E+04  0.25500000920E-02 0. -1.
       -2    1    3    3    0  502 -0.89282571385E+02  0.65327480454E+03  0.19949462014E+04  0.21010829813E+04  0.25500000920E-02 0.  1.
</event>
<event>
 5   0  0.1051123E-06  0.3721943E+04  0.7818609E-02  0.8063116E-01
       -2   -1    0    0    0  501  0.00000000000E+00  0.00000000000E+00  0.15414701553E+04  0.15414701553E+04  0.25500000920E-02 0.  1.
        2   -1    0    0  501    0  0.00000000000E+00  0.00000000000E+00 -0.22466962939E+04  0.22466962939E+04  0.25500000920E-02 0. -1.
    10030    2    1    2    0    0  0.00000000000E+00  0.00000000000E+00 -0.70522613858E+03  0.37881664492E+04  0.37219431941E+04 0.  0.
        2    1    3    3  502    0 -0.15791837923E+04 -0.87694766255E+03 -0.80818942332E+03  0.19788958529E+04  0.25500000920E-02 0.  1.
       -2    1    3    3    0  502  0.15791837923E+04  0.87694766255E+03  0.10296328474E+03  0.18092705963E+04  0.25500000920E-02 0. -1.
</event>
<event>
 5   0  0.3704306E-07  0.2850071E+04  0.7818609E-02  0.8287890E-01
        1   -1    0    0  501    0  0.00000000000E+00  0.00000000000E+00  0.16215242664E+04  0.16215242664E+04  0.50400001928E-02 0.  1.
       -1   -1    0    0    0  501  0.00000000000E+00  0.00000000000E+00 -0.12523566250E+04  0.12523566250E+04  0.50400001928E-02 0. -1.
    10030    2    1    2    0    0  0.00000000000E+00  0.00000000000E+00  0.36916764139E+03  0.28738808914E+04  0.28500713378E+04 0.  0.
        3    1    3    3  502    0 -0.80936791232E+02  0.32138718763E+03  0.15821225359E+04  0.16164628722E+04  0.10100000352E+00 0.  1.
       -3    1    3    3    0  502  0.80936791232E+02 -0.32138718763E+03 -0.12129548945E+04  0.12574180191E+04  0.10100000352E+00 0. -1.
</event>
<event>
 5   0  0.1051123E-06  0.3723578E+04  0.7818609E-02  0.8062757E-01
       -2   -1    0    0    0  501  0.00000000000E+00  0.00000000000E+00  0.13092463987E+04  0.13092463987E+04  0.25500000920E-02 0. -1.
        2   -1    0    0  501    0  0.00000000000E+00  0.00000000000E+00 -0.26475223265E+04  0.26475223265E+04  0.25500000920E-02 0.  1.
    10030    2    1    2    0    0  0.00000000000E+00  0.00000000000E+00 -0.13382759279E+04  0.39567687252E+04  0.37235784248E+04 0.  0.
        2    1    3    3  502    0  0.82411681957E+03  0.16682800173E+04 -0.60250260329E+03  0.19558466544E+04  0.25500000920E-02 0.  1.
       -2    1    3    3    0  502 -0.82411681957E+03 -0.16682800173E+04 -0.73577332456E+03  0.20009220708E+04  0.25500000920E-02 0. -1.
</event>
<event>
 5   0  0.1128530E-06  0.2392707E+04  0.7818609E-02  0.8442239E-01
       -2   -1    0    0    0  501  0.00000000000E+00  0.00000000000E+00  0.13366633255E+04  0.13366633255E+04  0.25500000920E-02 0.  1.
        2   -1    0    0  501    0  0.00000000000E+00  0.00000000000E+00 -0.10707717630E+04  0.10707717630E+04  0.25500000920E-02 0. -1.
    10030    2    1    2    0    0  0.00000000000E+00  0.00000000000E+00  0.26589156257E+03  0.24074350885E+04  0.23927067063E+04 0.  0.
        5    1    3    3  502    0 -0.92951733197E+03 -0.25582151888E+03 -0.57978750945E+03  0.11249990071E+04  0.46999998093E+01 0. -1.
       -5    1    3    3    0  502  0.92951733197E+03  0.25582151888E+03  0.84567907203E+03  0.12824360814E+04  0.46999998093E+01 0.  1.
</event>
<event>
 5   0  0.1128530E-06  0.3679692E+04  0.7818609E-02  0.8072477E-01
        2   -1    0    0  501    0  0.00000000000E+00  0.00000000000E+00  0.24514830215E+04  0.24514830215E+04  0.25500000920E-02 0.  1.
       -2   -1    0    0    0  501  0.00000000000E+00  0.00000000000E+00 -0.13808103338E+04  0.13808103338E+04  0.25500000920E-02 0. -1.
    10030    2    1    2    0    0  0.00000000000E+00  0.00000000000E+00  0.10706726877E+04  0.38322933553E+04  0.36796918834E+04 0.  0.
        5    1    3    3  502    0 -0.73673749238E+03  0.14630736968E+04 -0.33704379304E+03  0.16724196194E+04  0.46999998093E+01 0.  1.
       -5    1    3    3    0  502  0.73673749238E+03 -0.14630736968E+04  0.14077164808E+04  0.21598737359E+04  0.46999998093E+01 0. -1.
</event>
<event>
 5   0  0.1128530E-06  0.3764105E+04  0.7818609E-02  0.8053902E-01
        2   -1    0    0  501    0  0.00000000000E+00  0.00000000000E+00  0.30488698179E+04  0.30488698179E+04  0.25500000920E-02 0. -1.
       -2   -1    0    0    0  501  0.00000000000E+00  0.00000000000E+00 -0.11617820473E+04  0.11617820473E+04  0.25500000920E-02 0.  1.
    10030    2    1    2    0    0  0.00000000000E+00  0.00000000000E+00  0.18870877706E+04  0.42106518653E+04  0.37641053222E+04 0.  0.
        5    1    3    3  502    0 -0.10709795591E+04 -0.13078790797E+04  0.18011086139E+02  0.16905299147E+04  0.46999998093E+01 0.  1.
       -5    1    3    3    0  502  0.10709795591E+04  0.13078790797E+04  0.18690766844E+04  0.25201219505E+04  0.46999998093E+01 0. -1.
</event>
<event>
 5   0  0.3704306E-07  0.2425868E+04  0.7818609E-02  0.8429882E-01
        1   -1    0    0  501    0  0.00000000000E+00  0.00000000000E+00  0.18130818768E+04  0.18130818768E+04  0.50400001928E-02 0.  1.
       -1   -1    0    0    0  501  0.00000000000E+00  0.00000000000E+00 -0.81144072849E+03  0.81144072851E+03  0.50400001928E-02 0. -1.
    10030    2    1    2    0    0  0.00000000000E+00  0.00000000000E+00  0.10016411483E+04  0.26245226053E+04  0.24258676624E+04 0.  0.
        3    1    3    3  502    0  0.79589876820E+03 -0.75807205993E+03  0.10557368151E+04  0.15240434148E+04  0.10100000352E+00 0.  1.
       -3    1    3    3    0  502 -0.79589876820E+03  0.75807205993E+03 -0.54095666836E+02  0.11004791905E+04  0.10100000352E+00 0. -1.
</event>
<event>
 5   0  0.3704306E-07  0.2516399E+04  0.7818609E-02  0.8397167E-01
       -1   -1    0    0    0  501  0.00000000000E+00  0.00000000000E+00  0.94002349623E+03  0.94002349624E+03  0.50400001928E-02 0.  1.
        1   -1    0    0  501    0  0.00000000000E+00  0.00000000000E+00 -0.16840705744E+04  0.16840705744E+04  0.50400001928E-02 0. -1.
    10030    2    1    2    0    0  0.00000000000E+00  0.00000000000E+00 -0.74404707817E+03  0.26240940706E+04  0.25163989423E+04 0.  0.
        3    1    3    3  502    0 -0.76056591882E+03 -0.39977965927E+03  0.58643235082E+03  0.10402822718E+04  0.10100000352E+00 0.  1.
       -3    1    3    3    0  502  0.76056591882E+03  0.39977965927E+03 -0.13304794290E+04  0.15838117988E+04  0.10100000352E+00 0. -1.
</event>
<event>
 5   0  0.3675819E-07  0.2767270E+04  0.7818609E-02  0.8313502E-01
        1   -1    0    0  501    0  0.00000000000E+00  0.00000000000E+00  0.15774468358E+04  0.15774468358E+04  0.50400001928E-02 0.  1.
       -1   -1    0    0    0  501  0.00000000000E+00  0.00000000000E+00 -0.12136354142E+04  0.12136354142E+04  0.50400001928E-02 0. -1.
    10030    2    1    2    0    0  0.00000000000E+00  0.00000000000E+00  0.36381142163E+03  0.27910822500E+04  0.27672696608E+04 0.  0.
        5    1    3    3  502    0 -0.15819763862E+03 -0.13122225020E+04 -0.23084534530E+03  0.13417399343E+04  0.46999998093E+01 0. -1.
       -5    1    3    3    0  502  0.15819763862E+03  0.13122225020E+04  0.59465676692E+03  0.14493423157E+04  0.46999998093E+01 0.  1.
</event>
<event>
 5   0  0.1092116E-06  0.3716356E+04  0.7818609E-02  0.8064347E-01
        2   -1    0    0  501    0  0.00000000000E+00  0.00000000000E+00  0.17073970572E+04  0.17073970572E+04  0.25500000920E-02 0.  1.
       -2   -1    0    0    0  501  0.00000000000E+00  0.00000000000E+00 -0.20222749145E+04  0.20222749145E+04  0.25500000920E-02 0. -1.
    10030    2    1    2    0    0  0.00000000000E+00  0.00000000000E+00 -0.31487785733E+03  0.37296719717E+04  0.37163564080E+04 0.  0.
        1    1    3    3  502    0  0.17691002698E+04 -0.56560583312E+02  0.41019470427E+03  0.18169134706E+04  0.50400001928E-02 0.  1.
       -1    1    3    3    0  502 -0.17691002698E+04  0.56560583312E+02 -0.72507256160E+03  0.19127585011E+04  0.50400001928E-02 0. -1.
</event>
<event>
 5   0  0.3675819E-07  0.3674109E+04  0.7818609E-02  0.8073724E-01
       -1   -1    0    0    0  501  0.00000000000E+00  0.00000000000E+00  0.18346321330E+04  0.18346321330E+04  0.50400001928E-02 0.  1.
        1   -1    0    0  501    0  0.00000000000E+00  0.00000000000E+00 -0.18394805484E+04  0.18394805484E+04  0.50400001928E-02 0. -1.
    10030    2    1    2    0    0  0.00000000000E+00  0.00000000000E+00 -0.48484154171E+01  0.36741126814E+04  0.36741094824E+04 0.  0.
        5    1    3    3  502    0  0.16646697769E+04  0.77689848799E+03 -0.95870032337E+01  0.18370657928E+04  0.46999998093E+01 0. -1.
       -5    1    3    3    0  502 -0.16646697769E+04 -0.77689848799E+03  0.47385878166E+01  0.18370468886E+04  0.46999998093E+01 0.  1.
</event>
<event>
 5   0  0.1092116E-06  0.3618387E+04  0.7818609E-02  0.8086293E-01
       -2   -1    0    0    0  501  0.00000000000E+00  0.00000000000E+00  0.14331173877E+04  0.14331173878E+04  0.25500000920E-02 0.  1.
        2   -1    0    0  501    0  0.00000000000E+00  0.00000000000E+00 -0.22839588121E+04  0.22839588121E+04  0.25500000920E-02 0. -1.
    10030    2    1    2    0    0  0.00000000000E+00  0.00000000000E+00 -0.85084142438E+03  0.37170761999E+04  0.36183869813E+04 0.  0.
        1    1    3    3  502    0  0.14819336367E+04 -0.84213997391E+03 -0.10484726073E+04  0.20011551283E+04  0.50400001928E-02 0. -1.
       -1    1    3    3    0  502 -0.14819336367E+04  0.84213997391E+03  0.19763118295E+03  0.17159210716E+04  0.50400001928E-02 0.  1.
</event>
<event>
 5   0  0.1128166E-06  0.3481982E+04  0.7818609E-02  0.8118073E-01
        2   -1    0    0  501    0  0.00000000000E+00  0.00000000000E+00  0.24705609200E+04  0.24705609200E+04  0.25500000920E-02 0.  1.
       -2   -1    0    0    0  501  0.00000000000E+00  0.00000000000E+00 -0.12268672630E+04  0.12268672630E+04  0.25500000920E-02 0. -1.
    10030    2    1    2    0    0  0.00000000000E+00  0.00000000000E+00  0.12436936570E+04  0.36974281830E+04  0.34819823745E+04 0.  0.
        3    1    3    3  502    0  0.39912413654E+03  0.55649042692E+03 -0.10778386285E+04  0.12769956112E+04  0.10100000352E+00 0. -1.
       -3    1    3    3    0  502 -0.39912413654E+03 -0.55649042692E+03  0.23215322856E+04  0.24204325718E+04  0.10100000352E+00 0.  1.
</event>
<event>
 5   0  0.1051123E-06  0.3672292E+04  0.7818609E-02  0.8074130E-01
        2   -1    0    0  501    0  0.00000000000E+00  0.00000000000E+00  0.20853746535E+04  0.20853746535E+04  0.25500000920E-02 0.  1.
       -2   -1    0    0    0  501  0.00000000000E+00  0.00000000000E+00 -0.16167037428E+04  0.16167037428E+04  0.25500000920E-02 0. -1.
    10030    2    1    2    0    0  0.00000000000E+00  0.00000000000E+00  0.46867091070E+03  0.37020783962E+04  0.36722924760E+04 0.  0.
        2    1    3    3  502    0  0.10292063849E+04 -0.13852540733E+04  0.86650896865E+03  0.19310702792E+04  0.25500000920E-02 0.  1.
       -2    1    3    3    0  502 -0.10292063849E+04  0.13852540733E+04 -0.39783805795E+03  0.17710081171E+04  0.25500000920E-02 0. -1.
</event>
<event>
 5   0  0.3764495E-07  0.3576494E+04  0.7818609E-02  0.8095897E-01
        1   -1    0    0  501    0  0.00000000000E+00  0.00000000000E+00  0.19906232551E+04  0.19906232551E+04  0.50400001928E-02 0. -1.
       -1   -1    0    0    0  501  0.00000000000E+00  0.00000000000E+00 -0.16064448841E+04  0.16064448841E+04  0.50400001928E-02 0.  1.
    10030    2    1    2    0    0  0.00000000000E+00  0.00000000000E+00  0.38417837106E+03  0.35970681392E+04  0.35764935590E+04 0.  0.
        4    1    3    3  502    0  0.33765271846E+03  0.11180138831E+03 -0.15705096148E+04  0.16102828856E+04  0.12699999809E+01 0.  1.
       -4    1    3    3    0  502 -0.33765271846E+03 -0.11180138831E+03  0.19546879859E+04  0.19867852535E+04  0.12699999809E+01 0. -1.
</event>
<event>
 5   0  0.1128530E-06  0.3796322E+04  0.7818609E-02  0.8046945E-01
        2   -1    0    0  501    0  0.00000000000E+00  0.00000000000E+00  0.11737633570E+04  0.11737633570E+04  0.25500000920E-02 0.  1.
       -2   -1    0    0    0  501  0.00000000000E+00  0.00000000000E+00 -0.30696263151E+04  0.30696263151E+04  0.25500000920E-02 0. -1.
    10030    2    1    2    0    0  0.00000000000E+00  0.00000000000E+00 -0.18958629580E+04  0.42433896721E+04  0.37963218453E+04 0.  0.
        5    1    3    3  502    0  0.45427613964E+03 -0.65586303830E+03 -0.28731048533E+04  0.29818243952E+04  0.46999998093E+01 0. -1.
       -5    1    3    3    0  502 -0.45427613964E+03  0.65586303830E+03  0.97724189522E+03  0.12615652769E+04  0.46999998093E+01 0.  1.
</event>
<event>
 5   0  0.1128530E-06  0.3694362E+04  0.7818609E-02  0.8069212E-01
        2   -1    0    0  501    0  0.00000000000E+00  0.00000000000E+00  0.26860311767E+04  0.26860311767E+04  0.25500000920E-02 0. -1.
       -2   -1    0    0    0  501  0.00000000000E+00  0.00000000000E+00 -0.12703046076E+04  0.12703046076E+04  0.25500000920E-02 0.  1.
    10030    2    1    2    0    0  0.00000000000E+00  0.00000000000E+00  0.14157265691E+04  0.39563357843E+04  0.36943620721E+04 0.  0.
        5    1    3    3  502    0  0.11632966245E+04  0.26246152421E+03 -0.80280972561E+03  0.14375919567E+04  0.46999998093E+01 0.  1.
       -5    1    3    3    0  502 -0.11632966245E+04 -0.26246152421E+03  0.22185362947E+04  0.25187438276E+04  0.46999998093E+01 0. -1.
</event>
<event>
 5   0  0.1092116E-06  0.3741324E+04  0.7818609E-02  0.8058865E-01
       -2   -1    0    0    0  501  0.00000000000E+00  0.00000000000E+00  0.14617770349E+04  0.14617770349E+04  0.25500000920E-02 0.  1.
        2   -1    0    0  501    0  0.00000000000E+00  0.00000000000E+00 -0.23939199415E+04  0.23939199415E+04  0.25500000920E-02 0. -1.
    10030    2    1    2    0    0  0.00000000000E+00  0.00000000000E+00 -0.93214290652E+03  0.38556969764E+04  0.37413244681E+04 0.  0.
        1    1    3    3  502    0 -0.10020373202E+04  0.15341150596E+04 -0.85413190306E+03  0.20216649364E+04  0.50400001928E-02 0. -1.
       -1    1    3    3    0  502  0.10020373202E+04 -0.15341150596E+04 -0.78011003463E+02  0.18340320400E+04  0.50400001928E-02 0.  1.
</event>
<event>
 5   0  0.1066907E-06  0.3714796E+04  0.7818609E-02  0.8064691E-01
       -2   -1    0    0    0  501  0.00000000000E+00  0.00000000000E+00  0.29052966188E+04  0.29052966188E+04  0.25500000920E-02 0. -1.
        2   -1    0    0  501    0  0.00000000000E+00  0.00000000000E+00 -0.11874614875E+04  0.11874614875E+04  0.25500000920E-02 0.  1.
    10030    2    1    2    0    0  0.00000000000E+00  0.00000000000E+00  0.17178351313E+04  0.40927581062E+04  0.37147962768E+04 0.  0.
        4    1    3    3  502    0  0.17360345891E+04  0.61023507891E+03  0.58079888841E+03  0.19296455394E+04  0.12699999809E+01 0.  1.
       -4    1    3    3    0  502 -0.17360345891E+04 -0.61023507891E+03  0.11370362429E+04  0.21631125668E+04  0.12699999809E+01 0. -1.
</event>
<event>
 5   0  0.3764495E-07  0.3087831E+04  0.7818609E-02  0.8219086E-01
        1   -1    0    0  501    0  0.00000000000E+00  0.00000000000E+00  0.27723124200E+04  0.27723124200E+04  0.50400001928E-02 0.  1.
       -1   -1    0    0    0  501  0.00000000000E+00  0.00000000000E+00 -0.85981472687E+03  0.85981472689E+03  0.50400001928E-02 0. -1.
    10030    2    1    2    0    0  0.00000000000E+00  0.00000000000E+00  0.19124976931E+04  0.36321271469E+04  0.30878309839E+04 0.  0.
        4    1    3    3  502    0  0.24312211226E+03 -0.18191314248E+03 -0.82434498420E+03  0.87849133106E+03  0.12699999809E+01 0. -1.
       -4    1    3    3    0  502 -0.24312211226E+03  0.18191314248E+03  0.27368426773E+04  0.27536358158E+04  0.12699999809E+01 0.  1.
</event>
<event>
 5   0  0.3848431E-07  0.3717310E+04  0.7818609E-02  0.8064137E-01
        1   -1    0    0  501    0  0.00000000000E+00  0.00000000000E+00  0.27744150141E+04  0.27744150142E+04  0.50400001928E-02 0. -1.
       -1   -1    0    0    0  501  0.00000000000E+00  0.00000000000E+00 -0.12451628584E+04  0.12451628584E+04  0.50400001928E-02 0.  1.
    10030    2    1    2    0    0  0.00000000000E+00  0.00000000000E+00  0.15292521558E+04  0.40195778726E+04  0.37173100648E+04 0.  0.
        2    1    3    3  502    0 -0.39849899122E+03  0.15427021646E+03  0.27205779286E+04  0.27539326447E+04  0.25500000920E-02 0. -1.
       -2    1    3    3    0  502  0.39849899122E+03 -0.15427021646E+03 -0.11913257729E+04  0.12656452279E+04  0.25500000920E-02 0.  1.
</event>
<event>
 5   0  0.1128530E-06  0.3700755E+04  0.7818609E-02  0.8067795E-01
        2   -1    0    0  501    0  0.00000000000E+00  0.00000000000E+00  0.34645523399E+04  0.34645523399E+04  0.25500000920E-02 0.  1.
       -2   -1    0    0    0  501  0.00000000000E+00  0.00000000000E+00 -0.98826532075E+03  0.98826532075E+03  0.25500000920E-02 0. -1.
    10030    2    1    2    0    0  0.00000000000E+00  0.00000000000E+00  0.24762870192E+04  0.44528176607E+04  0.37007550200E+04 0.  0.
        5    1    3    3  502    0  0.31439020572E+02  0.68911273841E+03  0.33040423661E+04  0.33752900357E+04  0.46999998093E+01 0.  1.
       -5    1    3    3    0  502 -0.31439020572E+02 -0.68911273841E+03 -0.82775534691E+03  0.10775276250E+04  0.46999998093E+01 0. -1.
</event>
<event>
 5   0  0.1128166E-06  0.2937169E+04  0.7818609E-02  0.8261904E-01
        2   -1    0    0  501    0  0.00000000000E+00  0.00000000000E+00  0.22600559070E+04  0.22600559070E+04  0.25500000920E-02 0. -1.
       -2   -1    0    0    0  501  0.00000000000E+00  0.00000000000E+00 -0.95428657268E+03  0.95428657268E+03  0.25500000920E-02 0.  1.
    10030    2    1    2    0    0  0.00000000000E+00  0.00000000000E+00  0.13057693343E+04  0.32143424797E+04  0.29371693894E+04 0.  0.
        3    1    3    3  502    0 -0.11585885609E+04 -0.67368406332E+03  0.13100186538E+04  0.18741202080E+04  0.10100000352E+00 0. -1.
       -3    1    3    3    0  502  0.11585885609E+04  0.67368406332E+03 -0.42493194603E+01  0.13402222717E+04  0.10100000352E+00 0.  1.
</event>
<event>
 5   0  0.3848431E-07  0.3770157E+04  0.7818609E-02  0.8052590E-01
       -1   -1    0    0    0  501  0.00000000000E+00  0.00000000000E+00  0.27408798584E+04  0.27408798584E+04  0.50400001928E-02 0. -1.
        1   -1    0    0  501    0  0.00000000000E+00  0.00000000000E+00 -0.12964890102E+04  0.12964890102E+04  0.50400001928E-02 0.  1.
    10030    2    1    2    0    0  0.00000000000E+00  0.00000000000E+00  0.14443908482E+04  0.40373688686E+04  0.37701568215E+04 0.  0.
        2    1    3    3  502    0 -0.93178568397E+03  0.31945799109E+02  0.24766921415E+04  0.26463652542E+04  0.25500000920E-02 0. -1.
       -2    1    3    3    0  502  0.93178568397E+03 -0.31945799109E+02 -0.10323012933E+04  0.13910036144E+04  0.25500000920E-02 0.  1.
</event>
<event>
 5   0  0.1051123E-06  0.3744151E+04  0.7818609E-02  0.8058247E-01
        2   -1    0    0  501    0  0.00000000000E+00  0.00000000000E+00  0.21556746144E+04  0.21556746144E+04  0.25500000920E-02 0.  1.
       -2   -1    0    0    0  501  0.00000000000E+00  0.00000000000E+00 -0.16257865331E+04  0.16257865331E+04  0.25500000920E-02 0. -1.
    10030    2    1    2    0    0  0.00000000000E+00  0.00000000000E+00  0.52988808128E+03  0.37814611475E+04  0.37441510429E+04 0.  0.
        2    1    3    3  502    0 -0.51498389867E+03  0.17595442377E+04 -0.11759463947E+03  0.18371262448E+04  0.25500000920E-02 0. -1.
       -2    1    3    3    0  502  0.51498389867E+03 -0.17595442377E+04  0.64748272076E+03  0.19443349027E+04  0.25500000920E-02 0.  1.
</event>
<event>
 5   0  0.3764495E-07  0.3848898E+04  0.7818609E-02  0.8035742E-01
        1   -1    0    0  501    0  0.00000000000E+00  0.00000000000E+00  0.21959413722E+04  0.21959413722E+04  0.50400001928E-02 0.  1.
       -1   -1    0    0    0  501  0.00000000000E+00  0.00000000000E+00 -0.16865225823E+04  0.16865225823E+04  0.50400001928E-02 0. -1.
    10030    2    1    2    0    0  0.00000000000E+00  0.00000000000E+00  0.50941878994E+03  0.38824639545E+04  0.38488983949E+04 0.  0.
        4    1    3    3  502    0 -0.13533913685E+04  0.29682880207E+03  0.16019192401E+04  0.21179996220E+04  0.12699999809E+01 0.  1.
       -4    1    3    3    0  502  0.13533913685E+04 -0.29682880207E+03 -0.10925004501E+04  0.17644643325E+04  0.12699999809E+01 0. -1.
</event>
<event>
 5   0  0.3675819E-07  0.3633440E+04  0.7818609E-02  0.8082875E-01
        1   -1    0    0  501    0  0.00000000000E+00  0.00000000000E+00  0.32755735839E+04  0.32755735840E+04  0.50400001928E-02 0.  1.
       -1   -1    0    0    0  501  0.00000000000E+00  0.00000000000E+00 -0.10076008502E+04  0.10076008502E+04  0.50400001928E-02 0. -1.
    10030    2    1    2    0    0  0.00000000000E+00  0.00000000000E+00  0.22679727338E+04  0.42831744341E+04  0.36334395429E+04 0.  0.
        5    1    3    3  502    0 -0.60000726560E+03  0.99502695862E+03  0.27802726341E+04  0.30133080455E+04  0.46999998093E+01 0.  1.
       -5    1    3    3    0  502  0.60000726560E+03 -0.99502695862E+03 -0.51229990030E+03  0.12698663886E+04  0.46999998093E+01 0. -1.
</event>
<event>
 5   0  0.1092116E-06  0.3695445E+04  0.7818609E-02  0.8068972E-01
        2   -1    0    0  501    0  0.00000000000E+00  0.00000000000E+00  0.21232786152E+04  0.21232786152E+04  0.25500000920E-02 0.  1.
       -2   -1    0    0    0  501  0.00000000000E+00  0.00000000000E+00 -0.16079275846E+04  0.16079275846E+04  0.25500000920E-02 0. -1.
    10030    2    1    2    0    0  0.00000000000E+00  0.00000000000E+00  0.51535103057E+03  0.37312061998E+04  0.36954449016E+04 0.  0.
        1    1    3    3  502    0 -0.76972921621E+03  0.11870646197E+04 -0.94230049051E+03  0.16998634334E+04  0.50400001928E-02 0. -1.
       -1    1    3    3    0  502  0.76972921621E+03 -0.11870646197E+04  0.14576515211E+04  0.20313427664E+04  0.50400001928E-02 0.  1.
</event>
<event>
 5   0  0.3848431E-07  0.3746561E+04  0.7818609E-02  0.8057721E-01
       -1   -1    0    0    0  501  0.00000000000E+00  0.00000000000E+00  0.27629474855E+04  0.27629474855E+04  0.50400001928E-02 0. -1.
        1   -1    0    0  501    0  0.00000000000E+00  0.00000000000E+00 -0.12700853266E+04  0.12700853267E+04  0.50400001928E-02 0.  1.
    10030    2    1    2    0    0  0.00000000000E+00  0.00000000000E+00  0.14928621588E+04  0.40330328121E+04  0.37465605879E+04 0.  0.
        2    1    3    3  502    0  0.12725443666E+04 -0.28165011766E+03 -0.70199465863E+03  0.14803690264E+04  0.25500000920E-02 0.  1.
       -2    1    3    3    0  502 -0.12725443666E+04  0.28165011766E+03  0.21948568175E+04  0.25526637857E+04  0.25500000920E-02 0. -1.
</event>
<event>
 5   0  0.1092116E-06  0.3700648E+04  0.7818609E-02  0.8067818E-01
       -2   -1    0    0    0  501  0.00000000000E+00  0.00000000000E+00  0.11895833979E+04  0.11895833979E+04  0.25500000920E-02 0.  1.
        2   -1    0    0  501    0  0.00000000000E+00  0.00000000000E+00 -0.28780653480E+04  0.28780653480E+04  0.25500000920E-02 0. -1.
    10030    2    1    2    0    0  0.00000000000E+00  0.00000000000E+00 -0.16884819500E+04  0.40676487459E+04  0.37006479196E+04 0.  0.
        1    1    3    3  502    0 -0.10613877314E+04  0.35040242799E+03  0.77657122175E+03  0.13610248493E+04  0.50400001928E-02 0.  1.
       -1    1    3    3    0  502  0.10613877314E+04 -0.35040242799E+03 -0.24650531718E+04  0.27066238966E+04  0.50400001928E-02 0. -1.
</event>
<event>
 5   0  0.1128166E-06  0.3569958E+04  0.7818609E-02  0.8097408E-01
       -2   -1    0    0    0  501  0.00000000000E+00  0.00000000000E+00  0.13205674454E+04  0.13205674454E+04  0.25500000920E-02 0.  1.
        2   -1    0    0  501    0  0.00000000000E+00  0.00000000000E+00 -0.24127122405E+04  0.24127122405E+04  0.25500000920E-02 0. -1.
    10030    2    1    2    0    0  0.00000000000E+00  0.00000000000E+00 -0.10921447951E+04  0.37332796859E+04  0.35699575571E+04 0.  0.
        3    1    3    3  502    0 -0.13402546683E+04  0.87139651647E+03 -0.13764621720E+04  0.21095645489E+04  0.10100000352E+00 0. -1.
       -3    1    3    3    0  502  0.13402546683E+04 -0.87139651647E+03  0.28431737696E+03  0.16237151369E+04  0.10100000352E+00 0.  1.
</event>
<event>
 5   0  0.3704306E-07  0.3533693E+04  0.7818609E-02  0.8105851E-01
       -1   -1    0    0    0  501  0.00000000000E+00  0.00000000000E+00  0.11078527439E+04  0.11078527439E+04  0.50400001928E-02 0. -1.
        1   -1    0    0  501    0  0.00000000000E+00  0.00000000000E+00 -0.28178345619E+04  0.28178345619E+04  0.50400001928E-02 0.  1.
    10030    2    1    2    0    0  0.00000000000E+00  0.00000000000E+00 -0.17099818180E+04  0.39256873058E+04  0.35336925453E+04 0.  0.
        3    1    3    3  502    0 -0.64649094132E+03  0.71135415610E+03  0.79195035169E+03  0.12454559978E+04  0.10100000352E+00 0. -1.
       -3    1    3    3    0  502  0.64649094132E+03 -0.71135415610E+03 -0.25019321697E+04  0.26802313080E+04  0.10100000352E+00 0.  1.
</event>
<event>
 5   0  0.3682276E-07  0.2341129E+04  0.7818609E-02  0.8461879E-01
        1   -1    0    0  501    0  0.00000000000E+00  0.00000000000E+00  0.16873729445E+04  0.16873729445E+04  0.50400001928E-02 0.  1.
       -1   -1    0    0    0  501  0.00000000000E+00  0.00000000000E+00 -0.81204440713E+03  0.81204440715E+03  0.50400001928E-02 0. -1.
    10030    2    1    2    0    0  0.00000000000E+00  0.00000000000E+00  0.87532853735E+03  0.24994173516E+04  0.23411294388E+04 0.  0.
        1    1    3    3  502    0  0.58581332785E+03 -0.66431758906E+03 -0.37940870565E+03  0.96355906937E+03  0.50400001928E-02 0. -1.
       -1    1    3    3    0  502 -0.58581332785E+03  0.66431758906E+03  0.12547372430E+04  0.15358582823E+04  0.50400001928E-02 0.  1.
</event>
<event>
 5   0  0.1092116E-06  0.3785978E+04  0.7818609E-02  0.8049171E-01
       -2   -1    0    0    0  501  0.00000000000E+00  0.00000000000E+00  0.19444629690E+04  0.19444629690E+04  0.25500000920E-02 0.  1.
        2   -1    0    0  501    0  0.00000000000E+00  0.00000000000E+00 -0.18428778545E+04  0.18428778545E+04  0.25500000920E-02 0. -1.
    10030    2    1    2    0    0  0.00000000000E+00  0.00000000000E+00  0.10158511453E+03  0.37873408236E+04  0.37859782063E+04 0.  0.
        1    1    3    3  502    0  0.11115761490E+04 -0.10880465892E+04 -0.10284659038E+04  0.18647222396E+04  0.50400001928E-02 0. -1.
       -1    1    3    3    0  502 -0.11115761490E+04  0.10880465892E+04  0.11300510183E+04  0.19226185840E+04  0.50400001928E-02 0.  1.
</event>
<event>
 5   0  0.3848431E-07  0.3852458E+04  0.7818609E-02  0.8034990E-01
        1   -1    0    0  501    0  0.00000000000E+00  0.00000000000E+00  0.21660738105E+04  0.21660738105E+04  0.50400001928E-02 0. -1.
       -1   -1    0    0    0  501  0.00000000000E+00  0.00000000000E+00 -0.17129416917E+04  0.17129416917E+04  0.50400001928E-02 0.  1.
    10030    2    1    2    0    0  0.00000000000E+00  0.00000000000E+00  0.45313211885E+03  0.38790155022E+04  0.38524579880E+04 0.  0.
        2    1    3    3  502    0  0.11653505424E+04  0.60942894471E+03  0.16437174995E+04  0.21050540951E+04  0.25500000920E-02 0. -1.
       -2    1    3    3    0  502 -0.11653505424E+04 -0.60942894471E+03 -0.11905853806E+04  0.17739614071E+04  0.25500000920E-02 0.  1.
</event>
<event>
 5   0  0.3682276E-07  0.3653357E+04  0.7818609E-02  0.8078378E-01
       -1   -1    0    0    0  501  0.00000000000E+00  0.00000000000E+00  0.16050561751E+04  0.16050561751E+04  0.50400001928E-02 0. -1.
        1   -1    0    0  501    0  0.00000000000E+00  0.00000000000E+00 -0.20789014221E+04  0.20789014221E+04  0.50400001928E-02 0.  1.
    10030    2    1    2    0    0  0.00000000000E+00  0.00000000000E+00 -0.47384524701E+03  0.36839575972E+04  0.36533565744E+04 0.  0.
        1    1    3    3  502    0 -0.57580671889E+02 -0.96378078906E+03 -0.18005770805E+04  0.20431022407E+04  0.50400001928E-02 0.  1.
       -1    1    3    3    0  502  0.57580671889E+02  0.96378078906E+03  0.13267318335E+04  0.16408553565E+04  0.50400001928E-02 0. -1.
</event>
<event>
 5   0  0.1128166E-06  0.2435299E+04  0.7818609E-02  0.8426405E-01
       -2   -1    0    0    0  501  0.00000000000E+00  0.00000000000E+00  0.97834482537E+03  0.97834482538E+03  0.25500000920E-02 0. -1.
        2   -1    0    0  501    0  0.00000000000E+00  0.00000000000E+00 -0.15154886384E+04  0.15154886384E+04  0.25500000920E-02 0.  1.
    10030    2    1    2    0    0  0.00000000000E+00  0.00000000000E+00 -0.53714381303E+03  0.24938334638E+04  0.24352991334E+04 0.  0.
        3    1    3    3  502    0  0.50301150628E+03 -0.30402569090E+03  0.82346432206E+03  0.10117043521E+04  0.10100000352E+00 0. -1.
       -3    1    3    3    0  502 -0.50301150628E+03  0.30402569090E+03 -0.13606081351E+04  0.14821291117E+04  0.10100000352E+00 0.  1.
</event>
<event>
 5   0  0.3764495E-07  0.2266520E+04  0.7818609E-02  0.8491240E-01
       -1   -1    0    0    0  501  0.00000000000E+00  0.00000000000E+00  0.45548392111E+03  0.45548392114E+03  0.50400001928E-02 0.  1.
        1   -1    0    0  501    0  0.00000000000E+00  0.00000000000E+00 -0.28195900316E+04  0.28195900316E+04  0.50400001928E-02 0. -1.
    10030    2    1    2    0    0  0.00000000000E+00  0.00000000000E+00 -0.23641061105E+04  0.32750739527E+04  0.22665197317E+04 0.  0.
        4    1    3    3  502    0 -0.48959027972E+03  0.98441489947E+03 -0.15791068847E+04  0.19241495530E+04  0.12699999809E+01 0. -1.
       -4    1    3    3    0  502  0.48959027972E+03 -0.98441489947E+03 -0.78499922579E+03  0.13509243997E+04  0.12699999809E+01 0.  1.
</event>
<event>
 5   0  0.3682276E-07  0.3561010E+04  0.7818609E-02  0.8099482E-01
       -1   -1    0    0    0  501  0.00000000000E+00  0.00000000000E+00  0.14647732430E+04  0.14647732430E+04  0.50400001928E-02 0.  1.
        1   -1    0    0  501    0  0.00000000000E+00  0.00000000000E+00 -0.21642927135E+04  0.21642927135E+04  0.50400001928E-02 0. -1.
    10030    2    1    2    0    0  0.00000000000E+00  0.00000000000E+00 -0.69951947046E+03  0.36290659565E+04  0.35610100010E+04 0.  0.
        1    1    3    3  502    0 -0.65512382234E+03 -0.56798985320E+03 -0.19346003337E+04  0.21200184308E+04  0.50400001928E-02 0. -1.
       -1    1    3    3    0  502  0.65512382234E+03  0.56798985320E+03  0.12350808632E+04  0.15090475257E+04  0.50400001928E-02 0.  1.
</event>
<event>
 5   0  0.3682276E-07  0.3672024E+04  0.7818609E-02  0.8074190E-01
       -1   -1    0    0    0  501  0.00000000000E+00  0.00000000000E+00  0.15650506840E+04  0.15650506840E+04  0.50400001928E-02 0.  1.
        1   -1    0    0  501    0  0.00000000000E+00  0.00000000000E+00 -0.21538857277E+04  0.21538857277E+04  0.50400001928E-02 0. -1.
    10030    2    1    2    0    0  0.00000000000E+00  0.00000000000E+00 -0.58883504368E+03  0.37189364118E+04  0.36720241456E+04 0.  0.
        1    1    3    3  502    0  0.17568293950E+03 -0.17494859545E+04  0.24089423986E+03  0.17747100144E+04  0.50400001928E-02 0.  1.
       -1    1    3    3    0  502 -0.17568293950E+03  0.17494859545E+04 -0.82972928354E+03  0.19442263974E+04  0.50400001928E-02 0. -1.
</event>
<event>
 5   0  0.1051123E-06  0.3593718E+04  0.7818609E-02  0.8091932E-01
        2   -1    0    0  501    0  0.00000000000E+00  0.00000000000E+00  0.17577283396E+04  0.17577283396E+04  0.25500000920E-02 0. -1.
       -2   -1    0    0    0  501  0.00000000000E+00  0.00000000000E+00 -0.18368603080E+04  0.18368603080E+04  0.25500000920E-02 0.  1.
    10030    2    1    2    0    0  0.00000000000E+00  0.00000000000E+00 -0.79131968381E+02  0.35945886475E+04  0.35937175288E+04 0.  0.
        2    1    3    3  502    0  0.17234625585E+04 -0.46053259654E+03 -0.25476449561E+03  0.18020317453E+04  0.25500000920E-02 0. -1.
       -2    1    3    3    0  502 -0.17234625585E+04  0.46053259654E+03  0.17563252723E+03  0.17925569022E+04  0.25500000920E-02 0.  1.
</event>
<event>
 5   0  0.1066907E-06  0.3588969E+04  0.7818609E-02  0.8093023E-01
       -2   -1    0    0    0  501  0.00000000000E+00  0.00000000000E+00  0.15724955207E+04  0.15724955207E+04  0.25500000920E-02 0. -1.
        2   -1    0    0  501    0  0.00000000000E+00  0.00000000000E+00 -0.20478112763E+04  0.20478112763E+04  0.25500000920E-02 0.  1.
    10030    2    1    2    0    0  0.00000000000E+00  0.00000000000E+00 -0.47531575562E+03  0.36203067971E+04  0.35889686871E+04 0.  0.
        4    1    3    3  502    0 -0.15005702489E+03  0.15845653723E+04  0.59831724294E+03  0.17003969142E+04  0.12699999809E+01 0. -1.
       -4    1    3    3    0  502  0.15005702489E+03 -0.15845653723E+04 -0.10736329986E+04  0.19199098829E+04  0.12699999809E+01 0.  1.
</event>
<event>
 5   0  0.1128166E-06  0.3688751E+04  0.7818609E-02  0.8070459E-01
       -2   -1    0    0    0  501  0.00000000000E+00  0.00000000000E+00  0.15166199260E+04  0.15166199260E+04  0.25500000920E-02 0. -1.
        2   -1    0    0  501    0  0.00000000000E+00  0.00000000000E+00 -0.22429615771E+04  0.22429615771E+04  0.25500000920E-02 0.  1.
    10030    2    1    2    0    0  0.00000000000E+00  0.00000000000E+00 -0.72634165107E+03  0.37595815031E+04  0.36887505858E+04 0.  0.
        3    1    3    3  502    0 -0.16734746275E+04  0.10034343402E+03  0.42044502257E+03  0.17283981488E+04  0.10100000352E+00 0. -1.
       -3    1    3    3    0  502  0.16734746275E+04 -0.10034343402E+03 -0.11467866736E+04  0.20311833543E+04  0.10100000352E+00 0.  1.
</event>
<event>
 5   0  0.3675819E-07  0.3691779E+04  0.7818609E-02  0.8069786E-01
        1   -1    0    0  501    0  0.00000000000E+00  0.00000000000E+00  0.15010651286E+04  0.15010651286E+04  0.50400001928E-02 0.  1.
       -1   -1    0    0    0  501  0.00000000000E+00  0.00000000000E+00 -0.22699265422E+04  0.22699265422E+04  0.50400001928E-02 0. -1.
    10030    2    1    2    0    0  0.00000000000E+00  0.00000000000E+00 -0.76886141359E+03  0.37709916708E+04  0.36917787458E+04 0.  0.
        5    1    3    3  502    0 -0.14787174638E+04  0.10959183811E+04 -0.52759159429E+03  0.19146846780E+04  0.46999998093E+01 0.  1.
       -5    1    3    3    0  502  0.14787174638E+04 -0.10959183811E+04 -0.24126981930E+03  0.18563069928E+04  0.46999998093E+01 0. -1.
</event>
<event>
 5   0  0.1128166E-06  0.2336304E+04  0.7818609E-02  0.8463743E-01
       -2   -1    0    0    0  501  0.00000000000E+00  0.00000000000E+00  0.85659575807E+03  0.85659575808E+03  0.25500000920E-02 0.  1.
        2   -1    0    0  501    0  0.00000000000E+00  0.00000000000E+00 -0.15930263175E+04  0.15930263175E+04  0.25500000920E-02 0. -1.
    10030    2    1    2    0    0  0.00000000000E+00  0.00000000000E+00 -0.73643055938E+03  0.24496220755E+04  0.23363044203E+04 0.  0.
        3    1    3    3  502    0 -0.51087732827E+03  0.55297874692E+03 -0.13047335341E+04  0.15063567786E+04  0.10100000352E+00 0.  1.
       -3    1    3    3    0  502  0.51087732827E+03 -0.55297874692E+03  0.56830297476E+03  0.94326529694E+03  0.10100000352E+00 0. -1.
</event>
<event>
 5   0  0.1051123E-06  0.3589323E+04  0.7818609E-02  0.8092942E-01
       -2   -1    0    0    0  501  0.00000000000E+00  0.00000000000E+00  0.16171584543E+04  0.16171584543E+04  0.25500000920E-02 0. -1.
        2   -1    0    0  501    0  0.00000000000E+00  0.00000000000E+00 -0.19916482035E+04  0.19916482035E+04  0.25500000920E-02 0.  1.
    10030    2    1    2    0    0  0.00000000000E+00  0.00000000000E+00 -0.37448974923E+03  0.36088066578E+04  0.35893234628E+04 0.  0.
        2    1    3    3  502    0  0.32062818056E+03 -0.11575748911E+04 -0.15279102628E+04  0.19435256185E+04  0.25500000920E-02 0.  1.
       -2    1    3    3    0  502 -0.32062818056E+03  0.11575748911E+04  0.11534205135E+04  0.16652810393E+04  0.25500000920E-02 0. -1.
</event>
<event>
 5   0  0.3704306E-07  0.3684800E+04  0.7818609E-02  0.8071339E-01
        1   -1    0    0  501    0  0.00000000000E+00  0.00000000000E+00  0.28672293385E+04  0.28672293386E+04  0.50400001928E-02 0. -1.
       -1   -1    0    0    0  501  0.00000000000E+00  0.00000000000E+00 -0.11838736287E+04  0.11838736287E+04  0.50400001928E-02 0.  1.
    10030    2    1    2    0    0  0.00000000000E+00  0.00000000000E+00  0.16833557098E+04  0.40511029673E+04  0.36847996968E+04 0.  0.
        3    1    3    3  502    0  0.69828801687E+03 -0.60269525343E+03  0.25950855412E+04  0.27541453664E+04  0.10100000352E+00 0. -1.
       -3    1    3    3    0  502 -0.69828801687E+03  0.60269525343E+03 -0.91172983133E+03  0.12969576009E+04  0.10100000352E+00 0.  1.
</event>
<event>
 5   0  0.1128530E-06  0.3678954E+04  0.7818609E-02  0.8072642E-01
       -2   -1    0    0    0  501  0.00000000000E+00  0.00000000000E+00  0.28781866519E+04  0.28781866519E+04  0.25500000920E-02 0.  1.
        2   -1    0    0  501    0  0.00000000000E+00  0.00000000000E+00 -0.11756276687E+04  0.11756276687E+04  0.25500000920E-02 0. -1.
    10030    2    1    2    0    0  0.00000000000E+00  0.00000000000E+00  0.17025589833E+04  0.40538143206E+04  0.36789541251E+04 0.  0.
        5    1    3    3  502    0 -0.16955000770E+04  0.65130610049E+03  0.53052896703E+03  0.18921953447E+04  0.46999998093E+01 0. -1.
       -5    1    3    3    0  502  0.16955000770E+04 -0.65130610049E+03  0.11720300162E+04  0.21616189758E+04  0.46999998093E+01 0.  1.
</event>
<event>
 5   0  0.1128530E-06  0.2870136E+04  0.7818609E-02  0.8281819E-01
        2   -1    0    0  501    0  0.00000000000E+00  0.00000000000E+00  0.19100827400E+04  0.19100827400E+04  0.25500000920E-02 0.  1.
       -2   -1    0    0    0  501  0.00000000000E+00  0.00000000000E+00 -0.10781836811E+04  0.10781836811E+04  0.25500000920E-02 0. -1.
    10030    2    1    2    0    0  0.00000000000E+00  0.00000000000E+00  0.83189905884E+03  0.29882664211E+04  0.28701359130E+04 0.  0.
        5    1    3    3  502    0 -0.97371588310E+03 -0.79168726653E+03 -0.30876455371E+03  0.12923811313E+04  0.46999998093E+01 0. -1.
       -5    1    3    3    0  502  0.97371588310E+03  0.79168726653E+03  0.11406636125E+04  0.16958852897E+04  0.46999998093E+01 0.  1.
</event>
<event>
 5   0  0.1092116E-06  0.3663322E+04  0.7818609E-02  0.8076139E-01
       -2   -1    0    0    0  501  0.00000000000E+00  0.00000000000E+00  0.18055401770E+04  0.18055401770E+04  0.25500000920E-02 0.  1.
        2   -1    0    0  501    0  0.00000000000E+00  0.00000000000E+00 -0.18581598036E+04  0.18581598036E+04  0.25500000920E-02 0. -1.
    10030    2    1    2    0    0  0.00000000000E+00  0.00000000000E+00 -0.52619626674E+02  0.36636999806E+04  0.36633220883E+04 0.  0.
        1    1    3    3  502    0  0.65434698981E+03 -0.38841676675E+03  0.16399786824E+04  0.18079180420E+04  0.50400001928E-02 0.  1.
       -1    1    3    3    0  502 -0.65434698981E+03  0.38841676675E+03 -0.16925983091E+04  0.18557819386E+04  0.50400001928E-02 0. -1.
</event>
<event>
 5   0  0.1066907E-06  0.3626640E+04  0.7818609E-02  0.8084417E-01
        2   -1    0    0  501    0  0.00000000000E+00  0.00000000000E+00  0.27867684546E+04  0.27867684546E+04  0.25500000920E-02 0.  1.
       -2   -1    0    0    0  501  0.00000000000E+00  0.00000000000E+00 -0.11799075545E+04  0.11799075545E+04  0.25500000920E-02 0. -1.
    10030    2    1    2    0    0  0.00000000000E+00  0.00000000000E+00  0.16068609001E+04  0.39666760091E+04  0.36266398510E+04 0.  0.
        4    1    3    3  502    0 -0.12700676244E+04 -0.12941237716E+04  0.78450388472E+03  0.19756710416E+04  0.12699999809E+01 0.  1.
       -4    1    3    3    0  502  0.12700676244E+04  0.12941237716E+04  0.82235701541E+03  0.19910049674E+04  0.12699999809E+01 0. -1.
</event>
<event>
 5   0  0.3704306E-07  0.3726522E+04  0.7818609E-02  0.8062110E-01
        1   -1    0    0  501    0  0.00000000000E+00  0.00000000000E+00  0.28083166840E+04  0.28083166840E+04  0.50400001928E-02 0.  1.
       -1   -1    0    0    0  501  0.00000000000E+00  0.00000000000E+00 -0.12362354584E+04  0.12362354584E+04  0.50400001928E-02 0. -1.
    10030    2    1    2    0    0  0.00000000000E+00  0.00000000000E+00  0.15720812256E+04  0.40445521425E+04  0.37265215219E+04 0.  0.
        3    1    3    3  502    0 -0.24895107865E+02  0.17498910947E+03 -0.12271160233E+04  0.12397801013E+04  0.10100000352E+00 0. -1.
       -3    1    3    3    0  502  0.24895107865E+02 -0.17498910947E+03  0.27991972488E+04  0.28047720412E+04  0.10100000352E+00 0.  1.
</event>
<event>
 5   0  0.3682276E-07  0.3614520E+04  0.7818609E-02  0.8087174E-01
       -1   -1    0    0    0  501  0.00000000000E+00  0.00000000000E+00  0.16750623562E+04  0.16750623562E+04  0.50400001928E-02 0. -1.
        1   -1    0    0  501    0  0.00000000000E+00  0.00000000000E+00 -0.19498907422E+04  0.19498907422E+04  0.50400001928E-02 0.  1.
    10030    2    1    2    0    0  0.00000000000E+00  0.00000000000E+00 -0.27482838601E+03  0.36249530984E+04  0.36145199299E+04 0.  0.
        1    1    3    3  502    0 -0.27951065250E+03 -0.49818656304E+03 -0.18569689811E+04  0.19428458131E+04  0.50400001928E-02 0.  1.
       -1    1    3    3    0  502  0.27951065250E+03  0.49818656304E+03  0.15821405951E+04  0.16821072853E+04  0.50400001928E-02 0. -1.
</event>
<event>
 5   0  0.1092116E-06  0.3662355E+04  0.7818609E-02  0.8076356E-01
       -2   -1    0    0    0  501  0.00000000000E+00  0.00000000000E+00  0.18660117769E+04  0.18660117769E+04  0.25500000920E-02 0. -1.
        2   -1    0    0  501    0  0.00000000000E+00  0.00000000000E+00 -0.17969936453E+04  0.17969936453E+04  0.25500000920E-02 0.  1.
    10030    2    1    2    0    0  0.00000000000E+00  0.00000000000E+00  0.69018131643E+02  0.36630054222E+04  0.36623551467E+04 0.  0.
        1    1    3    3  502    0 -0.11795580708E+04  0.36508835649E+03 -0.13179753000E+04  0.18060192806E+04  0.50400001928E-02 0.  1.
       -1    1    3    3    0  502  0.11795580708E+04 -0.36508835649E+03  0.13869934317E+04  0.18569861416E+04  0.50400001928E-02 0. -1.
</event>
<event>
 5   0  0.3682276E-07  0.3110167E+04  0.7818609E-02  0.8212953E-01
       -1   -1    0    0    0  501  0.00000000000E+00  0.00000000000E+00  0.13460422831E+04  0.13460422831E+04  0.50400001928E-02 0. -1.
        1   -1    0    0  501    0  0.00000000000E+00  0.00000000000E+00 -0.17965885138E+04  0.17965885138E+04  0.50400001928E-02 0.  1.
    10030    2    1    2    0    0  0.00000000000E+00  0.00000000000E+00 -0.45054623069E+03  0.31426307969E+04  0.31101666225E+04 0.  0.
        1    1    3    3  502    0 -0.62499036703E+03  0.27180696926E+03 -0.16376444103E+04  0.17738013424E+04  0.50400001928E-02 0.  1.
       -1    1    3    3    0  502  0.62499036703E+03 -0.27180696926E+03  0.11870981796E+04  0.13688294545E+04  0.50400001928E-02 0. -1.
</event>
<event>
 5   0  0.1066907E-06  0.3741116E+04  0.7818609E-02  0.8058911E-01
        2   -1    0    0  501    0  0.00000000000E+00  0.00000000000E+00  0.19462013439E+04  0.19462013439E+04  0.25500000920E-02 0.  1.
       -2   -1    0    0    0  501  0.00000000000E+00  0.00000000000E+00 -0.17978549420E+04  0.17978549420E+04  0.25500000920E-02 0. -1.
    10030    2    1    2    0    0  0.00000000000E+00  0.00000000000E+00  0.14834640193E+03  0.37440562859E+04  0.37411162528E+04 0.  0.
        4    1    3    3  502    0  0.10286729994E+04  0.13202387741E+04 -0.76182004262E+03  0.18389045518E+04  0.12699999809E+01 0.  1.
       -4    1    3    3    0  502 -0.10286729994E+04 -0.13202387741E+04  0.91016644454E+03  0.19051517341E+04  0.12699999809E+01 0. -1.
</event>
<event>
 5   0  0.1128530E-06  0.3848734E+04  0.7818609E-02  0.8035777E-01
        2   -1    0    0  501    0  0.00000000000E+00  0.00000000000E+00  0.16900588395E+04  0.16900588395E+04  0.25500000920E-02 0. -1.
       -2   -1    0    0    0  501  0.00000000000E+00  0.00000000000E+00 -0.21911596101E+04  0.21911596101E+04  0.25500000920E-02 0.  1.
    10030    2    1    2    0    0  0.00000000000E+00  0.00000000000E+00 -0.50110077064E+03  0.38812184496E+04  0.38487341648E+04 0.  0.
        5    1    3    3  502    0  0.17746236041E+04 -0.56875132414E+03 -0.73460125723E+03  0.20031046159E+04  0.46999998093E+01 0.  1.
       -5    1    3    3    0  502 -0.17746236041E+04  0.56875132414E+03  0.23350048659E+03  0.18781138337E+04  0.46999998093E+01 0. -1.
</event>
<event>
 5   0  0.1128530E-06  0.3517720E+04  0.7818609E-02  0.8109603E-01
       -2   -1    0    0    0  501  0.00000000000E+00  0.00000000000E+00  0.12533982522E+04  0.12533982522E+04  0.25500000920E-02 0.  1.
        2   -1    0    0  501    0  0.00000000000E+00  0.00000000000E+00 -0.24681615095E+04  0.24681615095E+04  0.25500000920E-02 0. -1.
    10030    2    1    2    0    0  0.00000000000E+00  0.00000000000E+00 -0.12147632574E+04  0.37215597617E+04  0.35177204677E+04 0.  0.
        5    1    3    3  502    0  0.35323675315E+02 -0.21499293396E+03 -0.24538232127E+04  0.24634813116E+04  0.46999998093E+01 0. -1.
       -5    1    3    3    0  502 -0.35323675315E+02  0.21499293396E+03  0.12390599553E+04  0.12580784501E+04  0.46999998093E+01 0.  1.
</event>
<event>
 5   0  0.3764495E-07  0.3547028E+04  0.7818609E-02  0.8102734E-01
        1   -1    0    0  501    0  0.00000000000E+00  0.00000000000E+00  0.17683323244E+04  0.17683323244E+04  0.50400001928E-02 0.  1.
       -1   -1    0    0    0  501  0.00000000000E+00  0.00000000000E+00 -0.17787107849E+04  0.17787107849E+04  0.50400001928E-02 0. -1.
    10030    2    1    2    0    0  0.00000000000E+00  0.00000000000E+00 -0.10378460420E+02  0.35470431093E+04  0.35470279259E+04 0.  0.
        4    1    3    3  502    0 -0.58797126309E+03  0.15766136775E+04  0.55510708173E+03  0.17718821573E+04  0.12699999809E+01 0. -1.
       -4    1    3    3    0  502  0.58797126309E+03 -0.15766136775E+04 -0.56548554215E+03  0.17751609520E+04  0.12699999809E+01 0.  1.
</event>
<event>
 5   0  0.5416646E-07  0.2281569E+04  0.7818609E-02  0.8485224E-01
       -1   -1    0    0    0  501  0.00000000000E+00  0.00000000000E+00  0.12124561046E+04  0.12124561046E+04  0.50400001928E-02 0. -1.
        1   -1    0    0  501    0  0.00000000000E+00  0.00000000000E+00 -0.10733495090E+04  0.10733495090E+04  0.50400001928E-02 0.  1.
    10030    2    1    2    0    0  0.00000000000E+00  0.00000000000E+00  0.13910659560E+03  0.22858056136E+04  0.22815689028E+04 0.  0.
        4    1    3    3  502    0 -0.85186965529E+03  0.56633424577E+02 -0.68848789395E+03  0.10967709184E+04  0.12699999809E+01 0.  1.
       -4    1    3    3    0  502  0.85186965529E+03 -0.56633424577E+02  0.82759448956E+03  0.11890346952E+04  0.12699999809E+01 0. -1.
</event>
<event>
 5   0  0.3682276E-07  0.2460129E+04  0.7818609E-02  0.8417329E-01
        1   -1    0    0  501    0  0.00000000000E+00  0.00000000000E+00  0.20060588414E+04  0.20060588414E+04  0.50400001928E-02 0. -1.
       -1   -1    0    0    0  501  0.00000000000E+00  0.00000000000E+00 -0.75424430999E+03  0.75424431001E+03  0.50400001928E-02 0.  1.
    10030    2    1    2    0    0  0.00000000000E+00  0.00000000000E+00  0.12518145314E+04  0.27603031514E+04  0.24601288313E+04 0.  0.
        1    1    3    3  502    0  0.74566562625E+02  0.69797020784E+03  0.17592741285E+04  0.18941404495E+04  0.50400001928E-02 0. -1.
       -1    1    3    3    0  502 -0.74566562625E+02 -0.69797020784E+03 -0.50745959715E+03  0.86616270184E+03  0.50400001928E-02 0.  1.
</event>
<event>
 5   0  0.1128530E-06  0.2484506E+04  0.7818609E-02  0.8408526E-01
        2   -1    0    0  501    0  0.00000000000E+00  0.00000000000E+00  0.85132327996E+03  0.85132327996E+03  0.25500000920E-02 0. -1.
       -2   -1    0    0    0  501  0.00000000000E+00  0.00000000000E+00 -0.18126984213E+04  0.18126984213E+04  0.25500000920E-02 0.  1.
    10030    2    1    2    0    0  0.00000000000E+00  0.00000000000E+00 -0.96137514135E+03  0.26640217013E+04  0.24845058789E+04 0.  0.
        5    1    3    3  502    0 -0.23440842975E+03  0.29108642503E+03  0.78960175066E+03  0.87359695135E+03  0.46999998093E+01 0.  1.
       -5    1    3    3    0  502  0.23440842975E+03 -0.29108642503E+03 -0.17509768920E+04  0.17904247499E+04  0.46999998093E+01 0. -1.
</event>
<event>
 5   0  0.1066907E-06  0.3606147E+04  0.7818609E-02  0.8089085E-01
        2   -1    0    0  501    0  0.00000000000E+00  0.00000000000E+00  0.15609881873E+04  0.15609881873E+04  0.25500000920E-02 0. -1.
       -2   -1    0    0    0  501  0.00000000000E+00  0.00000000000E+00 -0.20827024933E+04  0.20827024933E+04  0.25500000920E-02 0.  1.
    10030    2    1    2    0    0  0.00000000000E+00  0.00000000000E+00 -0.52171430602E+03  0.36436906806E+04  0.36061469686E+04 0.  0.
        4    1    3    3  502    0 -0.75172032938E+03 -0.63300661617E+03 -0.17883137765E+04  0.20405510544E+04  0.12699999809E+01 0.  1.
       -4    1    3    3    0  502  0.75172032938E+03  0.63300661617E+03  0.12665994704E+04  0.16031396262E+04  0.12699999809E+01 0. -1.
</event>
<event>
 5   0  0.1092116E-06  0.3818658E+04  0.7818609E-02  0.8042163E-01
       -2   -1    0    0    0  501  0.00000000000E+00  0.00000000000E+00  0.14786636295E+04  0.14786636295E+04  0.25500000920E-02 0.  1.
        2   -1    0    0  501    0  0.00000000000E+00  0.00000000000E+00 -0.24654263685E+04  0.24654263685E+04  0.25500000920E-02 0. -1.
    10030    2    1    2    0    0  0.00000000000E+00  0.00000000000E+00 -0.98676273905E+03  0.39440899981E+04  0.38186575140E+04 0.  0.
        1    1    3    3  502    0 -0.81771339680E+03  0.11429507091E+04 -0.18283318862E+04  0.23060331760E+04  0.50400001928E-02 0. -1.
       -1    1    3    3    0  502  0.81771339680E+03 -0.11429507091E+04  0.84156914713E+03  0.16380568220E+04  0.50400001928E-02 0.  1.
</event>
<event>
 5   0  0.1092116E-06  0.3456909E+04  0.7818609E-02  0.8124079E-01
        2   -1    0    0  501    0  0.00000000000E+00  0.00000000000E+00  0.15174444820E+04  0.15174444820E+04  0.25500000920E-02 0.  1.
       -2   -1    0    0    0  501  0.00000000000E+00  0.00000000000E+00 -0.19688062355E+04  0.19688062355E+04  0.25500000920E-02 0. -1.
    10030    2    1    2    0    0  0.00000000000E+00  0.00000000000E+00 -0.45136175346E+03  0.34862507175E+04  0.34569085370E+04 0.  0.
        1    1    3    3  502    0 -0.17205386281E+04  0.15411479635E+03 -0.28576524183E+03  0.17509044276E+04  0.50400001928E-02 0. -1.
       -1    1    3    3    0  502  0.17205386281E+04 -0.15411479635E+03 -0.16559651162E+03  0.17353462899E+04  0.50400001928E-02 0.  1.
</event>
<event>
 5   0  0.3848431E-07  0.3618568E+04  0.7818609E-02  0.8086252E-01
        1   -1    0    0  501    0  0.00000000000E+00  0.00000000000E+00  0.18625256162E+04  0.18625256162E+04  0.50400001928E-02 0.  1.
       -1   -1    0    0    0  501  0.00000000000E+00  0.00000000000E+00 -0.17575639706E+04  0.17575639706E+04  0.50400001928E-02 0. -1.
    10030    2    1    2    0    0  0.00000000000E+00  0.00000000000E+00  0.10496164561E+03  0.36200895867E+04  0.36185676267E+04 0.  0.
        2    1    3    3  502    0  0.16834684963E+04  0.24462538882E+02 -0.61025030951E+03  0.17908294263E+04  0.25500000920E-02 0.  1.
       -2    1    3    3    0  502 -0.16834684963E+04 -0.24462538882E+02  0.71521195512E+03  0.18292601604E+04  0.25500000920E-02 0. -1.
</event>
<event>
 5   0  0.3490375E-07  0.3647398E+04  0.7818609E-02  0.8079720E-01
        3   -1    0    0  501    0  0.00000000000E+00  0.00000000000E+00  0.24139411560E+04  0.24139411582E+04  0.10100000352E+00 0. -1.
       -3   -1    0    0    0  501  0.00000000000E+00  0.00000000000E+00 -0.13777793535E+04  0.13777793572E+04  0.10100000352E+00 0.  1.
    10030    2    1    2    0    0  0.00000000000E+00  0.00000000000E+00  0.10361618025E+04  0.37917205154E+04  0.36473981392E+04 0.  0.
        1    1    3    3  502    0 -0.17732827991E+04 -0.13298067386E+03  0.97521055584E+02  0.17809340531E+04  0.50400001928E-02 0.  1.
       -1    1    3    3    0  502  0.17732827991E+04  0.13298067386E+03  0.93864074693E+03  0.20107864623E+04  0.50400001928E-02 0. -1.
</event>
<event>
 5   0  0.1128530E-06  0.3788597E+04  0.7818609E-02  0.8048606E-01
       -2   -1    0    0    0  501  0.00000000000E+00  0.00000000000E+00  0.13370722382E+04  0.13370722382E+04  0.25500000920E-02 0.  1.
        2   -1    0    0  501    0  0.00000000000E+00  0.00000000000E+00 -0.26837490288E+04  0.26837490288E+04  0.25500000920E-02 0. -1.
    10030    2    1    2    0    0  0.00000000000E+00  0.00000000000E+00 -0.13466767906E+04  0.40208212670E+04  0.37885967432E+04 0.  0.
        5    1    3    3  502    0  0.16240646634E+04 -0.64514904103E+03 -0.14492761128E+04  0.22702921964E+04  0.46999998093E+01 0. -1.
       -5    1    3    3    0  502 -0.16240646634E+04  0.64514904103E+03  0.10259932216E+03  0.17505290706E+04  0.46999998093E+01 0.  1.
</event>
<event>
 5   0  0.3764495E-07  0.3665669E+04  0.7818609E-02  0.8075613E-01
        1   -1    0    0  501    0  0.00000000000E+00  0.00000000000E+00  0.23693111590E+04  0.23693111590E+04  0.50400001928E-02 0. -1.
       -1   -1    0    0    0  501  0.00000000000E+00  0.00000000000E+00 -0.14178305817E+04  0.14178305817E+04  0.50400001928E-02 0.  1.
    10030    2    1    2    0    0  0.00000000000E+00  0.00000000000E+00  0.95148057734E+03  0.37871417407E+04  0.36656687350E+04 0.  0.
        4    1    3    3  502    0  0.30821959819E+03  0.10016281231E+04  0.20292384272E+04  0.22838713679E+04  0.12699999809E+01 0. -1.
       -4    1    3    3    0  502 -0.30821959819E+03 -0.10016281231E+04 -0.10777578499E+04  0.15032703728E+04  0.12699999809E+01 0.  1.
</event>
<event>
 5   0  0.1051123E-06  0.3757164E+04  0.7818609E-02  0.8055410E-01
       -2   -1    0    0    0  501  0.00000000000E+00  0.00000000000E+00  0.19302550942E+04  0.19302550942E+04  0.25500000920E-02 0.  1.
        2   -1    0    0  501    0  0.00000000000E+00  0.00000000000E+00 -0.18282925306E+04  0.18282925306E+04  0.25500000920E-02 0. -1.
    10030    2    1    2    0    0  0.00000000000E+00  0.00000000000E+00  0.10196256358E+03  0.37585476248E+04  0.37571643408E+04 0.  0.
        2    1    3    3  502    0  0.18822449619E+03 -0.42771982248E+03 -0.17692210496E+04  0.18298950325E+04  0.25500000920E-02 0. -1.
       -2    1    3    3    0  502 -0.18822449619E+03  0.42771982248E+03  0.18711836132E+04  0.19286525923E+04  0.25500000920E-02 0.  1.
</event>
<event>
 5   0  0.3682276E-07  0.3686089E+04  0.7818609E-02  0.8071052E-01
       -1   -1    0    0    0  501  0.00000000000E+00  0.00000000000E+00  0.14597651285E+04  0.14597651285E+04  0.50400001928E-02 0. -1.
        1   -1    0    0  501    0  0.00000000000E+00  0.00000000000E+00 -0.23269587537E+04  0.23269587537E+04  0.50400001928E-02 0.  1.
    10030    2    1    2    0    0  0.00000000000E+00  0.00000000000E+00 -0.86719362526E+03  0.37867238822E+04  0.36860891167E+04 0.  0.
        1    1    3    3  502    0 -0.17812017361E+04 -0.47317584044E+03 -0.44945334035E+03  0.18969932277E+04  0.50400001928E-02 0.  1.
       -1    1    3    3    0  502  0.17812017361E+04  0.47317584044E+03 -0.41774028491E+03  0.18897306545E+04  0.50400001928E-02 0. -1.
</event>
<event>
 5   0  0.1128166E-06  0.2605143E+04  0.7818609E-02  0.8366456E-01
       -2   -1    0    0    0  501  0.00000000000E+00  0.00000000000E+00  0.16017565064E+04  0.16017565064E+04  0.25500000920E-02 0.  1.
        2   -1    0    0  501    0  0.00000000000E+00  0.00000000000E+00 -0.10592699566E+04  0.10592699566E+04  0.25500000920E-02 0. -1.
    10030    2    1    2    0    0  0.00000000000E+00  0.00000000000E+00  0.54248654982E+03  0.26610264631E+04  0.26051430249E+04 0.  0.
        3    1    3    3  502    0 -0.11998815938E+04  0.20786777771E+03 -0.20102486339E+03  0.12342349282E+04  0.10100000352E+00 0.  1.
       -3    1    3    3    0  502  0.11998815938E+04 -0.20786777771E+03  0.74351141321E+03  0.14267915349E+04  0.10100000352E+00 0. -1.
</event>
<event>
 5   0  0.1128530E-06  0.3642115E+04  0.7818609E-02  0.8080912E-01
        2   -1    0    0  501    0  0.00000000000E+00  0.00000000000E+00  0.13125913278E+04  0.13125913278E+04  0.25500000920E-02 0.  1.
       -2   -1    0    0    0  501  0.00000000000E+00  0.00000000000E+00 -0.25264918692E+04  0.25264918692E+04  0.25500000920E-02 0. -1.
    10030    2    1    2    0    0  0.00000000000E+00  0.00000000000E+00 -0.12139005414E+04  0.38390831970E+04  0.36421154936E+04 0.  0.
        5    1    3    3  502    0  0.62660186732E+03  0.23106134489E+03  0.11788407942E+04  0.13548826345E+04  0.46999998093E+01 0.  1.
       -5    1    3    3    0  502 -0.62660186732E+03 -0.23106134489E+03 -0.23927413356E+04  0.24842005624E+04  0.46999998093E+01 0. -1.
</event>
<event>
 5   0  0.3704306E-07  0.3773704E+04  0.7818609E-02  0.8051822E-01
       -1   -1    0    0    0  501  0.00000000000E+00  0.00000000000E+00  0.31047246035E+04  0.31047246035E+04  0.50400001928E-02 0. -1.
        1   -1    0    0  501    0  0.00000000000E+00  0.00000000000E+00 -0.11467070749E+04  0.11467070749E+04  0.50400001928E-02 0.  1.
    10030    2    1    2    0    0  0.00000000000E+00  0.00000000000E+00  0.19580175286E+04  0.42514316783E+04  0.37737035752E+04 0.  0.
        3    1    3    3  502    0  0.30703739820E+03 -0.17297953988E+04  0.17544341293E+04  0.24828417609E+04  0.10100000352E+00 0. -1.
       -3    1    3    3    0  502 -0.30703739820E+03  0.17297953988E+04  0.20358339937E+03  0.17685899175E+04  0.10100000352E+00 0.  1.
</event>
<event>
 5   0  0.3682276E-07  0.3651827E+04  0.7818609E-02  0.8078722E-01
       -1   -1    0    0    0  501  0.00000000000E+00  0.00000000000E+00  0.16667219495E+04  0.16667219495E+04  0.50400001928E-02 0.  1.
        1   -1    0    0  501    0  0.00000000000E+00  0.00000000000E+00 -0.20003099271E+04  0.20003099271E+04  0.50400001928E-02 0. -1.
    10030    2    1    2    0    0  0.00000000000E+00  0.00000000000E+00 -0.33358797765E+03  0.36670318766E+04  0.36518271927E+04 0.  0.
        1    1    3    3  502    0  0.39551230468E+02  0.14833330440E+04  0.90164703046E+03  0.17363204159E+04  0.50400001928E-02 0.  1.
       -1    1    3    3    0  502 -0.39551230468E+02 -0.14833330440E+04 -0.12352350081E+04  0.19307114607E+04  0.50400001928E-02 0. -1.
</event>
<event>
 5   0  0.3675819E-07  0.3678628E+04  0.7818609E-02  0.8072715E-01
       -1   -1    0    0    0  501  0.00000000000E+00  0.00000000000E+00  0.24912277459E+04  0.24912277459E+04  0.50400001928E-02 0.  1.
        1   -1    0    0  501    0  0.00000000000E+00  0.00000000000E+00 -0.13579953001E+04  0.13579953001E+04  0.50400001928E-02 0. -1.
    10030    2    1    2    0    0  0.00000000000E+00  0.00000000000E+00  0.11332324457E+04  0.38492230460E+04  0.36786277716E+04 0.  0.
        5    1    3    3  502    0  0.66988673972E+03  0.15501918638E+04  0.13292578832E+04  0.21491374244E+04  0.46999998093E+01 0.  1.
       -5    1    3    3    0  502 -0.66988673972E+03 -0.15501918638E+04 -0.19602543749E+03  0.17000856216E+04  0.46999998093E+01 0. -1.
</event>
<event>
 5   0  0.1128530E-06  0.3683485E+04  0.7818609E-02  0.8071632E-01
        2   -1    0    0  501    0  0.00000000000E+00  0.00000000000E+00  0.14935627143E+04  0.14935627143E+04  0.25500000920E-02 0.  1.
       -2   -1    0    0    0  501  0.00000000000E+00  0.00000000000E+00 -0.22710906632E+04  0.22710906632E+04  0.25500000920E-02 0. -1.
    10030    2    1    2    0    0  0.00000000000E+00  0.00000000000E+00 -0.77752794888E+03  0.37646533775E+04  0.36834854881E+04 0.  0.
        5    1    3    3  502    0  0.14331284060E+04 -0.53479855859E+03 -0.14370994045E+04  0.20988433278E+04  0.46999998093E+01 0. -1.
       -5    1    3    3    0  502 -0.14331284060E+04  0.53479855859E+03  0.65957145566E+03  0.16658100496E+04  0.46999998093E+01 0.  1.
</event>
<event>
 5   0  0.1128530E-06  0.3482755E+04  0.7818609E-02  0.8117889E-01
        2   -1    0    0  501    0  0.00000000000E+00  0.00000000000E+00  0.22393551672E+04  0.22393551672E+04  0.25500000920E-02 0.  1.
       -2   -1    0    0    0  501  0.00000000000E+00  0.00000000000E+00 -0.13541380730E+04  0.13541380730E+04  0.25500000920E-02 0. -1.
    10030    2    1    2    0    0  0.00000000000E+00  0.00000000000E+00  0.88521709419E+03  0.35934932402E+04  0.34827552833E+04 0.  0.
        5    1    3    3  502    0  0.42168503578E+03  0.65720664000E+03  0.20485802205E+04  0.21923598808E+04  0.46999998093E+01 0.  1.
       -5    1    3    3    0  502 -0.42168503578E+03 -0.65720664000E+03 -0.11633631263E+04  0.14011333594E+04  0.46999998093E+01 0. -1.
</event>
<event>
 5   0  0.1128166E-06  0.3630010E+04  0.7818609E-02  0.8083652E-01
        2   -1    0    0  501    0  0.00000000000E+00  0.00000000000E+00  0.23361233508E+04  0.23361233508E+04  0.25500000920E-02 0. -1.
       -2   -1    0    0    0  501  0.00000000000E+00  0.00000000000E+00 -0.14101321267E+04  0.14101321267E+04  0.25500000920E-02 0.  1.
    10030    2    1    2    0    0  0.00000000000E+00  0.00000000000E+00  0.92599122411E+03  0.37462554774E+04  0.36300096908E+04 0.  0.
        3    1    3    3  502    0  0.88345483511E+03  0.41217030310E+03 -0.11170003432E+04  0.14825877989E+04  0.10100000352E+00 0.  1.
       -3    1    3    3    0  502 -0.88345483511E+03 -0.41217030310E+03  0.20429915673E+04  0.22636676785E+04  0.10100000352E+00 0. -1.
</event>
<event>
 5   0  0.1128530E-06  0.2410518E+04  0.7818609E-02  0.8435576E-01
        2   -1    0    0  501    0  0.00000000000E+00  0.00000000000E+00  0.14043677265E+04  0.14043677265E+04  0.25500000920E-02 0. -1.
       -2   -1    0    0    0  501  0.00000000000E+00  0.00000000000E+00 -0.10343799181E+04  0.10343799181E+04  0.25500000920E-02 0.  1.
    10030    2    1    2    0    0  0.00000000000E+00  0.00000000000E+00  0.36998780843E+03  0.24387476446E+04  0.24105184288E+04 0.  0.
        5    1    3    3  502    0 -0.97038380525E+02 -0.70181443199E+03  0.11714341556E+04  0.13690288584E+04  0.46999998093E+01 0. -1.
       -5    1    3    3    0  502  0.97038380525E+02  0.70181443199E+03 -0.80144634712E+03  0.10697187862E+04  0.46999998093E+01 0.  1.
</event>
<event>
 5   0  0.3848431E-07  0.3680053E+04  0.7818609E-02  0.8072397E-01
       -1   -1    0    0    0  501  0.00000000000E+00  0.00000000000E+00  0.13699138868E+04  0.13699138868E+04  0.50400001928E-02 0.  1.
        1   -1    0    0  501    0  0.00000000000E+00  0.00000000000E+00 -0.24714670369E+04  0.24714670370E+04  0.50400001928E-02 0. -1.
    10030    2    1    2    0    0  0.00000000000E+00  0.00000000000E+00 -0.11015531502E+04  0.38413809237E+04  0.36800527250E+04 0.  0.
        2    1    3    3  502    0 -0.82218639795E+03  0.13202996016E+03  0.11619696298E+04  0.14295439146E+04  0.25500000920E-02 0.  1.
       -2    1    3    3    0  502  0.82218639795E+03 -0.13202996016E+03 -0.22635227799E+04  0.24118370091E+04  0.25500000920E-02 0. -1.
</event>
<event>
 5   0  0.1128166E-06  0.3714128E+04  0.7818609E-02  0.8064838E-01
       -2   -1    0    0    0  501  0.00000000000E+00  0.00000000000E+00  0.14282583692E+04  0.14282583692E+04  0.25500000920E-02 0. -1.
        2   -1    0    0  501    0  0.00000000000E+00  0.00000000000E+00 -0.24146093856E+04  0.24146093856E+04  0.25500000920E-02 0.  1.
    10030    2    1    2    0    0  0.00000000000E+00  0.00000000000E+00 -0.98635101639E+03  0.38428677548E+04  0.37141276571E+04 0.  0.
        3    1    3    3  502    0 -0.62066113162E+03 -0.37705822247E+02  0.13173486833E+04  0.14567256203E+04  0.10100000352E+00 0. -1.
       -3    1    3    3    0  502  0.62066113162E+03  0.37705822247E+02 -0.23036996997E+04  0.23861421344E+04  0.10100000352E+00 0.  1.
</event>
<event>
 5   0  0.1051123E-06  0.3638821E+04  0.7818609E-02  0.8081657E-01
       -2   -1    0    0    0  501  0.00000000000E+00  0.00000000000E+00  0.23204938982E+04  0.23204938982E+04  0.25500000920E-02 0. -1.
        2   -1    0    0  501    0  0.00000000000E+00  0.00000000000E+00 -0.14265302898E+04  0.14265302898E+04  0.25500000920E-02 0.  1.
    10030    2    1    2    0    0  0.00000000000E+00  0.00000000000E+00  0.89396360848E+03  0.37470241880E+04  0.36388211460E+04 0.  0.
        2    1    3    3  502    0 -0.17013087893E+04 -0.60720144309E+03  0.67048343610E+03  0.19268350285E+04  0.25500000920E-02 0. -1.
       -2    1    3    3    0  502  0.17013087893E+04  0.60720144309E+03  0.22348017238E+03  0.18201891595E+04  0.25500000920E-02 0.  1.
</event>
<event>
 5   0  0.1128166E-06  0.2925662E+04  0.7818609E-02  0.8265283E-01
       -2   -1    0    0    0  501  0.00000000000E+00  0.00000000000E+00  0.12807164755E+04  0.12807164755E+04  0.25500000920E-02 0.  1.
        2   -1    0    0  501    0  0.00000000000E+00  0.00000000000E+00 -0.16708417200E+04  0.16708417200E+04  0.25500000920E-02 0. -1.
    10030    2    1    2    0    0  0.00000000000E+00  0.00000000000E+00 -0.39012524453E+03  0.29515581955E+04  0.29256619892E+04 0.  0.
        3    1    3    3  502    0 -0.10484029704E+04 -0.95515424720E+03  0.16644711752E+03  0.14279961755E+04  0.10100000352E+00 0. -1.
       -3    1    3    3    0  502  0.10484029704E+04  0.95515424720E+03 -0.55657236205E+03  0.15235620199E+04  0.10100000352E+00 0.  1.
</event>
<event>
 5   0  0.3848431E-07  0.3725032E+04  0.7818609E-02  0.8062437E-01
       -1   -1    0    0    0  501  0.00000000000E+00  0.00000000000E+00  0.12957178976E+04  0.12957178977E+04  0.50400001928E-02 0.  1.
        1   -1    0    0  501    0  0.00000000000E+00  0.00000000000E+00 -0.26772532286E+04  0.26772532286E+04  0.50400001928E-02 0. -1.
    10030    2    1    2    0    0  0.00000000000E+00  0.00000000000E+00 -0.13815353309E+04  0.39729711262E+04  0.37250315031E+04 0.  0.
        2    1    3    3  502    0  0.15929450990E+04  0.95986157612E+03 -0.58327979853E+03  0.19491084262E+04  0.25500000920E-02 0.  1.
       -2    1    3    3    0  502 -0.15929450990E+04 -0.95986157612E+03 -0.79825553240E+03  0.20238627001E+04  0.25500000920E-02 0. -1.
</event>
<event>
 5   0  0.1051123E-06  0.3682921E+04  0.7818609E-02  0.8071757E-01
       -2   -1    0    0    0  501  0.00000000000E+00  0.00000000000E+00  0.12547578301E+04  0.12547578301E+04  0.25500000920E-02 0. -1.
        2   -1    0    0  501    0  0.00000000000E+00  0.00000000000E+00 -0.27024954739E+04  0.27024954739E+04  0.25500000920E-02 0.  1.
    10030    2    1    2    0    0  0.00000000000E+00  0.00000000000E+00 -0.14477376438E+04  0.39572533040E+04  0.36829213170E+04 0.  0.
        2    1    3    3  502    0  0.12113216784E+04 -0.59697616545E+03  0.62130066168E+03  0.14865043770E+04  0.25500000920E-02 0. -1.
       -2    1    3    3    0  502 -0.12113216784E+04  0.59697616545E+03 -0.20690383055E+04  0.24707489270E+04  0.25500000920E-02 0.  1.
</event>
<event>
 5   0  0.3764495E-07  0.3652455E+04  0.7818609E-02  0.8078581E-01
       -1   -1    0    0    0  501  0.00000000000E+00  0.00000000000E+00  0.10138376978E+04  0.10138376979E+04  0.50400001928E-02 0.  1.
        1   -1    0    0  501    0  0.00000000000E+00  0.00000000000E+00 -0.32895873682E+04  0.32895873682E+04  0.50400001928E-02 0. -1.
    10030    2    1    2    0    0  0.00000000000E+00  0.00000000000E+00 -0.22757496703E+04  0.43034250660E+04  0.36524554394E+04 0.  0.
        4    1    3    3  502    0  0.10952800477E+04  0.10890595170E+04 -0.22859169866E+04  0.27588234987E+04  0.12699999809E+01 0.  1.
       -4    1    3    3    0  502 -0.10952800477E+04 -0.10890595170E+04  0.10167316280E+02  0.15446015673E+04  0.12699999809E+01 0. -1.
</event>
<event>
 5   0  0.3764495E-07  0.3094888E+04  0.7818609E-02  0.8217142E-01
        1   -1    0    0  501    0  0.00000000000E+00  0.00000000000E+00  0.19015116471E+04  0.19015116471E+04  0.50400001928E-02 0. -1.
       -1   -1    0    0    0  501  0.00000000000E+00  0.00000000000E+00 -0.12593050190E+04  0.12593050190E+04  0.50400001928E-02 0.  1.
    10030    2    1    2    0    0  0.00000000000E+00  0.00000000000E+00  0.64220662809E+03  0.31608166661E+04  0.30948881472E+04 0.  0.
        4    1    3    3  502    0  0.52595937163E+02 -0.19579978684E+03 -0.12456816274E+04  0.12620729848E+04  0.12699999809E+01 0.  1.
       -4    1    3    3    0  502 -0.52595937163E+02  0.19579978684E+03  0.18878882555E+04  0.18987436813E+04  0.12699999809E+01 0. -1.
</event>
<event>
 5   0  0.1066907E-06  0.3742324E+04  0.7818609E-02  0.8058646E-01
       -2   -1    0    0    0  501  0.00000000000E+00  0.00000000000E+00  0.14731414584E+04  0.14731414584E+04  0.25500000920E-02 0. -1.
        2   -1    0    0  501    0  0.00000000000E+00  0.00000000000E+00 -0.23767218459E+04  0.23767218459E+04  0.25500000920E-02 0.  1.
    10030    2    1    2    0    0  0.00000000000E+00  0.00000000000E+00 -0.90358038749E+03  0.38498633044E+04  0.37423241369E+04 0.  0.
        4    1    3    3  502    0 -0.58011481165E+03  0.16560528374E+04 -0.11202324347E+04  0.20818180794E+04  0.12699999809E+01 0.  1.
       -4    1    3    3    0  502  0.58011481165E+03 -0.16560528374E+04  0.21665204718E+03  0.17680452250E+04  0.12699999809E+01 0. -1.
</event>
<event>
 5   0  0.3675819E-07  0.3545007E+04  0.7818609E-02  0.8103206E-01
        1   -1    0    0  501    0  0.00000000000E+00  0.00000000000E+00  0.25150583323E+04  0.25150583323E+04  0.50400001928E-02 0. -1.
       -1   -1    0    0    0  501  0.00000000000E+00  0.00000000000E+00 -0.12491834446E+04  0.12491834446E+04  0.50400001928E-02 0.  1.
    10030    2    1    2    0    0  0.00000000000E+00  0.00000000000E+00  0.12658748878E+04  0.37642417769E+04  0.35450073235E+04 0.  0.
        5    1    3    3  502    0  0.97386500386E+03 -0.91170604506E+03  0.18722163115E+04  0.22988773272E+04  0.46999998093E+01 0. -1.
       -5    1    3    3    0  502 -0.97386500386E+03  0.91170604506E+03 -0.60634142374E+03  0.14653644497E+04  0.46999998093E+01 0.  1.
</event>
<event>
 5   0  0.3848431E-07  0.2976159E+04  0.7818609E-02  0.8250572E-01
        1   -1    0    0  501    0  0.00000000000E+00  0.00000000000E+00  0.20746195958E+04  0.20746195958E+04  0.50400001928E-02 0. -1.
       -1   -1    0    0    0  501  0.00000000000E+00  0.00000000000E+00 -0.10673672591E+04  0.10673672591E+04  0.50400001928E-02 0.  1.
    10030    2    1    2    0    0  0.00000000000E+00  0.00000000000E+00  0.10072523367E+04  0.31419868549E+04  0.29761592912E+04 0.  0.
        2    1    3    3  502    0 -0.49599325488E+03  0.29449632086E+03 -0.94453494083E+03  0.11067446166E+04  0.25500000920E-02 0.  1.
       -2    1    3    3    0  502  0.49599325488E+03 -0.29449632086E+03  0.19517872776E+04  0.20352422384E+04  0.25500000920E-02 0. -1.
</event>
<event>
 5   0  0.1092116E-06  0.3658429E+04  0.7818609E-02  0.8077237E-01
        2   -1    0    0  501    0  0.00000000000E+00  0.00000000000E+00  0.24800129488E+04  0.24800129488E+04  0.25500000920E-02 0. -1.
       -2   -1    0    0    0  501  0.00000000000E+00  0.00000000000E+00 -0.13491969328E+04  0.13491969328E+04  0.25500000920E-02 0.  1.
    10030    2    1    2    0    0  0.00000000000E+00  0.00000000000E+00  0.11308160161E+04  0.38292098816E+04  0.36584290966E+04 0.  0.
        1    1    3    3  502    0 -0.14245100965E+04 -0.91731579255E+03  0.12870328825E+04  0.21277102526E+04  0.50400001928E-02 0. -1.
       -1    1    3    3    0  502  0.14245100965E+04  0.91731579255E+03 -0.15621686642E+03  0.17014996290E+04  0.50400001928E-02 0.  1.
</event>
<event>
 5   0  0.1128166E-06  0.2680007E+04  0.7818609E-02  0.8341521E-01
       -2   -1    0    0    0  501  0.00000000000E+00  0.00000000000E+00  0.12491863109E+04  0.12491863109E+04  0.25500000920E-02 0.  1.
        2   -1    0    0  501    0  0.00000000000E+00  0.00000000000E+00 -0.14374232514E+04  0.14374232514E+04  0.25500000920E-02 0. -1.
    10030    2    1    2    0    0  0.00000000000E+00  0.00000000000E+00 -0.18823694049E+03  0.26866095624E+04  0.26800070513E+04 0.  0.
        3    1    3    3  502    0 -0.94792234965E+03 -0.69546740054E+03 -0.73864703460E+03  0.13884635890E+04  0.10100000352E+00 0. -1.
       -3    1    3    3    0  502  0.94792234965E+03  0.69546740054E+03  0.55041009411E+03  0.12981459733E+04  0.10100000352E+00 0.  1.
</event>
<event>
 5   0  0.1051123E-06  0.3668582E+04  0.7818609E-02  0.8074960E-01
       -2   -1    0    0    0  501  0.00000000000E+00  0.00000000000E+00  0.14114232215E+04  0.14114232215E+04  0.25500000920E-02 0. -1.
        2   -1    0    0  501    0  0.00000000000E+00  0.00000000000E+00 -0.23838516742E+04  0.23838516742E+04  0.25500000920E-02 0.  1.
    10030    2    1    2    0    0  0.00000000000E+00  0.00000000000E+00 -0.97242845271E+03  0.37952748958E+04  0.36685820747E+04 0.  0.
        2    1    3    3  502    0 -0.15741422720E+04  0.34999707044E+03  0.41816174957E+03  0.16659174921E+04  0.25500000920E-02 0. -1.
       -2    1    3    3    0  502  0.15741422720E+04 -0.34999707044E+03 -0.13905902023E+04  0.21293574036E+04  0.25500000920E-02 0.  1.
</event>
<event>
 5   0  0.3682276E-07  0.3507293E+04  0.7818609E-02  0.8112064E-01
       -1   -1    0    0    0  501  0.00000000000E+00  0.00000000000E+00  0.15337410759E+04  0.15337410759E+04  0.50400001928E-02 0.  1.
        1   -1    0    0  501    0  0.00000000000E+00  0.00000000000E+00 -0.20050813617E+04  0.20050813617E+04  0.50400001928E-02 0. -1.
    10030    2    1    2    0    0  0.00000000000E+00  0.00000000000E+00 -0.47134028585E+03  0.35388224376E+04  0.35072927708E+04 0.  0.
        1    1    3    3  502    0  0.10758185756E+04  0.89270906412E+03 -0.13039423245E+04  0.19116957568E+04  0.50400001928E-02 0. -1.
       -1    1    3    3    0  502 -0.10758185756E+04 -0.89270906412E+03  0.83260203864E+03  0.16271266809E+04  0.50400001928E-02 0.  1.
</event>
<event>
 5   0  0.1066907E-06  0.3085803E+04  0.7818609E-02  0.8219645E-01
       -2   -1    0    0    0  501  0.00000000000E+00  0.00000000000E+00  0.91986766349E+03  0.91986766349E+03  0.25500000920E-02 0.  1.
        2   -1    0    0  501    0  0.00000000000E+00  0.00000000000E+00 -0.25879212311E+04  0.25879212311E+04  0.25500000920E-02 0. -1.
    10030    2    1    2    0    0  0.00000000000E+00  0.00000000000E+00 -0.16680535676E+04  0.35077888946E+04  0.30858030113E+04 0.  0.
        4    1    3    3  502    0 -0.23646592624E+03 -0.11399538943E+04 -0.19849735477E+04  0.23012024277E+04  0.12699999809E+01 0. -1.
       -4    1    3    3    0  502  0.23646592624E+03  0.11399538943E+04  0.31691998009E+03  0.12065864669E+04  0.12699999809E+01 0.  1.
</event>
<event>
 5   0  0.3704306E-07  0.2781904E+04  0.7818609E-02  0.8308909E-01
       -1   -1    0    0    0  501  0.00000000000E+00  0.00000000000E+00  0.68948551560E+03  0.68948551562E+03  0.50400001928E-02 0.  1.
        1   -1    0    0  501    0  0.00000000000E+00  0.00000000000E+00 -0.28060733809E+04  0.28060733809E+04  0.50400001928E-02 0. -1.
    10030    2    1    2    0    0  0.00000000000E+00  0.00000000000E+00 -0.21165878653E+04  0.34955588965E+04  0.27819036301E+04 0.  0.
        3    1    3    3  502    0 -0.25078267903E+03  0.12316345056E+04 -0.18068886785E+04  0.22010593391E+04  0.10100000352E+00 0. -1.
       -3    1    3    3    0  502  0.25078267903E+03 -0.12316345056E+04 -0.30969918676E+03  0.12944995574E+04  0.10100000352E+00 0.  1.
</event>
<event>
 5   0  0.1128166E-06  0.3620649E+04  0.7818609E-02  0.8085778E-01
        2   -1    0    0  501    0  0.00000000000E+00  0.00000000000E+00  0.23422141110E+04  0.23422141110E+04  0.25500000920E-02 0. -1.
       -2   -1    0    0    0  501  0.00000000000E+00  0.00000000000E+00 -0.13992212008E+04  0.13992212008E+04  0.25500000920E-02 0.  1.
    10030    2    1    2    0    0  0.00000000000E+00  0.00000000000E+00  0.94299291020E+03  0.37414353117E+04  0.36206494670E+04 0.  0.
        3    1    3    3  502    0  0.10919863616E+04  0.11080545918E+04  0.14281539339E+04  0.21118340042E+04  0.10100000352E+00 0.  1.
       -3    1    3    3    0  502 -0.10919863616E+04 -0.11080545918E+04 -0.48516102365E+03  0.16296013075E+04  0.10100000352E+00 0. -1.
</event>
<event>
 5   0  0.1128166E-06  0.3960470E+04  0.7818609E-02  0.8012569E-01
       -2   -1    0    0    0  501  0.00000000000E+00  0.00000000000E+00  0.22139179673E+04  0.22139179673E+04  0.25500000920E-02 0.  1.
        2   -1    0    0  501    0  0.00000000000E+00  0.00000000000E+00 -0.17712173299E+04  0.17712173299E+04  0.25500000920E-02 0. -1.
    10030    2    1    2    0    0  0.00000000000E+00  0.00000000000E+00  0.44270063740E+03  0.39851352971E+04  0.39604696037E+04 0.  0.
        3    1    3    3  502    0  0.71501400411E+02 -0.18141265504E+04  0.10169466384E+04  0.20809488381E+04  0.10100000352E+00 0. -1.
       -3    1    3    3    0  502 -0.71501400411E+02  0.18141265504E+04 -0.57424600103E+03  0.19041864591E+04  0.10100000352E+00 0.  1.
</event>
<event>
 5   0  0.3682276E-07  0.2963179E+04  0.7818609E-02  0.8254324E-01
       -1   -1    0    0    0  501  0.00000000000E+00  0.00000000000E+00  0.15215643210E+04  0.15215643210E+04  0.50400001928E-02 0. -1.
        1   -1    0    0  501    0  0.00000000000E+00  0.00000000000E+00 -0.14426652772E+04  0.14426652772E+04  0.50400001928E-02 0.  1.
    10030    2    1    2    0    0  0.00000000000E+00  0.00000000000E+00  0.78899043830E+02  0.29642295981E+04  0.29631793823E+04 0.  0.
        1    1    3    3  502    0 -0.94976755748E+03 -0.11250028646E+04 -0.12619344583E+03  0.14777058721E+04  0.50400001928E-02 0.  1.
       -1    1    3    3    0  502  0.94976755748E+03  0.11250028646E+04  0.20509248966E+03  0.14865237260E+04  0.50400001928E-02 0. -1.
</event>
<event>
 5   0  0.3682276E-07  0.3564187E+04  0.7818609E-02  0.8098745E-01
        1   -1    0    0  501    0  0.00000000000E+00  0.00000000000E+00  0.18152025763E+04  0.18152025763E+04  0.50400001928E-02 0.  1.
       -1   -1    0    0    0  501  0.00000000000E+00  0.00000000000E+00 -0.17495886234E+04  0.17495886234E+04  0.50400001928E-02 0. -1.
    10030    2    1    2    0    0  0.00000000000E+00  0.00000000000E+00  0.65613952979E+02  0.35647911997E+04  0.35641872996E+04 0.  0.
        1    1    3    3  502    0 -0.99843982892E+03  0.13768874870E+04 -0.49940773060E+03  0.17725995953E+04  0.50400001928E-02 0. -1.
       -1    1    3    3    0  502  0.99843982892E+03 -0.13768874870E+04  0.56502168358E+03  0.17921916044E+04  0.50400001928E-02 0.  1.
</event>
<event>
 5   0  0.1092116E-06  0.3770985E+04  0.7818609E-02  0.8052410E-01
        2   -1    0    0  501    0  0.00000000000E+00  0.00000000000E+00  0.19297844317E+04  0.19297844317E+04  0.25500000920E-02 0. -1.
       -2   -1    0    0    0  501  0.00000000000E+00  0.00000000000E+00 -0.18422170157E+04  0.18422170157E+04  0.25500000920E-02 0.  1.
    10030    2    1    2    0    0  0.00000000000E+00  0.00000000000E+00  0.87567416003E+02  0.37720014473E+04  0.37709848669E+04 0.  0.
        1    1    3    3  502    0 -0.35691889826E+03  0.25233057941E+03  0.18784046176E+04  0.19285916438E+04  0.50400001928E-02 0. -1.
       -1    1    3    3    0  502  0.35691889826E+03 -0.25233057941E+03 -0.17908372016E+04  0.18434098035E+04  0.50400001928E-02 0.  1.
</event>
<event>
 5   0  0.3764495E-07  0.2767845E+04  0.7818609E-02  0.8313321E-01
        1   -1    0    0  501    0  0.00000000000E+00  0.00000000000E+00  0.16512438408E+04  0.16512438408E+04  0.50400001928E-02 0. -1.
       -1   -1    0    0    0  501  0.00000000000E+00  0.00000000000E+00 -0.11598784395E+04  0.11598784395E+04  0.50400001928E-02 0.  1.
    10030    2    1    2    0    0  0.00000000000E+00  0.00000000000E+00  0.49136540127E+03  0.28111222804E+04  0.27678454649E+04 0.  0.
        4    1    3    3  502    0  0.53085266530E+03  0.86538815778E+03 -0.70952203148E+03  0.12385977321E+04  0.12699999809E+01 0.  1.
       -4    1    3    3    0  502 -0.53085266530E+03 -0.86538815778E+03  0.12008874328E+04  0.15725245483E+04  0.12699999809E+01 0. -1.
</event>
<event>
 5   0  0.1128530E-06  0.3661902E+04  0.7818609E-02  0.8076458E-01
        2   -1    0    0  501    0  0.00000000000E+00  0.00000000000E+00  0.29836533572E+04  0.29836533572E+04  0.25500000920E-02 0.  1.
       -2   -1    0    0    0  501  0.00000000000E+00  0.00000000000E+00 -0.11235828283E+04  0.11235828283E+04  0.25500000920E-02 0. -1.
    10030    2    1    2    0    0  0.00000000000E+00  0.00000000000E+00  0.18600705289E+04  0.41072361855E+04  0.36619020619E+04 0.  0.
        5    1    3    3  502    0  0.12099329516E+03  0.13312377001E+04  0.23334083720E+04  0.26891727189E+04  0.46999998093E+01 0.  1.
       -5    1    3    3    0  502 -0.12099329516E+03 -0.13312377001E+04 -0.47333784305E+03  0.14180634666E+04  0.46999998093E+01 0. -1.
</event>
<event>
 5   0  0.3848431E-07  0.2673023E+04  0.7818609E-02  0.8343811E-01
       -1   -1    0    0    0  501  0.00000000000E+00  0.00000000000E+00  0.13278338212E+04  0.13278338212E+04  0.50400001928E-02 0.  1.
        1   -1    0    0  501    0  0.00000000000E+00  0.00000000000E+00 -0.13452463363E+04  0.13452463363E+04  0.50400001928E-02 0. -1.
    10030    2    1    2    0    0  0.00000000000E+00  0.00000000000E+00 -0.17412515059E+02  0.26730801575E+04  0.26730234441E+04 0.  0.
        2    1    3    3  502    0 -0.12065448892E+04 -0.57450756324E+03  0.12603189985E+02  0.13364012684E+04  0.25500000920E-02 0. -1.
       -2    1    3    3    0  502  0.12065448892E+04  0.57450756324E+03 -0.30015705044E+02  0.13366788890E+04  0.25500000920E-02 0.  1.
</event>
<event>
 5   0  0.3675819E-07  0.3681538E+04  0.7818609E-02  0.8072066E-01
       -1   -1    0    0    0  501  0.00000000000E+00  0.00000000000E+00  0.21113466071E+04  0.21113466071E+04  0.50400001928E-02 0. -1.
        1   -1    0    0  501    0  0.00000000000E+00  0.00000000000E+00 -0.16048672532E+04  0.16048672533E+04  0.50400001928E-02 0.  1.
    10030    2    1    2    0    0  0.00000000000E+00  0.00000000000E+00  0.50647935383E+03  0.37162138603E+04  0.36815382817E+04 0.  0.
        5    1    3    3  502    0  0.16983548526E+04 -0.48972976494E+03 -0.26557063381E+03  0.17873987522E+04  0.46999998093E+01 0.  1.
       -5    1    3    3    0  502 -0.16983548526E+04  0.48972976494E+03  0.77204998764E+03  0.19288151081E+04  0.46999998093E+01 0. -1.
</event>
<event>
 5   0  0.3704306E-07  0.2899565E+04  0.7818609E-02  0.8273007E-01
       -1   -1    0    0    0  501  0.00000000000E+00  0.00000000000E+00  0.15819123194E+04  0.15819123194E+04  0.50400001928E-02 0. -1.
        1   -1    0    0  501    0  0.00000000000E+00  0.00000000000E+00 -0.13286886974E+04  0.13286886974E+04  0.50400001928E-02 0.  1.
    10030    2    1    2    0    0  0.00000000000E+00  0.00000000000E+00  0.25322362200E+03  0.29106010169E+04  0.28995648082E+04 0.  0.
        3    1    3    3  502    0  0.11253421969E+03 -0.12653656394E+04  0.82788006029E+03  0.15163111674E+04  0.10100000352E+00 0. -1.
       -3    1    3    3    0  502 -0.11253421969E+03  0.12653656394E+04 -0.57465643829E+03  0.13942898495E+04  0.10100000352E+00 0.  1.
</event>
<event>
 5   0  0.1128530E-06  0.3362503E+04  0.7818609E-02  0.8147171E-01
        2   -1    0    0  501    0  0.00000000000E+00  0.00000000000E+00  0.14521032790E+04  0.14521032790E+04  0.25500000920E-02 0.  1.
       -2   -1    0    0    0  501  0.00000000000E+00  0.00000000000E+00 -0.19465600416E+04  0.19465600416E+04  0.25500000920E-02 0. -1.
    10030    2    1    2    0    0  0.00000000000E+00  0.00000000000E+00 -0.49445676260E+03  0.33986633206E+04  0.33625027698E+04 0.  0.
        5    1    3    3  502    0 -0.14157023128E+04  0.69332028658E+03  0.34359006599E+03  0.16133760510E+04  0.46999998093E+01 0.  1.
       -5    1    3    3    0  502  0.14157023128E+04 -0.69332028658E+03 -0.83804682860E+03  0.17852872697E+04  0.46999998093E+01 0. -1.
</event>
<event>
 5   0  0.3848431E-07  0.2483680E+04  0.7818609E-02  0.8408823E-01
        1   -1    0    0  501    0  0.00000000000E+00  0.00000000000E+00  0.12431389165E+04  0.12431389165E+04  0.50400001928E-02 0.  1.
       -1   -1    0    0    0  501  0.00000000000E+00  0.00000000000E+00 -0.12405426805E+04  0.12405426805E+04  0.50400001928E-02 0. -1.
    10030    2    1    2    0    0  0.00000000000E+00  0.00000000000E+00  0.25962360056E+01  0.24836815970E+04  0.24836802400E+04 0.  0.
        2    1    3    3  502    0 -0.48642404334E+03  0.10630492953E+04 -0.41761108598E+03  0.12414029053E+04  0.25500000920E-02 0.  1.
       -2    1    3    3    0  502  0.48642404334E+03 -0.10630492953E+04  0.42020732199E+03  0.12422786916E+04  0.25500000920E-02 0. -1.
</event>
<event>
 5   0  0.3704306E-07  0.2489692E+04  0.7818609E-02  0.8406667E-01
       -1   -1    0    0    0  501  0.00000000000E+00  0.00000000000E+00  0.63032659337E+03  0.63032659339E+03  0.50400001928E-02 0.  1.
        1   -1    0    0  501    0  0.00000000000E+00  0.00000000000E+00 -0.24584742854E+04  0.24584742854E+04  0.50400001928E-02 0. -1.
    10030    2    1    2    0    0  0.00000000000E+00  0.00000000000E+00 -0.18281476920E+04  0.30888008788E+04  0.24896921265E+04 0.  0.
        3    1    3    3  502    0  0.41026167755E+03  0.73349449857E+03 -0.20533752562E+04  0.22187110620E+04  0.10100000352E+00 0. -1.
       -3    1    3    3    0  502 -0.41026167755E+03 -0.73349449857E+03  0.22522756416E+03  0.87008981684E+03  0.10100000352E+00 0.  1.
</event>
<event>
 5   0  0.1128166E-06  0.3255375E+04  0.7818609E-02  0.8174344E-01
        2   -1    0    0  501    0  0.00000000000E+00  0.00000000000E+00  0.17950154083E+04  0.17950154083E+04  0.25500000920E-02 0.  1.
       -2   -1    0    0    0  501  0.00000000000E+00  0.00000000000E+00 -0.14759572198E+04  0.14759572198E+04  0.25500000920E-02 0. -1.
    10030    2    1    2    0    0  0.00000000000E+00  0.00000000000E+00  0.31905818854E+03  0.32709726281E+04  0.32553746031E+04 0.  0.
        3    1    3    3  502    0  0.40344516111E+03 -0.95664021752E+03  0.14191054124E+04  0.17583482833E+04  0.10100000352E+00 0.  1.
       -3    1    3    3    0  502 -0.40344516111E+03  0.95664021752E+03 -0.11000472238E+04  0.15126243448E+04  0.10100000352E+00 0. -1.
</event>
<event>
 5   0  0.1128530E-06  0.2484208E+04  0.7818609E-02  0.8408633E-01
       -2   -1    0    0    0  501  0.00000000000E+00  0.00000000000E+00  0.74525045690E+03  0.74525045690E+03  0.25500000920E-02 0. -1.
        2   -1    0    0  501    0  0.00000000000E+00  0.00000000000E+00 -0.20702057539E+04  0.20702057539E+04  0.25500000920E-02 0.  1.
    10030    2    1    2    0    0  0.00000000000E+00  0.00000000000E+00 -0.13249552970E+04  0.28154562108E+04  0.24842075469E+04 0.  0.
        5    1    3    3  502    0  0.87969120323E+02 -0.91304248429E+03  0.28670171062E+03  0.96104375818E+03  0.46999998093E+01 0. -1.
       -5    1    3    3    0  502 -0.87969120323E+02  0.91304248429E+03 -0.16116570076E+04  0.18544124526E+04  0.46999998093E+01 0.  1.
</event>
<event>
 5   0  0.1092116E-06  0.3661088E+04  0.7818609E-02  0.8076640E-01
       -2   -1    0    0    0  501  0.00000000000E+00  0.00000000000E+00  0.13348016446E+04  0.13348016446E+04  0.25500000920E-02 0.  1.
        2   -1    0    0  501    0  0.00000000000E+00  0.00000000000E+00 -0.25104035784E+04  0.25104035784E+04  0.25500000920E-02 0. -1.
    10030    2    1    2    0    0  0.00000000000E+00  0.00000000000E+00 -0.11756019337E+04  0.38452052230E+04  0.36610877209E+04 0.  0.
        1    1    3    3  502    0 -0.82530143329E+03  0.14982236281E+04 -0.12725825073E+04  0.21319621792E+04  0.50400001928E-02 0. -1.
       -1    1    3    3    0  502  0.82530143329E+03 -0.14982236281E+04  0.96980573540E+02  0.17132430438E+04  0.50400001928E-02 0.  1.
</event>
<event>
 5   0  0.3764495E-07  0.2448750E+04  0.7818609E-02  0.8421474E-01
       -1   -1    0    0    0  501  0.00000000000E+00  0.00000000000E+00  0.10104610291E+04  0.10104610291E+04  0.50400001928E-02 0. -1.
        1   -1    0    0  501    0  0.00000000000E+00  0.00000000000E+00 -0.14835746957E+04  0.14835746957E+04  0.50400001928E-02 0.  1.
    10030    2    1    2    0    0  0.00000000000E+00  0.00000000000E+00 -0.47311366662E+03  0.24940357248E+04  0.24487502231E+04 0.  0.
        4    1    3    3  502    0 -0.12614588549E+03 -0.68195109222E+02  0.10018780325E+04  0.10120892067E+04  0.12699999809E+01 0. -1.
       -4    1    3    3    0  502  0.12614588549E+03  0.68195109222E+02 -0.14749916991E+04  0.14819465182E+04  0.12699999809E+01 0.  1.
</event>
<event>
 5   0  0.3675819E-07  0.3739150E+04  0.7818609E-02  0.8059341E-01
        1   -1    0    0  501    0  0.00000000000E+00  0.00000000000E+00  0.14320134981E+04  0.14320134981E+04  0.50400001928E-02 0.  1.
       -1   -1    0    0    0  501  0.00000000000E+00  0.00000000000E+00 -0.24408359401E+04  0.24408359401E+04  0.50400001928E-02 0. -1.
    10030    2    1    2    0    0  0.00000000000E+00  0.00000000000E+00 -0.10088224420E+04  0.38728494382E+04  0.37391496428E+04 0.  0.
        5    1    3    3  502    0  0.75682666731E+03  0.27299594625E+03 -0.22523483920E+04  0.23917376027E+04  0.46999998093E+01 0. -1.
       -5    1    3    3    0  502 -0.75682666731E+03 -0.27299594625E+03  0.12435259500E+04  0.14811118355E+04  0.46999998093E+01 0.  1.
</event>
<event>
 5   0  0.3704306E-07  0.2352063E+04  0.7818609E-02  0.8457672E-01
        1   -1    0    0  501    0  0.00000000000E+00  0.00000000000E+00  0.15025970652E+04  0.15025970652E+04  0.50400001928E-02 0.  1.
       -1   -1    0    0    0  501  0.00000000000E+00  0.00000000000E+00 -0.92043974589E+03  0.92043974591E+03  0.50400001928E-02 0. -1.
    10030    2    1    2    0    0  0.00000000000E+00  0.00000000000E+00  0.58215731934E+03  0.24230368112E+04  0.23520629761E+04 0.  0.
        3    1    3    3  502    0 -0.85862252261E+03 -0.66401569751E+03 -0.17523984248E+03  0.10994810119E+04  0.10100000352E+00 0. -1.
       -3    1    3    3    0  502  0.85862252261E+03  0.66401569751E+03  0.75739716182E+03  0.13235557993E+04  0.10100000352E+00 0.  1.
</event>
<event>
 5   0  0.1051123E-06  0.3781705E+04  0.7818609E-02  0.8050092E-01
        2   -1    0    0  501    0  0.00000000000E+00  0.00000000000E+00  0.21158636510E+04  0.21158636510E+04  0.25500000920E-02 0.  1.
       -2   -1    0    0    0  501  0.00000000000E+00  0.00000000000E+00 -0.16897699676E+04  0.16897699676E+04  0.25500000920E-02 0. -1.
    10030    2    1    2    0    0  0.00000000000E+00  0.00000000000E+00  0.42609368333E+03  0.38056336186E+04  0.37817048288E+04 0.  0.
        2    1    3    3  502    0  0.12793791325E+03 -0.18813938909E+04  0.35289295287E+03  0.19184745290E+04  0.25500000920E-02 0. -1.
       -2    1    3    3    0  502 -0.12793791325E+03  0.18813938909E+04  0.73200730457E+02  0.18871590896E+04  0.25500000920E-02 0.  1.
</event>
<event>
 5   0  0.3704306E-07  0.3783285E+04  0.7818609E-02  0.8049751E-01
       -1   -1    0    0    0  501  0.00000000000E+00  0.00000000000E+00  0.27352530906E+04  0.27352530906E+04  0.50400001928E-02 0.  1.
        1   -1    0    0  501    0  0.00000000000E+00  0.00000000000E+00 -0.13082195400E+04  0.13082195400E+04  0.50400001928E-02 0. -1.
    10030    2    1    2    0    0  0.00000000000E+00  0.00000000000E+00  0.14270335507E+04  0.40434726306E+04  0.37832851016E+04 0.  0.
        3    1    3    3  502    0  0.18618333417E+04 -0.30903323843E+03  0.57670300874E+03  0.19734516222E+04  0.10100000352E+00 0. -1.
       -3    1    3    3    0  502 -0.18618333417E+04  0.30903323843E+03  0.85033054192E+03  0.20700210084E+04  0.10100000352E+00 0.  1.
</event>
<event>
 5   0  0.3848431E-07  0.3703526E+04  0.7818609E-02  0.8067181E-01
        1   -1    0    0  501    0  0.00000000000E+00  0.00000000000E+00  0.14652430217E+04  0.14652430217E+04  0.50400001928E-02 0. -1.
       -1   -1    0    0    0  501  0.00000000000E+00  0.00000000000E+00 -0.23402440288E+04  0.23402440288E+04  0.50400001928E-02 0.  1.
    10030    2    1    2    0    0  0.00000000000E+00  0.00000000000E+00 -0.87500100710E+03  0.38054870505E+04  0.37035260130E+04 0.  0.
        2    1    3    3  502    0 -0.18074738986E+04  0.39903333961E+01 -0.85113546885E+03  0.19978511965E+04  0.25500000920E-02 0. -1.
       -2    1    3    3    0  502  0.18074738986E+04 -0.39903333961E+01 -0.23865538243E+02  0.18076358540E+04  0.25500000920E-02 0.  1.
</event>
<event>
 5   0  0.3682276E-07  0.3628815E+04  0.7818609E-02  0.8083923E-01
        1   -1    0    0  501    0  0.00000000000E+00  0.00000000000E+00  0.23559561745E+04  0.23559561745E+04  0.50400001928E-02 0. -1.
       -1   -1    0    0    0  501  0.00000000000E+00  0.00000000000E+00 -0.13973409608E+04  0.13973409608E+04  0.50400001928E-02 0.  1.
    10030    2    1    2    0    0  0.00000000000E+00  0.00000000000E+00  0.95861521369E+03  0.37532971354E+04  0.36288147181E+04 0.  0.
        1    1    3    3  502    0  0.12541689458E+04 -0.45258569287E+03  0.17520900834E+04  0.22017250542E+04  0.50400001928E-02 0.  1.
       -1    1    3    3    0  502 -0.12541689458E+04  0.45258569287E+03 -0.79347486975E+03  0.15515720811E+04  0.50400001928E-02 0. -1.
</event>
<event>
 5   0  0.1092116E-06  0.3750534E+04  0.7818609E-02  0.8056854E-01
        2   -1    0    0  501    0  0.00000000000E+00  0.00000000000E+00  0.23601682070E+04  0.23601682070E+04  0.25500000920E-02 0. -1.
       -2   -1    0    0    0  501  0.00000000000E+00  0.00000000000E+00 -0.14899897944E+04  0.14899897944E+04  0.25500000920E-02 0.  1.
    10030    2    1    2    0    0  0.00000000000E+00  0.00000000000E+00  0.87017841265E+03  0.38501580014E+04  0.37505341174E+04 0.  0.
        1    1    3    3  502    0 -0.18573595097E+04 -0.22178866834E+03  0.29869932730E+03  0.18942533753E+04  0.50400001928E-02 0.  1.
       -1    1    3    3    0  502  0.18573595097E+04  0.22178866834E+03  0.57147908535E+03  0.19559046261E+04  0.50400001928E-02 0. -1.
</event>
<event>
 5   0  0.1128166E-06  0.3841432E+04  0.7818609E-02  0.8037322E-01
       -2   -1    0    0    0  501  0.00000000000E+00  0.00000000000E+00  0.16572071250E+04  0.16572071250E+04  0.25500000920E-02 0. -1.
        2   -1    0    0  501    0  0.00000000000E+00  0.00000000000E+00 -0.22261253729E+04  0.22261253729E+04  0.25500000920E-02 0.  1.
    10030    2    1    2    0    0  0.00000000000E+00  0.00000000000E+00 -0.56891824792E+03  0.38833324979E+04  0.38414324563E+04 0.  0.
        3    1    3    3  502    0  0.71541194960E+03  0.60889483068E+01  0.15174813991E+04  0.16776773050E+04  0.10100000352E+00 0. -1.
       -3    1    3    3    0  502 -0.71541194960E+03 -0.60889483068E+01 -0.20863996470E+04  0.22056551929E+04  0.10100000352E+00 0.  1.
</event>
<event>
 5   0  0.3848431E-07  0.2947044E+04  0.7818609E-02  0.8259016E-01
       -1   -1    0    0    0  501  0.00000000000E+00  0.00000000000E+00  0.14067578420E+04  0.14067578420E+04  0.50400001928E-02 0. -1.
        1   -1    0    0  501    0  0.00000000000E+00  0.00000000000E+00 -0.15434549108E+04  0.15434549108E+04  0.50400001928E-02 0.  1.
    10030    2    1    2    0    0  0.00000000000E+00  0.00000000000E+00 -0.13669706886E+03  0.29502127528E+04  0.29470441460E+04 0.  0.
        2    1    3    3  502    0 -0.87347142156E+03 -0.11454047368E+04  0.24240907365E+03  0.14607075321E+04  0.25500000920E-02 0. -1.
       -2    1    3    3    0  502  0.87347142156E+03  0.11454047368E+04 -0.37910614251E+03  0.14895052207E+04  0.25500000920E-02 0.  1.
</event>
<event>
 5   0  0.3490375E-07  0.2777640E+04  0.7818609E-02  0.8310244E-01
       -3   -1    0    0    0  501  0.00000000000E+00  0.00000000000E+00  0.11957586422E+04  0.11957586465E+04  0.10100000352E+00 0. -1.
        3   -1    0    0  501    0  0.00000000000E+00  0.00000000000E+00 -0.16130520043E+04  0.16130520075E+04  0.10100000352E+00 0.  1.
    10030    2    1    2    0    0  0.00000000000E+00  0.00000000000E+00 -0.41729336211E+03  0.28088106539E+04  0.27776399226E+04 0.  0.
        2    1    3    3  502    0 -0.74091984838E+03 -0.11550953596E+04 -0.42461627648E+03  0.14364910350E+04  0.25500000920E-02 0.  1.
       -2    1    3    3    0  502  0.74091984838E+03  0.11550953596E+04  0.73229143726E+01  0.13723196189E+04  0.25500000920E-02 0. -1.
</event>
<event>
 5   0  0.1128530E-06  0.2999289E+04  0.7818609E-02  0.8243934E-01
        2   -1    0    0  501    0  0.00000000000E+00  0.00000000000E+00  0.10235054845E+04  0.10235054845E+04  0.25500000920E-02 0.  1.
       -2   -1    0    0    0  501  0.00000000000E+00  0.00000000000E+00 -0.21972846961E+04  0.21972846961E+04  0.25500000920E-02 0. -1.
    10030    2    1    2    0    0  0.00000000000E+00  0.00000000000E+00 -0.11737792116E+04  0.32207901806E+04  0.29992885406E+04 0.  0.
        5    1    3    3  502    0 -0.59399308912E+03 -0.71375005716E+03 -0.18514123936E+04  0.20712355915E+04  0.46999998093E+01 0. -1.
       -5    1    3    3    0  502  0.59399308912E+03  0.71375005716E+03  0.67763318200E+03  0.11495545891E+04  0.46999998093E+01 0.  1.
</event>
<event>
 5   0  0.1092116E-06  0.3714599E+04  0.7818609E-02  0.8064734E-01
        2   -1    0    0  501    0  0.00000000000E+00  0.00000000000E+00  0.20621297452E+04  0.20621297452E+04  0.25500000920E-02 0.  1.
       -2   -1    0    0    0  501  0.00000000000E+00  0.00000000000E+00 -0.16728152311E+04  0.16728152311E+04  0.25500000920E-02 0. -1.
    10030    2    1    2    0    0  0.00000000000E+00  0.00000000000E+00  0.38931451406E+03  0.37349449763E+04  0.37145993304E+04 0.  0.
        1    1    3    3  502    0  0.87662298969E+03 -0.31523933111E+03  0.18102305392E+04  0.20358728612E+04  0.50400001928E-02 0.  1.
       -1    1    3    3    0  502 -0.87662298969E+03  0.31523933111E+03 -0.14209160251E+04  0.16990721151E+04  0.50400001928E-02 0. -1.
</event>
<event>
 5   0  0.3764495E-07  0.3706374E+04  0.7818609E-02  0.8066551E-01
       -1   -1    0    0    0  501  0.00000000000E+00  0.00000000000E+00  0.14580051886E+04  0.14580051886E+04  0.50400001928E-02 0.  1.
        1   -1    0    0  501    0  0.00000000000E+00  0.00000000000E+00 -0.23554802881E+04  0.23554802881E+04  0.50400001928E-02 0. -1.
    10030    2    1    2    0    0  0.00000000000E+00  0.00000000000E+00 -0.89747509948E+03  0.38134854768E+04  0.37063742293E+04 0.  0.
        4    1    3    3  502    0  0.10158832265E+04  0.12375203587E+04 -0.14088860289E+04  0.21327064551E+04  0.12699999809E+01 0. -1.
       -4    1    3    3    0  502 -0.10158832265E+04 -0.12375203587E+04  0.51141092945E+03  0.16807790217E+04  0.12699999809E+01 0.  1.
</event>
<event>
 5   0  0.1066907E-06  0.3673150E+04  0.7818609E-02  0.8073938E-01
        2   -1    0    0  501    0  0.00000000000E+00  0.00000000000E+00  0.26078576350E+04  0.26078576350E+04  0.25500000920E-02 0.  1.
       -2   -1    0    0    0  501  0.00000000000E+00  0.00000000000E+00 -0.12934019408E+04  0.12934019408E+04  0.25500000920E-02 0. -1.
    10030    2    1    2    0    0  0.00000000000E+00  0.00000000000E+00  0.13144556942E+04  0.39012595758E+04  0.36731502155E+04 0.  0.
        4    1    3    3  502    0  0.77775028758E+03  0.10327479116E+04 -0.72821173503E+03  0.14838321005E+04  0.12699999809E+01 0. -1.
       -4    1    3    3    0  502 -0.77775028758E+03 -0.10327479116E+04  0.20426674292E+04  0.24174274752E+04  0.12699999809E+01 0.  1.
</event>
<event>
 5   0  0.1092116E-06  0.3674588E+04  0.7818609E-02  0.8073617E-01
       -2   -1    0    0    0  501  0.00000000000E+00  0.00000000000E+00  0.12008194585E+04  0.12008194585E+04  0.25500000920E-02 0. -1.
        2   -1    0    0  501    0  0.00000000000E+00  0.00000000000E+00 -0.28111213895E+04  0.28111213895E+04  0.25500000920E-02 0.  1.
    10030    2    1    2    0    0  0.00000000000E+00  0.00000000000E+00 -0.16103019310E+04  0.40119408480E+04  0.36745880121E+04 0.  0.
        1    1    3    3  502    0  0.13748400741E+04  0.91824992349E+03  0.69849820289E+02  0.16547649829E+04  0.50400001928E-02 0.  1.
       -1    1    3    3    0  502 -0.13748400741E+04 -0.91824992349E+03 -0.16801517513E+04  0.23571758651E+04  0.50400001928E-02 0. -1.
</event>
<event>
 5   0  0.1128530E-06  0.3435775E+04  0.7818609E-02  0.8129181E-01
        2   -1    0    0  501    0  0.00000000000E+00  0.00000000000E+00  0.19328291589E+04  0.19328291589E+04  0.25500000920E-02 0. -1.
       -2   -1    0    0    0  501  0.00000000000E+00  0.00000000000E+00 -0.15268481994E+04  0.15268481994E+04  0.25500000920E-02 0.  1.
    10030    2    1    2    0    0  0.00000000000E+00  0.00000000000E+00  0.40598095951E+03  0.34596773582E+04  0.34357745682E+04 0.  0.
        5    1    3    3  502    0 -0.10660826801E+04 -0.68386039367E+02  0.15576773216E+04  0.18888064114E+04  0.46999998093E+01 0. -1.
       -5    1    3    3    0  502  0.10660826801E+04  0.68386039367E+02 -0.11516963621E+04  0.15708709469E+04  0.46999998093E+01 0.  1.
</event>
<event>
 5   0  0.1128530E-06  0.3053371E+04  0.7818609E-02  0.8228653E-01
       -2   -1    0    0    0  501  0.00000000000E+00  0.00000000000E+00  0.10455847218E+04  0.10455847218E+04  0.25500000920E-02 0. -1.
        2   -1    0    0  501    0  0.00000000000E+00  0.00000000000E+00 -0.22291527248E+04  0.22291527248E+04  0.25500000920E-02 0.  1.
    10030    2    1    2    0    0  0.00000000000E+00  0.00000000000E+00 -0.11835680030E+04  0.32747374466E+04  0.30533706172E+04 0.  0.
        5    1    3    3  502    0  0.11960646687E+04 -0.77400277404E+03 -0.11802870322E+04  0.18500677161E+04  0.46999998093E+01 0.  1.
       -5    1    3    3    0  502 -0.11960646687E+04  0.77400277404E+03 -0.32809708047E+01  0.14246697304E+04  0.46999998093E+01 0. -1.
</event>
<event>
 5   0  0.1128530E-06  0.3640021E+04  0.7818609E-02  0.8081385E-01
        2   -1    0    0  501    0  0.00000000000E+00  0.00000000000E+00  0.14785855494E+04  0.14785855494E+04  0.25500000920E-02 0. -1.
       -2   -1    0    0    0  501  0.00000000000E+00  0.00000000000E+00 -0.22402753040E+04  0.22402753040E+04  0.25500000920E-02 0.  1.
    10030    2    1    2    0    0  0.00000000000E+00  0.00000000000E+00 -0.76168975457E+03  0.37188608535E+04  0.36400212589E+04 0.  0.
        5    1    3    3  502    0 -0.10311333518E+04 -0.53083027895E+03 -0.18138651135E+04  0.21529388087E+04  0.46999998093E+01 0.  1.
       -5    1    3    3    0  502  0.10311333518E+04  0.53083027895E+03  0.10521753589E+04  0.15659220447E+04  0.46999998093E+01 0. -1.
</event>
<event>
 5   0  0.3675819E-07  0.4015323E+04  0.7818609E-02  0.8001463E-01
       -1   -1    0    0    0  501  0.00000000000E+00  0.00000000000E+00  0.15825135320E+04  0.15825135320E+04  0.50400001928E-02 0.  1.
        1   -1    0    0  501    0  0.00000000000E+00  0.00000000000E+00 -0.25470266858E+04  0.25470266858E+04  0.50400001928E-02 0. -1.
    10030    2    1    2    0    0  0.00000000000E+00  0.00000000000E+00 -0.96451315378E+03  0.41295402178E+04  0.40153227500E+04 0.  0.
        5    1    3    3  502    0  0.46014167286E+03  0.39834502324E+03 -0.24498618565E+04  0.25243324508E+04  0.46999998093E+01 0. -1.
       -5    1    3    3    0  502 -0.46014167286E+03 -0.39834502324E+03  0.14853487027E+04  0.16052077670E+04  0.46999998093E+01 0.  1.
</event>
<event>
 5   0  0.1092116E-06  0.3469838E+04  0.7818609E-02  0.8120975E-01
        2   -1    0    0  501    0  0.00000000000E+00  0.00000000000E+00  0.19556816910E+04  0.19556816910E+04  0.25500000920E-02 0. -1.
       -2   -1    0    0    0  501  0.00000000000E+00  0.00000000000E+00 -0.15390763128E+04  0.15390763128E+04  0.25500000920E-02 0.  1.
    10030    2    1    2    0    0  0.00000000000E+00  0.00000000000E+00  0.41660537821E+03  0.34947580038E+04  0.34698376711E+04 0.  0.
        1    1    3    3  502    0 -0.14316052857E+04  0.94431820165E+03 -0.55711210897E+02  0.17159062617E+04  0.50400001928E-02 0. -1.
       -1    1    3    3    0  502  0.14316052857E+04 -0.94431820165E+03  0.47231658911E+03  0.17788517421E+04  0.50400001928E-02 0.  1.
</event>
<event>
 5   0  0.3848431E-07  0.3676488E+04  0.7818609E-02  0.8073193E-01
        1   -1    0    0  501    0  0.00000000000E+00  0.00000000000E+00  0.27622243683E+04  0.27622243683E+04  0.50400001928E-02 0. -1.
       -1   -1    0    0    0  501  0.00000000000E+00  0.00000000000E+00 -0.12233402380E+04  0.12233402380E+04  0.50400001928E-02 0.  1.
    10030    2    1    2    0    0  0.00000000000E+00  0.00000000000E+00  0.15388841303E+04  0.39855646064E+04  0.36764875717E+04 0.  0.
        2    1    3    3  502    0 -0.13072202224E+04  0.56728350773E+03  0.20283182574E+04  0.24788526058E+04  0.25500000920E-02 0. -1.
       -2    1    3    3    0  502  0.13072202224E+04 -0.56728350773E+03 -0.48943412706E+03  0.15067120006E+04  0.25500000920E-02 0.  1.
</event>
<event>
 5   0  0.3764495E-07  0.3701018E+04  0.7818609E-02  0.8067736E-01
       -1   -1    0    0    0  501  0.00000000000E+00  0.00000000000E+00  0.16311133752E+04  0.16311133752E+04  0.50400001928E-02 0.  1.
        1   -1    0    0  501    0  0.00000000000E+00  0.00000000000E+00 -0.20994151242E+04  0.20994151242E+04  0.50400001928E-02 0. -1.
    10030    2    1    2    0    0  0.00000000000E+00  0.00000000000E+00 -0.46830174902E+03  0.37305284994E+04  0.37010182864E+04 0.  0.
        4    1    3    3  502    0 -0.75783792774E+02 -0.92479315746E+03 -0.18479781801E+04  0.20678516713E+04  0.12699999809E+01 0. -1.
       -4    1    3    3    0  502  0.75783792774E+02  0.92479315746E+03  0.13796764311E+04  0.16626768281E+04  0.12699999809E+01 0.  1.
</event>
<event>
 5   0  0.3704306E-07  0.3256387E+04  0.7818609E-02  0.8174082E-01
       -1   -1    0    0    0  501  0.00000000000E+00  0.00000000000E+00  0.32219110238E+04  0.32219110238E+04  0.50400001928E-02 0. -1.
        1   -1    0    0  501    0  0.00000000000E+00  0.00000000000E+00 -0.82280807160E+03  0.82280807162E+03  0.50400001928E-02 0.  1.
    10030    2    1    2    0    0  0.00000000000E+00  0.00000000000E+00  0.23991029522E+04  0.40447190954E+04  0.32563871984E+04 0.  0.
        3    1    3    3  502    0  0.98814754067E+03  0.24326493492E+03 -0.37912268129E+03  0.10859776279E+04  0.10100000352E+00 0.  1.
       -3    1    3    3    0  502 -0.98814754067E+03 -0.24326493492E+03  0.27782256335E+04  0.29587414675E+04  0.10100000352E+00 0. -1.
</event>
<event>
 5   0  0.1092116E-06  0.3435112E+04  0.7818609E-02  0.8129342E-01
        2   -1    0    0  501    0  0.00000000000E+00  0.00000000000E+00  0.18757633343E+04  0.18757633343E+04  0.25500000920E-02 0. -1.
       -2   -1    0    0    0  501  0.00000000000E+00  0.00000000000E+00 -0.15726922552E+04  0.15726922552E+04  0.25500000920E-02 0.  1.
    10030    2    1    2    0    0  0.00000000000E+00  0.00000000000E+00  0.30307107916E+03  0.34484555895E+04  0.34351119158E+04 0.  0.
        1    1    3    3  502    0 -0.15071981537E+04 -0.46857913386E+03  0.83150393143E+03  0.17839875188E+04  0.50400001928E-02 0. -1.
       -1    1    3    3    0  502  0.15071981537E+04  0.46857913386E+03 -0.52843285226E+03  0.16644680707E+04  0.50400001928E-02 0.  1.
</event>
<event>
 5   0  0.3764495E-07  0.3660412E+04  0.7818609E-02  0.8076792E-01
       -1   -1    0    0    0  501  0.00000000000E+00  0.00000000000E+00  0.18482637221E+04  0.18482637222E+04  0.50400001928E-02 0. -1.
        1   -1    0    0  501    0  0.00000000000E+00  0.00000000000E+00 -0.18123251634E+04  0.18123251634E+04  0.50400001928E-02 0.  1.
    10030    2    1    2    0    0  0.00000000000E+00  0.00000000000E+00  0.35938558778E+02  0.36605888855E+04  0.36604124643E+04 0.  0.
        4    1    3    3  502    0  0.18084530175E+04  0.27527996035E+03  0.76039850814E+02  0.18308645621E+04  0.12699999809E+01 0.  1.
       -4    1    3    3    0  502 -0.18084530175E+04 -0.27527996035E+03 -0.40101292036E+02  0.18297243234E+04  0.12699999809E+01 0. -1.
</event>
<event>
 5   0  0.3764495E-07  0.3764880E+04  0.7818609E-02  0.8053734E-01
       -1   -1    0    0    0  501  0.00000000000E+00  0.00000000000E+00  0.20489426350E+04  0.20489426350E+04  0.50400001928E-02 0. -1.
        1   -1    0    0  501    0  0.00000000000E+00  0.00000000000E+00 -0.17294678058E+04  0.17294678058E+04  0.50400001928E-02 0.  1.
    10030    2    1    2    0    0  0.00000000000E+00  0.00000000000E+00  0.31947482916E+03  0.37784104408E+04  0.37648799838E+04 0.  0.
        4    1    3    3  502    0 -0.74444079524E+03  0.14133702096E+04  0.11591935916E+04  0.19737119452E+04  0.12699999809E+01 0. -1.
       -4    1    3    3    0  502  0.74444079524E+03 -0.14133702096E+04 -0.83971876244E+03  0.18046984956E+04  0.12699999809E+01 0.  1.
</event>
<event>
 5   0  0.3675819E-07  0.3635595E+04  0.7818609E-02  0.8082386E-01
       -1   -1    0    0    0  501  0.00000000000E+00  0.00000000000E+00  0.13809410582E+04  0.13809410582E+04  0.50400001928E-02 0. -1.
        1   -1    0    0  501    0  0.00000000000E+00  0.00000000000E+00 -0.23928526310E+04  0.23928526310E+04  0.50400001928E-02 0.  1.
    10030    2    1    2    0    0  0.00000000000E+00  0.00000000000E+00 -0.10119115728E+04  0.37737936893E+04  0.36355953815E+04 0.  0.
        5    1    3    3  502    0  0.99452839064E+03  0.14929609148E+04 -0.20093664327E+03  0.18051084836E+04  0.46999998093E+01 0.  1.
       -5    1    3    3    0  502 -0.99452839064E+03 -0.14929609148E+04 -0.81097492954E+03  0.19686852057E+04  0.46999998093E+01 0. -1.
</event>
<event>
 5   0  0.1051123E-06  0.3642513E+04  0.7818609E-02  0.8080822E-01
       -2   -1    0    0    0  501  0.00000000000E+00  0.00000000000E+00  0.16737745113E+04  0.16737745113E+04  0.25500000920E-02 0.  1.
        2   -1    0    0  501    0  0.00000000000E+00  0.00000000000E+00 -0.19817339979E+04  0.19817339979E+04  0.25500000920E-02 0. -1.
    10030    2    1    2    0    0  0.00000000000E+00  0.00000000000E+00 -0.30795948656E+03  0.36555085092E+04  0.36425133377E+04 0.  0.
        2    1    3    3  502    0 -0.10987830941E+04  0.55375691771E+03  0.11935708978E+04  0.17142294187E+04  0.25500000920E-02 0.  1.
       -2    1    3    3    0  502  0.10987830941E+04 -0.55375691771E+03 -0.15015303844E+04  0.19412790905E+04  0.25500000920E-02 0. -1.
</event>
<event>
 5   0  0.1066907E-06  0.3350991E+04  0.7818609E-02  0.8150040E-01
       -2   -1    0    0    0  501  0.00000000000E+00  0.00000000000E+00  0.16215569099E+04  0.16215569099E+04  0.25500000920E-02 0. -1.
        2   -1    0    0  501    0  0.00000000000E+00  0.00000000000E+00 -0.17312286801E+04  0.17312286801E+04  0.25500000920E-02 0.  1.
    10030    2    1    2    0    0  0.00000000000E+00  0.00000000000E+00 -0.10967177025E+03  0.33527855900E+04  0.33509913929E+04 0.  0.
        4    1    3    3  502    0  0.41338765605E+03 -0.15060170555E+04 -0.66204424827E+03  0.16962549706E+04  0.12699999809E+01 0.  1.
       -4    1    3    3    0  502 -0.41338765605E+03  0.15060170555E+04  0.55237247801E+03  0.16565306194E+04  0.12699999809E+01 0. -1.
</event>
<event>
 5   0  0.1128530E-06  0.3669241E+04  0.7818609E-02  0.8074813E-01
        2   -1    0    0  501    0  0.00000000000E+00  0.00000000000E+00  0.23641957327E+04  0.23641957327E+04  0.25500000920E-02 0.  1.
       -2   -1    0    0    0  501  0.00000000000E+00  0.00000000000E+00 -0.14236690133E+04  0.14236690133E+04  0.25500000920E-02 0. -1.
    10030    2    1    2    0    0  0.00000000000E+00  0.00000000000E+00  0.94052671941E+03  0.37878647460E+04  0.36692409057E+04 0.  0.
        5    1    3    3  502    0  0.15859800482E+04 -0.41743180581E+03 -0.37865287740E+03  0.16831464931E+04  0.46999998093E+01 0. -1.
       -5    1    3    3    0  502 -0.15859800482E+04  0.41743180581E+03  0.13191795968E+04  0.21047182529E+04  0.46999998093E+01 0.  1.
</event>
<event>
 5   0  0.1128166E-06  0.3736267E+04  0.7818609E-02  0.8059972E-01
        2   -1    0    0  501    0  0.00000000000E+00  0.00000000000E+00  0.28153624816E+04  0.28153624816E+04  0.25500000920E-02 0. -1.
       -2   -1    0    0    0  501  0.00000000000E+00  0.00000000000E+00 -0.12395997414E+04  0.12395997414E+04  0.25500000920E-02 0.  1.
    10030    2    1    2    0    0  0.00000000000E+00  0.00000000000E+00  0.15757627403E+04  0.40549622230E+04  0.37362669091E+04 0.  0.
        3    1    3    3  502    0 -0.11060324688E+04 -0.46396714738E+03 -0.76653987494E+03  0.14234313212E+04  0.10100000352E+00 0.  1.
       -3    1    3    3    0  502  0.11060324688E+04  0.46396714738E+03  0.23423026152E+04  0.26315309018E+04  0.10100000352E+00 0. -1.
</event>
<event>
 5   0  0.1128530E-06  0.3635728E+04  0.7818609E-02  0.8082356E-01
       -2   -1    0    0    0  501  0.00000000000E+00  0.00000000000E+00  0.21548511053E+04  0.21548511053E+04  0.25500000920E-02 0.  1.
        2   -1    0    0  501    0  0.00000000000E+00  0.00000000000E+00 -0.15335769029E+04  0.15335769029E+04  0.25500000920E-02 0. -1.
    10030    2    1    2    0    0  0.00000000000E+00  0.00000000000E+00  0.62127420242E+03  0.36884280082E+04  0.36357281990E+04 0.  0.
        5    1    3    3  502    0 -0.35204896931E+03 -0.78375349208E+03  0.19358567241E+04  0.21179639655E+04  0.46999998093E+01 0.  1.
       -5    1    3    3    0  502  0.35204896931E+03  0.78375349208E+03 -0.13145825217E+04  0.15704640427E+04  0.46999998093E+01 0. -1.
</event>
<event>
 5   0  0.1051123E-06  0.2413503E+04  0.7818609E-02  0.8434465E-01
       -2   -1    0    0    0  501  0.00000000000E+00  0.00000000000E+00  0.11198609420E+04  0.11198609420E+04  0.25500000920E-02 0.  1.
        2   -1    0    0  501    0  0.00000000000E+00  0.00000000000E+00 -0.13003841480E+04  0.13003841480E+04  0.25500000920E-02 0. -1.
    10030    2    1    2    0    0  0.00000000000E+00  0.00000000000E+00 -0.18052320607E+03  0.24202450900E+04  0.24135031941E+04 0.  0.
        2    1    3    3  502    0 -0.96244226921E+03  0.55018022318E+03  0.38778382124E+03  0.11744657047E+04  0.25500000920E-02 0.  1.
       -2    1    3    3    0  502  0.96244226921E+03 -0.55018022318E+03 -0.56830702731E+03  0.12457793853E+04  0.25500000920E-02 0. -1.
</event>
<event>
 5   0  0.3682276E-07  0.3719656E+04  0.7818609E-02  0.8063620E-01
        1   -1    0    0  501    0  0.00000000000E+00  0.00000000000E+00  0.24971608112E+04  0.24971608112E+04  0.50400001928E-02 0.  1.
       -1   -1    0    0    0  501  0.00000000000E+00  0.00000000000E+00 -0.13851568453E+04  0.13851568453E+04  0.50400001928E-02 0. -1.
    10030    2    1    2    0    0  0.00000000000E+00  0.00000000000E+00  0.11120039659E+04  0.38823176565E+04  0.37196555708E+04 0.  0.
        1    1    3    3  502    0 -0.12830798167E+04  0.43771175756E+03 -0.77289023715E+03  0.15605270640E+04  0.50400001928E-02 0. -1.
       -1    1    3    3    0  502  0.12830798167E+04 -0.43771175756E+03  0.18848942031E+04  0.23217905925E+04  0.50400001928E-02 0.  1.
</event>
<event>
 5   0  0.3764495E-07  0.3487761E+04  0.7818609E-02  0.8116697E-01
        1   -1    0    0  501    0  0.00000000000E+00  0.00000000000E+00  0.16610360482E+04  0.16610360482E+04  0.50400001928E-02 0.  1.
       -1   -1    0    0    0  501  0.00000000000E+00  0.00000000000E+00 -0.18308569712E+04  0.18308569712E+04  0.50400001928E-02 0. -1.
    10030    2    1    2    0    0  0.00000000000E+00  0.00000000000E+00 -0.16982092304E+03  0.34918930194E+04  0.34877611319E+04 0.  0.
        4    1    3    3  502    0  0.13666079529E+04  0.43078617214E+03 -0.10800315244E+04  0.17943421440E+04  0.12699999809E+01 0. -1.
       -4    1    3    3    0  502 -0.13666079529E+04 -0.43078617214E+03  0.91021060133E+03  0.16975508755E+04  0.12699999809E+01 0.  1.
</event>
<event>
 5   0  0.1066907E-06  0.3675223E+04  0.7818609E-02  0.8073475E-01
        2   -1    0    0  501    0  0.00000000000E+00  0.00000000000E+00  0.17947721941E+04  0.17947721941E+04  0.25500000920E-02 0. -1.
       -2   -1    0    0    0  501  0.00000000000E+00  0.00000000000E+00 -0.18814733363E+04  0.18814733363E+04  0.25500000920E-02 0.  1.
    10030    2    1    2    0    0  0.00000000000E+00  0.00000000000E+00 -0.86701142197E+02  0.36762455304E+04  0.36752230017E+04 0.  0.
        4    1    3    3  502    0  0.86134430194E+03  0.11094874212E+04  0.11418580152E+04  0.18101706229E+04  0.12699999809E+01 0. -1.
       -4    1    3    3    0  502 -0.86134430194E+03 -0.11094874212E+04 -0.12285591574E+04  0.18660749075E+04  0.12699999809E+01 0.  1.
</event>
<event>
 5   0  0.1066907E-06  0.3686614E+04  0.7818609E-02  0.8070935E-01
       -2   -1    0    0    0  501  0.00000000000E+00  0.00000000000E+00  0.13878349102E+04  0.13878349102E+04  0.25500000920E-02 0.  1.
        2   -1    0    0  501    0  0.00000000000E+00  0.00000000000E+00 -0.24482595407E+04  0.24482595407E+04  0.25500000920E-02 0. -1.
    10030    2    1    2    0    0  0.00000000000E+00  0.00000000000E+00 -0.10604246305E+04  0.38360944510E+04  0.36866136548E+04 0.  0.
        4    1    3    3  502    0  0.53735889848E+03  0.13184434820E+04  0.68804134717E+03  0.15812812239E+04  0.12699999809E+01 0.  1.
       -4    1    3    3    0  502 -0.53735889848E+03 -0.13184434820E+04 -0.17484659777E+04  0.22548132270E+04  0.12699999809E+01 0. -1.
</event>
<event>
 5   0  0.3848431E-07  0.2872329E+04  0.7818609E-02  0.8281158E-01
        1   -1    0    0  501    0  0.00000000000E+00  0.00000000000E+00  0.13625656509E+04  0.13625656509E+04  0.50400001928E-02 0. -1.
       -1   -1    0    0    0  501  0.00000000000E+00  0.00000000000E+00 -0.15137384193E+04  0.15137384193E+04  0.50400001928E-02 0.  1.
    10030    2    1    2    0    0  0.00000000000E+00  0.00000000000E+00 -0.15117276837E+03  0.28763040702E+04  0.28723286543E+04 0.  0.
        2    1    3    3  502    0  0.14293560177E+04  0.57809510311E+02 -0.20291349591E+03  0.14448440925E+04  0.25500000920E-02 0. -1.
       -2    1    3    3    0  502 -0.14293560177E+04 -0.57809510311E+02  0.51740727532E+02  0.14314599777E+04  0.25500000920E-02 0.  1.
</event>
<event>
 5   0  0.3848431E-07  0.3664640E+04  0.7818609E-02  0.8075844E-01
       -1   -1    0    0    0  501  0.00000000000E+00  0.00000000000E+00  0.16166559932E+04  0.16166559932E+04  0.50400001928E-02 0. -1.
        1   -1    0    0  501    0  0.00000000000E+00  0.00000000000E+00 -0.20767533979E+04  0.20767533979E+04  0.50400001928E-02 0.  1.
    10030    2    1    2    0    0  0.00000000000E+00  0.00000000000E+00 -0.46009740471E+03  0.36934093911E+04  0.36646395878E+04 0.  0.
        2    1    3    3  502    0 -0.88013826882E+03 -0.31289341258E+03 -0.18187647544E+04  0.20446150962E+04  0.25500000920E-02 0.  1.
       -2    1    3    3    0  502  0.88013826882E+03  0.31289341258E+03  0.13586673496E+04  0.16487942949E+04  0.25500000920E-02 0. -1.
</event>
<event>
 5   0  0.1051123E-06  0.3750116E+04  0.7818609E-02  0.8056945E-01
        2   -1    0    0  501    0  0.00000000000E+00  0.00000000000E+00  0.14033630676E+04  0.14033630676E+04  0.25500000920E-02 0. -1.
       -2   -1    0    0    0  501  0.00000000000E+00  0.00000000000E+00 -0.25052972698E+04  0.25052972698E+04  0.25500000920E-02 0.  1.
    10030    2    1    2    0    0  0.00000000000E+00  0.00000000000E+00 -0.11019342023E+04  0.39086603374E+04  0.37501155512E+04 0.  0.
        2    1    3    3  502    0  0.97084588809E+03 -0.16027886028E+04 -0.48207723787E+03  0.19349086560E+04  0.25500000920E-02 0.  1.
       -2    1    3    3    0  502 -0.97084588809E+03  0.16027886028E+04 -0.61985696440E+03  0.19737516814E+04  0.25500000920E-02 0. -1.
</event>
<event>
 5   0  0.1128166E-06  0.3846122E+04  0.7818609E-02  0.8036329E-01
       -2   -1    0    0    0  501  0.00000000000E+00  0.00000000000E+00  0.16286781171E+04  0.16286781171E+04  0.25500000920E-02 0. -1.
        2   -1    0    0  501    0  0.00000000000E+00  0.00000000000E+00 -0.22706532177E+04  0.22706532177E+04  0.25500000920E-02 0.  1.
    10030    2    1    2    0    0  0.00000000000E+00  0.00000000000E+00 -0.64197510056E+03  0.38993313349E+04  0.38461217907E+04 0.  0.
        3    1    3    3  502    0  0.17656337149E+04  0.66669649214E+03  0.53193747105E+02  0.18880614960E+04  0.10100000352E+00 0. -1.
       -3    1    3    3    0  502 -0.17656337149E+04 -0.66669649214E+03 -0.69516884766E+03  0.20112698389E+04  0.10100000352E+00 0.  1.
</event>
<event>
 5   0  0.1084318E-06  0.2338564E+04  0.7818609E-02  0.8462869E-01
       -2   -1    0    0    0  501  0.00000000000E+00  0.00000000000E+00  0.87965542382E+03  0.87965542382E+03  0.25500000920E-02 0. -1.
        2   -1    0    0  501    0  0.00000000000E+00  0.00000000000E+00 -0.15542679991E+04  0.15542679991E+04  0.25500000920E-02 0.  1.
    10030    2    1    2    0    0  0.00000000000E+00  0.00000000000E+00 -0.67461257531E+03  0.24339234229E+04  0.23385638974E+04 0.  0.
        2    1    3    3  502    0 -0.14623733213E+03  0.35745077763E+02 -0.15441396622E+04  0.15514607196E+04  0.25500000920E-02 0.  1.
       -2    1    3    3    0  502  0.14623733213E+03 -0.35745077763E+02  0.86952708694E+03  0.88246270336E+03  0.25500000920E-02 0. -1.
</event>
<event>
 5   0  0.1092116E-06  0.3665667E+04  0.7818609E-02  0.8075613E-01
        2   -1    0    0  501    0  0.00000000000E+00  0.00000000000E+00  0.17919499496E+04  0.17919499496E+04  0.25500000920E-02 0. -1.
       -2   -1    0    0    0  501  0.00000000000E+00  0.00000000000E+00 -0.18746500019E+04  0.18746500019E+04  0.25500000920E-02 0.  1.
    10030    2    1    2    0    0  0.00000000000E+00  0.00000000000E+00 -0.82700052290E+02  0.36665999515E+04  0.36656671842E+04 0.  0.
        1    1    3    3  502    0  0.94133396528E+03 -0.24673082195E+03 -0.15949011409E+04  0.18683402747E+04  0.50400001928E-02 0.  1.
       -1    1    3    3    0  502 -0.94133396528E+03  0.24673082195E+03  0.15122010886E+04  0.17982596768E+04  0.50400001928E-02 0. -1.
</event>
<event>
 5   0  0.3675819E-07  0.3116116E+04  0.7818609E-02  0.8211329E-01
       -1   -1    0    0    0  501  0.00000000000E+00  0.00000000000E+00  0.17383948441E+04  0.17383948441E+04  0.50400001928E-02 0. -1.
        1   -1    0    0  501    0  0.00000000000E+00  0.00000000000E+00 -0.13964285389E+04  0.13964285389E+04  0.50400001928E-02 0.  1.
    10030    2    1    2    0    0  0.00000000000E+00  0.00000000000E+00  0.34196630518E+03  0.31348233830E+04  0.31161156411E+04 0.  0.
        5    1    3    3  502    0  0.18245362704E+03 -0.13066732481E+04 -0.66274909329E+03  0.14764629200E+04  0.46999998093E+01 0.  1.
       -5    1    3    3    0  502 -0.18245362704E+03  0.13066732481E+04  0.10047153985E+04  0.16583604630E+04  0.46999998093E+01 0. -1.
</event>
<event>
 5   0  0.1128530E-06  0.2468856E+04  0.7818609E-02  0.8414165E-01
        2   -1    0    0  501    0  0.00000000000E+00  0.00000000000E+00  0.23676124401E+04  0.23676124401E+04  0.25500000920E-02 0. -1.
       -2   -1    0    0    0  501  0.00000000000E+00  0.00000000000E+00 -0.64360739172E+03  0.64360739172E+03  0.25500000920E-02 0.  1.
    10030    2    1    2    0    0  0.00000000000E+00  0.00000000000E+00  0.17240050483E+04  0.30112198318E+04  0.24688563078E+04 0.  0.
        5    1    3    3  502    0  0.88829687991E+03  0.40338045528E+03 -0.60454291022E+02  0.97747836286E+03  0.46999998093E+01 0.  1.
       -5    1    3    3    0  502 -0.88829687991E+03 -0.40338045528E+03  0.17844593394E+04  0.20337414689E+04  0.46999998093E+01 0. -1.
</event>
<event>
 5   0  0.1066907E-06  0.3683275E+04  0.7818609E-02  0.8071678E-01
       -2   -1    0    0    0  501  0.00000000000E+00  0.00000000000E+00  0.31386335774E+04  0.31386335774E+04  0.25500000920E-02 0.  1.
        2   -1    0    0  501    0  0.00000000000E+00  0.00000000000E+00 -0.10806068542E+04  0.10806068542E+04  0.25500000920E-02 0. -1.
    10030    2    1    2    0    0  0.00000000000E+00  0.00000000000E+00  0.20580267233E+04  0.42192404316E+04  0.36832751494E+04 0.  0.
        4    1    3    3  502    0 -0.10090959744E+04 -0.11425856624E+04  0.22127507688E+04  0.26870140043E+04  0.12699999809E+01 0.  1.
       -4    1    3    3    0  502  0.10090959744E+04  0.11425856624E+04 -0.15472404551E+03  0.15322264273E+04  0.12699999809E+01 0. -1.
</event>
<event>
 5   0  0.1051123E-06  0.2676603E+04  0.7818609E-02  0.8342637E-01
       -2   -1    0    0    0  501  0.00000000000E+00  0.00000000000E+00  0.14231509046E+04  0.14231509046E+04  0.25500000920E-02 0. -1.
        2   -1    0    0  501    0  0.00000000000E+00  0.00000000000E+00 -0.12585109594E+04  0.12585109594E+04  0.25500000920E-02 0.  1.
    10030    2    1    2    0    0  0.00000000000E+00  0.00000000000E+00  0.16463994517E+03  0.26816618639E+04  0.26766030787E+04 0.  0.
        2    1    3    3  502    0 -0.11276541230E+04  0.51502822222E+03  0.58744854879E+03  0.13718431719E+04  0.25500000920E-02 0. -1.
       -2    1    3    3    0  502  0.11276541230E+04 -0.51502822222E+03 -0.42280860361E+03  0.13098186921E+04  0.25500000920E-02 0.  1.
</event>
<event>
 5   0  0.3675819E-07  0.3665943E+04  0.7818609E-02  0.8075552E-01
       -1   -1    0    0    0  501  0.00000000000E+00  0.00000000000E+00  0.11761831279E+04  0.11761831279E+04  0.50400001928E-02 0. -1.
        1   -1    0    0  501    0  0.00000000000E+00  0.00000000000E+00 -0.28565143269E+04  0.28565143269E+04  0.50400001928E-02 0.  1.
    10030    2    1    2    0    0  0.00000000000E+00  0.00000000000E+00 -0.16803311990E+04  0.40326974548E+04  0.36659426923E+04 0.  0.
        5    1    3    3  502    0 -0.46832859299E+03  0.14875049479E+04 -0.18997306145E+04  0.24578448158E+04  0.46999998093E+01 0.  1.
       -5    1    3    3    0  502  0.46832859299E+03 -0.14875049479E+04  0.21939941546E+03  0.15748526390E+04  0.46999998093E+01 0. -1.
</event>
<event>
 5   0  0.3675819E-07  0.3576743E+04  0.7818609E-02  0.8095840E-01
       -1   -1    0    0    0  501  0.00000000000E+00  0.00000000000E+00  0.14520370956E+04  0.14520370957E+04  0.50400001928E-02 0. -1.
        1   -1    0    0  501    0  0.00000000000E+00  0.00000000000E+00 -0.22026104117E+04  0.22026104117E+04  0.50400001928E-02 0.  1.
    10030    2    1    2    0    0  0.00000000000E+00  0.00000000000E+00 -0.75057331609E+03  0.36546475074E+04  0.35767426662E+04 0.  0.
        5    1    3    3  502    0  0.11202291828E+04 -0.91544052485E+03 -0.14495206695E+04  0.20479445886E+04  0.46999998093E+01 0. -1.
       -5    1    3    3    0  502 -0.11202291828E+04  0.91544052485E+03  0.69894735340E+03  0.16067029188E+04  0.46999998093E+01 0.  1.
</event>
<event>
 5   0  0.1092116E-06  0.3978330E+04  0.7818609E-02  0.8008932E-01
        2   -1    0    0  501    0  0.00000000000E+00  0.00000000000E+00  0.21675671302E+04  0.21675671302E+04  0.25500000920E-02 0. -1.
       -2   -1    0    0    0  501  0.00000000000E+00  0.00000000000E+00 -0.18254463833E+04  0.18254463833E+04  0.25500000920E-02 0.  1.
    10030    2    1    2    0    0  0.00000000000E+00  0.00000000000E+00  0.34212074695E+03  0.39930135135E+04  0.39783300911E+04 0.  0.
        1    1    3    3  502    0 -0.83531532273E+02  0.35007784811E+03 -0.17924948923E+04  0.18282696616E+04  0.50400001928E-02 0.  1.
       -1    1    3    3    0  502  0.83531532273E+02 -0.35007784811E+03  0.21346156393E+04  0.21647438518E+04  0.50400001928E-02 0. -1.
</event>
<event>
 5   0  0.1128530E-06  0.3549375E+04  0.7818609E-02  0.8102187E-01
        2   -1    0    0  501    0  0.00000000000E+00  0.00000000000E+00  0.13167094658E+04  0.13167094658E+04  0.25500000920E-02 0.  1.
       -2   -1    0    0    0  501  0.00000000000E+00  0.00000000000E+00 -0.23919598834E+04  0.23919598834E+04  0.25500000920E-02 0. -1.
    10030    2    1    2    0    0  0.00000000000E+00  0.00000000000E+00 -0.10752504176E+04  0.37086693491E+04  0.35493752803E+04 0.  0.
        5    1    3    3  502    0 -0.23490260753E+01 -0.88458822453E+03 -0.21451756757E+04  0.23204100100E+04  0.46999998093E+01 0. -1.
       -5    1    3    3    0  502  0.23490260753E+01  0.88458822453E+03  0.10699252581E+04  0.13882593392E+04  0.46999998093E+01 0.  1.
</event>
<event>
 5   0  0.1128530E-06  0.2316336E+04  0.7818609E-02  0.8471508E-01
       -2   -1    0    0    0  501  0.00000000000E+00  0.00000000000E+00  0.12804809954E+04  0.12804809954E+04  0.25500000920E-02 0. -1.
        2   -1    0    0  501    0  0.00000000000E+00  0.00000000000E+00 -0.10475383228E+04  0.10475383228E+04  0.25500000920E-02 0.  1.
    10030    2    1    2    0    0  0.00000000000E+00  0.00000000000E+00  0.23294267261E+03  0.23280193182E+04  0.23163358257E+04 0.  0.
        5    1    3    3  502    0 -0.73048673100E+01 -0.23031051093E+03  0.12572004449E+04  0.12781515329E+04  0.46999998093E+01 0. -1.
       -5    1    3    3    0  502  0.73048673100E+01  0.23031051093E+03 -0.10242577723E+04  0.10498677853E+04  0.46999998093E+01 0.  1.
</event>
<event>
 5   0  0.3764495E-07  0.2663276E+04  0.7818609E-02  0.8347020E-01
        1   -1    0    0  501    0  0.00000000000E+00  0.00000000000E+00  0.14673398541E+04  0.14673398541E+04  0.50400001928E-02 0. -1.
       -1   -1    0    0    0  501  0.00000000000E+00  0.00000000000E+00 -0.12084863360E+04  0.12084863360E+04  0.50400001928E-02 0.  1.
    10030    2    1    2    0    0  0.00000000000E+00  0.00000000000E+00  0.25885351812E+03  0.26758261901E+04  0.26632763011E+04 0.  0.
        4    1    3    3  502    0 -0.39672718856E+03 -0.23157826383E+03  0.13852115480E+04  0.14593949431E+04  0.12699999809E+01 0. -1.
       -4    1    3    3    0  502  0.39672718856E+03  0.23157826383E+03 -0.11263580299E+04  0.12164312470E+04  0.12699999809E+01 0.  1.
</event>
<event>
 5   0  0.3764495E-07  0.3688470E+04  0.7818609E-02  0.8070522E-01
       -1   -1    0    0    0  501  0.00000000000E+00  0.00000000000E+00  0.29111069519E+04  0.29111069519E+04  0.50400001928E-02 0. -1.
        1   -1    0    0  501    0  0.00000000000E+00  0.00000000000E+00 -0.11683537100E+04  0.11683537100E+04  0.50400001928E-02 0.  1.
    10030    2    1    2    0    0  0.00000000000E+00  0.00000000000E+00  0.17427532419E+04  0.40794606619E+04  0.36884699307E+04 0.  0.
        4    1    3    3  502    0  0.94423803490E+03  0.11948393971E+04 -0.27906605465E+03  0.15482590634E+04  0.12699999809E+01 0. -1.
       -4    1    3    3    0  502 -0.94423803490E+03 -0.11948393971E+04  0.20218192966E+04  0.25312015985E+04  0.12699999809E+01 0.  1.
</event>
<event>
 5   0  0.5087057E-07  0.2317287E+04  0.7818609E-02  0.8471136E-01
        1   -1    0    0  501    0  0.00000000000E+00  0.00000000000E+00  0.15507562500E+04  0.15507562500E+04  0.50400001928E-02 0.  1.
       -1   -1    0    0    0  501  0.00000000000E+00  0.00000000000E+00 -0.86567748446E+03  0.86567748448E+03  0.50400001928E-02 0. -1.
    10030    2    1    2    0    0  0.00000000000E+00  0.00000000000E+00  0.68507876549E+03  0.24164337344E+04  0.23172870081E+04 0.  0.
        2    1    3    3  502    0  0.76662494194E+03 -0.81224948761E+03  0.21145223797E+02  0.11170989895E+04  0.25500000920E-02 0. -1.
       -2    1    3    3    0  502 -0.76662494194E+03  0.81224948761E+03  0.66393354169E+03  0.12993347450E+04  0.25500000920E-02 0.  1.
</event>
<event>
 5   0  0.1092116E-06  0.3678047E+04  0.7818609E-02  0.8072844E-01
       -2   -1    0    0    0  501  0.00000000000E+00  0.00000000000E+00  0.19983234889E+04  0.19983234889E+04  0.25500000920E-02 0.  1.
        2   -1    0    0  501    0  0.00000000000E+00  0.00000000000E+00 -0.16924219662E+04  0.16924219662E+04  0.25500000920E-02 0. -1.
    10030    2    1    2    0    0  0.00000000000E+00  0.00000000000E+00  0.30590152265E+03  0.36907454551E+04  0.36780465294E+04 0.  0.
        1    1    3    3  502    0  0.16955440941E+03  0.60727527386E+03  0.18864785947E+04  0.19890534040E+04  0.50400001928E-02 0.  1.
       -1    1    3    3    0  502 -0.16955440941E+03 -0.60727527386E+03 -0.15805770720E+04  0.17016920510E+04  0.50400001928E-02 0. -1.
</event>
<event>
 5   0  0.1128530E-06  0.2694538E+04  0.7818609E-02  0.8336779E-01
       -2   -1    0    0    0  501  0.00000000000E+00  0.00000000000E+00  0.10692821658E+04  0.10692821658E+04  0.25500000920E-02 0.  1.
        2   -1    0    0  501    0  0.00000000000E+00  0.00000000000E+00 -0.16975258292E+04  0.16975258292E+04  0.25500000920E-02 0. -1.
    10030    2    1    2    0    0  0.00000000000E+00  0.00000000000E+00 -0.62824366345E+03  0.27668079950E+04  0.26945382500E+04 0.  0.
        5    1    3    3  502    0  0.10644996191E+04  0.62970862413E+03 -0.86269754550E+03  0.15079660259E+04  0.46999998093E+01 0. -1.
       -5    1    3    3    0  502 -0.10644996191E+04 -0.62970862413E+03  0.23445388205E+03  0.12588419691E+04  0.46999998093E+01 0.  1.
</event>
<event>
 5   0  0.1128166E-06  0.3548334E+04  0.7818609E-02  0.8102430E-01
        2   -1    0    0  501    0  0.00000000000E+00  0.00000000000E+00  0.22106053088E+04  0.22106053088E+04  0.25500000920E-02 0.  1.
       -2   -1    0    0    0  501  0.00000000000E+00  0.00000000000E+00 -0.14238941718E+04  0.14238941718E+04  0.25500000920E-02 0. -1.
    10030    2    1    2    0    0  0.00000000000E+00  0.00000000000E+00  0.78671113701E+03  0.36344994806E+04  0.35483337020E+04 0.  0.
        3    1    3    3  502    0 -0.11197452973E+04 -0.12205116544E+04 -0.25784206957E+03  0.16762937608E+04  0.10100000352E+00 0.  1.
       -3    1    3    3    0  502  0.11197452973E+04  0.12205116544E+04  0.10445532066E+04  0.19582057198E+04  0.10100000352E+00 0. -1.
</event>
<event>
 5   0  0.3682276E-07  0.2687590E+04  0.7818609E-02  0.8339043E-01
        1   -1    0    0  501    0  0.00000000000E+00  0.00000000000E+00  0.14506798468E+04  0.14506798468E+04  0.50400001928E-02 0.  1.
       -1   -1    0    0    0  501  0.00000000000E+00  0.00000000000E+00 -0.12447855479E+04  0.12447855480E+04  0.50400001928E-02 0. -1.
    10030    2    1    2    0    0  0.00000000000E+00  0.00000000000E+00  0.20589429890E+03  0.26954653948E+04  0.26875902277E+04 0.  0.
        1    1    3    3  502    0 -0.76272221043E+02 -0.66116633018E+03 -0.10678753574E+04  0.12582989100E+04  0.50400001928E-02 0. -1.
       -1    1    3    3    0  502  0.76272221043E+02  0.66116633018E+03  0.12737696563E+04  0.14371664848E+04  0.50400001928E-02 0.  1.
</event>
<event>
 5   0  0.1092116E-06  0.2293308E+04  0.7818609E-02  0.8480564E-01
        2   -1    0    0  501    0  0.00000000000E+00  0.00000000000E+00  0.23623245276E+04  0.23623245276E+04  0.25500000920E-02 0.  1.
       -2   -1    0    0    0  501  0.00000000000E+00  0.00000000000E+00 -0.55657691166E+03  0.55657691167E+03  0.25500000920E-02 0. -1.
    10030    2    1    2    0    0  0.00000000000E+00  0.00000000000E+00  0.18057476159E+04  0.29189014393E+04  0.22933079077E+04 0.  0.
        1    1    3    3  502    0 -0.11872725106E+03  0.69793824644E+03  0.20509293201E+04  0.21696831640E+04  0.50400001928E-02 0.  1.
       -1    1    3    3    0  502  0.11872725106E+03 -0.69793824644E+03 -0.24518170415E+03  0.74921827531E+03  0.50400001928E-02 0. -1.
</event>
<event>
 5   0  0.3764495E-07  0.2880819E+04  0.7818609E-02  0.8278607E-01
        1   -1    0    0  501    0  0.00000000000E+00  0.00000000000E+00  0.14098040998E+04  0.14098040999E+04  0.50400001928E-02 0.  1.
       -1   -1    0    0    0  501  0.00000000000E+00  0.00000000000E+00 -0.14716791764E+04  0.14716791765E+04  0.50400001928E-02 0. -1.
    10030    2    1    2    0    0  0.00000000000E+00  0.00000000000E+00 -0.61875076604E+02  0.28814832763E+04  0.28808188674E+04 0.  0.
        4    1    3    3  502    0 -0.38165024333E+03  0.10972470460E+04  0.82082784532E+03  0.14224513885E+04  0.12699999809E+01 0.  1.
       -4    1    3    3    0  502  0.38165024333E+03 -0.10972470460E+04 -0.88270292192E+03  0.14590318878E+04  0.12699999809E+01 0. -1.
</event>
<event>
 5   0  0.1128166E-06  0.2307514E+04  0.7818609E-02  0.8474964E-01
       -2   -1    0    0    0  501  0.00000000000E+00  0.00000000000E+00  0.58344471991E+03  0.58344471992E+03  0.25500000920E-02 0.  1.
        2   -1    0    0  501    0  0.00000000000E+00  0.00000000000E+00 -0.22815441220E+04  0.22815441220E+04  0.25500000920E-02 0. -1.
    10030    2    1    2    0    0  0.00000000000E+00  0.00000000000E+00 -0.16980994021E+04  0.28649888419E+04  0.23075137020E+04 0.  0.
        3    1    3    3  502    0  0.42199532859E+03  0.68157616841E+03 -0.18792927185E+04  0.20431268347E+04  0.10100000352E+00 0. -1.
       -3    1    3    3    0  502 -0.42199532859E+03 -0.68157616841E+03  0.18119331646E+03  0.82186200717E+03  0.10100000352E+00 0.  1.
</event>
<event>
 5   0  0.1066907E-06  0.3716477E+04  0.7818609E-02  0.8064320E-01
       -2   -1    0    0    0  501  0.00000000000E+00  0.00000000000E+00  0.15567333753E+04  0.15567333753E+04  0.25500000920E-02 0. -1.
        2   -1    0    0  501    0  0.00000000000E+00  0.00000000000E+00 -0.22181387259E+04  0.22181387259E+04  0.25500000920E-02 0.  1.
    10030    2    1    2    0    0  0.00000000000E+00  0.00000000000E+00 -0.66140535062E+03  0.37748721012E+04  0.37164771414E+04 0.  0.
        4    1    3    3  502    0 -0.11267905077E+04  0.26579365754E+03 -0.18070699327E+04  0.21461142726E+04  0.12699999809E+01 0.  1.
       -4    1    3    3    0  502  0.11267905077E+04 -0.26579365754E+03  0.11456645821E+04  0.16287578286E+04  0.12699999809E+01 0. -1.
</event>
<event>
 5   0  0.3704306E-07  0.3777262E+04  0.7818609E-02  0.8051052E-01
       -1   -1    0    0    0  501  0.00000000000E+00  0.00000000000E+00  0.27740963475E+04  0.27740963475E+04  0.50400001928E-02 0.  1.
        1   -1    0    0  501    0  0.00000000000E+00  0.00000000000E+00 -0.12857978983E+04  0.12857978983E+04  0.50400001928E-02 0. -1.
    10030    2    1    2    0    0  0.00000000000E+00  0.00000000000E+00  0.14882984492E+04  0.40598942458E+04  0.37772621054E+04 0.  0.
        3    1    3    3  502    0 -0.42931620061E+03  0.57830814940E+03 -0.11323894266E+04  0.13420352229E+04  0.10100000352E+00 0. -1.
       -3    1    3    3    0  502  0.42931620061E+03 -0.57830814940E+03  0.26206878758E+04  0.27178590229E+04  0.10100000352E+00 0.  1.
</event>
<event>
 5   0  0.1092116E-06  0.3667911E+04  0.7818609E-02  0.8075110E-01
        2   -1    0    0  501    0  0.00000000000E+00  0.00000000000E+00  0.25988947413E+04  0.25988947413E+04  0.25500000920E-02 0. -1.
       -2   -1    0    0    0  501  0.00000000000E+00  0.00000000000E+00 -0.12941630412E+04  0.12941630412E+04  0.25500000920E-02 0.  1.
    10030    2    1    2    0    0  0.00000000000E+00  0.00000000000E+00  0.13047317001E+04  0.38930577825E+04  0.36679114068E+04 0.  0.
        1    1    3    3  502    0  0.11503669252E+04  0.13563634854E+04  0.17731252995E+03  0.17873180188E+04  0.50400001928E-02 0.  1.
       -1    1    3    3    0  502 -0.11503669252E+04 -0.13563634854E+04  0.11274191702E+04  0.21057397637E+04  0.50400001928E-02 0. -1.
</event>
<event>
 5   0  0.3675819E-07  0.3788423E+04  0.7818609E-02  0.8048644E-01
        1   -1    0    0  501    0  0.00000000000E+00  0.00000000000E+00  0.23184956110E+04  0.23184956111E+04  0.50400001928E-02 0.  1.
       -1   -1    0    0    0  501  0.00000000000E+00  0.00000000000E+00 -0.15475713079E+04  0.15475713080E+04  0.50400001928E-02 0. -1.
    10030    2    1    2    0    0  0.00000000000E+00  0.00000000000E+00  0.77092430310E+03  0.38660669190E+04  0.37884230415E+04 0.  0.
        5    1    3    3  502    0  0.12539009866E+04 -0.13155829614E+04 -0.15932258757E+03  0.18243990763E+04  0.46999998093E+01 0. -1.
       -5    1    3    3    0  502 -0.12539009866E+04  0.13155829614E+04  0.93024689067E+03  0.20416678428E+04  0.46999998093E+01 0.  1.
</event>
<event>
 5   0  0.3675819E-07  0.3689331E+04  0.7818609E-02  0.8070330E-01
       -1   -1    0    0    0  501  0.00000000000E+00  0.00000000000E+00  0.17988428033E+04  0.17988428033E+04  0.50400001928E-02 0. -1.
        1   -1    0    0  501    0  0.00000000000E+00  0.00000000000E+00 -0.18916555831E+04  0.18916555831E+04  0.50400001928E-02 0.  1.
    10030    2    1    2    0    0  0.00000000000E+00  0.00000000000E+00 -0.92812779774E+02  0.36904983864E+04  0.36893311220E+04 0.  0.
        5    1    3    3  502    0  0.66952478329E+03 -0.71416886879E+03 -0.16103806175E+04  0.18845817657E+04  0.46999998093E+01 0.  1.
       -5    1    3    3    0  502 -0.66952478329E+03  0.71416886879E+03  0.15175678377E+04  0.18059166206E+04  0.46999998093E+01 0. -1.
</event>
<event>
 5   0  0.3682276E-07  0.2497787E+04  0.7818609E-02  0.8403774E-01
        1   -1    0    0  501    0  0.00000000000E+00  0.00000000000E+00  0.13947267351E+04  0.13947267351E+04  0.50400001928E-02 0.  1.
       -1   -1    0    0    0  501  0.00000000000E+00  0.00000000000E+00 -0.11183088840E+04  0.11183088840E+04  0.50400001928E-02 0. -1.
    10030    2    1    2    0    0  0.00000000000E+00  0.00000000000E+00  0.27641785108E+03  0.25130356191E+04  0.24977872596E+04 0.  0.
        1    1    3    3  502    0  0.49794919507E+03  0.23988969752E+03  0.12649720534E+04  0.13804545497E+04  0.50400001928E-02 0.  1.
       -1    1    3    3    0  502 -0.49794919507E+03 -0.23988969752E+03 -0.98855420231E+03  0.11325810694E+04  0.50400001928E-02 0. -1.
</event>
<event>
 5   0  0.3704306E-07  0.3692636E+04  0.7818609E-02  0.8069596E-01
        1   -1    0    0  501    0  0.00000000000E+00  0.00000000000E+00  0.22041409911E+04  0.22041409911E+04  0.50400001928E-02 0. -1.
       -1   -1    0    0    0  501  0.00000000000E+00  0.00000000000E+00 -0.15465846334E+04  0.15465846334E+04  0.50400001928E-02 0.  1.
    10030    2    1    2    0    0  0.00000000000E+00  0.00000000000E+00  0.65755635773E+03  0.37507256246E+04  0.36926362327E+04 0.  0.
        3    1    3    3  502    0 -0.17426200534E+04 -0.57484509531E+03  0.12131265648E+03  0.18389911107E+04  0.10100000352E+00 0.  1.
       -3    1    3    3    0  502  0.17426200534E+04  0.57484509531E+03  0.53624370126E+03  0.19117345139E+04  0.10100000352E+00 0. -1.
</event>
<event>
 5   0  0.3675819E-07  0.3696363E+04  0.7818609E-02  0.8068768E-01
        1   -1    0    0  501    0  0.00000000000E+00  0.00000000000E+00  0.29367634920E+04  0.29367634920E+04  0.50400001928E-02 0. -1.
       -1   -1    0    0    0  501  0.00000000000E+00  0.00000000000E+00 -0.11631084688E+04  0.11631084688E+04  0.50400001928E-02 0.  1.
    10030    2    1    2    0    0  0.00000000000E+00  0.00000000000E+00  0.17736550232E+04  0.40998719609E+04  0.36963628007E+04 0.  0.
        5    1    3    3  502    0  0.37989586096E+03 -0.13514949066E+04 -0.44642851089E+03  0.14731530311E+04  0.46999998093E+01 0.  1.
       -5    1    3    3    0  502 -0.37989586096E+03  0.13514949066E+04  0.22200835341E+04  0.26267189298E+04  0.46999998093E+01 0. -1.
</event>
<event>
 5   0  0.3764495E-07  0.3759318E+04  0.7818609E-02  0.8054942E-01
       -1   -1    0    0    0  501  0.00000000000E+00  0.00000000000E+00  0.22375029953E+04  0.22375029953E+04  0.50400001928E-02 0. -1.
        1   -1    0    0  501    0  0.00000000000E+00  0.00000000000E+00 -0.15790450387E+04  0.15790450387E+04  0.50400001928E-02 0.  1.
    10030    2    1    2    0    0  0.00000000000E+00  0.00000000000E+00  0.65845795655E+03  0.38165480340E+04  0.37593180253E+04 0.  0.
        4    1    3    3  502    0 -0.72041768937E+03 -0.37921688847E+03  0.20492193441E+04  0.22050189633E+04  0.12699999809E+01 0. -1.
       -4    1    3    3    0  502  0.72041768937E+03  0.37921688847E+03 -0.13907613875E+04  0.16115290706E+04  0.12699999809E+01 0.  1.
</event>
<event>
 5   0  0.3704306E-07  0.3528573E+04  0.7818609E-02  0.8107052E-01
       -1   -1    0    0    0  501  0.00000000000E+00  0.00000000000E+00  0.13421237505E+04  0.13421237505E+04  0.50400001928E-02 0. -1.
        1   -1    0    0  501    0  0.00000000000E+00  0.00000000000E+00 -0.23192401959E+04  0.23192401959E+04  0.50400001928E-02 0.  1.
    10030    2    1    2    0    0  0.00000000000E+00  0.00000000000E+00 -0.97711644541E+03  0.36613639464E+04  0.35285732811E+04 0.  0.
        3    1    3    3  502    0 -0.13848788971E+04 -0.10892519142E+04 -0.39375213626E+03  0.18053808593E+04  0.10100000352E+00 0. -1.
       -3    1    3    3    0  502  0.13848788971E+04  0.10892519142E+04 -0.58336430915E+03  0.18559830871E+04  0.10100000352E+00 0.  1.
</event>
<event>
 5   0  0.3704306E-07  0.3815808E+04  0.7818609E-02  0.8042771E-01
       -1   -1    0    0    0  501  0.00000000000E+00  0.00000000000E+00  0.22474725460E+04  0.22474725460E+04  0.50400001928E-02 0. -1.
        1   -1    0    0  501    0  0.00000000000E+00  0.00000000000E+00 -0.16196407882E+04  0.16196407882E+04  0.50400001928E-02 0.  1.
    10030    2    1    2    0    0  0.00000000000E+00  0.00000000000E+00  0.62783175780E+03  0.38671133341E+04  0.38158082791E+04 0.  0.
        3    1    3    3  502    0  0.12371583097E+04 -0.48691444570E+03 -0.10728580928E+04  0.17084117941E+04  0.10100000352E+00 0.  1.
       -3    1    3    3    0  502 -0.12371583097E+04  0.48691444570E+03  0.17006898506E+04  0.21587015400E+04  0.10100000352E+00 0. -1.
</event>
<event>
 5   0  0.3675819E-07  0.3543670E+04  0.7818609E-02  0.8103518E-01
        1   -1    0    0  501    0  0.00000000000E+00  0.00000000000E+00  0.13818316119E+04  0.13818316119E+04  0.50400001928E-02 0. -1.
       -1   -1    0    0    0  501  0.00000000000E+00  0.00000000000E+00 -0.22719121465E+04  0.22719121465E+04  0.50400001928E-02 0.  1.
    10030    2    1    2    0    0  0.00000000000E+00  0.00000000000E+00 -0.89008053467E+03  0.36537437584E+04  0.35436704268E+04 0.  0.
        5    1    3    3  502    0 -0.54233262948E+02  0.84399940290E+02  0.13788944409E+04  0.13825471297E+04  0.46999998093E+01 0. -1.
       -5    1    3    3    0  502  0.54233262948E+02 -0.84399940290E+02 -0.22689749755E+04  0.22711966287E+04  0.46999998093E+01 0.  1.
</event>
<event>
 5   0  0.1128166E-06  0.3673220E+04  0.7818609E-02  0.8073923E-01
        2   -1    0    0  501    0  0.00000000000E+00  0.00000000000E+00  0.15460089135E+04  0.15460089136E+04  0.25500000920E-02 0.  1.
       -2   -1    0    0    0  501  0.00000000000E+00  0.00000000000E+00 -0.21818355479E+04  0.21818355479E+04  0.25500000920E-02 0. -1.
    10030    2    1    2    0    0  0.00000000000E+00  0.00000000000E+00 -0.63582663432E+03  0.37278444614E+04  0.36732204970E+04 0.  0.
        3    1    3    3  502    0  0.59540045496E+03 -0.10566962982E+04 -0.17175627947E+04  0.21026485042E+04  0.10100000352E+00 0. -1.
       -3    1    3    3    0  502 -0.59540045496E+03  0.10566962982E+04  0.10817361603E+04  0.16251959572E+04  0.10100000352E+00 0.  1.
</event>
<event>
 5   0  0.1051123E-06  0.3508192E+04  0.7818609E-02  0.8111851E-01
        2   -1    0    0  501    0  0.00000000000E+00  0.00000000000E+00  0.19290990358E+04  0.19290990358E+04  0.25500000920E-02 0. -1.
       -2   -1    0    0    0  501  0.00000000000E+00  0.00000000000E+00 -0.15949684764E+04  0.15949684764E+04  0.25500000920E-02 0.  1.
    10030    2    1    2    0    0  0.00000000000E+00  0.00000000000E+00  0.33413055949E+03  0.35240675122E+04  0.35081916424E+04 0.  0.
        2    1    3    3  502    0 -0.33484815030E+03  0.38337207735E+03  0.18532785503E+04  0.19219102005E+04  0.25500000920E-02 0. -1.
       -2    1    3    3    0  502  0.33484815030E+03 -0.38337207735E+03 -0.15191479909E+04  0.16021573117E+04  0.25500000920E-02 0.  1.
</event>
<event>
 5   0  0.3490375E-07  0.2843706E+04  0.7818609E-02  0.8289826E-01
        3   -1    0    0  501    0  0.00000000000E+00  0.00000000000E+00  0.25313951378E+04  0.25313951398E+04  0.10100000352E+00 0. -1.
       -3   -1    0    0    0  501  0.00000000000E+00  0.00000000000E+00 -0.79863692032E+03  0.79863692670E+03  0.10100000352E+00 0.  1.
    10030    2    1    2    0    0  0.00000000000E+00  0.00000000000E+00  0.17327582175E+04  0.33300320665E+04  0.28437057731E+04 0.  0.
        4    1    3    3  502    0 -0.35187656902E+02  0.11822577452E+03  0.25251170012E+04  0.25281283566E+04  0.12699999809E+01 0. -1.
       -4    1    3    3    0  502  0.35187656902E+02 -0.11822577452E+03 -0.79235878370E+03  0.80190370991E+03  0.12699999809E+01 0.  1.
</event>
<event>
 5   0  0.1128166E-06  0.3685510E+04  0.7818609E-02  0.8071181E-01
        2   -1    0    0  501    0  0.00000000000E+00  0.00000000000E+00  0.21741272264E+04  0.21741272264E+04  0.25500000920E-02 0.  1.
       -2   -1    0    0    0  501  0.00000000000E+00  0.00000000000E+00 -0.15618895043E+04  0.15618895043E+04  0.25500000920E-02 0. -1.
    10030    2    1    2    0    0  0.00000000000E+00  0.00000000000E+00  0.61223772209E+03  0.37360167307E+04  0.36855102745E+04 0.  0.
        3    1    3    3  502    0  0.74263758380E+03  0.31425636230E+03 -0.13735367182E+04  0.15927557153E+04  0.10100000352E+00 0. -1.
       -3    1    3    3    0  502 -0.74263758380E+03 -0.31425636230E+03  0.19857744403E+04  0.21432610154E+04  0.10100000352E+00 0.  1.
</event>
<event>
 5   0  0.1092116E-06  0.2443024E+04  0.7818609E-02  0.8423569E-01
        2   -1    0    0  501    0  0.00000000000E+00  0.00000000000E+00  0.20105644292E+04  0.20105644292E+04  0.25500000920E-02 0.  1.
       -2   -1    0    0    0  501  0.00000000000E+00  0.00000000000E+00 -0.74212579342E+03  0.74212579343E+03  0.25500000920E-02 0. -1.
    10030    2    1    2    0    0  0.00000000000E+00  0.00000000000E+00  0.12684386358E+04  0.27526902226E+04  0.24430241278E+04 0.  0.
        1    1    3    3  502    0 -0.11799442313E+04 -0.91570705604E+02  0.97493590261E+03  0.15333471874E+04  0.50400001928E-02 0.  1.
       -1    1    3    3    0  502  0.11799442313E+04  0.91570705604E+02  0.29350273315E+03  0.12193430352E+04  0.50400001928E-02 0. -1.
</event>
<event>
 5   0  0.1066907E-06  0.3511585E+04  0.7818609E-02  0.8111050E-01
        2   -1    0    0  501    0  0.00000000000E+00  0.00000000000E+00  0.21861174546E+04  0.21861174546E+04  0.25500000920E-02 0. -1.
       -2   -1    0    0    0  501  0.00000000000E+00  0.00000000000E+00 -0.14101742884E+04  0.14101742884E+04  0.25500000920E-02 0.  1.
    10030    2    1    2    0    0  0.00000000000E+00  0.00000000000E+00  0.77594316623E+03  0.35962917430E+04  0.35115846143E+04 0.  0.
        4    1    3    3  502    0 -0.16562194375E+03 -0.16070736507E+04 -0.31613656940E+03  0.16462260752E+04  0.12699999809E+01 0.  1.
       -4    1    3    3    0  502  0.16562194375E+03  0.16070736507E+04  0.10920797356E+04  0.19500656679E+04  0.12699999809E+01 0. -1.
</event>
<event>
 5   0  0.1051123E-06  0.3672200E+04  0.7818609E-02  0.8074151E-01
        2   -1    0    0  501    0  0.00000000000E+00  0.00000000000E+00  0.25900617182E+04  0.25900617182E+04  0.25500000920E-02 0.  1.
       -2   -1    0    0    0  501  0.00000000000E+00  0.00000000000E+00 -0.13016153300E+04  0.13016153300E+04  0.25500000920E-02 0. -1.
    10030    2    1    2    0    0  0.00000000000E+00  0.00000000000E+00  0.12884463882E+04  0.38916770481E+04  0.36722004509E+04 0.  0.
        2    1    3    3  502    0  0.16373776952E+04 -0.82797677502E+03  0.71697588350E+03  0.19699252966E+04  0.25500000920E-02 0.  1.
       -2    1    3    3    0  502 -0.16373776952E+04  0.82797677502E+03  0.57147050471E+03  0.19217517515E+04  0.25500000920E-02 0. -1.
</event>
<event>
 5   0  0.3675819E-07  0.2677988E+04  0.7818609E-02  0.8342183E-01
        1   -1    0    0  501    0  0.00000000000E+00  0.00000000000E+00  0.95290759626E+03  0.95290759628E+03  0.50400001928E-02 0. -1.
       -1   -1    0    0    0  501  0.00000000000E+00  0.00000000000E+00 -0.18815091783E+04  0.18815091783E+04  0.50400001928E-02 0.  1.
    10030    2    1    2    0    0  0.00000000000E+00  0.00000000000E+00 -0.92860158205E+03  0.28344167746E+04  0.26779875941E+04 0.  0.
        5    1    3    3  502    0 -0.37287598574E+03 -0.90938834964E+03  0.49813281643E+03  0.11018992985E+04  0.46999998093E+01 0. -1.
       -5    1    3    3    0  502  0.37287598574E+03  0.90938834964E+03 -0.14267343985E+04  0.17325174761E+04  0.46999998093E+01 0.  1.
</event>
<event>
 5   0  0.1051123E-06  0.3648817E+04  0.7818609E-02  0.8079400E-01
        2   -1    0    0  501    0  0.00000000000E+00  0.00000000000E+00  0.22996782557E+04  0.22996782557E+04  0.25500000920E-02 0. -1.
       -2   -1    0    0    0  501  0.00000000000E+00  0.00000000000E+00 -0.14473617723E+04  0.14473617723E+04  0.25500000920E-02 0.  1.
    10030    2    1    2    0    0  0.00000000000E+00  0.00000000000E+00  0.85231648348E+03  0.37470400280E+04  0.36488170115E+04 0.  0.
        2    1    3    3  502    0 -0.43075095810E+03 -0.48243898746E+03 -0.13256865427E+04  0.14750384992E+04  0.25500000920E-02 0.  1.
       -2    1    3    3    0  502  0.43075095810E+03  0.48243898746E+03  0.21780030262E+04  0.22720015288E+04  0.25500000920E-02 0. -1.
</event>
<event>
 5   0  0.3675819E-07  0.3764245E+04  0.7818609E-02  0.8053872E-01
        1   -1    0    0  501    0  0.00000000000E+00  0.00000000000E+00  0.12799555649E+04  0.12799555649E+04  0.50400001928E-02 0. -1.
       -1   -1    0    0    0  501  0.00000000000E+00  0.00000000000E+00 -0.27675847874E+04  0.27675847875E+04  0.50400001928E-02 0.  1.
    10030    2    1    2    0    0  0.00000000000E+00  0.00000000000E+00 -0.14876292225E+04  0.40475403524E+04  0.37642452365E+04 0.  0.
        5    1    3    3  502    0  0.25233002812E+03  0.16664295798E+04  0.15690726232E+03  0.16927196952E+04  0.46999998093E+01 0. -1.
       -5    1    3    3    0  502 -0.25233002812E+03 -0.16664295798E+04 -0.16445364848E+04  0.23548206572E+04  0.46999998093E+01 0.  1.
</event>
<event>
 5   0  0.3764495E-07  0.2689492E+04  0.7818609E-02  0.8338422E-01
       -1   -1    0    0    0  501  0.00000000000E+00  0.00000000000E+00  0.11192429724E+04  0.11192429724E+04  0.50400001928E-02 0. -1.
        1   -1    0    0  501    0  0.00000000000E+00  0.00000000000E+00 -0.16156835367E+04  0.16156835367E+04  0.50400001928E-02 0.  1.
    10030    2    1    2    0    0  0.00000000000E+00  0.00000000000E+00 -0.49644056432E+03  0.27349265092E+04  0.26894924757E+04 0.  0.
        4    1    3    3  502    0  0.48737711817E+02 -0.50668223718E+03 -0.15139310609E+04  0.15972135499E+04  0.12699999809E+01 0.  1.
       -4    1    3    3    0  502 -0.48737711817E+02  0.50668223718E+03  0.10174904966E+04  0.11377129592E+04  0.12699999809E+01 0. -1.
</event>
<event>
 5   0  0.3848431E-07  0.3675636E+04  0.7818609E-02  0.8073383E-01
        1   -1    0    0  501    0  0.00000000000E+00  0.00000000000E+00  0.13453882547E+04  0.13453882547E+04  0.50400001928E-02 0. -1.
       -1   -1    0    0    0  501  0.00000000000E+00  0.00000000000E+00 -0.25104828305E+04  0.25104828305E+04  0.50400001928E-02 0.  1.
    10030    2    1    2    0    0  0.00000000000E+00  0.00000000000E+00 -0.11650945757E+04  0.38558710852E+04  0.36756355172E+04 0.  0.
        2    1    3    3  502    0 -0.68659462975E+03 -0.77852402029E+03  0.10084149215E+04  0.14472085163E+04  0.25500000920E-02 0. -1.
       -2    1    3    3    0  502  0.68659462975E+03  0.77852402029E+03 -0.21735094973E+04  0.24086625689E+04  0.25500000920E-02 0.  1.
</event>
<event>
 5   0  0.3764495E-07  0.3657396E+04  0.7818609E-02  0.8077469E-01
        1   -1    0    0  501    0  0.00000000000E+00  0.00000000000E+00  0.25798014798E+04  0.25798014798E+04  0.50400001928E-02 0.  1.
       -1   -1    0    0    0  501  0.00000000000E+00  0.00000000000E+00 -0.12962769351E+04  0.12962769351E+04  0.50400001928E-02 0. -1.
    10030    2    1    2    0    0  0.00000000000E+00  0.00000000000E+00  0.12835245447E+04  0.38760784149E+04  0.36573964267E+04 0.  0.
        4    1    3    3  502    0 -0.28929932866E+03  0.17724458455E+04  0.10071632791E+04  0.20590380910E+04  0.12699999809E+01 0.  1.
       -4    1    3    3    0  502  0.28929932866E+03 -0.17724458455E+04  0.27636126562E+03  0.18170403239E+04  0.12699999809E+01 0. -1.
</event>
<event>
 5   0  0.1092116E-06  0.3658950E+04  0.7818609E-02  0.8077120E-01
       -2   -1    0    0    0  501  0.00000000000E+00  0.00000000000E+00  0.12979176384E+04  0.12979176384E+04  0.25500000920E-02 0. -1.
        2   -1    0    0  501    0  0.00000000000E+00  0.00000000000E+00 -0.25787292946E+04  0.25787292946E+04  0.25500000920E-02 0.  1.
    10030    2    1    2    0    0  0.00000000000E+00  0.00000000000E+00 -0.12808116562E+04  0.38766469329E+04  0.36589497050E+04 0.  0.
        1    1    3    3  502    0 -0.13164195394E+04  0.17111425534E+03 -0.19741683515E+04  0.23789874258E+04  0.50400001928E-02 0.  1.
       -1    1    3    3    0  502  0.13164195394E+04 -0.17111425534E+03  0.69335669534E+03  0.14976595071E+04  0.50400001928E-02 0. -1.
</event>
<event>
 5   0  0.1066907E-06  0.3690307E+04  0.7818609E-02  0.8070113E-01
        2   -1    0    0  501    0  0.00000000000E+00  0.00000000000E+00  0.17370111371E+04  0.17370111371E+04  0.25500000920E-02 0. -1.
       -2   -1    0    0    0  501  0.00000000000E+00  0.00000000000E+00 -0.19600288463E+04  0.19600288463E+04  0.25500000920E-02 0.  1.
    10030    2    1    2    0    0  0.00000000000E+00  0.00000000000E+00 -0.22301770918E+03  0.36970399835E+04  0.36903072691E+04 0.  0.
        4    1    3    3  502    0  0.91424731825E+03  0.86587741965E+03  0.12396542702E+04  0.17670133523E+04  0.12699999809E+01 0. -1.
       -4    1    3    3    0  502 -0.91424731825E+03 -0.86587741965E+03 -0.14626719794E+04  0.19300266311E+04  0.12699999809E+01 0.  1.
</event>
<event>
 5   0  0.3675819E-07  0.3490434E+04  0.7818609E-02  0.8116061E-01
       -1   -1    0    0    0  501  0.00000000000E+00  0.00000000000E+00  0.14637675443E+04  0.14637675443E+04  0.50400001928E-02 0. -1.
        1   -1    0    0  501    0  0.00000000000E+00  0.00000000000E+00 -0.20807824402E+04  0.20807824402E+04  0.50400001928E-02 0.  1.
    10030    2    1    2    0    0  0.00000000000E+00  0.00000000000E+00 -0.61701489592E+03  0.35445499846E+04  0.34904336709E+04 0.  0.
        5    1    3    3  502    0  0.36569027620E+03  0.16463516464E+04 -0.76441860238E+03  0.18516373866E+04  0.46999998093E+01 0. -1.
       -5    1    3    3    0  502 -0.36569027620E+03 -0.16463516464E+04  0.14740370646E+03  0.16929125980E+04  0.46999998093E+01 0.  1.
</event>
<event>
 5   0  0.1128166E-06  0.3656284E+04  0.7818609E-02  0.8077720E-01
       -2   -1    0    0    0  501  0.00000000000E+00  0.00000000000E+00  0.22834805105E+04  0.22834805105E+04  0.25500000920E-02 0.  1.
        2   -1    0    0  501    0  0.00000000000E+00  0.00000000000E+00 -0.14636003273E+04  0.14636003273E+04  0.25500000920E-02 0. -1.
    10030    2    1    2    0    0  0.00000000000E+00  0.00000000000E+00  0.81988018317E+03  0.37470808378E+04  0.36562838088E+04 0.  0.
        3    1    3    3  502    0  0.53629988742E+03  0.12613930016E+04 -0.82980007728E+03  0.16022790182E+04  0.10100000352E+00 0. -1.
       -3    1    3    3    0  502 -0.53629988742E+03 -0.12613930016E+04  0.16496802604E+04  0.21448018197E+04  0.10100000352E+00 0.  1.
</event>
<event>
 5   0  0.3704306E-07  0.3689617E+04  0.7818609E-02  0.8070267E-01
        1   -1    0    0  501    0  0.00000000000E+00  0.00000000000E+00  0.20092473890E+04  0.20092473890E+04  0.50400001928E-02 0. -1.
       -1   -1    0    0    0  501  0.00000000000E+00  0.00000000000E+00 -0.16938272735E+04  0.16938272735E+04  0.50400001928E-02 0.  1.
    10030    2    1    2    0    0  0.00000000000E+00  0.00000000000E+00  0.31542011551E+03  0.37030746626E+04  0.36896167968E+04 0.  0.
        3    1    3    3  502    0 -0.21565306645E+03  0.77275027934E+03 -0.15095743388E+04  0.17095215512E+04  0.10100000352E+00 0.  1.
       -3    1    3    3    0  502  0.21565306645E+03 -0.77275027934E+03  0.18249944543E+04  0.19935531114E+04  0.10100000352E+00 0. -1.
</event>
<event>
 5   0  0.3848431E-07  0.3126941E+04  0.7818609E-02  0.8208383E-01
        1   -1    0    0  501    0  0.00000000000E+00  0.00000000000E+00  0.24042833795E+04  0.24042833795E+04  0.50400001928E-02 0.  1.
       -1   -1    0    0    0  501  0.00000000000E+00  0.00000000000E+00 -0.10167021311E+04  0.10167021311E+04  0.50400001928E-02 0. -1.
    10030    2    1    2    0    0  0.00000000000E+00  0.00000000000E+00  0.13875812484E+04  0.34209855106E+04  0.31269410200E+04 0.  0.
        2    1    3    3  502    0 -0.73608761401E+03 -0.13723173745E+04  0.54156591231E+03  0.16487490983E+04  0.25500000920E-02 0.  1.
       -2    1    3    3    0  502  0.73608761401E+03  0.13723173745E+04  0.84601533611E+03  0.17722364122E+04  0.25500000920E-02 0. -1.
</event>
<event>
 5   0  0.1051123E-06  0.3162821E+04  0.7818609E-02  0.8198706E-01
        2   -1    0    0  501    0  0.00000000000E+00  0.00000000000E+00  0.26290086810E+04  0.26290086810E+04  0.25500000920E-02 0. -1.
       -2   -1    0    0    0  501  0.00000000000E+00  0.00000000000E+00 -0.95125544423E+03  0.95125544423E+03  0.25500000920E-02 0.  1.
    10030    2    1    2    0    0  0.00000000000E+00  0.00000000000E+00  0.16777532368E+04  0.35802641252E+04  0.31628207794E+04 0.  0.
        2    1    3    3  502    0  0.15651819480E+04  0.12185316286E+03  0.10542992397E+04  0.18910815981E+04  0.25500000920E-02 0. -1.
       -2    1    3    3    0  502 -0.15651819480E+04 -0.12185316286E+03  0.62345399702E+03  0.16891825272E+04  0.25500000920E-02 0.  1.
</event>
<event>
 5   0  0.3682276E-07  0.3768499E+04  0.7818609E-02  0.8052949E-01
        1   -1    0    0  501    0  0.00000000000E+00  0.00000000000E+00  0.13851703731E+04  0.13851703731E+04  0.50400001928E-02 0. -1.
       -1   -1    0    0    0  501  0.00000000000E+00  0.00000000000E+00 -0.25631470708E+04  0.25631470708E+04  0.50400001928E-02 0.  1.
    10030    2    1    2    0    0  0.00000000000E+00  0.00000000000E+00 -0.11779766977E+04  0.39483174439E+04  0.37684985787E+04 0.  0.
        1    1    3    3  502    0  0.60775205087E+03 -0.54471544776E+03  0.11903775786E+04  0.14432866153E+04  0.50400001928E-02 0. -1.
       -1    1    3    3    0  502 -0.60775205087E+03  0.54471544776E+03 -0.23683542763E+04  0.25050308286E+04  0.50400001928E-02 0.  1.
</event>
<event>
 5   0  0.1066907E-06  0.3623191E+04  0.7818609E-02  0.8085200E-01
        2   -1    0    0  501    0  0.00000000000E+00  0.00000000000E+00  0.15294157383E+04  0.15294157383E+04  0.25500000920E-02 0. -1.
       -2   -1    0    0    0  501  0.00000000000E+00  0.00000000000E+00 -0.21458378890E+04  0.21458378890E+04  0.25500000920E-02 0.  1.
    10030    2    1    2    0    0  0.00000000000E+00  0.00000000000E+00 -0.61642215073E+03  0.36752536272E+04  0.36231909909E+04 0.  0.
        4    1    3    3  502    0  0.11169954072E+03 -0.77984546486E+03  0.13465609904E+04  0.15600845651E+04  0.12699999809E+01 0. -1.
       -4    1    3    3    0  502 -0.11169954072E+03  0.77984546486E+03 -0.19629831411E+04  0.21151690622E+04  0.12699999809E+01 0.  1.
</event>
<event>
 5   0  0.3682276E-07  0.3749665E+04  0.7818609E-02  0.8057044E-01
        1   -1    0    0  501    0  0.00000000000E+00  0.00000000000E+00  0.14874056298E+04  0.14874056298E+04  0.50400001928E-02 0. -1.
       -1   -1    0    0    0  501  0.00000000000E+00  0.00000000000E+00 -0.23631730575E+04  0.23631730575E+04  0.50400001928E-02 0.  1.
    10030    2    1    2    0    0  0.00000000000E+00  0.00000000000E+00 -0.87576742766E+03  0.38505786873E+04  0.37496650037E+04 0.  0.
        1    1    3    3  502    0  0.55119320160E+03 -0.16022496436E+04  0.38619633670E+03  0.17378623295E+04  0.50400001928E-02 0. -1.
       -1    1    3    3    0  502 -0.55119320160E+03  0.16022496436E+04 -0.12619637644E+04  0.21127163578E+04  0.50400001928E-02 0.  1.
</event>
<event>
 5   0  0.1066907E-06  0.3755652E+04  0.7818609E-02  0.8055739E-01
       -2   -1    0    0    0  501  0.00000000000E+00  0.00000000000E+00  0.14434079777E+04  0.14434079777E+04  0.25500000920E-02 0. -1.
        2   -1    0    0  501    0  0.00000000000E+00  0.00000000000E+00 -0.24429900263E+04  0.24429900263E+04  0.25500000920E-02 0.  1.
    10030    2    1    2    0    0  0.00000000000E+00  0.00000000000E+00 -0.99958204859E+03  0.38863980040E+04  0.37556524299E+04 0.  0.
        4    1    3    3  502    0  0.65158890747E+03 -0.30499313060E+02  0.13224002074E+04  0.14745311912E+04  0.12699999809E+01 0. -1.
       -4    1    3    3    0  502 -0.65158890747E+03  0.30499313060E+02 -0.23219822560E+04  0.24118668128E+04  0.12699999809E+01 0.  1.
</event>
<event>
 5   0  0.1128530E-06  0.3640786E+04  0.7818609E-02  0.8081213E-01
        2   -1    0    0  501    0  0.00000000000E+00  0.00000000000E+00  0.12610167736E+04  0.12610167736E+04  0.25500000920E-02 0.  1.
       -2   -1    0    0    0  501  0.00000000000E+00  0.00000000000E+00 -0.26279039845E+04  0.26279039845E+04  0.25500000920E-02 0. -1.
    10030    2    1    2    0    0  0.00000000000E+00  0.00000000000E+00 -0.13668872110E+04  0.38889207581E+04  0.36407861809E+04 0.  0.
        5    1    3    3  502    0 -0.71806223324E+03  0.14663614990E+04  0.17639027162E+03  0.16422439022E+04  0.46999998093E+01 0.  1.
       -5    1    3    3    0  502  0.71806223324E+03 -0.14663614990E+04 -0.15432774826E+04  0.22466768559E+04  0.46999998093E+01 0. -1.
</event>
<event>
 5   0  0.3764495E-07  0.3746553E+04  0.7818609E-02  0.8057723E-01
       -1   -1    0    0    0  501  0.00000000000E+00  0.00000000000E+00  0.15095964394E+04  0.15095964394E+04  0.50400001928E-02 0. -1.
        1   -1    0    0  501    0  0.00000000000E+00  0.00000000000E+00 -0.23245713121E+04  0.23245713121E+04  0.50400001928E-02 0.  1.
    10030    2    1    2    0    0  0.00000000000E+00  0.00000000000E+00 -0.81497487269E+03  0.38341677515E+04  0.37465528561E+04 0.  0.
        4    1    3    3  502    0 -0.58478894592E+03  0.45013808573E+03 -0.21695422290E+04  0.22916189700E+04  0.12699999809E+01 0.  1.
       -4    1    3    3    0  502  0.58478894592E+03 -0.45013808573E+03  0.13545673563E+04  0.15425487815E+04  0.12699999809E+01 0. -1.
</event>
<event>
 5   0  0.1128530E-06  0.3583581E+04  0.7818609E-02  0.8094263E-01
        2   -1    0    0  501    0  0.00000000000E+00  0.00000000000E+00  0.23272952988E+04  0.23272952988E+04  0.25500000920E-02 0.  1.
       -2   -1    0    0    0  501  0.00000000000E+00  0.00000000000E+00 -0.13795040116E+04  0.13795040116E+04  0.25500000920E-02 0. -1.
    10030    2    1    2    0    0  0.00000000000E+00  0.00000000000E+00  0.94779128719E+03  0.37067993103E+04  0.35835810027E+04 0.  0.
        5    1    3    3  502    0 -0.62761627642E+03  0.12510160316E+04 -0.68329674934E+03  0.15575172035E+04  0.46999998093E+01 0. -1.
       -5    1    3    3    0  502  0.62761627642E+03 -0.12510160316E+04  0.16310880365E+04  0.21492821068E+04  0.46999998093E+01 0.  1.
</event>
<event>
 5   0  0.3848431E-07  0.3697709E+04  0.7818609E-02  0.8068470E-01
        1   -1    0    0  501    0  0.00000000000E+00  0.00000000000E+00  0.12334919214E+04  0.12334919214E+04  0.50400001928E-02 0.  1.
       -1   -1    0    0    0  501  0.00000000000E+00  0.00000000000E+00 -0.27712076662E+04  0.27712076662E+04  0.50400001928E-02 0. -1.
    10030    2    1    2    0    0  0.00000000000E+00  0.00000000000E+00 -0.15377157448E+04  0.40046995876E+04  0.36977086250E+04 0.  0.
        2    1    3    3  502    0  0.18363839615E+04 -0.30515261503E+02 -0.99866541588E+03  0.20905907892E+04  0.25500000920E-02 0.  1.
       -2    1    3    3    0  502 -0.18363839615E+04  0.30515261503E+02 -0.53905032887E+03  0.19141087984E+04  0.25500000920E-02 0. -1.
</event>
<event>
 5   0  0.1051123E-06  0.3546919E+04  0.7818609E-02  0.8102760E-01
       -2   -1    0    0    0  501  0.00000000000E+00  0.00000000000E+00  0.14136625719E+04  0.14136625719E+04  0.25500000920E-02 0.  1.
        2   -1    0    0  501    0  0.00000000000E+00  0.00000000000E+00 -0.22248296303E+04  0.22248296303E+04  0.25500000920E-02 0. -1.
    10030    2    1    2    0    0  0.00000000000E+00  0.00000000000E+00 -0.81116705844E+03  0.36384922022E+04  0.35469188754E+04 0.  0.
        2    1    3    3  502    0 -0.16625612284E+04 -0.28950019554E+03 -0.96485476920E+03  0.19439302783E+04  0.25500000920E-02 0. -1.
       -2    1    3    3    0  502  0.16625612284E+04  0.28950019554E+03  0.15368771077E+03  0.16945619239E+04  0.25500000920E-02 0.  1.
</event>
<event>
 5   0  0.3675819E-07  0.3692447E+04  0.7818609E-02  0.8069638E-01
       -1   -1    0    0    0  501  0.00000000000E+00  0.00000000000E+00  0.15689969742E+04  0.15689969742E+04  0.50400001928E-02 0.  1.
        1   -1    0    0  501    0  0.00000000000E+00  0.00000000000E+00 -0.21724338455E+04  0.21724338455E+04  0.50400001928E-02 0. -1.
    10030    2    1    2    0    0  0.00000000000E+00  0.00000000000E+00 -0.60343687136E+03  0.37414308197E+04  0.36924474974E+04 0.  0.
        5    1    3    3  502    0  0.13367188119E+04 -0.10263056572E+04 -0.10656426139E+04  0.19939249621E+04  0.46999998093E+01 0. -1.
       -5    1    3    3    0  502 -0.13367188119E+04  0.10263056572E+04  0.46220574253E+03  0.17475058576E+04  0.46999998093E+01 0.  1.
</event>
</LesHouchesEvents>
