<LesHouchesEvents version="3.0">
<header>
<!--
#*********************************************************************
#                                                                    *
#                        MadGraph5_aMC@NLO                           *
#                                                                    *
#                           Going Beyond                             *
#                                                                    *
#                   http://madgraph.hep.uiuc.edu                     *
#                   http://madgraph.phys.ucl.ac.be                   *
#                   http://amcatnlo.cern.ch                          *
#                                                                    *
#                     The MadGraph5_aMC@NLO team                     *
#                                                                    *
#....................................................................*
#                                                                    *
# This file contains all the information necessary to reproduce      *
# the events generated:                                              *
#                                                                    *
# 1. software version                                                *
# 2. proc_card          : code generation info including model       *
# 3. param_card         : model primary parameters in the LH format  *
# 4. run_card           : running parameters (collider and cuts)     *
# 5. pythia_card        : present only if pythia has been run        *
# 6. pgs_card           : present only if pgs has been run           *
# 7. delphes_cards      : present only if delphes has been run       *
#                                                                    *
#                                                                    *
#*********************************************************************
-->
<MGVersion>
#5.2.2.3
</MGVersion>
<MG5ProcCard>
#************************************************************
#*                     MadGraph5_aMC@NLO                    *
#*                                                          *
#*                *                       *                 *
#*                  *        * *        *                   *
#*                    * * * * 5 * * * *                     *
#*                  *        * *        *                   *
#*                *                       *                 *
#*                                                          *
#*                                                          *
#*         VERSION 2.2.3                 2015-02-10         *
#*                                                          *
#*    The MadGraph5_aMC@NLO Development Team - Find us at   *
#*    https://server06.fynu.ucl.ac.be/projects/madgraph     *
#*                                                          *
#************************************************************
#*                                                          *
#*               Command File for MadGraph5_aMC@NLO         *
#*                                                          *
#*     run as ./bin/mg5_aMC  filename                       *
#*                                                          *
#************************************************************
set group_subprocesses Auto
set ignore_six_quark_processes False
set loop_optimized_output True
set gauge unitary
set complex_mass_scheme False
import model sm
define p = g u c d s u~ c~ d~ s~
define j = g u c d s u~ c~ d~ s~
define l+ = e+ mu+
define l- = e- mu-
define vl = ve vm vt
define vl~ = ve~ vm~ vt~
import model Zprime_UFO
generate p p > zph, zph > j j
add process p p > zph, zph > b b~
output Dijet_signal
</MG5ProcCard>
<MGProcCard>
#*********************************************************************
#                        MadGraph/MadEvent                           *
#                   http://madgraph.hep.uiuc.edu                     *
#                                                                    *
#                          proc_card.dat                             *
#*********************************************************************
#                                                                    *
#            This Files is generated by MADGRAPH 5                   *
#                                                                    *
# WARNING: This Files is generated for MADEVENT (compatibility issue)*
#          This files is NOT a valid MG4 proc_card.dat               *
#          Running this in MG4 will NEVER reproduce the result of MG5*
#                                                                    *
#*********************************************************************
#*********************************************************************
# Process(es) requested : mg2 input                                  *
#*********************************************************************
# Begin PROCESS # This is TAG. Do not modify this line
p p > zph , zph > j j           #Process
# Be carefull the coupling are here in MG5 convention
          
end_coup           # End the couplings input

done               # this tells MG there are no more procs
# End PROCESS  # This is TAG. Do not modify this line
#*********************************************************************
# Model information                                                  *
#*********************************************************************
# Begin MODEL  # This is TAG. Do not modify this line
Zprime_UFO
# End   MODEL  # This is TAG. Do not modify this line
#*********************************************************************
# Start multiparticle definitions                                    *
#*********************************************************************
# Begin MULTIPARTICLES # This is TAG. Do not modify this line

# End  MULTIPARTICLES # This is TAG. Do not modify this line
</MGProcCard>
<MGRunCard>
#*********************************************************************
#                       MadGraph5_aMC@NLO                            *
#                                                                    *
#                     run_card.dat MadEvent                          *
#                                                                    *
#  This file is used to set the parameters of the run.               *
#                                                                    *
#  Some notation/conventions:                                        *
#                                                                    *
#   Lines starting with a '# ' are info or comments                  *
#                                                                    *
#   mind the format:   value    = variable     ! comment             *
#*********************************************************************
#
#*******************                                                 
# Running parameters
#*******************                                                 
#                                                                    
#*********************************************************************
# Tag name for the run (one word)                                    *
#*********************************************************************
  tag_1     = run_tag ! name of the run 
#*********************************************************************
# Run to generate the grid pack                                      *
#*********************************************************************
  .false.     = gridpack  !True = setting up the grid pack
#*********************************************************************
# Number of events and rnd seed                                      *
# Warning: Do not generate more than 1M events in a single run       *
# If you want to run Pythia, avoid more than 50k events in a run.    *
#*********************************************************************
  2000 = nevents ! Number of unweighted events requested 
 678 = iseed   ! rnd seed (0=assigned automatically=default))
#*********************************************************************
# Collider type and energy                                           *
# lpp: 0=No PDF, 1=proton, -1=antiproton, 2=photon from proton,      *
#                                         3=photon from electron     *
#*********************************************************************
        1     = lpp1    ! beam 1 type 
        1     = lpp2    ! beam 2 type
     4000     = ebeam1  ! beam 1 total energy in GeV
     4000     = ebeam2  ! beam 2 total energy in GeV
#*********************************************************************
# Beam polarization from -100 (left-handed) to 100 (right-handed)    *
#*********************************************************************
        0     = polbeam1 ! beam polarization for beam 1
        0     = polbeam2 ! beam polarization for beam 2
#*********************************************************************
# PDF CHOICE: this automatically fixes also alpha_s and its evol.    *
#*********************************************************************
 'nn23lo1'    = pdlabel     ! PDF set                                     
 230000    = lhaid     ! if pdlabel=lhapdf, this is the lhapdf number
#*********************************************************************
# Renormalization and factorization scales                           *
#*********************************************************************
 F        = fixed_ren_scale  ! if .true. use fixed ren scale
 F        = fixed_fac_scale  ! if .true. use fixed fac scale
 91.1880  = scale            ! fixed ren scale
 91.1880  = dsqrt_q2fact1    ! fixed fact scale for pdf1
 91.1880  = dsqrt_q2fact2    ! fixed fact scale for pdf2
 1        = scalefact        ! scale factor for event-by-event scales
#*********************************************************************
# Matching - Warning! ickkw > 1 is still beta
#*********************************************************************
 0        = ickkw            ! 0 no matching, 1 MLM, 2 CKKW matching
 1        = highestmult      ! for ickkw=2, highest mult group
 1        = ktscheme         ! for ickkw=1, 1 Durham kT, 2 Pythia pTE
 1        = alpsfact         ! scale factor for QCD emission vx
 F        = chcluster        ! cluster only according to channel diag
 T        = pdfwgt           ! for ickkw=1, perform pdf reweighting
 5        = asrwgtflavor     ! highest quark flavor for a_s reweight
 T        = clusinfo         ! include clustering tag in output
 3.0      = lhe_version       ! Change the way clustering information pass to shower.        
#*********************************************************************
#**********************************************************
#
#**********************************************************
# Automatic ptj and mjj cuts if xqcut > 0
# (turn off for VBF and single top processes)
#**********************************************************
   T  = auto_ptj_mjj  ! Automatic setting of ptj and mjj
#**********************************************************
#                                                                    
#**********************************
# BW cutoff (M+/-bwcutoff*Gamma)
#**********************************
  15  = bwcutoff      ! (M+/-bwcutoff*Gamma)
#**********************************************************
# Apply pt/E/eta/dr/mij cuts on decay products or not
# (note that etmiss/ptll/ptheavy/ht/sorted cuts always apply)
#**********************************************************
   T  = cut_decays    ! Cut decay products 
#*************************************************************
# Number of helicities to sum per event (0 = all helicities)
# 0 gives more stable result, but longer run time (needed for
# long decay chains e.g.).
# Use >=2 if most helicities contribute, e.g. pure QCD.
#*************************************************************
   0  = nhel          ! Number of helicities used per event
#*******************                                                 
# Standard Cuts
#*******************                                                 
#                                                                    
#*********************************************************************
# Minimum and maximum pt's (for max, -1 means no cut)                *
#*********************************************************************
 20  = ptj       ! minimum pt for the jets 
  0  = ptb       ! minimum pt for the b 
 10  = pta       ! minimum pt for the photons 
 10  = ptl       ! minimum pt for the charged leptons 
  0  = misset    ! minimum missing Et (sum of neutrino's momenta)
  0  = ptheavy   ! minimum pt for one heavy final state
 1.0 = ptonium   ! minimum pt for the quarkonium states
 -1  = ptjmax    ! maximum pt for the jets
 -1  = ptbmax    ! maximum pt for the b
 -1  = ptamax    ! maximum pt for the photons
 -1  = ptlmax    ! maximum pt for the charged leptons
 -1  = missetmax ! maximum missing Et (sum of neutrino's momenta)
#*********************************************************************
# Minimum and maximum E's (in the center of mass frame)              *
#*********************************************************************
  0  = ej     ! minimum E for the jets 
  0  = eb     ! minimum E for the b 
  0  = ea     ! minimum E for the photons 
  0  = el     ! minimum E for the charged leptons 
 -1   = ejmax ! maximum E for the jets
 -1   = ebmax ! maximum E for the b
 -1   = eamax ! maximum E for the photons
 -1   = elmax ! maximum E for the charged leptons
#*********************************************************************
# Maximum and minimum absolute rapidity (for max, -1 means no cut)   *
#*********************************************************************
   5  = etaj    ! max rap for the jets 
  -1  = etab    ! max rap for the b
 2.5  = etaa    ! max rap for the photons 
 2.5  = etal    ! max rap for the charged leptons 
 0.6  = etaonium ! max rap for the quarkonium states
   0  = etajmin ! min rap for the jets
   0  = etabmin ! min rap for the b
   0  = etaamin ! min rap for the photons
   0  = etalmin ! main rap for the charged leptons
#*********************************************************************
# Minimum and maximum DeltaR distance                                *
#*********************************************************************
 0.4 = drjj    ! min distance between jets 
 0   = drbb    ! min distance between b's 
 0.4 = drll    ! min distance between leptons 
 0.4 = draa    ! min distance between gammas 
 0   = drbj    ! min distance between b and jet 
 0.4 = draj    ! min distance between gamma and jet 
 0.4 = drjl    ! min distance between jet and lepton 
 0   = drab    ! min distance between gamma and b 
 0   = drbl    ! min distance between b and lepton 
 0.4 = dral    ! min distance between gamma and lepton 
 -1  = drjjmax ! max distance between jets
 -1  = drbbmax ! max distance between b's
 -1  = drllmax ! max distance between leptons
 -1  = draamax ! max distance between gammas
 -1  = drbjmax ! max distance between b and jet
 -1  = drajmax ! max distance between gamma and jet
 -1  = drjlmax ! max distance between jet and lepton
 -1  = drabmax ! max distance between gamma and b
 -1  = drblmax ! max distance between b and lepton
 -1  = dralmax ! maxdistance between gamma and lepton
#*********************************************************************
# Minimum and maximum invariant mass for pairs                       *
# WARNING: for four lepton final state mmll cut require to have      *
#          different lepton masses for each flavor!                  *           
#*********************************************************************
 0   = mmjj    ! min invariant mass of a jet pair 
 0   = mmbb    ! min invariant mass of a b pair 
 0   = mmaa    ! min invariant mass of gamma gamma pair
 0   = mmll    ! min invariant mass of l+l- (same flavour) lepton pair
 -1  = mmjjmax ! max invariant mass of a jet pair
 -1  = mmbbmax ! max invariant mass of a b pair
 -1  = mmaamax ! max invariant mass of gamma gamma pair
 -1  = mmllmax ! max invariant mass of l+l- (same flavour) lepton pair
#*********************************************************************
# Minimum and maximum invariant mass for all letpons                 *
#*********************************************************************
 0   = mmnl    ! min invariant mass for all letpons (l+- and vl) 
 -1  = mmnlmax ! max invariant mass for all letpons (l+- and vl) 
#*********************************************************************
# Minimum and maximum pt for 4-momenta sum of leptons                *
#*********************************************************************
 0   = ptllmin  ! Minimum pt for 4-momenta sum of leptons(l and vl)
 -1  = ptllmax  ! Maximum pt for 4-momenta sum of leptons(l and vl)
#*********************************************************************
# Inclusive cuts                                                     *
#*********************************************************************
 0  = xptj ! minimum pt for at least one jet  
 0  = xptb ! minimum pt for at least one b 
 0  = xpta ! minimum pt for at least one photon 
 0  = xptl ! minimum pt for at least one charged lepton 
#*********************************************************************
# Control the pt's of the jets sorted by pt                          *
#*********************************************************************
 0   = ptj1min ! minimum pt for the leading jet in pt
 0   = ptj2min ! minimum pt for the second jet in pt
 0   = ptj3min ! minimum pt for the third jet in pt
 0   = ptj4min ! minimum pt for the fourth jet in pt
 -1  = ptj1max ! maximum pt for the leading jet in pt 
 -1  = ptj2max ! maximum pt for the second jet in pt
 -1  = ptj3max ! maximum pt for the third jet in pt
 -1  = ptj4max ! maximum pt for the fourth jet in pt
 0   = cutuse  ! reject event if fails any (0) / all (1) jet pt cuts
#*********************************************************************
# Control the pt's of leptons sorted by pt                           *
#*********************************************************************
 0   = ptl1min ! minimum pt for the leading lepton in pt
 0   = ptl2min ! minimum pt for the second lepton in pt
 0   = ptl3min ! minimum pt for the third lepton in pt
 0   = ptl4min ! minimum pt for the fourth lepton in pt
 -1  = ptl1max ! maximum pt for the leading lepton in pt 
 -1  = ptl2max ! maximum pt for the second lepton in pt
 -1  = ptl3max ! maximum pt for the third lepton in pt
 -1  = ptl4max ! maximum pt for the fourth lepton in pt
#*********************************************************************
# Control the Ht(k)=Sum of k leading jets                            *
#*********************************************************************
 0   = htjmin ! minimum jet HT=Sum(jet pt)
 -1  = htjmax ! maximum jet HT=Sum(jet pt)
 0   = ihtmin  !inclusive Ht for all partons (including b)
 -1  = ihtmax  !inclusive Ht for all partons (including b)
 0   = ht2min ! minimum Ht for the two leading jets
 0   = ht3min ! minimum Ht for the three leading jets
 0   = ht4min ! minimum Ht for the four leading jets
 -1  = ht2max ! maximum Ht for the two leading jets
 -1  = ht3max ! maximum Ht for the three leading jets
 -1  = ht4max ! maximum Ht for the four leading jets
#***********************************************************************
# Photon-isolation cuts, according to hep-ph/9801442                   *
# When ptgmin=0, all the other parameters are ignored                  *
# When ptgmin>0, pta and draj are not going to be used                 *
#***********************************************************************
   0 = ptgmin ! Min photon transverse momentum
 0.4 = R0gamma ! Radius of isolation code
 1.0 = xn ! n parameter of eq.(3.4) in hep-ph/9801442
 1.0 = epsgamma ! epsilon_gamma parameter of eq.(3.4) in hep-ph/9801442
 .true. = isoEM ! isolate photons from EM energy (photons and leptons)
#*********************************************************************
# WBF cuts                                                           *
#*********************************************************************
 0   = xetamin ! minimum rapidity for two jets in the WBF case  
 0   = deltaeta ! minimum rapidity for two jets in the WBF case 
#*********************************************************************
# KT DURHAM CUT                                                      *
#*********************************************************************
 -1    =  ktdurham        
 0.4  =  dparameter 
#*********************************************************************
# maximal pdg code for quark to be considered as a light jet         *
# (otherwise b cuts are applied)                                     *
#*********************************************************************
 4 = maxjetflavor    ! Maximum jet pdg code
#*********************************************************************
# Jet measure cuts                                                   *
#*********************************************************************
 0   = xqcut   ! minimum kt jet measure between partons
#*********************************************************************
#
#*********************************************************************
# Store info for systematics studies                                 *
# WARNING: If use_syst is T, matched Pythia output is                *
#          meaningful ONLY if plotted taking matchscale              *
#          reweighting into account!                                 *
#*********************************************************************
   F  = use_syst      ! Enable systematics studies
#
#**************************************
# Parameter of the systematics study
#  will be used by SysCalc (if installed)
#**************************************                                  
#
0.5 1 2 = sys_scalefact  # factorization/renormalization scale factor
0.5 1 2 = sys_alpsfact  # \alpha_s emission scale factors
30 50 = sys_matchscale # variation of merging scale
# PDF sets and number of members (0 or none for all members).
CT10nlo.LHgrid = sys_pdf # matching scales
# MSTW2008nlo68cl.LHgrid 1  = sys_pdf
</MGRunCard>
<slha>
######################################################################
## PARAM_CARD AUTOMATICALY GENERATED BY MG5 FOLLOWING UFO MODEL   ####
######################################################################
##                                                                  ##
##  Width set on Auto will be computed following the information    ##
##        present in the decay.py files of the model.               ##
##        See  arXiv:1402.1178 for more details.                    ##
##                                                                  ##
######################################################################

###################################
## INFORMATION FOR CKMBLOCK
###################################
Block ckmblock 
    1 2.277360e-01 # cabi 

###################################
## INFORMATION FOR FRBLOCK
###################################
Block frblock 
    1 2.000000e-01 # gz 

###################################
## INFORMATION FOR MASS
###################################
Block mass 
    1 5.040000e-03 # MD 
    2 2.550000e-03 # MU 
    3 1.010000e-01 # MS 
    4 1.270000e+00 # MC 
    5 4.700000e+00 # MB 
    6 1.720000e+02 # MT 
   11 5.110000e-04 # Me 
   13 1.056600e-01 # MM 
   15 1.777000e+00 # MTA 
   23 9.118760e+01 # MZ 
   25 1.200000e+02 # MH 
  10030 2.500000e+03 # MZph 
  10031 3.000000e+02 # MZpl 
## Dependent parameters, given by model restrictions.
## Those values should be edited following the 
## analytical expression. MG5 ignores those values 
## but they are important for interfacing the output of MG5
## to external program such as Pythia.
  12 0.000000 # ve : 0.0 
  14 0.000000 # vm : 0.0 
  16 0.000000 # vt : 0.0 
  21 0.000000 # g : 0.0 
  22 0.000000 # a : 0.0 
  24 79.824360 # w+ : cmath.sqrt(MZ__exp__2/2. + cmath.sqrt(MZ__exp__4/4. - (aEW*cmath.pi*MZ__exp__2)/(Gf*sqrt__2))) 

###################################
## INFORMATION FOR SMINPUTS
###################################
Block sminputs 
    1 1.279000e+02 # aEWM1 
    2 1.166370e-05 # Gf 
    3 1.184000e-01 # aS 

###################################
## INFORMATION FOR YUKAWA
###################################
Block yukawa 
    1 5.040000e-03 # ymdo 
    2 2.550000e-03 # ymup 
    3 1.010000e-01 # yms 
    4 1.270000e+00 # ymc 
    5 4.700000e+00 # ymb 
    6 1.720000e+02 # ymt 
   11 5.110000e-04 # yme 
   13 1.056600e-01 # ymm 
   15 1.777000e+00 # ymtau 

###################################
## INFORMATION FOR DECAY
###################################
DECAY   6 1.508336e+00 # WT 
DECAY  23 2.495200e+00 # WZ 
DECAY  24 2.085000e+00 # WW 
DECAY  25 5.753088e-03 # WH 
## Dependent parameters, given by model restrictions.
## Those values should be edited following the 
## analytical expression. MG5 ignores those values 
## but they are important for interfacing the output of MG5
## to external program such as Pythia.
DECAY  1 0.000000 # d : 0.0 
DECAY  2 0.000000 # u : 0.0 
DECAY  3 0.000000 # s : 0.0 
DECAY  4 0.000000 # c : 0.0 
DECAY  5 0.000000 # b : 0.0 
DECAY  11 0.000000 # e- : 0.0 
DECAY  12 0.000000 # ve : 0.0 
DECAY  13 0.000000 # mu- : 0.0 
DECAY  14 0.000000 # vm : 0.0 
DECAY  15 0.000000 # ta- : 0.0 
DECAY  16 0.000000 # vt : 0.0 
DECAY  21 0.000000 # g : 0.0 
DECAY  22 0.000000 # a : 0.0 
DECAY  10030 0.308725 # zph : (gz__exp__2*MZph*(5 + cmath.sqrt(1 - (4*MT__exp__2)/MZph__exp__2)))/(144.*cmath.pi) 
DECAY  10031 0.132629 # zpl : (5*gz__exp__2*MZpl)/(144.*cmath.pi) 
#===========================================================
# QUANTUM NUMBERS OF NEW STATE(S) (NON SM PDG CODE)
#===========================================================

Block QNUMBERS 10030  # zph 
        1 0  # 3 times electric charge
        2 3  # number of spin states (2S+1)
        3 1  # colour rep (1: singlet, 3: triplet, 8: octet)
        4 0  # Particle/Antiparticle distinction (0=own anti)
Block QNUMBERS 10031  # zpl 
        1 0  # 3 times electric charge
        2 3  # number of spin states (2S+1)
        3 1  # colour rep (1: singlet, 3: triplet, 8: octet)
        4 0  # Particle/Antiparticle distinction (0=own anti)
</slha>
## END BANNER##
<MGGenerationInfo>
#  Number of Events        :         3944
#  Integrated weight (pb)  :  0.25715E-03
#  Max wgt                 :  0.97686E-07
#  Average wgt             :  0.65200E-07
</MGGenerationInfo>
</header>
<init>
     2212     2212  0.40000000000E+04  0.40000000000E+04 0 0  247000  247000 2   1
  0.25733249725E-03  0.51957847909E-06  0.97685820000E-07   0
</init>
<event>
 5   0  0.8997210E-07  0.2501063E+04  0.7818609E-02  0.8402607E-01
        2   -1    0    0  501    0  0.00000000000E+00  0.00000000000E+00  0.12851547792E+04  0.12851547792E+04  0.25500000920E-02 0. -1.
       -2   -1    0    0    0  501  0.00000000000E+00  0.00000000000E+00 -0.12168414162E+04  0.12168414162E+04  0.25500000920E-02 0.  1.
    10030    2    1    2    0    0  0.00000000000E+00  0.00000000000E+00  0.68313363013E+02  0.25019961955E+04  0.25010634231E+04 0.  0.
        1    1    3    3  502    0  0.91243367492E+03 -0.17095962842E+03  0.87236365230E+03  0.12738841186E+04  0.50400001928E-02 0. -1.
       -1    1    3    3    0  502 -0.91243367492E+03  0.17095962842E+03 -0.80405028929E+03  0.12281120769E+04  0.50400001928E-02 0.  1.
</event>
<event>
 5   0  0.8997210E-07  0.2499628E+04  0.7818609E-02  0.8403118E-01
       -2   -1    0    0    0  501  0.00000000000E+00  0.00000000000E+00  0.63569010460E+03  0.63569010460E+03  0.25500000920E-02 0.  1.
        2   -1    0    0  501    0  0.00000000000E+00  0.00000000000E+00 -0.24572271199E+04  0.24572271199E+04  0.25500000920E-02 0. -1.
    10030    2    1    2    0    0  0.00000000000E+00  0.00000000000E+00 -0.18215370153E+04  0.30929172245E+04  0.24996279442E+04 0.  0.
        1    1    3    3  502    0  0.34091148371E+03 -0.11953843971E+04 -0.10714835385E+04  0.16411098287E+04  0.50400001928E-02 0. -1.
       -1    1    3    3    0  502 -0.34091148371E+03  0.11953843971E+04 -0.75005347681E+03  0.14518073958E+04  0.50400001928E-02 0.  1.
</event>
<event>
 5   0  0.9768582E-07  0.2502349E+04  0.7818609E-02  0.8402149E-01
        2   -1    0    0  501    0  0.00000000000E+00  0.00000000000E+00  0.18457793179E+04  0.18457793179E+04  0.25500000920E-02 0.  1.
       -2   -1    0    0    0  501  0.00000000000E+00  0.00000000000E+00 -0.84811710691E+03  0.84811710691E+03  0.25500000920E-02 0. -1.
    10030    2    1    2    0    0  0.00000000000E+00  0.00000000000E+00  0.99766221096E+03  0.26938964248E+04  0.25023485090E+04 0.  0.
        3    1    3    3  502    0 -0.98041602166E+03 -0.34010151248E+03  0.12513002053E+04  0.16256189062E+04  0.10100000352E+00 0.  1.
       -3    1    3    3    0  502  0.98041602166E+03  0.34010151248E+03 -0.25363799431E+03  0.10682775186E+04  0.10100000352E+00 0. -1.
</event>
<event>
 5   0  0.8997210E-07  0.2499923E+04  0.7818609E-02  0.8403013E-01
       -2   -1    0    0    0  501  0.00000000000E+00  0.00000000000E+00  0.10782976999E+04  0.10782976999E+04  0.25500000920E-02 0.  1.
        2   -1    0    0  501    0  0.00000000000E+00  0.00000000000E+00 -0.14489539882E+04  0.14489539882E+04  0.25500000920E-02 0. -1.
    10030    2    1    2    0    0  0.00000000000E+00  0.00000000000E+00 -0.37065628829E+03  0.25272516881E+04  0.24999230010E+04 0.  0.
        1    1    3    3  502    0 -0.30037617122E+03  0.83892472461E+03 -0.10714853995E+04  0.13935930177E+04  0.50400001928E-02 0. -1.
       -1    1    3    3    0  502  0.30037617122E+03 -0.83892472461E+03  0.70082911117E+03  0.11336586704E+04  0.50400001928E-02 0.  1.
</event>
<event>
 5   0  0.9768582E-07  0.2499906E+04  0.7818609E-02  0.8403019E-01
        2   -1    0    0  501    0  0.00000000000E+00  0.00000000000E+00  0.25379692965E+04  0.25379692965E+04  0.25500000920E-02 0.  1.
       -2   -1    0    0    0  501  0.00000000000E+00  0.00000000000E+00 -0.61560351006E+03  0.61560351006E+03  0.25500000920E-02 0. -1.
    10030    2    1    2    0    0  0.00000000000E+00  0.00000000000E+00  0.19223657864E+04  0.31535728065E+04  0.24999062441E+04 0.  0.
        3    1    3    3  502    0 -0.60734132338E+03  0.47899320688E+03 -0.27743332840E+03  0.82174645557E+03  0.10100000352E+00 0. -1.
       -3    1    3    3    0  502  0.60734132338E+03 -0.47899320688E+03  0.21997991148E+04  0.23318263510E+04  0.10100000352E+00 0.  1.
</event>
<event>
 5   0  0.3991066E-07  0.2499553E+04  0.7818609E-02  0.8403145E-01
       -1   -1    0    0    0  501  0.00000000000E+00  0.00000000000E+00  0.99069292415E+03  0.99069292416E+03  0.50400001928E-02 0.  1.
        1   -1    0    0  501    0  0.00000000000E+00  0.00000000000E+00 -0.15766149499E+04  0.15766149499E+04  0.50400001928E-02 0. -1.
    10030    2    1    2    0    0  0.00000000000E+00  0.00000000000E+00 -0.58592202578E+03  0.25673078741E+04  0.24995529801E+04 0.  0.
        1    1    3    3  502    0  0.14848603166E+03 -0.10317770961E+04  0.41516875661E+03  0.11220415207E+04  0.50400001928E-02 0.  1.
       -1    1    3    3    0  502 -0.14848603166E+03  0.10317770961E+04 -0.10010907824E+04  0.14452663534E+04  0.50400001928E-02 0. -1.
</event>
<event>
 5   0  0.3972587E-07  0.2500492E+04  0.7818609E-02  0.8402810E-01
       -1   -1    0    0    0  501  0.00000000000E+00  0.00000000000E+00  0.14212346470E+04  0.14212346470E+04  0.50400001928E-02 0. -1.
        1   -1    0    0  501    0  0.00000000000E+00  0.00000000000E+00 -0.10998285715E+04  0.10998285716E+04  0.50400001928E-02 0.  1.
    10030    2    1    2    0    0  0.00000000000E+00  0.00000000000E+00  0.32140607547E+03  0.25210632186E+04  0.25004915290E+04 0.  0.
        3    1    3    3  502    0 -0.10268339049E+04 -0.16664985308E+03  0.85991734895E+03  0.13496732564E+04  0.10100000352E+00 0.  1.
       -3    1    3    3    0  502  0.10268339049E+04  0.16664985308E+03 -0.53851127348E+03  0.11713899622E+04  0.10100000352E+00 0. -1.
</event>
<event>
 5   0  0.8997210E-07  0.2498243E+04  0.7818609E-02  0.8403612E-01
        2   -1    0    0  501    0  0.00000000000E+00  0.00000000000E+00  0.13451592380E+04  0.13451592380E+04  0.25500000920E-02 0. -1.
       -2   -1    0    0    0  501  0.00000000000E+00  0.00000000000E+00 -0.11599406402E+04  0.11599406402E+04  0.25500000920E-02 0.  1.
    10030    2    1    2    0    0  0.00000000000E+00  0.00000000000E+00  0.18521859773E+03  0.25050998782E+04  0.24982432770E+04 0.  0.
        1    1    3    3  502    0  0.19118232164E+03 -0.99666361293E+03 -0.63768608760E+03  0.11985543725E+04  0.50400001928E-02 0.  1.
       -1    1    3    3    0  502 -0.19118232164E+03  0.99666361293E+03  0.82290468533E+03  0.13065455058E+04  0.50400001928E-02 0. -1.
</event>
<event>
 5   0  0.3873231E-07  0.2498423E+04  0.7818609E-02  0.8403548E-01
        1   -1    0    0  501    0  0.00000000000E+00  0.00000000000E+00  0.17387340174E+04  0.17387340174E+04  0.50400001928E-02 0. -1.
       -1   -1    0    0    0  501  0.00000000000E+00  0.00000000000E+00 -0.89750891520E+03  0.89750891521E+03  0.50400001928E-02 0.  1.
    10030    2    1    2    0    0  0.00000000000E+00  0.00000000000E+00  0.84122510217E+03  0.26362429326E+04  0.24984229280E+04 0.  0.
        2    1    3    3  502    0  0.34719474560E+02 -0.17182943582E+03 -0.88446579811E+03  0.90167097379E+03  0.25500000920E-02 0.  1.
       -2    1    3    3    0  502 -0.34719474560E+02  0.17182943582E+03  0.17256909003E+04  0.17345719588E+04  0.25500000920E-02 0. -1.
</event>
<event>
 5   0  0.8997210E-07  0.2501026E+04  0.7818609E-02  0.8402620E-01
        2   -1    0    0  501    0  0.00000000000E+00  0.00000000000E+00  0.20075605008E+04  0.20075605008E+04  0.25500000920E-02 0.  1.
       -2   -1    0    0    0  501  0.00000000000E+00  0.00000000000E+00 -0.77894691790E+03  0.77894691790E+03  0.25500000920E-02 0. -1.
    10030    2    1    2    0    0  0.00000000000E+00  0.00000000000E+00  0.12286135829E+04  0.27865074187E+04  0.25010262410E+04 0.  0.
        1    1    3    3  502    0  0.67756750452E+03  0.10424873576E+04  0.76339200920E+03  0.14589876537E+04  0.50400001928E-02 0.  1.
       -1    1    3    3    0  502 -0.67756750452E+03 -0.10424873576E+04  0.46522157368E+03  0.13275197650E+04  0.50400001928E-02 0. -1.
</event>
<event>
 5   0  0.3214375E-07  0.2501259E+04  0.7818609E-02  0.8402537E-01
       -4   -1    0    0    0  501  0.00000000000E+00  0.00000000000E+00  0.91739976665E+03  0.91740064571E+03  0.12699999809E+01 0. -1.
        4   -1    0    0  501    0  0.00000000000E+00  0.00000000000E+00 -0.17048978339E+04  0.17048983069E+04  0.12699999809E+01 0.  1.
    10030    2    1    2    0    0  0.00000000000E+00  0.00000000000E+00 -0.78749806722E+03  0.26222989526E+04  0.25012594010E+04 0.  0.
        4    1    3    3  502    0 -0.31810452400E+03  0.99044079017E+03 -0.11215393135E+04  0.15297109177E+04  0.12699999809E+01 0.  1.
       -4    1    3    3    0  502  0.31810452400E+03 -0.99044079017E+03  0.33404124625E+03  0.10925880349E+04  0.12699999809E+01 0. -1.
</event>
<event>
 5   0  0.9251138E-07  0.2500216E+04  0.7818609E-02  0.8402908E-01
       -2   -1    0    0    0  501  0.00000000000E+00  0.00000000000E+00  0.11863623262E+04  0.11863623262E+04  0.25500000920E-02 0. -1.
        2   -1    0    0  501    0  0.00000000000E+00  0.00000000000E+00 -0.13172792543E+04  0.13172792543E+04  0.25500000920E-02 0.  1.
    10030    2    1    2    0    0  0.00000000000E+00  0.00000000000E+00 -0.13091692811E+03  0.25036415805E+04  0.25002163749E+04 0.  0.
        5    1    3    3  502    0 -0.74391010252E+03  0.97608385193E+02  0.93582074776E+03  0.11994632964E+04  0.46999998093E+01 0. -1.
       -5    1    3    3    0  502  0.74391010252E+03 -0.97608385193E+02 -0.10667376759E+04  0.13041782841E+04  0.46999998093E+01 0.  1.
</event>
<event>
 5   0  0.3837524E-07  0.2501607E+04  0.7818609E-02  0.8402413E-01
        1   -1    0    0  501    0  0.00000000000E+00  0.00000000000E+00  0.14888341812E+04  0.14888341812E+04  0.50400001928E-02 0. -1.
       -1   -1    0    0    0  501  0.00000000000E+00  0.00000000000E+00 -0.10508287182E+04  0.10508287182E+04  0.50400001928E-02 0.  1.
    10030    2    1    2    0    0  0.00000000000E+00  0.00000000000E+00  0.43800546299E+03  0.25396628995E+04  0.25016072548E+04 0.  0.
        5    1    3    3  502    0  0.59596616024E+02  0.11957533040E+04  0.58660204882E+03  0.13332298280E+04  0.46999998093E+01 0.  1.
       -5    1    3    3    0  502 -0.59596616024E+02 -0.11957533040E+04 -0.14859658583E+03  0.12064330715E+04  0.46999998093E+01 0. -1.
</event>
<event>
 5   0  0.3991066E-07  0.2499334E+04  0.7818609E-02  0.8403223E-01
       -1   -1    0    0    0  501  0.00000000000E+00  0.00000000000E+00  0.55865756307E+03  0.55865756309E+03  0.50400001928E-02 0. -1.
        1   -1    0    0  501    0  0.00000000000E+00  0.00000000000E+00 -0.27953931015E+04  0.27953931015E+04  0.50400001928E-02 0.  1.
    10030    2    1    2    0    0  0.00000000000E+00  0.00000000000E+00 -0.22367355385E+04  0.33540506646E+04  0.24993339096E+04 0.  0.
        1    1    3    3  502    0 -0.10014289677E+03 -0.98199254075E+03 -0.89910476105E+02  0.99117195461E+03  0.50400001928E-02 0. -1.
       -1    1    3    3    0  502  0.10014289677E+03  0.98199254075E+03 -0.21468250624E+04  0.23628787100E+04  0.50400001928E-02 0.  1.
</event>
<event>
 5   0  0.3972587E-07  0.2499587E+04  0.7818609E-02  0.8403133E-01
        1   -1    0    0  501    0  0.00000000000E+00  0.00000000000E+00  0.68988378413E+03  0.68988378415E+03  0.50400001928E-02 0. -1.
       -1   -1    0    0    0  501  0.00000000000E+00  0.00000000000E+00 -0.22641265528E+04  0.22641265528E+04  0.50400001928E-02 0.  1.
    10030    2    1    2    0    0  0.00000000000E+00  0.00000000000E+00 -0.15742427687E+04  0.29540103370E+04  0.24995873212E+04 0.  0.
        3    1    3    3  502    0  0.10664311467E+04 -0.59952462361E+03 -0.10890682368E+04  0.16379178244E+04  0.10100000352E+00 0.  1.
       -3    1    3    3    0  502 -0.10664311467E+04  0.59952462361E+03 -0.48517453190E+03  0.13160925126E+04  0.10100000352E+00 0. -1.
</event>
<event>
 5   0  0.3972587E-07  0.2500152E+04  0.7818609E-02  0.8402931E-01
        1   -1    0    0  501    0  0.00000000000E+00  0.00000000000E+00  0.96496332378E+03  0.96496332379E+03  0.50400001928E-02 0.  1.
       -1   -1    0    0    0  501  0.00000000000E+00  0.00000000000E+00 -0.16194299802E+04  0.16194299802E+04  0.50400001928E-02 0. -1.
    10030    2    1    2    0    0  0.00000000000E+00  0.00000000000E+00 -0.65446665643E+03  0.25843933040E+04  0.25001524244E+04 0.  0.
        3    1    3    3  502    0 -0.32766491313E+03 -0.11159928752E+04 -0.80080312228E+03  0.14121225314E+04  0.10100000352E+00 0.  1.
       -3    1    3    3    0  502  0.32766491313E+03  0.11159928752E+04  0.14633646585E+03  0.11722707726E+04  0.10100000352E+00 0. -1.
</event>
<event>
 5   0  0.8997210E-07  0.2501402E+04  0.7818609E-02  0.8402486E-01
        2   -1    0    0  501    0  0.00000000000E+00  0.00000000000E+00  0.10561914562E+04  0.10561914562E+04  0.25500000920E-02 0.  1.
       -2   -1    0    0    0  501  0.00000000000E+00  0.00000000000E+00 -0.14810313807E+04  0.14810313807E+04  0.25500000920E-02 0. -1.
    10030    2    1    2    0    0  0.00000000000E+00  0.00000000000E+00 -0.42483992451E+03  0.25372228369E+04  0.25014017596E+04 0.  0.
        1    1    3    3  502    0  0.16926065017E+03 -0.11531986643E+04 -0.67249713998E+03  0.13456480707E+04  0.50400001928E-02 0. -1.
       -1    1    3    3    0  502 -0.16926065017E+03  0.11531986643E+04  0.24765721546E+03  0.11915747662E+04  0.50400001928E-02 0.  1.
</event>
<event>
 5   0  0.3805418E-07  0.2500120E+04  0.7818609E-02  0.8402943E-01
        1   -1    0    0  501    0  0.00000000000E+00  0.00000000000E+00  0.19192123238E+04  0.19192123238E+04  0.50400001928E-02 0.  1.
       -1   -1    0    0    0  501  0.00000000000E+00  0.00000000000E+00 -0.81421434432E+03  0.81421434433E+03  0.50400001928E-02 0. -1.
    10030    2    1    2    0    0  0.00000000000E+00  0.00000000000E+00  0.11049979795E+04  0.27334266682E+04  0.25001201602E+04 0.  0.
        4    1    3    3  502    0  0.88882640328E+03 -0.86415646985E+03  0.72834931525E+03  0.14378014875E+04  0.12699999809E+01 0. -1.
       -4    1    3    3    0  502 -0.88882640328E+03  0.86415646985E+03  0.37664866425E+03  0.12956251807E+04  0.12699999809E+01 0.  1.
</event>
<event>
 5   0  0.3991066E-07  0.2498346E+04  0.7818609E-02  0.8403575E-01
       -1   -1    0    0    0  501  0.00000000000E+00  0.00000000000E+00  0.11376617855E+04  0.11376617855E+04  0.50400001928E-02 0. -1.
        1   -1    0    0  501    0  0.00000000000E+00  0.00000000000E+00 -0.13716139500E+04  0.13716139500E+04  0.50400001928E-02 0.  1.
    10030    2    1    2    0    0  0.00000000000E+00  0.00000000000E+00 -0.23395216452E+03  0.25092757356E+04  0.24983456730E+04 0.  0.
        1    1    3    3  502    0 -0.73095008369E+03 -0.34768443598E+03  0.83863811443E+03  0.11655412386E+04  0.50400001928E-02 0. -1.
       -1    1    3    3    0  502  0.73095008369E+03  0.34768443598E+03 -0.10725902789E+04  0.13437344970E+04  0.50400001928E-02 0.  1.
</event>
<event>
 5   0  0.9508784E-07  0.2500271E+04  0.7818609E-02  0.8402889E-01
        2   -1    0    0  501    0  0.00000000000E+00  0.00000000000E+00  0.13893720154E+04  0.13893720154E+04  0.25500000920E-02 0.  1.
       -2   -1    0    0    0  501  0.00000000000E+00  0.00000000000E+00 -0.11248522523E+04  0.11248522523E+04  0.25500000920E-02 0. -1.
    10030    2    1    2    0    0  0.00000000000E+00  0.00000000000E+00  0.26451976304E+03  0.25142242677E+04  0.25002705780E+04 0.  0.
        2    1    3    3  502    0 -0.16042492906E+03 -0.10872215377E+04  0.73144721640E+03  0.13201522110E+04  0.25500000920E-02 0.  1.
       -2    1    3    3    0  502  0.16042492906E+03  0.10872215377E+04 -0.46692745336E+03  0.11940720567E+04  0.25500000920E-02 0. -1.
</event>
<event>
 5   0  0.3972587E-07  0.2500434E+04  0.7818609E-02  0.8402831E-01
       -1   -1    0    0    0  501  0.00000000000E+00  0.00000000000E+00  0.80620678263E+03  0.80620678264E+03  0.50400001928E-02 0.  1.
        1   -1    0    0  501    0  0.00000000000E+00  0.00000000000E+00 -0.19387616183E+04  0.19387616183E+04  0.50400001928E-02 0. -1.
    10030    2    1    2    0    0  0.00000000000E+00  0.00000000000E+00 -0.11325548357E+04  0.27449684010E+04  0.25004341756E+04 0.  0.
        3    1    3    3  502    0 -0.90284833022E+03  0.45404833475E+03 -0.13742943933E+04  0.17058663744E+04  0.10100000352E+00 0. -1.
       -3    1    3    3    0  502  0.90284833022E+03 -0.45404833475E+03  0.24173955762E+03  0.10391020266E+04  0.10100000352E+00 0.  1.
</event>
<event>
 5   0  0.9768582E-07  0.2499790E+04  0.7818609E-02  0.8403060E-01
        2   -1    0    0  501    0  0.00000000000E+00  0.00000000000E+00  0.10425748708E+04  0.10425748708E+04  0.25500000920E-02 0.  1.
       -2   -1    0    0    0  501  0.00000000000E+00  0.00000000000E+00 -0.14984410950E+04  0.14984410950E+04  0.25500000920E-02 0. -1.
    10030    2    1    2    0    0  0.00000000000E+00  0.00000000000E+00 -0.45586622414E+03  0.25410159658E+04  0.24997896160E+04 0.  0.
        3    1    3    3  502    0  0.64307940306E+03  0.91665265006E+03  0.33659416535E+03  0.11692300209E+04  0.10100000352E+00 0. -1.
       -3    1    3    3    0  502 -0.64307940306E+03 -0.91665265006E+03 -0.79246038949E+03  0.13717859449E+04  0.10100000352E+00 0.  1.
</event>
<event>
 5   0  0.3991066E-07  0.2500806E+04  0.7818609E-02  0.8402698E-01
       -1   -1    0    0    0  501  0.00000000000E+00  0.00000000000E+00  0.13083074869E+04  0.13083074869E+04  0.50400001928E-02 0.  1.
        1   -1    0    0  501    0  0.00000000000E+00  0.00000000000E+00 -0.11950616435E+04  0.11950616435E+04  0.50400001928E-02 0. -1.
    10030    2    1    2    0    0  0.00000000000E+00  0.00000000000E+00  0.11324584339E+03  0.25033691304E+04  0.25008063463E+04 0.  0.
        1    1    3    3  502    0  0.49768002288E+03 -0.23037673922E+03  0.11814956534E+04  0.13025708526E+04  0.50400001928E-02 0.  1.
       -1    1    3    3    0  502 -0.49768002288E+03  0.23037673922E+03 -0.10682498100E+04  0.12007982777E+04  0.50400001928E-02 0. -1.
</event>
<event>
 5   0  0.9508784E-07  0.2496099E+04  0.7818609E-02  0.8404377E-01
       -2   -1    0    0    0  501  0.00000000000E+00  0.00000000000E+00  0.96195018453E+03  0.96195018454E+03  0.25500000920E-02 0.  1.
        2   -1    0    0  501    0  0.00000000000E+00  0.00000000000E+00 -0.16192394257E+04  0.16192394257E+04  0.25500000920E-02 0. -1.
    10030    2    1    2    0    0  0.00000000000E+00  0.00000000000E+00 -0.65728924117E+03  0.25811896102E+04  0.24960990881E+04 0.  0.
        2    1    3    3  502    0 -0.12160229351E+04  0.23393068497E+03 -0.16780358981E+03  0.12496373030E+04  0.25500000920E-02 0.  1.
       -2    1    3    3    0  502  0.12160229351E+04 -0.23393068497E+03 -0.48948565136E+03  0.13315523073E+04  0.25500000920E-02 0. -1.
</event>
<event>
 5   0  0.3873231E-07  0.2499564E+04  0.7818609E-02  0.8403141E-01
        1   -1    0    0  501    0  0.00000000000E+00  0.00000000000E+00  0.11293538572E+04  0.11293538572E+04  0.50400001928E-02 0. -1.
       -1   -1    0    0    0  501  0.00000000000E+00  0.00000000000E+00 -0.13830518806E+04  0.13830518806E+04  0.50400001928E-02 0.  1.
    10030    2    1    2    0    0  0.00000000000E+00  0.00000000000E+00 -0.25369802340E+03  0.25124057379E+04  0.24995639429E+04 0.  0.
        2    1    3    3  502    0 -0.91476126006E+03 -0.54221117478E+03  0.53316284111E+03  0.11895561089E+04  0.25500000920E-02 0. -1.
       -2    1    3    3    0  502  0.91476126006E+03  0.54221117478E+03 -0.78686086450E+03  0.13228496290E+04  0.25500000920E-02 0.  1.
</event>
<event>
 5   0  0.9768582E-07  0.2500052E+04  0.7818609E-02  0.8402967E-01
        2   -1    0    0  501    0  0.00000000000E+00  0.00000000000E+00  0.14007558845E+04  0.14007558845E+04  0.25500000920E-02 0. -1.
       -2   -1    0    0    0  501  0.00000000000E+00  0.00000000000E+00 -0.11155152457E+04  0.11155152457E+04  0.25500000920E-02 0.  1.
    10030    2    1    2    0    0  0.00000000000E+00  0.00000000000E+00  0.28524063876E+03  0.25162711302E+04  0.25000516352E+04 0.  0.
        3    1    3    3  502    0  0.11909549055E+04 -0.12902039311E+03 -0.21683063442E+03  0.12173887559E+04  0.10100000352E+00 0.  1.
       -3    1    3    3    0  502 -0.11909549055E+04  0.12902039311E+03  0.50207127318E+03  0.12988823743E+04  0.10100000352E+00 0. -1.
</event>
<event>
 5   0  0.9251138E-07  0.2499766E+04  0.7818609E-02  0.8403069E-01
       -2   -1    0    0    0  501  0.00000000000E+00  0.00000000000E+00  0.10450869990E+04  0.10450869990E+04  0.25500000920E-02 0.  1.
        2   -1    0    0  501    0  0.00000000000E+00  0.00000000000E+00 -0.14948106580E+04  0.14948106580E+04  0.25500000920E-02 0. -1.
    10030    2    1    2    0    0  0.00000000000E+00  0.00000000000E+00 -0.44972365902E+03  0.25398976570E+04  0.24997657367E+04 0.  0.
        5    1    3    3  502    0  0.12127841430E+02 -0.30221605967E+03  0.10073332323E+04  0.10517718203E+04  0.46999998093E+01 0.  1.
       -5    1    3    3    0  502 -0.12127841430E+02  0.30221605967E+03 -0.14570568913E+04  0.14881258366E+04  0.46999998093E+01 0. -1.
</event>
<event>
 5   0  0.3873231E-07  0.2500766E+04  0.7818609E-02  0.8402713E-01
       -1   -1    0    0    0  501  0.00000000000E+00  0.00000000000E+00  0.10204408131E+04  0.10204408131E+04  0.50400001928E-02 0. -1.
        1   -1    0    0  501    0  0.00000000000E+00  0.00000000000E+00 -0.15321389764E+04  0.15321389764E+04  0.50400001928E-02 0.  1.
    10030    2    1    2    0    0  0.00000000000E+00  0.00000000000E+00 -0.51169816328E+03  0.25525797895E+04  0.25007655971E+04 0.  0.
        2    1    3    3  502    0  0.62600238799E+03 -0.97249138682E+03  0.22922210716E+03  0.11790510004E+04  0.25500000920E-02 0. -1.
       -2    1    3    3    0  502 -0.62600238799E+03  0.97249138682E+03 -0.74092027043E+03  0.13735287891E+04  0.25500000920E-02 0.  1.
</event>
<event>
 5   0  0.9768582E-07  0.2501275E+04  0.7818609E-02  0.8402532E-01
       -2   -1    0    0    0  501  0.00000000000E+00  0.00000000000E+00  0.59006937518E+03  0.59006937518E+03  0.25500000920E-02 0. -1.
        2   -1    0    0  501    0  0.00000000000E+00  0.00000000000E+00 -0.26506945791E+04  0.26506945791E+04  0.25500000920E-02 0.  1.
    10030    2    1    2    0    0  0.00000000000E+00  0.00000000000E+00 -0.20606252040E+04  0.32407639543E+04  0.25012746304E+04 0.  0.
        3    1    3    3  502    0 -0.29468899261E+02  0.18089338878E+03  0.57257508514E+03  0.60119304092E+03  0.10100000352E+00 0. -1.
       -3    1    3    3    0  502  0.29468899261E+02 -0.18089338878E+03 -0.26332002891E+04  0.26395709134E+04  0.10100000352E+00 0.  1.
</event>
<event>
 5   0  0.8997210E-07  0.2500049E+04  0.7818609E-02  0.8402968E-01
       -2   -1    0    0    0  501  0.00000000000E+00  0.00000000000E+00  0.83106716329E+03  0.83106716329E+03  0.25500000920E-02 0.  1.
        2   -1    0    0  501    0  0.00000000000E+00  0.00000000000E+00 -0.18801858635E+04  0.18801858635E+04  0.25500000920E-02 0. -1.
    10030    2    1    2    0    0  0.00000000000E+00  0.00000000000E+00 -0.10491187002E+04  0.27112530268E+04  0.25000485851E+04 0.  0.
        1    1    3    3  502    0 -0.26991393498E+02  0.10937506105E+04  0.13111791227E+03  0.11019123560E+04  0.50400001928E-02 0.  1.
       -1    1    3    3    0  502  0.26991393498E+02 -0.10937506105E+04 -0.11802366125E+04  0.16093406708E+04  0.50400001928E-02 0. -1.
</event>
<event>
 5   0  0.3837524E-07  0.2500265E+04  0.7818609E-02  0.8402891E-01
       -1   -1    0    0    0  501  0.00000000000E+00  0.00000000000E+00  0.71505713559E+03  0.71505713560E+03  0.50400001928E-02 0. -1.
        1   -1    0    0  501    0  0.00000000000E+00  0.00000000000E+00 -0.21856038031E+04  0.21856038032E+04  0.50400001928E-02 0.  1.
    10030    2    1    2    0    0  0.00000000000E+00  0.00000000000E+00 -0.14705466676E+04  0.29006609388E+04  0.25002652620E+04 0.  0.
        5    1    3    3  502    0  0.48715892908E+03  0.55288423759E+03  0.43629974837E+03  0.85637863284E+03  0.46999998093E+01 0. -1.
       -5    1    3    3    0  502 -0.48715892908E+03 -0.55288423759E+03 -0.19068464159E+04  0.20442823059E+04  0.46999998093E+01 0.  1.
</event>
<event>
 5   0  0.9768582E-07  0.2499613E+04  0.7818609E-02  0.8403123E-01
       -2   -1    0    0    0  501  0.00000000000E+00  0.00000000000E+00  0.10660045174E+04  0.10660045174E+04  0.25500000920E-02 0. -1.
        2   -1    0    0  501    0  0.00000000000E+00  0.00000000000E+00 -0.14653002375E+04  0.14653002375E+04  0.25500000920E-02 0.  1.
    10030    2    1    2    0    0  0.00000000000E+00  0.00000000000E+00 -0.39929572005E+03  0.25313047549E+04  0.24996133081E+04 0.  0.
        3    1    3    3  502    0 -0.17652262707E+03 -0.64659731545E+03 -0.12679005285E+04  0.14341618063E+04  0.10100000352E+00 0.  1.
       -3    1    3    3    0  502  0.17652262707E+03  0.64659731545E+03  0.86860480844E+03  0.10971429486E+04  0.10100000352E+00 0. -1.
</event>
<event>
 5   0  0.3805418E-07  0.2515897E+04  0.7818609E-02  0.8397344E-01
       -1   -1    0    0    0  501  0.00000000000E+00  0.00000000000E+00  0.10412048394E+04  0.10412048394E+04  0.50400001928E-02 0.  1.
        1   -1    0    0  501    0  0.00000000000E+00  0.00000000000E+00 -0.15198113563E+04  0.15198113563E+04  0.50400001928E-02 0. -1.
    10030    2    1    2    0    0  0.00000000000E+00  0.00000000000E+00 -0.47860651686E+03  0.25610161957E+04  0.25158974058E+04 0.  0.
        4    1    3    3  502    0  0.59150223632E+03  0.58898481117E+03 -0.11972729438E+04  0.14595348979E+04  0.12699999809E+01 0. -1.
       -4    1    3    3    0  502 -0.59150223632E+03 -0.58898481117E+03  0.71866642693E+03  0.11014812978E+04  0.12699999809E+01 0.  1.
</event>
<event>
 5   0  0.3991066E-07  0.2499762E+04  0.7818609E-02  0.8403070E-01
        1   -1    0    0  501    0  0.00000000000E+00  0.00000000000E+00  0.19267790827E+04  0.19267790827E+04  0.50400001928E-02 0.  1.
       -1   -1    0    0    0  501  0.00000000000E+00  0.00000000000E+00 -0.81078423378E+03  0.81078423379E+03  0.50400001928E-02 0. -1.
    10030    2    1    2    0    0  0.00000000000E+00  0.00000000000E+00  0.11159948489E+04  0.27375633165E+04  0.24997616704E+04 0.  0.
        1    1    3    3  502    0  0.61342128882E+03 -0.28043012841E+03  0.17103712555E+04  0.18385582847E+04  0.50400001928E-02 0.  1.
       -1    1    3    3    0  502 -0.61342128882E+03  0.28043012841E+03 -0.59437640658E+03  0.89900503181E+03  0.50400001928E-02 0. -1.
</event>
<event>
 5   0  0.3972587E-07  0.2499883E+04  0.7818609E-02  0.8403027E-01
        1   -1    0    0  501    0  0.00000000000E+00  0.00000000000E+00  0.12448463379E+04  0.12448463379E+04  0.50400001928E-02 0.  1.
       -1   -1    0    0    0  501  0.00000000000E+00  0.00000000000E+00 -0.12550579703E+04  0.12550579703E+04  0.50400001928E-02 0. -1.
    10030    2    1    2    0    0  0.00000000000E+00  0.00000000000E+00 -0.10211632373E+02  0.24999043082E+04  0.24998834518E+04 0.  0.
        3    1    3    3  502    0  0.49613462314E+02 -0.12292375695E+04  0.21595667589E+03  0.12490491560E+04  0.10100000352E+00 0.  1.
       -3    1    3    3    0  502 -0.49613462314E+02  0.12292375695E+04 -0.22616830827E+03  0.12508551522E+04  0.10100000352E+00 0. -1.
</event>
<event>
 5   0  0.9261602E-07  0.2499855E+04  0.7818609E-02  0.8403037E-01
        2   -1    0    0  501    0  0.00000000000E+00  0.00000000000E+00  0.15863274754E+04  0.15863274754E+04  0.25500000920E-02 0. -1.
       -2   -1    0    0    0  501  0.00000000000E+00  0.00000000000E+00 -0.98486492279E+03  0.98486492280E+03  0.25500000920E-02 0.  1.
    10030    2    1    2    0    0  0.00000000000E+00  0.00000000000E+00  0.60146255257E+03  0.25711923982E+04  0.24998546250E+04 0.  0.
        4    1    3    3  502    0  0.10018848050E+03  0.89825249021E+03 -0.58728464369E+03  0.10778683284E+04  0.12699999809E+01 0.  1.
       -4    1    3    3    0  502 -0.10018848050E+03 -0.89825249021E+03  0.11887471963E+04  0.14933240698E+04  0.12699999809E+01 0. -1.
</event>
<event>
 5   0  0.9261602E-07  0.2499226E+04  0.7818609E-02  0.8403261E-01
        2   -1    0    0  501    0  0.00000000000E+00  0.00000000000E+00  0.16503433958E+04  0.16503433958E+04  0.25500000920E-02 0.  1.
       -2   -1    0    0    0  501  0.00000000000E+00  0.00000000000E+00 -0.94618621517E+03  0.94618621517E+03  0.25500000920E-02 0. -1.
    10030    2    1    2    0    0  0.00000000000E+00  0.00000000000E+00  0.70415718064E+03  0.25965296110E+04  0.24992256172E+04 0.  0.
        4    1    3    3  502    0 -0.38179716420E+03 -0.11173421455E+04 -0.72879583975E+02  0.11830196919E+04  0.12699999809E+01 0. -1.
       -4    1    3    3    0  502  0.38179716420E+03  0.11173421455E+04  0.77703676461E+03  0.14135099191E+04  0.12699999809E+01 0.  1.
</event>
<event>
 5   0  0.3873231E-07  0.2499020E+04  0.7818609E-02  0.8403335E-01
       -1   -1    0    0    0  501  0.00000000000E+00  0.00000000000E+00  0.72425427600E+03  0.72425427601E+03  0.50400001928E-02 0.  1.
        1   -1    0    0  501    0  0.00000000000E+00  0.00000000000E+00 -0.21557004547E+04  0.21557004547E+04  0.50400001928E-02 0. -1.
    10030    2    1    2    0    0  0.00000000000E+00  0.00000000000E+00 -0.14314461787E+04  0.28799547308E+04  0.24990200256E+04 0.  0.
        2    1    3    3  502    0  0.52730928928E+02  0.92267335154E+03  0.25339658777E+03  0.95828831528E+03  0.25500000920E-02 0.  1.
       -2    1    3    3    0  502 -0.52730928928E+02 -0.92267335154E+03 -0.16848427665E+04  0.19216664155E+04  0.25500000920E-02 0. -1.
</event>
<event>
 5   0  0.3972587E-07  0.2498434E+04  0.7818609E-02  0.8403543E-01
       -1   -1    0    0    0  501  0.00000000000E+00  0.00000000000E+00  0.14178387093E+04  0.14178387093E+04  0.50400001928E-02 0.  1.
        1   -1    0    0  501    0  0.00000000000E+00  0.00000000000E+00 -0.11006496342E+04  0.11006496342E+04  0.50400001928E-02 0. -1.
    10030    2    1    2    0    0  0.00000000000E+00  0.00000000000E+00  0.31718907508E+03  0.25184883435E+04  0.24984344352E+04 0.  0.
        3    1    3    3  502    0  0.20778254576E+03 -0.37006785701E+03  0.13429377750E+04  0.14084053688E+04  0.10100000352E+00 0.  1.
       -3    1    3    3    0  502 -0.20778254576E+03  0.37006785701E+03 -0.10257486999E+04  0.11100829747E+04  0.10100000352E+00 0. -1.
</event>
<event>
 5   0  0.3837524E-07  0.2499936E+04  0.7818609E-02  0.8403008E-01
       -1   -1    0    0    0  501  0.00000000000E+00  0.00000000000E+00  0.22167219566E+04  0.22167219566E+04  0.50400001928E-02 0.  1.
        1   -1    0    0  501    0  0.00000000000E+00  0.00000000000E+00 -0.70483368406E+03  0.70483368407E+03  0.50400001928E-02 0. -1.
    10030    2    1    2    0    0  0.00000000000E+00  0.00000000000E+00  0.15118882726E+04  0.29215556407E+04  0.24999362418E+04 0.  0.
        5    1    3    3  502    0  0.76453355796E+03 -0.26611429250E+03  0.18689708593E+04  0.20367627601E+04  0.46999998093E+01 0.  1.
       -5    1    3    3    0  502 -0.76453355796E+03  0.26611429250E+03 -0.35708258671E+03  0.88479288065E+03  0.46999998093E+01 0. -1.
</event>
<event>
 5   0  0.9508784E-07  0.2500156E+04  0.7818609E-02  0.8402930E-01
        2   -1    0    0  501    0  0.00000000000E+00  0.00000000000E+00  0.10591938268E+04  0.10591938268E+04  0.25500000920E-02 0. -1.
       -2   -1    0    0    0  501  0.00000000000E+00  0.00000000000E+00 -0.14753627624E+04  0.14753627624E+04  0.25500000920E-02 0.  1.
    10030    2    1    2    0    0  0.00000000000E+00  0.00000000000E+00 -0.41616893562E+03  0.25345565892E+04  0.25001560993E+04 0.  0.
        2    1    3    3  502    0  0.37533393144E+03  0.10675768725E+04  0.33035363820E+03  0.11788678743E+04  0.25500000920E-02 0. -1.
       -2    1    3    3    0  502 -0.37533393144E+03 -0.10675768725E+04 -0.74652257383E+03  0.13556887150E+04  0.25500000920E-02 0.  1.
</event>
<event>
 5   0  0.9768582E-07  0.2500869E+04  0.7818609E-02  0.8402676E-01
       -2   -1    0    0    0  501  0.00000000000E+00  0.00000000000E+00  0.13222251084E+04  0.13222251084E+04  0.25500000920E-02 0. -1.
        2   -1    0    0  501    0  0.00000000000E+00  0.00000000000E+00 -0.11825422232E+04  0.11825422232E+04  0.25500000920E-02 0.  1.
    10030    2    1    2    0    0  0.00000000000E+00  0.00000000000E+00  0.13968288524E+03  0.25047673316E+04  0.25008694642E+04 0.  0.
        3    1    3    3  502    0  0.12078169228E+04  0.30727568004E+03 -0.32037040069E+02  0.12467022278E+04  0.10100000352E+00 0.  1.
       -3    1    3    3    0  502 -0.12078169228E+04 -0.30727568004E+03  0.17171992531E+03  0.12580651039E+04  0.10100000352E+00 0. -1.
</event>
<event>
 5   0  0.8997210E-07  0.2502056E+04  0.7818609E-02  0.8402253E-01
       -2   -1    0    0    0  501  0.00000000000E+00  0.00000000000E+00  0.12576934393E+04  0.12576934393E+04  0.25500000920E-02 0. -1.
        2   -1    0    0  501    0  0.00000000000E+00  0.00000000000E+00 -0.12443980456E+04  0.12443980457E+04  0.25500000920E-02 0.  1.
    10030    2    1    2    0    0  0.00000000000E+00  0.00000000000E+00  0.13295393689E+02  0.25020914850E+04  0.25020561608E+04 0.  0.
        1    1    3    3  502    0  0.10152558512E+04 -0.61664020993E+03 -0.38589022073E+03  0.12489599090E+04  0.50400001928E-02 0. -1.
       -1    1    3    3    0  502 -0.10152558512E+04  0.61664020993E+03  0.39918561442E+03  0.12531315760E+04  0.50400001928E-02 0.  1.
</event>
<event>
 5   0  0.9508784E-07  0.2500073E+04  0.7818609E-02  0.8402959E-01
       -2   -1    0    0    0  501  0.00000000000E+00  0.00000000000E+00  0.14337215736E+04  0.14337215736E+04  0.25500000920E-02 0. -1.
        2   -1    0    0  501    0  0.00000000000E+00  0.00000000000E+00 -0.10898849293E+04  0.10898849293E+04  0.25500000920E-02 0.  1.
    10030    2    1    2    0    0  0.00000000000E+00  0.00000000000E+00  0.34383664432E+03  0.25236065030E+04  0.25000732277E+04 0.  0.
        2    1    3    3  502    0 -0.24170205724E+03  0.73181377210E+03  0.11653675613E+04  0.13971588437E+04  0.25500000920E-02 0. -1.
       -2    1    3    3    0  502  0.24170205724E+03 -0.73181377210E+03 -0.82153091700E+03  0.11264476593E+04  0.25500000920E-02 0.  1.
</event>
<event>
 5   0  0.9768582E-07  0.2500224E+04  0.7818609E-02  0.8402906E-01
        2   -1    0    0  501    0  0.00000000000E+00  0.00000000000E+00  0.24201930369E+04  0.24201930369E+04  0.25500000920E-02 0. -1.
       -2   -1    0    0    0  501  0.00000000000E+00  0.00000000000E+00 -0.64572550291E+03  0.64572550292E+03  0.25500000920E-02 0.  1.
    10030    2    1    2    0    0  0.00000000000E+00  0.00000000000E+00  0.17744675340E+04  0.30659185398E+04  0.25002242827E+04 0.  0.
        3    1    3    3  502    0  0.93387165501E+03 -0.59250778438E+03  0.17263115906E+03  0.11193673525E+04  0.10100000352E+00 0.  1.
       -3    1    3    3    0  502 -0.93387165501E+03  0.59250778438E+03  0.16018363750E+04  0.19465511873E+04  0.10100000352E+00 0. -1.
</event>
<event>
 5   0  0.3972587E-07  0.2500224E+04  0.7818609E-02  0.8402906E-01
        1   -1    0    0  501    0  0.00000000000E+00  0.00000000000E+00  0.29176022438E+04  0.29176022438E+04  0.50400001928E-02 0. -1.
       -1   -1    0    0    0  501  0.00000000000E+00  0.00000000000E+00 -0.53563862921E+03  0.53563862924E+03  0.50400001928E-02 0.  1.
    10030    2    1    2    0    0  0.00000000000E+00  0.00000000000E+00  0.23819636146E+04  0.34532408731E+04  0.25002243631E+04 0.  0.
        3    1    3    3  502    0 -0.56176490681E+03  0.73543120469E+03  0.30187475262E+02  0.92593205000E+03  0.10100000352E+00 0.  1.
       -3    1    3    3    0  502  0.56176490681E+03 -0.73543120469E+03  0.23517761393E+04  0.25273088231E+04  0.10100000352E+00 0. -1.
</event>
<event>
 5   0  0.9251138E-07  0.2500505E+04  0.7818609E-02  0.8402806E-01
        2   -1    0    0  501    0  0.00000000000E+00  0.00000000000E+00  0.13372642040E+04  0.13372642040E+04  0.25500000920E-02 0. -1.
       -2   -1    0    0    0  501  0.00000000000E+00  0.00000000000E+00 -0.11689026365E+04  0.11689026365E+04  0.25500000920E-02 0.  1.
    10030    2    1    2    0    0  0.00000000000E+00  0.00000000000E+00  0.16836156745E+03  0.25061668405E+04  0.25005052720E+04 0.  0.
        5    1    3    3  502    0  0.11024842282E+04  0.22901638646E+03 -0.46036289400E+03  0.12165015672E+04  0.46999998093E+01 0.  1.
       -5    1    3    3    0  502 -0.11024842282E+04 -0.22901638646E+03  0.62872446144E+03  0.12896652733E+04  0.46999998093E+01 0. -1.
</event>
<event>
 5   0  0.3837524E-07  0.2502056E+04  0.7818609E-02  0.8402254E-01
       -1   -1    0    0    0  501  0.00000000000E+00  0.00000000000E+00  0.16907267563E+04  0.16907267563E+04  0.50400001928E-02 0. -1.
        1   -1    0    0  501    0  0.00000000000E+00  0.00000000000E+00 -0.92567925802E+03  0.92567925803E+03  0.50400001928E-02 0.  1.
    10030    2    1    2    0    0  0.00000000000E+00  0.00000000000E+00  0.76504749827E+03  0.26164060143E+04  0.25020557063E+04 0.  0.
        5    1    3    3  502    0  0.67658716165E+03  0.43925524138E+03  0.13824326159E+04  0.16005803266E+04  0.46999998093E+01 0. -1.
       -5    1    3    3    0  502 -0.67658716165E+03 -0.43925524138E+03 -0.61738511763E+03  0.10158256877E+04  0.46999998093E+01 0.  1.
</event>
<event>
 5   0  0.3972587E-07  0.2501824E+04  0.7818609E-02  0.8402336E-01
       -1   -1    0    0    0  501  0.00000000000E+00  0.00000000000E+00  0.98862846649E+03  0.98862846650E+03  0.50400001928E-02 0.  1.
        1   -1    0    0  501    0  0.00000000000E+00  0.00000000000E+00 -0.15827796698E+04  0.15827796698E+04  0.50400001928E-02 0. -1.
    10030    2    1    2    0    0  0.00000000000E+00  0.00000000000E+00 -0.59415120329E+03  0.25714081363E+04  0.25018241647E+04 0.  0.
        3    1    3    3  502    0 -0.91829717937E+03 -0.44743734618E+03 -0.10391761170E+04  0.14571742863E+04  0.10100000352E+00 0. -1.
       -3    1    3    3    0  502  0.91829717937E+03  0.44743734618E+03  0.44502491369E+03  0.11142338500E+04  0.10100000352E+00 0.  1.
</event>
<event>
 5   0  0.9768582E-07  0.2500427E+04  0.7818609E-02  0.8402834E-01
       -2   -1    0    0    0  501  0.00000000000E+00  0.00000000000E+00  0.14349617509E+04  0.14349617509E+04  0.25500000920E-02 0. -1.
        2   -1    0    0  501    0  0.00000000000E+00  0.00000000000E+00 -0.10892509968E+04  0.10892509968E+04  0.25500000920E-02 0.  1.
    10030    2    1    2    0    0  0.00000000000E+00  0.00000000000E+00  0.34571075412E+03  0.25242127476E+04  0.25004267775E+04 0.  0.
        3    1    3    3  502    0  0.20071981605E+03  0.12177189901E+04 -0.28808597347E+02  0.12344869092E+04  0.10100000352E+00 0. -1.
       -3    1    3    3    0  502 -0.20071981605E+03 -0.12177189901E+04  0.37451935146E+03  0.12897258384E+04  0.10100000352E+00 0.  1.
</event>
<event>
 5   0  0.3991066E-07  0.2499432E+04  0.7818609E-02  0.8403188E-01
        1   -1    0    0  501    0  0.00000000000E+00  0.00000000000E+00  0.11165155170E+04  0.11165155170E+04  0.50400001928E-02 0. -1.
       -1   -1    0    0    0  501  0.00000000000E+00  0.00000000000E+00 -0.13988073990E+04  0.13988073991E+04  0.50400001928E-02 0.  1.
    10030    2    1    2    0    0  0.00000000000E+00  0.00000000000E+00 -0.28229188205E+03  0.25153229161E+04  0.24994320686E+04 0.  0.
        1    1    3    3  502    0  0.25207244841E+03  0.71100924843E+03 -0.11438316160E+04  0.13701917516E+04  0.50400001928E-02 0.  1.
       -1    1    3    3    0  502 -0.25207244841E+03 -0.71100924843E+03  0.86153973390E+03  0.11451311644E+04  0.50400001928E-02 0. -1.
</event>
<event>
 5   0  0.3972587E-07  0.2499825E+04  0.7818609E-02  0.8403048E-01
        1   -1    0    0  501    0  0.00000000000E+00  0.00000000000E+00  0.10376566531E+04  0.10376566531E+04  0.50400001928E-02 0.  1.
       -1   -1    0    0    0  501  0.00000000000E+00  0.00000000000E+00 -0.15055859209E+04  0.15055859209E+04  0.50400001928E-02 0. -1.
    10030    2    1    2    0    0  0.00000000000E+00  0.00000000000E+00 -0.46792926784E+03  0.25432425740E+04  0.24998249920E+04 0.  0.
        3    1    3    3  502    0  0.29894144066E+03 -0.21254857812E+03 -0.14495976665E+04  0.14952846846E+04  0.10100000352E+00 0. -1.
       -3    1    3    3    0  502 -0.29894144066E+03  0.21254857812E+03  0.98166839865E+03  0.10479578895E+04  0.10100000352E+00 0.  1.
</event>
<event>
 5   0  0.3873231E-07  0.2500198E+04  0.7818609E-02  0.8402915E-01
        1   -1    0    0  501    0  0.00000000000E+00  0.00000000000E+00  0.11088393293E+04  0.11088393293E+04  0.50400001928E-02 0.  1.
       -1   -1    0    0    0  501  0.00000000000E+00  0.00000000000E+00 -0.14093545689E+04  0.14093545689E+04  0.50400001928E-02 0. -1.
    10030    2    1    2    0    0  0.00000000000E+00  0.00000000000E+00 -0.30051523966E+03  0.25181938982E+04  0.25001982121E+04 0.  0.
        2    1    3    3  502    0  0.11048977060E+04  0.46045728142E+03 -0.51330723466E+03  0.13024224222E+04  0.25500000920E-02 0.  1.
       -2    1    3    3    0  502 -0.11048977060E+04 -0.46045728142E+03  0.21279199500E+03  0.12157714760E+04  0.25500000920E-02 0. -1.
</event>
<event>
 5   0  0.3837524E-07  0.2499458E+04  0.7818609E-02  0.8403179E-01
        1   -1    0    0  501    0  0.00000000000E+00  0.00000000000E+00  0.11332330519E+04  0.11332330520E+04  0.50400001928E-02 0. -1.
       -1   -1    0    0    0  501  0.00000000000E+00  0.00000000000E+00 -0.13782010861E+04  0.13782010862E+04  0.50400001928E-02 0.  1.
    10030    2    1    2    0    0  0.00000000000E+00  0.00000000000E+00 -0.24496803421E+03  0.25114341381E+04  0.24994583598E+04 0.  0.
        5    1    3    3  502    0 -0.96306963806E+03  0.79163021911E+03 -0.34776600936E+02  0.12471619917E+04  0.46999998093E+01 0.  1.
       -5    1    3    3    0  502  0.96306963806E+03 -0.79163021911E+03 -0.21019143327E+03  0.12642721464E+04  0.46999998093E+01 0. -1.
</event>
<event>
 5   0  0.9261602E-07  0.2498601E+04  0.7818609E-02  0.8403484E-01
        2   -1    0    0  501    0  0.00000000000E+00  0.00000000000E+00  0.73427921423E+03  0.73427921424E+03  0.25500000920E-02 0. -1.
       -2   -1    0    0    0  501  0.00000000000E+00  0.00000000000E+00 -0.21255557999E+04  0.21255557999E+04  0.25500000920E-02 0.  1.
    10030    2    1    2    0    0  0.00000000000E+00  0.00000000000E+00 -0.13912765857E+04  0.28598350141E+04  0.24986007625E+04 0.  0.
        4    1    3    3  502    0 -0.10034528787E+04 -0.72887578429E+03 -0.52367670357E+03  0.13462601871E+04  0.12699999809E+01 0.  1.
       -4    1    3    3    0  502  0.10034528787E+04  0.72887578429E+03 -0.86759988209E+03  0.15135748270E+04  0.12699999809E+01 0. -1.
</event>
<event>
 5   0  0.8997210E-07  0.2499305E+04  0.7818609E-02  0.8403233E-01
       -2   -1    0    0    0  501  0.00000000000E+00  0.00000000000E+00  0.14637250359E+04  0.14637250359E+04  0.25500000920E-02 0.  1.
        2   -1    0    0  501    0  0.00000000000E+00  0.00000000000E+00 -0.10668887299E+04  0.10668887299E+04  0.25500000920E-02 0. -1.
    10030    2    1    2    0    0  0.00000000000E+00  0.00000000000E+00  0.39683630603E+03  0.25306137658E+04  0.24993052991E+04 0.  0.
        1    1    3    3  502    0  0.56933586163E+03  0.59896055543E+03  0.11475694335E+04  0.14141473315E+04  0.50400001928E-02 0.  1.
       -1    1    3    3    0  502 -0.56933586163E+03 -0.59896055543E+03 -0.75073312750E+03  0.11164664344E+04  0.50400001928E-02 0. -1.
</event>
<event>
 5   0  0.3805418E-07  0.2500055E+04  0.7818609E-02  0.8402966E-01
        1   -1    0    0  501    0  0.00000000000E+00  0.00000000000E+00  0.24172633370E+04  0.24172633370E+04  0.50400001928E-02 0.  1.
       -1   -1    0    0    0  501  0.00000000000E+00  0.00000000000E+00 -0.64642069147E+03  0.64642069149E+03  0.50400001928E-02 0. -1.
    10030    2    1    2    0    0  0.00000000000E+00  0.00000000000E+00  0.17708426455E+04  0.30636840285E+04  0.25000552296E+04 0.  0.
        4    1    3    3  502    0  0.13918219029E+03 -0.71071270782E+03  0.21339842880E+04  0.22535249698E+04  0.12699999809E+01 0.  1.
       -4    1    3    3    0  502 -0.13918219029E+03  0.71071270782E+03 -0.36314164241E+03  0.81015905876E+03  0.12699999809E+01 0. -1.
</event>
<event>
 5   0  0.9508784E-07  0.2501850E+04  0.7818609E-02  0.8402327E-01
        2   -1    0    0  501    0  0.00000000000E+00  0.00000000000E+00  0.21482109973E+04  0.21482109973E+04  0.25500000920E-02 0.  1.
       -2   -1    0    0    0  501  0.00000000000E+00  0.00000000000E+00 -0.72842618516E+03  0.72842618517E+03  0.25500000920E-02 0. -1.
    10030    2    1    2    0    0  0.00000000000E+00  0.00000000000E+00  0.14197848122E+04  0.28766371825E+04  0.25018498290E+04 0.  0.
        2    1    3    3  502    0 -0.88698283727E+03 -0.20165841718E+03  0.16972578253E+04  0.19256398408E+04  0.25500000920E-02 0.  1.
       -2    1    3    3    0  502  0.88698283727E+03  0.20165841718E+03 -0.27747301318E+03  0.95099734168E+03  0.25500000920E-02 0. -1.
</event>
<event>
 5   0  0.3837524E-07  0.2501474E+04  0.7818609E-02  0.8402461E-01
        1   -1    0    0  501    0  0.00000000000E+00  0.00000000000E+00  0.18093414672E+04  0.18093414672E+04  0.50400001928E-02 0.  1.
       -1   -1    0    0    0  501  0.00000000000E+00  0.00000000000E+00 -0.86459248579E+03  0.86459248580E+03  0.50400001928E-02 0. -1.
    10030    2    1    2    0    0  0.00000000000E+00  0.00000000000E+00  0.94474898144E+03  0.26739339530E+04  0.25014739949E+04 0.  0.
        5    1    3    3  502    0  0.18659442006E+03 -0.58896824859E+03  0.16348324878E+04  0.17476843046E+04  0.46999998093E+01 0.  1.
       -5    1    3    3    0  502 -0.18659442006E+03  0.58896824859E+03 -0.69008350636E+03  0.92624964842E+03  0.46999998093E+01 0. -1.
</event>
<event>
 5   0  0.9508784E-07  0.2494743E+04  0.7818609E-02  0.8404861E-01
        2   -1    0    0  501    0  0.00000000000E+00  0.00000000000E+00  0.65700872058E+03  0.65700872059E+03  0.25500000920E-02 0. -1.
       -2   -1    0    0    0  501  0.00000000000E+00  0.00000000000E+00 -0.23682111457E+04  0.23682111457E+04  0.25500000920E-02 0.  1.
    10030    2    1    2    0    0  0.00000000000E+00  0.00000000000E+00 -0.17112024251E+04  0.30252198663E+04  0.24947427722E+04 0.  0.
        2    1    3    3  502    0 -0.41051111458E+03  0.70112622508E+03 -0.20033475481E+04  0.21618276428E+04  0.25500000920E-02 0.  1.
       -2    1    3    3    0  502  0.41051111458E+03 -0.70112622508E+03  0.29214512298E+03  0.86339222349E+03  0.25500000920E-02 0. -1.
</event>
<event>
 5   0  0.3805418E-07  0.2499463E+04  0.7818609E-02  0.8403177E-01
        1   -1    0    0  501    0  0.00000000000E+00  0.00000000000E+00  0.20801937550E+04  0.20801937550E+04  0.50400001928E-02 0. -1.
       -1   -1    0    0    0  501  0.00000000000E+00  0.00000000000E+00 -0.75080910489E+03  0.75080910491E+03  0.50400001928E-02 0.  1.
    10030    2    1    2    0    0  0.00000000000E+00  0.00000000000E+00  0.13293846501E+04  0.28310028599E+04  0.24994626712E+04 0.  0.
        4    1    3    3  502    0  0.86771676982E+03 -0.54726831801E+03 -0.14369524142E+03  0.10358981320E+04  0.12699999809E+01 0.  1.
       -4    1    3    3    0  502 -0.86771676982E+03  0.54726831801E+03  0.14730798915E+04  0.17951047279E+04  0.12699999809E+01 0. -1.
</event>
<event>
 5   0  0.3805418E-07  0.2500204E+04  0.7818609E-02  0.8402913E-01
        1   -1    0    0  501    0  0.00000000000E+00  0.00000000000E+00  0.24005459749E+04  0.24005459749E+04  0.50400001928E-02 0. -1.
       -1   -1    0    0    0  501  0.00000000000E+00  0.00000000000E+00 -0.65099971355E+03  0.65099971357E+03  0.50400001928E-02 0.  1.
    10030    2    1    2    0    0  0.00000000000E+00  0.00000000000E+00  0.17495462613E+04  0.30515456884E+04  0.25002037853E+04 0.  0.
        4    1    3    3  502    0  0.16604007449E+03 -0.99883039278E+03  0.17696070886E+04  0.20388090447E+04  0.12699999809E+01 0. -1.
       -4    1    3    3    0  502 -0.16604007449E+03  0.99883039278E+03 -0.20060827288E+02  0.10127366437E+04  0.12699999809E+01 0.  1.
</event>
<event>
 5   0  0.3873231E-07  0.2507354E+04  0.7818609E-02  0.8400370E-01
       -1   -1    0    0    0  501  0.00000000000E+00  0.00000000000E+00  0.15476507456E+04  0.15476507456E+04  0.50400001928E-02 0.  1.
        1   -1    0    0  501    0  0.00000000000E+00  0.00000000000E+00 -0.10155427083E+04  0.10155427083E+04  0.50400001928E-02 0. -1.
    10030    2    1    2    0    0  0.00000000000E+00  0.00000000000E+00  0.53210803731E+03  0.25631934539E+04  0.25073535289E+04 0.  0.
        2    1    3    3  502    0  0.38968560773E+02  0.11341745144E+04 -0.27857255325E+03  0.11685345717E+04  0.25500000920E-02 0. -1.
       -2    1    3    3    0  502 -0.38968560773E+02 -0.11341745144E+04  0.81068059056E+03  0.13946588822E+04  0.25500000920E-02 0.  1.
</event>
<event>
 5   0  0.9261602E-07  0.2499564E+04  0.7818609E-02  0.8403141E-01
       -2   -1    0    0    0  501  0.00000000000E+00  0.00000000000E+00  0.91925533842E+03  0.91925533842E+03  0.25500000920E-02 0.  1.
        2   -1    0    0  501    0  0.00000000000E+00  0.00000000000E+00 -0.16991525058E+04  0.16991525058E+04  0.25500000920E-02 0. -1.
    10030    2    1    2    0    0  0.00000000000E+00  0.00000000000E+00 -0.77989716739E+03  0.26184078442E+04  0.24995639714E+04 0.  0.
        4    1    3    3  502    0 -0.34032647253E+03  0.11745921295E+04 -0.11988358559E+03  0.12287646095E+04  0.12699999809E+01 0.  1.
       -4    1    3    3    0  502  0.34032647253E+03 -0.11745921295E+04 -0.66001358180E+03  0.13896432347E+04  0.12699999809E+01 0. -1.
</event>
<event>
 5   0  0.3837524E-07  0.2497892E+04  0.7818609E-02  0.8403737E-01
       -1   -1    0    0    0  501  0.00000000000E+00  0.00000000000E+00  0.15809078799E+04  0.15809078799E+04  0.50400001928E-02 0. -1.
        1   -1    0    0  501    0  0.00000000000E+00  0.00000000000E+00 -0.98669001826E+03  0.98669001827E+03  0.50400001928E-02 0.  1.
    10030    2    1    2    0    0  0.00000000000E+00  0.00000000000E+00  0.59421786160E+03  0.25675978981E+04  0.24978919311E+04 0.  0.
        5    1    3    3  502    0  0.22932902437E+03  0.11410126999E+04  0.76290135545E+03  0.13915970504E+04  0.46999998093E+01 0. -1.
       -5    1    3    3    0  502 -0.22932902437E+03 -0.11410126999E+04 -0.16868349385E+03  0.11760008477E+04  0.46999998093E+01 0.  1.
</event>
<event>
 5   0  0.9251138E-07  0.2498176E+04  0.7818609E-02  0.8403636E-01
        2   -1    0    0  501    0  0.00000000000E+00  0.00000000000E+00  0.17439684289E+04  0.17439684289E+04  0.25500000920E-02 0.  1.
       -2   -1    0    0    0  501  0.00000000000E+00  0.00000000000E+00 -0.89463831104E+03  0.89463831105E+03  0.25500000920E-02 0. -1.
    10030    2    1    2    0    0  0.00000000000E+00  0.00000000000E+00  0.84933011787E+03  0.26386067400E+04  0.24981761105E+04 0.  0.
        5    1    3    3  502    0  0.11456443322E+03 -0.12030600540E+04  0.75820171623E+03  0.14266640934E+04  0.46999998093E+01 0.  1.
       -5    1    3    3    0  502 -0.11456443322E+03  0.12030600540E+04  0.91128401638E+02  0.12119426465E+04  0.46999998093E+01 0. -1.
</event>
<event>
 5   0  0.9251138E-07  0.2491664E+04  0.7818609E-02  0.8405961E-01
       -2   -1    0    0    0  501  0.00000000000E+00  0.00000000000E+00  0.69183093510E+03  0.69183093510E+03  0.25500000920E-02 0. -1.
        2   -1    0    0  501    0  0.00000000000E+00  0.00000000000E+00 -0.22434625765E+04  0.22434625765E+04  0.25500000920E-02 0.  1.
    10030    2    1    2    0    0  0.00000000000E+00  0.00000000000E+00 -0.15516316414E+04  0.29352935116E+04  0.24916635505E+04 0.  0.
        5    1    3    3  502    0  0.79629460501E+02 -0.86827651399E+03  0.27246598305E+03  0.91351231937E+03  0.46999998093E+01 0. -1.
       -5    1    3    3    0  502 -0.79629460501E+02  0.86827651399E+03 -0.18240976245E+04  0.20217811923E+04  0.46999998093E+01 0.  1.
</event>
<event>
 5   0  0.9261602E-07  0.2500473E+04  0.7818609E-02  0.8402817E-01
       -2   -1    0    0    0  501  0.00000000000E+00  0.00000000000E+00  0.12079239654E+04  0.12079239654E+04  0.25500000920E-02 0.  1.
        2   -1    0    0  501    0  0.00000000000E+00  0.00000000000E+00 -0.12940312905E+04  0.12940312905E+04  0.25500000920E-02 0. -1.
    10030    2    1    2    0    0  0.00000000000E+00  0.00000000000E+00 -0.86107325111E+02  0.25019552558E+04  0.25004730814E+04 0.  0.
        4    1    3    3  502    0  0.11854676608E+04 -0.30053134765E+03 -0.30289419176E+03  0.12599203030E+04  0.12699999809E+01 0. -1.
       -4    1    3    3    0  502 -0.11854676608E+04  0.30053134765E+03  0.21678686665E+03  0.12420349528E+04  0.12699999809E+01 0.  1.
</event>
<event>
 5   0  0.3805418E-07  0.2499257E+04  0.7818609E-02  0.8403250E-01
       -1   -1    0    0    0  501  0.00000000000E+00  0.00000000000E+00  0.14201282817E+04  0.14201282817E+04  0.50400001928E-02 0. -1.
        1   -1    0    0  501    0  0.00000000000E+00  0.00000000000E+00 -0.10995984762E+04  0.10995984762E+04  0.50400001928E-02 0.  1.
    10030    2    1    2    0    0  0.00000000000E+00  0.00000000000E+00  0.32052980546E+03  0.25197267579E+04  0.24992566051E+04 0.  0.
        4    1    3    3  502    0  0.75332085728E+03 -0.34109224828E+03  0.11048124489E+04  0.13800175347E+04  0.12699999809E+01 0. -1.
       -4    1    3    3    0  502 -0.75332085728E+03  0.34109224828E+03 -0.78428264344E+03  0.11397092232E+04  0.12699999809E+01 0.  1.
</event>
<event>
 5   0  0.3873231E-07  0.2501645E+04  0.7818609E-02  0.8402400E-01
        1   -1    0    0  501    0  0.00000000000E+00  0.00000000000E+00  0.25559398624E+04  0.25559398624E+04  0.50400001928E-02 0.  1.
       -1   -1    0    0    0  501  0.00000000000E+00  0.00000000000E+00 -0.61212596575E+03  0.61212596577E+03  0.50400001928E-02 0. -1.
    10030    2    1    2    0    0  0.00000000000E+00  0.00000000000E+00  0.19438138967E+04  0.31680658282E+04  0.25016451840E+04 0.  0.
        2    1    3    3  502    0 -0.34335388218E+02  0.34291935470E+03  0.24946277303E+04  0.25183208921E+04  0.25500000920E-02 0.  1.
       -2    1    3    3    0  502  0.34335388218E+02 -0.34291935470E+03 -0.55081383361E+03  0.64974493612E+03  0.25500000920E-02 0. -1.
</event>
<event>
 5   0  0.9508784E-07  0.2499797E+04  0.7818609E-02  0.8403058E-01
        2   -1    0    0  501    0  0.00000000000E+00  0.00000000000E+00  0.13383125217E+04  0.13383125217E+04  0.25500000920E-02 0.  1.
       -2   -1    0    0    0  501  0.00000000000E+00  0.00000000000E+00 -0.11673251951E+04  0.11673251952E+04  0.25500000920E-02 0. -1.
    10030    2    1    2    0    0  0.00000000000E+00  0.00000000000E+00  0.17098732657E+03  0.25056377169E+04  0.24997967322E+04 0.  0.
        2    1    3    3  502    0  0.20232075395E+03  0.11761787910E+04 -0.28674409110E+03  0.12274169665E+04  0.25500000920E-02 0. -1.
       -2    1    3    3    0  502 -0.20232075395E+03 -0.11761787910E+04  0.45773141767E+03  0.12782207504E+04  0.25500000920E-02 0.  1.
</event>
<event>
 5   0  0.3873231E-07  0.2501082E+04  0.7818609E-02  0.8402600E-01
       -1   -1    0    0    0  501  0.00000000000E+00  0.00000000000E+00  0.79162202000E+03  0.79162202002E+03  0.50400001928E-02 0. -1.
        1   -1    0    0  501    0  0.00000000000E+00  0.00000000000E+00 -0.19755044316E+04  0.19755044316E+04  0.50400001928E-02 0.  1.
    10030    2    1    2    0    0  0.00000000000E+00  0.00000000000E+00 -0.11838824116E+04  0.27671264516E+04  0.25010820128E+04 0.  0.
        2    1    3    3  502    0 -0.75143002046E+03 -0.14294345690E+03  0.50262501514E+03  0.91526597957E+03  0.25500000920E-02 0. -1.
       -2    1    3    3    0  502  0.75143002046E+03  0.14294345690E+03 -0.16865074267E+04  0.18518604721E+04  0.25500000920E-02 0.  1.
</event>
<event>
 5   0  0.9768582E-07  0.2499371E+04  0.7818609E-02  0.8403210E-01
       -2   -1    0    0    0  501  0.00000000000E+00  0.00000000000E+00  0.10853452445E+04  0.10853452445E+04  0.25500000920E-02 0.  1.
        2   -1    0    0  501    0  0.00000000000E+00  0.00000000000E+00 -0.14389102198E+04  0.14389102198E+04  0.25500000920E-02 0. -1.
    10030    2    1    2    0    0  0.00000000000E+00  0.00000000000E+00 -0.35356497531E+03  0.25242554644E+04  0.24993714125E+04 0.  0.
        3    1    3    3  502    0  0.25780216248E+03 -0.80871538444E+01 -0.14117350135E+04  0.14351038693E+04  0.10100000352E+00 0. -1.
       -3    1    3    3    0  502 -0.25780216248E+03  0.80871538444E+01  0.10581700382E+04  0.10891515951E+04  0.10100000352E+00 0.  1.
</event>
<event>
 5   0  0.9251138E-07  0.2499520E+04  0.7818609E-02  0.8403157E-01
       -2   -1    0    0    0  501  0.00000000000E+00  0.00000000000E+00  0.19174203592E+04  0.19174203592E+04  0.25500000920E-02 0.  1.
        2   -1    0    0  501    0  0.00000000000E+00  0.00000000000E+00 -0.81458399485E+03  0.81458399486E+03  0.25500000920E-02 0. -1.
    10030    2    1    2    0    0  0.00000000000E+00  0.00000000000E+00  0.11028363644E+04  0.27320043541E+04  0.24995199027E+04 0.  0.
        5    1    3    3  502    0  0.89162812331E+03  0.65517985400E+03 -0.83673779846E+02  0.11096327063E+04  0.46999998093E+01 0. -1.
       -5    1    3    3    0  502 -0.89162812331E+03 -0.65517985400E+03  0.11865101442E+04  0.16223716478E+04  0.46999998093E+01 0.  1.
</event>
<event>
 5   0  0.3837524E-07  0.2500420E+04  0.7818609E-02  0.8402836E-01
       -1   -1    0    0    0  501  0.00000000000E+00  0.00000000000E+00  0.85008491182E+03  0.85008491183E+03  0.50400001928E-02 0.  1.
        1   -1    0    0  501    0  0.00000000000E+00  0.00000000000E+00 -0.18386699832E+04  0.18386699832E+04  0.50400001928E-02 0. -1.
    10030    2    1    2    0    0  0.00000000000E+00  0.00000000000E+00 -0.98858507139E+03  0.26887548951E+04  0.25004204531E+04 0.  0.
        5    1    3    3  502    0  0.77138415719E+03  0.27328104300E+03 -0.15106203083E+04  0.17180546710E+04  0.46999998093E+01 0. -1.
       -5    1    3    3    0  502 -0.77138415719E+03 -0.27328104300E+03  0.52203523695E+03  0.97070022409E+03  0.46999998093E+01 0.  1.
</event>
<event>
 5   0  0.3972587E-07  0.2499782E+04  0.7818609E-02  0.8403063E-01
       -1   -1    0    0    0  501  0.00000000000E+00  0.00000000000E+00  0.13076682371E+04  0.13076682371E+04  0.50400001928E-02 0. -1.
        1   -1    0    0  501    0  0.00000000000E+00  0.00000000000E+00 -0.11946663393E+04  0.11946663393E+04  0.50400001928E-02 0.  1.
    10030    2    1    2    0    0  0.00000000000E+00  0.00000000000E+00  0.11300189786E+03  0.25023345764E+04  0.24997817712E+04 0.  0.
        3    1    3    3  502    0 -0.23473232181E+03 -0.43239182881E+03  0.12066587516E+04  0.13031067913E+04  0.10100000352E+00 0. -1.
       -3    1    3    3    0  502  0.23473232181E+03  0.43239182881E+03 -0.10936568538E+04  0.11992277851E+04  0.10100000352E+00 0.  1.
</event>
<event>
 5   0  0.9768582E-07  0.2498629E+04  0.7818609E-02  0.8403474E-01
        2   -1    0    0  501    0  0.00000000000E+00  0.00000000000E+00  0.71641588209E+03  0.71641588210E+03  0.25500000920E-02 0. -1.
       -2   -1    0    0    0  501  0.00000000000E+00  0.00000000000E+00 -0.21786034596E+04  0.21786034596E+04  0.25500000920E-02 0.  1.
    10030    2    1    2    0    0  0.00000000000E+00  0.00000000000E+00 -0.14621875775E+04  0.28950193417E+04  0.24986285192E+04 0.  0.
        3    1    3    3  502    0 -0.78395277539E+03  0.12204269537E+03  0.38704792158E+03  0.88276977596E+03  0.10100000352E+00 0. -1.
       -3    1    3    3    0  502  0.78395277539E+03 -0.12204269537E+03 -0.18492354991E+04  0.20122495658E+04  0.10100000352E+00 0.  1.
</event>
<event>
 5   0  0.8997210E-07  0.2499998E+04  0.7818609E-02  0.8402986E-01
        2   -1    0    0  501    0  0.00000000000E+00  0.00000000000E+00  0.84189548962E+03  0.84189548963E+03  0.25500000920E-02 0. -1.
       -2   -1    0    0    0  501  0.00000000000E+00  0.00000000000E+00 -0.18559287398E+04  0.18559287398E+04  0.25500000920E-02 0.  1.
    10030    2    1    2    0    0  0.00000000000E+00  0.00000000000E+00 -0.10140332502E+04  0.26978242294E+04  0.24999984281E+04 0.  0.
        1    1    3    3  502    0  0.87854537573E+02 -0.42948205163E+03  0.75622279976E+03  0.87409734889E+03  0.50400001928E-02 0. -1.
       -1    1    3    3    0  502 -0.87854537573E+02  0.42948205163E+03 -0.17702560499E+04  0.18237268805E+04  0.50400001928E-02 0.  1.
</event>
<event>
 5   0  0.8997210E-07  0.2499518E+04  0.7818609E-02  0.8403157E-01
        2   -1    0    0  501    0  0.00000000000E+00  0.00000000000E+00  0.12035817249E+04  0.12035817249E+04  0.25500000920E-02 0. -1.
       -2   -1    0    0    0  501  0.00000000000E+00  0.00000000000E+00 -0.12977083297E+04  0.12977083297E+04  0.25500000920E-02 0.  1.
    10030    2    1    2    0    0  0.00000000000E+00  0.00000000000E+00 -0.94126604800E+02  0.25012900545E+04  0.24995183774E+04 0.  0.
        1    1    3    3  502    0  0.34561687976E+02  0.41913905475E+03 -0.12247687415E+04  0.12949635237E+04  0.50400001928E-02 0.  1.
       -1    1    3    3    0  502 -0.34561687976E+02 -0.41913905475E+03  0.11306421367E+04  0.12063265308E+04  0.50400001928E-02 0. -1.
</event>
<event>
 5   0  0.9508784E-07  0.2502477E+04  0.7818609E-02  0.8402104E-01
       -2   -1    0    0    0  501  0.00000000000E+00  0.00000000000E+00  0.14524110278E+04  0.14524110278E+04  0.25500000920E-02 0. -1.
        2   -1    0    0  501    0  0.00000000000E+00  0.00000000000E+00 -0.10779303395E+04  0.10779303395E+04  0.25500000920E-02 0.  1.
    10030    2    1    2    0    0  0.00000000000E+00  0.00000000000E+00  0.37448068834E+03  0.25303413673E+04  0.25024771026E+04 0.  0.
        2    1    3    3  502    0 -0.58828906503E+03  0.69640896056E+03  0.10538296263E+04  0.13934225295E+04  0.25500000920E-02 0. -1.
       -2    1    3    3    0  502  0.58828906503E+03 -0.69640896056E+03 -0.67934893795E+03  0.11369188379E+04  0.25500000920E-02 0.  1.
</event>
<event>
 5   0  0.3991066E-07  0.2514801E+04  0.7818609E-02  0.8397732E-01
        1   -1    0    0  501    0  0.00000000000E+00  0.00000000000E+00  0.17081916253E+04  0.17081916253E+04  0.50400001928E-02 0.  1.
       -1   -1    0    0    0  501  0.00000000000E+00  0.00000000000E+00 -0.92557273921E+03  0.92557273923E+03  0.50400001928E-02 0. -1.
    10030    2    1    2    0    0  0.00000000000E+00  0.00000000000E+00  0.78261888611E+03  0.26337643646E+04  0.25148006695E+04 0.  0.
        1    1    3    3  502    0  0.11530308269E+04 -0.41913574174E+03  0.67984302442E+03  0.14026194764E+04  0.50400001928E-02 0.  1.
       -1    1    3    3    0  502 -0.11530308269E+04  0.41913574174E+03  0.10277586168E+03  0.12311448881E+04  0.50400001928E-02 0. -1.
</event>
<event>
 5   0  0.8997210E-07  0.2500023E+04  0.7818609E-02  0.8402977E-01
        2   -1    0    0  501    0  0.00000000000E+00  0.00000000000E+00  0.11212836057E+04  0.11212836057E+04  0.25500000920E-02 0. -1.
       -2   -1    0    0    0  501  0.00000000000E+00  0.00000000000E+00 -0.13935178899E+04  0.13935178899E+04  0.25500000920E-02 0.  1.
    10030    2    1    2    0    0  0.00000000000E+00  0.00000000000E+00 -0.27223428419E+03  0.25148014957E+04  0.25000230113E+04 0.  0.
        1    1    3    3  502    0 -0.48367551906E+03  0.73161791187E+03  0.75983425183E+03  0.11604115076E+04  0.50400001928E-02 0. -1.
       -1    1    3    3    0  502  0.48367551906E+03 -0.73161791187E+03 -0.10320685360E+04  0.13543899881E+04  0.50400001928E-02 0.  1.
</event>
<event>
 5   0  0.9261602E-07  0.2500963E+04  0.7818609E-02  0.8402643E-01
        2   -1    0    0  501    0  0.00000000000E+00  0.00000000000E+00  0.15480220718E+04  0.15480220718E+04  0.25500000920E-02 0. -1.
       -2   -1    0    0    0  501  0.00000000000E+00  0.00000000000E+00 -0.10101301210E+04  0.10101301211E+04  0.25500000920E-02 0.  1.
    10030    2    1    2    0    0  0.00000000000E+00  0.00000000000E+00  0.53789195076E+03  0.25581521929E+04  0.25009627928E+04 0.  0.
        4    1    3    3  502    0 -0.57138852636E+03  0.98662729582E+03  0.79428932842E+03  0.13895378437E+04  0.12699999809E+01 0. -1.
       -4    1    3    3    0  502  0.57138852636E+03 -0.98662729582E+03 -0.25639737766E+03  0.11686143492E+04  0.12699999809E+01 0.  1.
</event>
<event>
 5   0  0.9768582E-07  0.2500597E+04  0.7818609E-02  0.8402773E-01
       -2   -1    0    0    0  501  0.00000000000E+00  0.00000000000E+00  0.15724769729E+04  0.15724769729E+04  0.25500000920E-02 0. -1.
        2   -1    0    0  501    0  0.00000000000E+00  0.00000000000E+00 -0.99412991097E+03  0.99412991098E+03  0.25500000920E-02 0.  1.
    10030    2    1    2    0    0  0.00000000000E+00  0.00000000000E+00  0.57834706189E+03  0.25666068838E+04  0.25005970431E+04 0.  0.
        3    1    3    3  502    0 -0.47545737179E+03 -0.11237209612E+04  0.91383369052E+01  0.12202016351E+04  0.10100000352E+00 0. -1.
       -3    1    3    3    0  502  0.47545737179E+03  0.11237209612E+04  0.56920872498E+03  0.13464052487E+04  0.10100000352E+00 0.  1.
</event>
<event>
 5   0  0.3837524E-07  0.2500840E+04  0.7818609E-02  0.8402686E-01
        1   -1    0    0  501    0  0.00000000000E+00  0.00000000000E+00  0.96897416491E+03  0.96897416492E+03  0.50400001928E-02 0. -1.
       -1   -1    0    0    0  501  0.00000000000E+00  0.00000000000E+00 -0.16136140469E+04  0.16136140469E+04  0.50400001928E-02 0.  1.
    10030    2    1    2    0    0  0.00000000000E+00  0.00000000000E+00 -0.64463988201E+03  0.25825882118E+04  0.25008401177E+04 0.  0.
        5    1    3    3  502    0  0.41513531626E+03 -0.88208420392E+03 -0.11309342040E+04  0.14931323242E+04  0.46999998093E+01 0.  1.
       -5    1    3    3    0  502 -0.41513531626E+03  0.88208420392E+03  0.48629432201E+03  0.10894558877E+04  0.46999998093E+01 0. -1.
</event>
<event>
 5   0  0.3873231E-07  0.2493002E+04  0.7818609E-02  0.8405483E-01
        1   -1    0    0  501    0  0.00000000000E+00  0.00000000000E+00  0.10322401525E+04  0.10322401525E+04  0.50400001928E-02 0. -1.
       -1   -1    0    0    0  501  0.00000000000E+00  0.00000000000E+00 -0.15052351166E+04  0.15052351166E+04  0.50400001928E-02 0.  1.
    10030    2    1    2    0    0  0.00000000000E+00  0.00000000000E+00 -0.47299496407E+03  0.25374752691E+04  0.24930015052E+04 0.  0.
        2    1    3    3  502    0  0.18191612912E+03 -0.24532375539E+03 -0.14665626223E+04  0.14980264177E+04  0.25500000920E-02 0.  1.
       -2    1    3    3    0  502 -0.18191612912E+03  0.24532375539E+03  0.99356765827E+03  0.10394488513E+04  0.25500000920E-02 0. -1.
</event>
<event>
 5   0  0.8997210E-07  0.2499023E+04  0.7818609E-02  0.8403334E-01
       -2   -1    0    0    0  501  0.00000000000E+00  0.00000000000E+00  0.14725894956E+04  0.14725894956E+04  0.25500000920E-02 0.  1.
        2   -1    0    0  501    0  0.00000000000E+00  0.00000000000E+00 -0.10602266411E+04  0.10602266411E+04  0.25500000920E-02 0. -1.
    10030    2    1    2    0    0  0.00000000000E+00  0.00000000000E+00  0.41236285447E+03  0.25328161367E+04  0.24990227007E+04 0.  0.
        1    1    3    3  502    0 -0.43330626113E+03 -0.11669578592E+04  0.31596821919E+03  0.12842822418E+04  0.50400001928E-02 0. -1.
       -1    1    3    3    0  502  0.43330626113E+03  0.11669578592E+04  0.96394635273E+02  0.12485338949E+04  0.50400001928E-02 0.  1.
</event>
<event>
 5   0  0.9261602E-07  0.2499721E+04  0.7818609E-02  0.8403085E-01
        2   -1    0    0  501    0  0.00000000000E+00  0.00000000000E+00  0.13659375119E+04  0.13659375119E+04  0.25500000920E-02 0.  1.
       -2   -1    0    0    0  501  0.00000000000E+00  0.00000000000E+00 -0.11436475853E+04  0.11436475853E+04  0.25500000920E-02 0. -1.
    10030    2    1    2    0    0  0.00000000000E+00  0.00000000000E+00  0.22228992655E+03  0.25095850972E+04  0.24997208941E+04 0.  0.
        4    1    3    3  502    0  0.56989585530E+03 -0.47835554609E+03  0.11193709257E+04  0.13440975398E+04  0.12699999809E+01 0.  1.
       -4    1    3    3    0  502 -0.56989585530E+03  0.47835554609E+03 -0.89708099915E+03  0.11654875573E+04  0.12699999809E+01 0. -1.
</event>
<event>
 5   0  0.9768582E-07  0.2499752E+04  0.7818609E-02  0.8403074E-01
       -2   -1    0    0    0  501  0.00000000000E+00  0.00000000000E+00  0.17387899723E+04  0.17387899723E+04  0.25500000920E-02 0.  1.
        2   -1    0    0  501    0  0.00000000000E+00  0.00000000000E+00 -0.89843523722E+03  0.89843523722E+03  0.25500000920E-02 0. -1.
    10030    2    1    2    0    0  0.00000000000E+00  0.00000000000E+00  0.84035473509E+03  0.26372252095E+04  0.24997521327E+04 0.  0.
        3    1    3    3  502    0  0.43380384576E+02  0.64450105598E+03  0.15490348424E+04  0.16783242899E+04  0.10100000352E+00 0.  1.
       -3    1    3    3    0  502 -0.43380384576E+02 -0.64450105598E+03 -0.70868010732E+03  0.95890091961E+03  0.10100000352E+00 0. -1.
</event>
<event>
 5   0  0.3991066E-07  0.2501071E+04  0.7818609E-02  0.8402604E-01
        1   -1    0    0  501    0  0.00000000000E+00  0.00000000000E+00  0.14629707472E+04  0.14629707472E+04  0.50400001928E-02 0.  1.
       -1   -1    0    0    0  501  0.00000000000E+00  0.00000000000E+00 -0.10689476360E+04  0.10689476360E+04  0.50400001928E-02 0. -1.
    10030    2    1    2    0    0  0.00000000000E+00  0.00000000000E+00  0.39402311120E+03  0.25319183832E+04  0.25010710679E+04 0.  0.
        1    1    3    3  502    0  0.12466024443E+04  0.72424263931E+02  0.26549346618E+03  0.12766165080E+04  0.50400001928E-02 0. -1.
       -1    1    3    3    0  502 -0.12466024443E+04 -0.72424263931E+02  0.12852964502E+03  0.12553018751E+04  0.50400001928E-02 0.  1.
</event>
<event>
 5   0  0.9508784E-07  0.2498817E+04  0.7818609E-02  0.8403407E-01
        2   -1    0    0  501    0  0.00000000000E+00  0.00000000000E+00  0.16343651362E+04  0.16343651362E+04  0.25500000920E-02 0.  1.
       -2   -1    0    0    0  501  0.00000000000E+00  0.00000000000E+00 -0.95512379601E+03  0.95512379601E+03  0.25500000920E-02 0. -1.
    10030    2    1    2    0    0  0.00000000000E+00  0.00000000000E+00  0.67924134015E+03  0.25894889322E+04  0.24988165462E+04 0.  0.
        2    1    3    3  502    0  0.78078899613E+03  0.54089073025E+03  0.11807549115E+04  0.15153799522E+04  0.25500000920E-02 0.  1.
       -2    1    3    3    0  502 -0.78078899613E+03 -0.54089073025E+03 -0.50151357136E+03  0.10741089799E+04  0.25500000920E-02 0. -1.
</event>
<event>
 5   0  0.3991066E-07  0.2519200E+04  0.7818609E-02  0.8396177E-01
        1   -1    0    0  501    0  0.00000000000E+00  0.00000000000E+00  0.16494215365E+04  0.16494215365E+04  0.50400001928E-02 0.  1.
       -1   -1    0    0    0  501  0.00000000000E+00  0.00000000000E+00 -0.96190789058E+03  0.96190789059E+03  0.50400001928E-02 0. -1.
    10030    2    1    2    0    0  0.00000000000E+00  0.00000000000E+00  0.68751364594E+03  0.26113294271E+04  0.25191995482E+04 0.  0.
        1    1    3    3  502    0  0.20173070324E+02  0.48980796109E+03  0.15464798577E+04  0.16223189396E+04  0.50400001928E-02 0.  1.
       -1    1    3    3    0  502 -0.20173070324E+02 -0.48980796109E+03 -0.85896621174E+03  0.98901048753E+03  0.50400001928E-02 0. -1.
</event>
<event>
 5   0  0.3873231E-07  0.2499687E+04  0.7818609E-02  0.8403097E-01
       -1   -1    0    0    0  501  0.00000000000E+00  0.00000000000E+00  0.79864710686E+03  0.79864710687E+03  0.50400001928E-02 0.  1.
        1   -1    0    0  501    0  0.00000000000E+00  0.00000000000E+00 -0.19559431878E+04  0.19559431878E+04  0.50400001928E-02 0. -1.
    10030    2    1    2    0    0  0.00000000000E+00  0.00000000000E+00 -0.11572960810E+04  0.27545902947E+04  0.24996866749E+04 0.  0.
        2    1    3    3  502    0  0.89970342140E+03  0.74676158675E+03 -0.10652532756E+04  0.15817343820E+04  0.25500000920E-02 0. -1.
       -2    1    3    3    0  502 -0.89970342140E+03 -0.74676158675E+03 -0.92042805315E+02  0.11728559127E+04  0.25500000920E-02 0.  1.
</event>
<event>
 5   0  0.9251138E-07  0.2500056E+04  0.7818609E-02  0.8402966E-01
       -2   -1    0    0    0  501  0.00000000000E+00  0.00000000000E+00  0.12993501142E+04  0.12993501142E+04  0.25500000920E-02 0.  1.
        2   -1    0    0  501    0  0.00000000000E+00  0.00000000000E+00 -0.12025783100E+04  0.12025783100E+04  0.25500000920E-02 0. -1.
    10030    2    1    2    0    0  0.00000000000E+00  0.00000000000E+00  0.96771804211E+02  0.25019284242E+04  0.25000562110E+04 0.  0.
        5    1    3    3  502    0 -0.42627270777E+03 -0.65907457700E+03 -0.92520463535E+03  0.12133068147E+04  0.46999998093E+01 0. -1.
       -5    1    3    3    0  502  0.42627270777E+03  0.65907457700E+03  0.10219764396E+04  0.12886216095E+04  0.46999998093E+01 0.  1.
</event>
<event>
 5   0  0.3991066E-07  0.2502243E+04  0.7818609E-02  0.8402187E-01
       -1   -1    0    0    0  501  0.00000000000E+00  0.00000000000E+00  0.90145735059E+03  0.90145735060E+03  0.50400001928E-02 0.  1.
        1   -1    0    0  501    0  0.00000000000E+00  0.00000000000E+00 -0.17364159690E+04  0.17364159690E+04  0.50400001928E-02 0. -1.
    10030    2    1    2    0    0  0.00000000000E+00  0.00000000000E+00 -0.83495861837E+03  0.26378733196E+04  0.25022429450E+04 0.  0.
        1    1    3    3  502    0  0.89286660258E+03  0.78654581967E+03 -0.82500750549E+03  0.14479304129E+04  0.50400001928E-02 0.  1.
       -1    1    3    3    0  502 -0.89286660258E+03 -0.78654581967E+03 -0.99511128738E+01  0.11899429067E+04  0.50400001928E-02 0. -1.
</event>
<event>
 5   0  0.9261602E-07  0.2499017E+04  0.7818609E-02  0.8403336E-01
       -2   -1    0    0    0  501  0.00000000000E+00  0.00000000000E+00  0.16293505883E+04  0.16293505883E+04  0.25500000920E-02 0.  1.
        2   -1    0    0  501    0  0.00000000000E+00  0.00000000000E+00 -0.95821698853E+03  0.95821698853E+03  0.25500000920E-02 0. -1.
    10030    2    1    2    0    0  0.00000000000E+00  0.00000000000E+00  0.67113359976E+03  0.25875675768E+04  0.24990169379E+04 0.  0.
        4    1    3    3  502    0 -0.96545058994E+03 -0.18056412280E+02  0.11566660632E+04  0.15067510977E+04  0.12699999809E+01 0.  1.
       -4    1    3    3    0  502  0.96545058994E+03  0.18056412280E+02 -0.48553246345E+03  0.10808164792E+04  0.12699999809E+01 0. -1.
</event>
<event>
 5   0  0.3214375E-07  0.2499988E+04  0.7818609E-02  0.8402990E-01
        3   -1    0    0  501    0  0.00000000000E+00  0.00000000000E+00  0.18483281813E+04  0.18483281841E+04  0.10100000352E+00 0. -1.
       -3   -1    0    0    0  501  0.00000000000E+00  0.00000000000E+00 -0.84535066773E+03  0.84535067376E+03  0.10100000352E+00 0.  1.
    10030    2    1    2    0    0  0.00000000000E+00  0.00000000000E+00  0.10029775136E+04  0.26936788578E+04  0.24999883793E+04 0.  0.
        2    1    3    3  502    0 -0.47173086498E+03 -0.31565676978E+03  0.17014688674E+04  0.17936458714E+04  0.25500000920E-02 0. -1.
       -2    1    3    3    0  502  0.47173086498E+03  0.31565676978E+03 -0.69849135382E+03  0.90003298642E+03  0.25500000920E-02 0.  1.
</event>
<event>
 5   0  0.9768582E-07  0.2495929E+04  0.7818609E-02  0.8404437E-01
       -2   -1    0    0    0  501  0.00000000000E+00  0.00000000000E+00  0.12668921400E+04  0.12668921400E+04  0.25500000920E-02 0. -1.
        2   -1    0    0  501    0  0.00000000000E+00  0.00000000000E+00 -0.12293194427E+04  0.12293194427E+04  0.25500000920E-02 0.  1.
    10030    2    1    2    0    0  0.00000000000E+00  0.00000000000E+00  0.37572697239E+02  0.24962115827E+04  0.24959287967E+04 0.  0.
        3    1    3    3  502    0 -0.19382229642E+03 -0.93075171781E+03 -0.78972919715E+03  0.12359361059E+04  0.10100000352E+00 0.  1.
       -3    1    3    3    0  502  0.19382229642E+03  0.93075171781E+03  0.82730189439E+03  0.12602754768E+04  0.10100000352E+00 0. -1.
</event>
<event>
 5   0  0.9768582E-07  0.2499848E+04  0.7818609E-02  0.8403040E-01
        2   -1    0    0  501    0  0.00000000000E+00  0.00000000000E+00  0.22471382613E+04  0.22471382613E+04  0.25500000920E-02 0.  1.
       -2   -1    0    0    0  501  0.00000000000E+00  0.00000000000E+00 -0.69524433796E+03  0.69524433796E+03  0.25500000920E-02 0. -1.
    10030    2    1    2    0    0  0.00000000000E+00  0.00000000000E+00  0.15518939234E+04  0.29423825993E+04  0.24998481176E+04 0.  0.
        3    1    3    3  502    0  0.10634787814E+03  0.81952833032E+03  0.18797008052E+04  0.20533415893E+04  0.10100000352E+00 0.  1.
       -3    1    3    3    0  502 -0.10634787814E+03 -0.81952833032E+03 -0.32780688181E+03  0.88904100994E+03  0.10100000352E+00 0. -1.
</event>
<event>
 5   0  0.3972587E-07  0.2499477E+04  0.7818609E-02  0.8403172E-01
        1   -1    0    0  501    0  0.00000000000E+00  0.00000000000E+00  0.22062565783E+04  0.22062565783E+04  0.50400001928E-02 0.  1.
       -1   -1    0    0    0  501  0.00000000000E+00  0.00000000000E+00 -0.70791714805E+03  0.70791714807E+03  0.50400001928E-02 0. -1.
    10030    2    1    2    0    0  0.00000000000E+00  0.00000000000E+00  0.14983394303E+04  0.29141737264E+04  0.24994774372E+04 0.  0.
        3    1    3    3  502    0  0.52447134563E+02  0.25439567444E+03 -0.67609848227E+03  0.72427690079E+03  0.10100000352E+00 0. -1.
       -3    1    3    3    0  502 -0.52447134563E+02 -0.25439567444E+03  0.21744379125E+04  0.21898968256E+04  0.10100000352E+00 0.  1.
</event>
<event>
 5   0  0.9508784E-07  0.2500171E+04  0.7818609E-02  0.8402925E-01
        2   -1    0    0  501    0  0.00000000000E+00  0.00000000000E+00  0.12925309019E+04  0.12925309019E+04  0.25500000920E-02 0. -1.
       -2   -1    0    0    0  501  0.00000000000E+00  0.00000000000E+00 -0.12090340201E+04  0.12090340201E+04  0.25500000920E-02 0.  1.
    10030    2    1    2    0    0  0.00000000000E+00  0.00000000000E+00  0.83496881830E+02  0.25015649220E+04  0.25001710600E+04 0.  0.
        2    1    3    3  502    0  0.12036508548E+04  0.22691322808E+03  0.29178541769E+03  0.12591281600E+04  0.25500000920E-02 0. -1.
       -2    1    3    3    0  502 -0.12036508548E+04 -0.22691322808E+03 -0.20828853586E+03  0.12424367620E+04  0.25500000920E-02 0.  1.
</event>
<event>
 5   0  0.9261602E-07  0.2500160E+04  0.7818609E-02  0.8402929E-01
        2   -1    0    0  501    0  0.00000000000E+00  0.00000000000E+00  0.14855282093E+04  0.14855282093E+04  0.25500000920E-02 0.  1.
       -2   -1    0    0    0  501  0.00000000000E+00  0.00000000000E+00 -0.10519491382E+04  0.10519491382E+04  0.25500000920E-02 0. -1.
    10030    2    1    2    0    0  0.00000000000E+00  0.00000000000E+00  0.43357907101E+03  0.25374773475E+04  0.25001600905E+04 0.  0.
        4    1    3    3  502    0  0.64015109736E+03 -0.33619004716E+03  0.12517559250E+04  0.14455835099E+04  0.12699999809E+01 0.  1.
       -4    1    3    3    0  502 -0.64015109736E+03  0.33619004716E+03 -0.81817685403E+03  0.10918938376E+04  0.12699999809E+01 0. -1.
</event>
<event>
 5   0  0.9261602E-07  0.2498215E+04  0.7818609E-02  0.8403622E-01
        2   -1    0    0  501    0  0.00000000000E+00  0.00000000000E+00  0.14780696078E+04  0.14780696078E+04  0.25500000920E-02 0. -1.
       -2   -1    0    0    0  501  0.00000000000E+00  0.00000000000E+00 -0.10556131364E+04  0.10556131364E+04  0.25500000920E-02 0.  1.
    10030    2    1    2    0    0  0.00000000000E+00  0.00000000000E+00  0.42245647144E+03  0.25336827441E+04  0.24982151184E+04 0.  0.
        4    1    3    3  502    0  0.34890292415E+03 -0.14107318351E+03 -0.99674540947E+03  0.10654285137E+04  0.12699999809E+01 0.  1.
       -4    1    3    3    0  502 -0.34890292415E+03  0.14107318351E+03  0.14192018809E+04  0.14682542305E+04  0.12699999809E+01 0. -1.
</event>
<event>
 5   0  0.3805418E-07  0.2500465E+04  0.7818609E-02  0.8402820E-01
       -1   -1    0    0    0  501  0.00000000000E+00  0.00000000000E+00  0.12452550096E+04  0.12452550096E+04  0.50400001928E-02 0.  1.
        1   -1    0    0  501    0  0.00000000000E+00  0.00000000000E+00 -0.12552300721E+04  0.12552300721E+04  0.50400001928E-02 0. -1.
    10030    2    1    2    0    0  0.00000000000E+00  0.00000000000E+00 -0.99750625048E+01  0.25004850818E+04  0.25004651852E+04 0.  0.
        4    1    3    3  502    0  0.49576217187E+03 -0.80058560103E+03  0.81743161429E+03  0.12469617045E+04  0.12699999809E+01 0. -1.
       -4    1    3    3    0  502 -0.49576217187E+03  0.80058560103E+03 -0.82740667679E+03  0.12535233773E+04  0.12699999809E+01 0.  1.
</event>
<event>
 5   0  0.3972587E-07  0.2503199E+04  0.7818609E-02  0.8401847E-01
       -1   -1    0    0    0  501  0.00000000000E+00  0.00000000000E+00  0.98347519329E+03  0.98347519331E+03  0.50400001928E-02 0. -1.
        1   -1    0    0  501    0  0.00000000000E+00  0.00000000000E+00 -0.15928222677E+04  0.15928222677E+04  0.50400001928E-02 0.  1.
    10030    2    1    2    0    0  0.00000000000E+00  0.00000000000E+00 -0.60934707443E+03  0.25762974610E+04  0.25031989035E+04 0.  0.
        3    1    3    3  502    0  0.35255038033E+03 -0.23590545896E+03 -0.15165815848E+04  0.15747897859E+04  0.10100000352E+00 0.  1.
       -3    1    3    3    0  502 -0.35255038033E+03  0.23590545896E+03  0.90723451040E+03  0.10015076751E+04  0.10100000352E+00 0. -1.
</event>
<event>
 5   0  0.3991066E-07  0.2501000E+04  0.7818609E-02  0.8402629E-01
       -1   -1    0    0    0  501  0.00000000000E+00  0.00000000000E+00  0.92866984487E+03  0.92866984488E+03  0.50400001928E-02 0. -1.
        1   -1    0    0  501    0  0.00000000000E+00  0.00000000000E+00 -0.16838605714E+04  0.16838605714E+04  0.50400001928E-02 0.  1.
    10030    2    1    2    0    0  0.00000000000E+00  0.00000000000E+00 -0.75519072655E+03  0.26125304163E+04  0.25010002284E+04 0.  0.
        1    1    3    3  502    0 -0.37558412756E+03 -0.11094986689E+04  0.79764929057E+02  0.11740584215E+04  0.50400001928E-02 0. -1.
       -1    1    3    3    0  502  0.37558412756E+03  0.11094986689E+04 -0.83495565560E+03  0.14384719948E+04  0.50400001928E-02 0.  1.
</event>
<event>
 5   0  0.3805418E-07  0.2501325E+04  0.7818609E-02  0.8402513E-01
       -1   -1    0    0    0  501  0.00000000000E+00  0.00000000000E+00  0.10319450414E+04  0.10319450414E+04  0.50400001928E-02 0.  1.
        1   -1    0    0  501    0  0.00000000000E+00  0.00000000000E+00 -0.15157369824E+04  0.15157369824E+04  0.50400001928E-02 0. -1.
    10030    2    1    2    0    0  0.00000000000E+00  0.00000000000E+00 -0.48379194103E+03  0.25476820238E+04  0.25013254591E+04 0.  0.
        4    1    3    3  502    0 -0.51808203511E+03  0.29584644068E+03 -0.13614583746E+04  0.14864402545E+04  0.12699999809E+01 0. -1.
       -4    1    3    3    0  502  0.51808203511E+03 -0.29584644068E+03  0.87766643353E+03  0.10612417694E+04  0.12699999809E+01 0.  1.
</event>
<event>
 5   0  0.3991066E-07  0.2492980E+04  0.7818609E-02  0.8405491E-01
       -1   -1    0    0    0  501  0.00000000000E+00  0.00000000000E+00  0.10581131657E+04  0.10581131657E+04  0.50400001928E-02 0. -1.
        1   -1    0    0  501    0  0.00000000000E+00  0.00000000000E+00 -0.14684042100E+04  0.14684042100E+04  0.50400001928E-02 0.  1.
    10030    2    1    2    0    0  0.00000000000E+00  0.00000000000E+00 -0.41029104429E+03  0.25265173757E+04  0.24929804068E+04 0.  0.
        1    1    3    3  502    0 -0.25074032119E+03  0.11885932381E+04  0.78101745891E+02  0.12172610555E+04  0.50400001928E-02 0. -1.
       -1    1    3    3    0  502  0.25074032119E+03 -0.11885932381E+04 -0.48839279018E+03  0.13092563202E+04  0.50400001928E-02 0.  1.
</event>
<event>
 5   0  0.9508784E-07  0.2500020E+04  0.7818609E-02  0.8402978E-01
       -2   -1    0    0    0  501  0.00000000000E+00  0.00000000000E+00  0.14259734763E+04  0.14259734763E+04  0.25500000920E-02 0. -1.
        2   -1    0    0  501    0  0.00000000000E+00  0.00000000000E+00 -0.10957601409E+04  0.10957601409E+04  0.25500000920E-02 0.  1.
    10030    2    1    2    0    0  0.00000000000E+00  0.00000000000E+00  0.33021333546E+03  0.25217336172E+04  0.25000199178E+04 0.  0.
        2    1    3    3  502    0 -0.27956301582E+03 -0.27686384931E+03  0.13618836725E+04  0.14175811118E+04  0.25500000920E-02 0. -1.
       -2    1    3    3    0  502  0.27956301582E+03  0.27686384931E+03 -0.10316703371E+04  0.11041525055E+04  0.25500000920E-02 0.  1.
</event>
<event>
 5   0  0.3805418E-07  0.2499904E+04  0.7818609E-02  0.8403020E-01
       -1   -1    0    0    0  501  0.00000000000E+00  0.00000000000E+00  0.11721851996E+04  0.11721851996E+04  0.50400001928E-02 0. -1.
        1   -1    0    0  501    0  0.00000000000E+00  0.00000000000E+00 -0.13328779944E+04  0.13328779944E+04  0.50400001928E-02 0.  1.
    10030    2    1    2    0    0  0.00000000000E+00  0.00000000000E+00 -0.16069279475E+03  0.25050631940E+04  0.24999038845E+04 0.  0.
        4    1    3    3  502    0 -0.39333885341E+03  0.92331359563E+03 -0.82697121651E+03  0.13004254901E+04  0.12699999809E+01 0.  1.
       -4    1    3    3    0  502  0.39333885341E+03 -0.92331359563E+03  0.66627842176E+03  0.12046377039E+04  0.12699999809E+01 0. -1.
</event>
<event>
 5   0  0.9261602E-07  0.2497995E+04  0.7818609E-02  0.8403700E-01
        2   -1    0    0  501    0  0.00000000000E+00  0.00000000000E+00  0.23267554516E+04  0.23267554516E+04  0.25500000920E-02 0.  1.
       -2   -1    0    0    0  501  0.00000000000E+00  0.00000000000E+00 -0.67045946711E+03  0.67045946712E+03  0.25500000920E-02 0. -1.
    10030    2    1    2    0    0  0.00000000000E+00  0.00000000000E+00  0.16562959845E+04  0.29972149187E+04  0.24979953725E+04 0.  0.
        4    1    3    3  502    0  0.67731679947E+03 -0.43094438949E+03  0.19761978938E+04  0.21330332491E+04  0.12699999809E+01 0.  1.
       -4    1    3    3    0  502 -0.67731679947E+03  0.43094438949E+03 -0.31990190924E+03  0.86418166962E+03  0.12699999809E+01 0. -1.
</event>
<event>
 5   0  0.3991066E-07  0.2500390E+04  0.7818609E-02  0.8402847E-01
       -1   -1    0    0    0  501  0.00000000000E+00  0.00000000000E+00  0.11005612844E+04  0.11005612844E+04  0.50400001928E-02 0.  1.
        1   -1    0    0  501    0  0.00000000000E+00  0.00000000000E+00 -0.14201725540E+04  0.14201725540E+04  0.50400001928E-02 0. -1.
    10030    2    1    2    0    0  0.00000000000E+00  0.00000000000E+00 -0.31961126958E+03  0.25207338385E+04  0.25003895138E+04 0.  0.
        1    1    3    3  502    0 -0.11380794505E+01  0.51928755269E+03  0.98669246405E+03  0.11149990476E+04  0.50400001928E-02 0.  1.
       -1    1    3    3    0  502  0.11380794505E+01 -0.51928755269E+03 -0.13063037336E+04  0.14057347908E+04  0.50400001928E-02 0. -1.
</event>
<event>
 5   0  0.3972587E-07  0.2500729E+04  0.7818609E-02  0.8402726E-01
        1   -1    0    0  501    0  0.00000000000E+00  0.00000000000E+00  0.11562352648E+04  0.11562352648E+04  0.50400001928E-02 0.  1.
       -1   -1    0    0    0  501  0.00000000000E+00  0.00000000000E+00 -0.13521572732E+04  0.13521572732E+04  0.50400001928E-02 0. -1.
    10030    2    1    2    0    0  0.00000000000E+00  0.00000000000E+00 -0.19592200846E+03  0.25083925380E+04  0.25007294319E+04 0.  0.
        3    1    3    3  502    0  0.86695426511E+03  0.36824194942E+01 -0.10017151102E+04  0.13247854280E+04  0.10100000352E+00 0. -1.
       -3    1    3    3    0  502 -0.86695426511E+03 -0.36824194942E+01  0.80579310171E+03  0.11836071101E+04  0.10100000352E+00 0.  1.
</event>
<event>
 5   0  0.9508784E-07  0.2499199E+04  0.7818609E-02  0.8403271E-01
       -2   -1    0    0    0  501  0.00000000000E+00  0.00000000000E+00  0.51863268735E+03  0.51863268736E+03  0.25500000920E-02 0. -1.
        2   -1    0    0  501    0  0.00000000000E+00  0.00000000000E+00 -0.30108004600E+04  0.30108004600E+04  0.25500000920E-02 0.  1.
    10030    2    1    2    0    0  0.00000000000E+00  0.00000000000E+00 -0.24921677726E+04  0.35294331473E+04  0.24991994988E+04 0.  0.
        2    1    3    3  502    0 -0.10043995121E+04  0.62996672448E+03 -0.68861590697E+03  0.13710829010E+04  0.25500000920E-02 0. -1.
       -2    1    3    3    0  502  0.10043995121E+04 -0.62996672448E+03 -0.18035518656E+04  0.21583502464E+04  0.25500000920E-02 0.  1.
</event>
<event>
 5   0  0.8997210E-07  0.2500517E+04  0.7818609E-02  0.8402801E-01
        2   -1    0    0  501    0  0.00000000000E+00  0.00000000000E+00  0.10023503256E+04  0.10023503256E+04  0.25500000920E-02 0. -1.
       -2   -1    0    0    0  501  0.00000000000E+00  0.00000000000E+00 -0.15594813503E+04  0.15594813503E+04  0.25500000920E-02 0.  1.
    10030    2    1    2    0    0  0.00000000000E+00  0.00000000000E+00 -0.55713102470E+03  0.25618316759E+04  0.25005172579E+04 0.  0.
        1    1    3    3  502    0 -0.83017473083E+03  0.88150708545E+03 -0.59748913459E+03  0.13502733395E+04  0.50400001928E-02 0.  1.
       -1    1    3    3    0  502  0.83017473083E+03 -0.88150708545E+03  0.40358109888E+02  0.12115583364E+04  0.50400001928E-02 0. -1.
</event>
<event>
 5   0  0.9251138E-07  0.2500103E+04  0.7818609E-02  0.8402949E-01
       -2   -1    0    0    0  501  0.00000000000E+00  0.00000000000E+00  0.88736218847E+03  0.88736218848E+03  0.25500000920E-02 0. -1.
        2   -1    0    0  501    0  0.00000000000E+00  0.00000000000E+00 -0.17609813546E+04  0.17609813546E+04  0.25500000920E-02 0.  1.
    10030    2    1    2    0    0  0.00000000000E+00  0.00000000000E+00 -0.87361916616E+03  0.26483435431E+04  0.25001026129E+04 0.  0.
        5    1    3    3  502    0  0.82814396119E+03 -0.63578643933E+03  0.29138035351E+03  0.10839609851E+04  0.46999998093E+01 0. -1.
       -5    1    3    3    0  502 -0.82814396119E+03  0.63578643933E+03 -0.11649995197E+04  0.15643825580E+04  0.46999998093E+01 0.  1.
</event>
<event>
 5   0  0.3805418E-07  0.2499418E+04  0.7818609E-02  0.8403193E-01
       -1   -1    0    0    0  501  0.00000000000E+00  0.00000000000E+00  0.75475415398E+03  0.75475415399E+03  0.50400001928E-02 0.  1.
        1   -1    0    0  501    0  0.00000000000E+00  0.00000000000E+00 -0.20692469308E+04  0.20692469308E+04  0.50400001928E-02 0. -1.
    10030    2    1    2    0    0  0.00000000000E+00  0.00000000000E+00 -0.13144927768E+04  0.28240010848E+04  0.24994181056E+04 0.  0.
        4    1    3    3  502    0 -0.16587380385E+03 -0.51848596700E+03  0.61375167394E+03  0.82038682762E+03  0.12699999809E+01 0.  1.
       -4    1    3    3    0  502  0.16587380385E+03  0.51848596700E+03 -0.19282444508E+04  0.20036142572E+04  0.12699999809E+01 0. -1.
</event>
<event>
 5   0  0.3991066E-07  0.2500202E+04  0.7818609E-02  0.8402914E-01
       -1   -1    0    0    0  501  0.00000000000E+00  0.00000000000E+00  0.65468491464E+03  0.65468491466E+03  0.50400001928E-02 0.  1.
        1   -1    0    0  501    0  0.00000000000E+00  0.00000000000E+00 -0.23870290801E+04  0.23870290801E+04  0.50400001928E-02 0. -1.
    10030    2    1    2    0    0  0.00000000000E+00  0.00000000000E+00 -0.17323441655E+04  0.30417139948E+04  0.25002015356E+04 0.  0.
        1    1    3    3  502    0 -0.35416644260E+03  0.92569941861E+03 -0.17930158932E+04  0.20487213759E+04  0.50400001928E-02 0. -1.
       -1    1    3    3    0  502  0.35416644260E+03 -0.92569941861E+03  0.60671727693E+02  0.99299261893E+03  0.50400001928E-02 0.  1.
</event>
<event>
 5   0  0.3972587E-07  0.2498935E+04  0.7818609E-02  0.8403365E-01
       -1   -1    0    0    0  501  0.00000000000E+00  0.00000000000E+00  0.16469916182E+04  0.16469916182E+04  0.50400001928E-02 0.  1.
        1   -1    0    0  501    0  0.00000000000E+00  0.00000000000E+00 -0.94789165402E+03  0.94789165404E+03  0.50400001928E-02 0. -1.
    10030    2    1    2    0    0  0.00000000000E+00  0.00000000000E+00  0.69909996416E+03  0.25948832722E+04  0.24989354607E+04 0.  0.
        3    1    3    3  502    0 -0.24164777398E+03 -0.10553000134E+03  0.16177702965E+04  0.16391189616E+04  0.10100000352E+00 0.  1.
       -3    1    3    3    0  502  0.24164777398E+03  0.10553000134E+03 -0.91867033231E+03  0.95576431065E+03  0.10100000352E+00 0. -1.
</event>
<event>
 5   0  0.9768582E-07  0.2499599E+04  0.7818609E-02  0.8403128E-01
       -2   -1    0    0    0  501  0.00000000000E+00  0.00000000000E+00  0.11005414502E+04  0.11005414502E+04  0.25500000920E-02 0.  1.
        2   -1    0    0  501    0  0.00000000000E+00  0.00000000000E+00 -0.14193008128E+04  0.14193008128E+04  0.25500000920E-02 0. -1.
    10030    2    1    2    0    0  0.00000000000E+00  0.00000000000E+00 -0.31875936255E+03  0.25198422630E+04  0.24995994678E+04 0.  0.
        3    1    3    3  502    0 -0.60603274666E+03  0.10434103442E+03  0.93747430453E+03  0.11211693999E+04  0.10100000352E+00 0.  1.
       -3    1    3    3    0  502  0.60603274666E+03 -0.10434103442E+03 -0.12562336671E+04  0.13986728631E+04  0.10100000352E+00 0. -1.
</event>
<event>
 5   0  0.9508784E-07  0.2503779E+04  0.7818609E-02  0.8401641E-01
       -2   -1    0    0    0  501  0.00000000000E+00  0.00000000000E+00  0.12229071161E+04  0.12229071161E+04  0.25500000920E-02 0. -1.
        2   -1    0    0  501    0  0.00000000000E+00  0.00000000000E+00 -0.12815584735E+04  0.12815584735E+04  0.25500000920E-02 0.  1.
    10030    2    1    2    0    0  0.00000000000E+00  0.00000000000E+00 -0.58651357327E+02  0.25044655896E+04  0.25037787258E+04 0.  0.
        2    1    3    3  502    0 -0.18454251473E+03  0.42884597927E+03 -0.11912217813E+04  0.12794429045E+04  0.25500000920E-02 0.  1.
       -2    1    3    3    0  502  0.18454251473E+03 -0.42884597927E+03  0.11325704240E+04  0.12250226851E+04  0.25500000920E-02 0. -1.
</event>
<event>
 5   0  0.3873231E-07  0.2499011E+04  0.7818609E-02  0.8403338E-01
       -1   -1    0    0    0  501  0.00000000000E+00  0.00000000000E+00  0.91666529315E+03  0.91666529316E+03  0.50400001928E-02 0. -1.
        1   -1    0    0  501    0  0.00000000000E+00  0.00000000000E+00 -0.17031994775E+04  0.17031994775E+04  0.50400001928E-02 0.  1.
    10030    2    1    2    0    0  0.00000000000E+00  0.00000000000E+00 -0.78653418436E+03  0.26198647707E+04  0.24990108830E+04 0.  0.
        2    1    3    3  502    0 -0.12193414607E+04  0.23178736744E+03 -0.54426330442E+03  0.13552643750E+04  0.25500000920E-02 0.  1.
       -2    1    3    3    0  502  0.12193414607E+04 -0.23178736744E+03 -0.24227087994E+03  0.12646003957E+04  0.25500000920E-02 0. -1.
</event>
<event>
 5   0  0.3873231E-07  0.2497430E+04  0.7818609E-02  0.8403902E-01
       -1   -1    0    0    0  501  0.00000000000E+00  0.00000000000E+00  0.97606950205E+03  0.97606950207E+03  0.50400001928E-02 0. -1.
        1   -1    0    0  501    0  0.00000000000E+00  0.00000000000E+00 -0.15975184241E+04  0.15975184241E+04  0.50400001928E-02 0.  1.
    10030    2    1    2    0    0  0.00000000000E+00  0.00000000000E+00 -0.62144892200E+03  0.25735879261E+04  0.24974298891E+04 0.  0.
        2    1    3    3  502    0 -0.41670135100E+03  0.45372167243E+03 -0.14300264060E+04  0.15570738241E+04  0.25500000920E-02 0.  1.
       -2    1    3    3    0  502  0.41670135100E+03 -0.45372167243E+03  0.80857748399E+03  0.10165141020E+04  0.25500000920E-02 0. -1.
</event>
<event>
 5   0  0.9261602E-07  0.2499273E+04  0.7818609E-02  0.8403245E-01
        2   -1    0    0  501    0  0.00000000000E+00  0.00000000000E+00  0.20108968649E+04  0.20108968649E+04  0.25500000920E-02 0.  1.
       -2   -1    0    0    0  501  0.00000000000E+00  0.00000000000E+00 -0.77656460948E+03  0.77656460949E+03  0.25500000920E-02 0. -1.
    10030    2    1    2    0    0  0.00000000000E+00  0.00000000000E+00  0.12343322554E+04  0.27874614744E+04  0.24992729652E+04 0.  0.
        4    1    3    3  502    0  0.10260357031E+04  0.71213870202E+03  0.66313703044E+03  0.14140873838E+04  0.12699999809E+01 0. -1.
       -4    1    3    3    0  502 -0.10260357031E+04 -0.71213870202E+03  0.57119522497E+03  0.13733740906E+04  0.12699999809E+01 0.  1.
</event>
<event>
 5   0  0.3972587E-07  0.2500299E+04  0.7818609E-02  0.8402879E-01
       -1   -1    0    0    0  501  0.00000000000E+00  0.00000000000E+00  0.17885518801E+04  0.17885518801E+04  0.50400001928E-02 0. -1.
        1   -1    0    0  501    0  0.00000000000E+00  0.00000000000E+00 -0.87382052584E+03  0.87382052586E+03  0.50400001928E-02 0.  1.
    10030    2    1    2    0    0  0.00000000000E+00  0.00000000000E+00  0.91473135423E+03  0.26623724059E+04  0.25002986577E+04 0.  0.
        3    1    3    3  502    0  0.45411940245E+03  0.11646577363E+04  0.47320468723E+03  0.13366281311E+04  0.10100000352E+00 0. -1.
       -3    1    3    3    0  502 -0.45411940245E+03 -0.11646577363E+04  0.44152666700E+03  0.13257442749E+04  0.10100000352E+00 0.  1.
</event>
<event>
 5   0  0.8997210E-07  0.2495845E+04  0.7818609E-02  0.8404467E-01
        2   -1    0    0  501    0  0.00000000000E+00  0.00000000000E+00  0.11796459741E+04  0.11796459741E+04  0.25500000920E-02 0.  1.
       -2   -1    0    0    0  501  0.00000000000E+00  0.00000000000E+00 -0.13201510968E+04  0.13201510968E+04  0.25500000920E-02 0. -1.
    10030    2    1    2    0    0  0.00000000000E+00  0.00000000000E+00 -0.14050512265E+03  0.24997970709E+04  0.24958452890E+04 0.  0.
        1    1    3    3  502    0 -0.45181492063E+03 -0.95164806631E+03  0.59979109704E+03  0.12122376519E+04  0.50400001928E-02 0.  1.
       -1    1    3    3    0  502  0.45181492063E+03  0.95164806631E+03 -0.74029621969E+03  0.12875594190E+04  0.50400001928E-02 0. -1.
</event>
<event>
 5   0  0.3873231E-07  0.2499941E+04  0.7818609E-02  0.8403006E-01
       -1   -1    0    0    0  501  0.00000000000E+00  0.00000000000E+00  0.88026263476E+03  0.88026263478E+03  0.50400001928E-02 0. -1.
        1   -1    0    0  501    0  0.00000000000E+00  0.00000000000E+00 -0.17749553090E+04  0.17749553090E+04  0.50400001928E-02 0.  1.
    10030    2    1    2    0    0  0.00000000000E+00  0.00000000000E+00 -0.89469267428E+03  0.26552179438E+04  0.24999414689E+04 0.  0.
        2    1    3    3  502    0 -0.87228740985E+03 -0.48505323036E+03 -0.12465917374E+04  0.15969198231E+04  0.25500000920E-02 0. -1.
       -2    1    3    3    0  502  0.87228740985E+03  0.48505323036E+03  0.35189906313E+03  0.10582981207E+04  0.25500000920E-02 0.  1.
</event>
<event>
 5   0  0.3805418E-07  0.2498484E+04  0.7818609E-02  0.8403526E-01
        1   -1    0    0  501    0  0.00000000000E+00  0.00000000000E+00  0.10944824852E+04  0.10944824853E+04  0.50400001928E-02 0. -1.
       -1   -1    0    0    0  501  0.00000000000E+00  0.00000000000E+00 -0.14258849863E+04  0.14258849863E+04  0.50400001928E-02 0.  1.
    10030    2    1    2    0    0  0.00000000000E+00  0.00000000000E+00 -0.33140250104E+03  0.25203674716E+04  0.24984844554E+04 0.  0.
        4    1    3    3  502    0 -0.60433732673E+03  0.95957041184E+03 -0.69431915649E+03  0.13296915747E+04  0.12699999809E+01 0.  1.
       -4    1    3    3    0  502  0.60433732673E+03 -0.95957041184E+03  0.36291665545E+03  0.11906758969E+04  0.12699999809E+01 0. -1.
</event>
<event>
 5   0  0.9261602E-07  0.2500419E+04  0.7818609E-02  0.8402836E-01
       -2   -1    0    0    0  501  0.00000000000E+00  0.00000000000E+00  0.88198682599E+03  0.88198682599E+03  0.25500000920E-02 0.  1.
        2   -1    0    0  501    0  0.00000000000E+00  0.00000000000E+00 -0.17721616312E+04  0.17721616312E+04  0.25500000920E-02 0. -1.
    10030    2    1    2    0    0  0.00000000000E+00  0.00000000000E+00 -0.89017480522E+03  0.26541484572E+04  0.25004185348E+04 0.  0.
        4    1    3    3  502    0  0.70395786447E+03  0.10183992144E+04 -0.26023115488E+03  0.12650752949E+04  0.12699999809E+01 0.  1.
       -4    1    3    3    0  502 -0.70395786447E+03 -0.10183992144E+04 -0.62994365033E+03  0.13890731623E+04  0.12699999809E+01 0. -1.
</event>
<event>
 5   0  0.9508784E-07  0.2499705E+04  0.7818609E-02  0.8403091E-01
       -2   -1    0    0    0  501  0.00000000000E+00  0.00000000000E+00  0.97692546273E+03  0.97692546273E+03  0.25500000920E-02 0. -1.
        2   -1    0    0  501    0  0.00000000000E+00  0.00000000000E+00 -0.15990281784E+04  0.15990281784E+04  0.25500000920E-02 0.  1.
    10030    2    1    2    0    0  0.00000000000E+00  0.00000000000E+00 -0.62210271563E+03  0.25759536411E+04  0.24997050571E+04 0.  0.
        2    1    3    3  502    0 -0.12449479203E+04 -0.10723543727E+03 -0.28308350297E+03  0.12812224760E+04  0.25500000920E-02 0.  1.
       -2    1    3    3    0  502  0.12449479203E+04  0.10723543727E+03 -0.33901921266E+03  0.12947311651E+04  0.25500000920E-02 0. -1.
</event>
<event>
 5   0  0.3837524E-07  0.2496843E+04  0.7818609E-02  0.8404111E-01
        1   -1    0    0  501    0  0.00000000000E+00  0.00000000000E+00  0.19916443835E+04  0.19916443835E+04  0.50400001928E-02 0. -1.
       -1   -1    0    0    0  501  0.00000000000E+00  0.00000000000E+00 -0.78254755590E+03  0.78254755592E+03  0.50400001928E-02 0.  1.
    10030    2    1    2    0    0  0.00000000000E+00  0.00000000000E+00  0.12090968276E+04  0.27741919394E+04  0.24968431625E+04 0.  0.
        5    1    3    3  502    0 -0.89052316565E+03  0.54840201587E+03 -0.15290986093E+03  0.10569672630E+04  0.46999998093E+01 0.  1.
       -5    1    3    3    0  502  0.89052316565E+03 -0.54840201587E+03  0.13620066885E+04  0.17172246764E+04  0.46999998093E+01 0. -1.
</event>
<event>
 5   0  0.9251138E-07  0.2499451E+04  0.7818609E-02  0.8403181E-01
       -2   -1    0    0    0  501  0.00000000000E+00  0.00000000000E+00  0.28594054026E+04  0.28594054026E+04  0.25500000920E-02 0. -1.
        2   -1    0    0  501    0  0.00000000000E+00  0.00000000000E+00 -0.54620249590E+03  0.54620249591E+03  0.25500000920E-02 0.  1.
    10030    2    1    2    0    0  0.00000000000E+00  0.00000000000E+00  0.23132029067E+04  0.34056078985E+04  0.24994514340E+04 0.  0.
        5    1    3    3  502    0 -0.34229794810E+03  0.20506321927E+03  0.27702641208E+04  0.27988576595E+04  0.46999998093E+01 0. -1.
       -5    1    3    3    0  502  0.34229794810E+03 -0.20506321927E+03 -0.45706121407E+03  0.60675023904E+03  0.46999998093E+01 0.  1.
</event>
<event>
 5   0  0.9508784E-07  0.2501573E+04  0.7818609E-02  0.8402425E-01
        2   -1    0    0  501    0  0.00000000000E+00  0.00000000000E+00  0.11810483262E+04  0.11810483262E+04  0.25500000920E-02 0.  1.
       -2   -1    0    0    0  501  0.00000000000E+00  0.00000000000E+00 -0.13246430279E+04  0.13246430279E+04  0.25500000920E-02 0. -1.
    10030    2    1    2    0    0  0.00000000000E+00  0.00000000000E+00 -0.14359470167E+03  0.25056913541E+04  0.25015734496E+04 0.  0.
        2    1    3    3  502    0  0.79375741639E+03  0.96276979819E+03 -0.15848986955E+03  0.12578138015E+04  0.25500000920E-02 0.  1.
       -2    1    3    3    0  502 -0.79375741639E+03 -0.96276979819E+03  0.14895167875E+02  0.12478775526E+04  0.25500000920E-02 0. -1.
</event>
<event>
 5   0  0.9251138E-07  0.2499066E+04  0.7818609E-02  0.8403318E-01
       -2   -1    0    0    0  501  0.00000000000E+00  0.00000000000E+00  0.10476572612E+04  0.10476572612E+04  0.25500000920E-02 0. -1.
        2   -1    0    0  501    0  0.00000000000E+00  0.00000000000E+00 -0.14903091002E+04  0.14903091002E+04  0.25500000920E-02 0.  1.
    10030    2    1    2    0    0  0.00000000000E+00  0.00000000000E+00 -0.44265183899E+03  0.25379663614E+04  0.24990663459E+04 0.  0.
        5    1    3    3  502    0 -0.97135563444E+02  0.51004937009E+03 -0.13755580838E+04  0.14702951437E+04  0.46999998093E+01 0.  1.
       -5    1    3    3    0  502  0.97135563444E+02 -0.51004937009E+03  0.93290624480E+03  0.10676712177E+04  0.46999998093E+01 0. -1.
</event>
<event>
 5   0  0.3972587E-07  0.2500974E+04  0.7818609E-02  0.8402639E-01
       -1   -1    0    0    0  501  0.00000000000E+00  0.00000000000E+00  0.14120029973E+04  0.14120029973E+04  0.50400001928E-02 0. -1.
        1   -1    0    0  501    0  0.00000000000E+00  0.00000000000E+00 -0.11074465617E+04  0.11074465617E+04  0.50400001928E-02 0.  1.
    10030    2    1    2    0    0  0.00000000000E+00  0.00000000000E+00  0.30455643557E+03  0.25194495590E+04  0.25009741019E+04 0.  0.
        3    1    3    3  502    0  0.57238326986E+03  0.10039041862E+04 -0.32902907809E+03  0.12015433272E+04  0.10100000352E+00 0.  1.
       -3    1    3    3    0  502 -0.57238326986E+03 -0.10039041862E+04  0.63358551366E+03  0.13179062319E+04  0.10100000352E+00 0. -1.
</event>
<event>
 5   0  0.8997210E-07  0.2499704E+04  0.7818609E-02  0.8403091E-01
        2   -1    0    0  501    0  0.00000000000E+00  0.00000000000E+00  0.18200059906E+04  0.18200059906E+04  0.25500000920E-02 0.  1.
       -2   -1    0    0    0  501  0.00000000000E+00  0.00000000000E+00 -0.85831051147E+03  0.85831051148E+03  0.25500000920E-02 0. -1.
    10030    2    1    2    0    0  0.00000000000E+00  0.00000000000E+00  0.96169547908E+03  0.26783165020E+04  0.24997042006E+04 0.  0.
        1    1    3    3  502    0 -0.20737973385E+03 -0.42241683293E+03 -0.75976754713E+03  0.89369405305E+03  0.50400001928E-02 0. -1.
       -1    1    3    3    0  502  0.20737973385E+03  0.42241683293E+03  0.17214630262E+04  0.17846224490E+04  0.50400001928E-02 0.  1.
</event>
<event>
 5   0  0.3972587E-07  0.2496535E+04  0.7818609E-02  0.8404221E-01
       -1   -1    0    0    0  501  0.00000000000E+00  0.00000000000E+00  0.92767182137E+03  0.92767182138E+03  0.50400001928E-02 0. -1.
        1   -1    0    0  501    0  0.00000000000E+00  0.00000000000E+00 -0.16796583648E+04  0.16796583648E+04  0.50400001928E-02 0.  1.
    10030    2    1    2    0    0  0.00000000000E+00  0.00000000000E+00 -0.75198654344E+03  0.26073301862E+04  0.24965349864E+04 0.  0.
        3    1    3    3  502    0 -0.30908478725E+03 -0.11408626827E+04  0.43153950420E+02  0.11827778068E+04  0.10100000352E+00 0. -1.
       -3    1    3    3    0  502  0.30908478725E+03  0.11408626827E+04 -0.79514049386E+03  0.14245523794E+04  0.10100000352E+00 0.  1.
</event>
<event>
 5   0  0.9508784E-07  0.2500361E+04  0.7818609E-02  0.8402857E-01
        2   -1    0    0  501    0  0.00000000000E+00  0.00000000000E+00  0.22932016792E+04  0.22932016792E+04  0.25500000920E-02 0. -1.
       -2   -1    0    0    0  501  0.00000000000E+00  0.00000000000E+00 -0.68155858539E+03  0.68155858539E+03  0.25500000920E-02 0.  1.
    10030    2    1    2    0    0  0.00000000000E+00  0.00000000000E+00  0.16116430939E+04  0.29747602646E+04  0.25003610080E+04 0.  0.
        2    1    3    3  502    0 -0.80391274650E+03  0.20854060290E+03 -0.30591718651E+03  0.88507073844E+03  0.25500000920E-02 0.  1.
       -2    1    3    3    0  502  0.80391274650E+03 -0.20854060290E+03  0.19175602804E+04  0.20896895262E+04  0.25500000920E-02 0. -1.
</event>
<event>
 5   0  0.9768582E-07  0.2500255E+04  0.7818609E-02  0.8402895E-01
       -2   -1    0    0    0  501  0.00000000000E+00  0.00000000000E+00  0.87140310284E+03  0.87140310285E+03  0.25500000920E-02 0.  1.
        2   -1    0    0  501    0  0.00000000000E+00  0.00000000000E+00 -0.17934502852E+04  0.17934502852E+04  0.25500000920E-02 0. -1.
    10030    2    1    2    0    0  0.00000000000E+00  0.00000000000E+00 -0.92204718231E+03  0.26648533880E+04  0.25002545017E+04 0.  0.
        3    1    3    3  502    0 -0.20260685755E+03  0.11667265694E+04 -0.34001271236E+02  0.11846757038E+04  0.10100000352E+00 0.  1.
       -3    1    3    3    0  502  0.20260685755E+03 -0.11667265694E+04 -0.88804591108E+03  0.14801776842E+04  0.10100000352E+00 0. -1.
</event>
<event>
 5   0  0.8997210E-07  0.2500083E+04  0.7818609E-02  0.8402956E-01
       -2   -1    0    0    0  501  0.00000000000E+00  0.00000000000E+00  0.45458870675E+03  0.45458870676E+03  0.25500000920E-02 0.  1.
        2   -1    0    0  501    0  0.00000000000E+00  0.00000000000E+00 -0.34374000814E+04  0.34374000814E+04  0.25500000920E-02 0. -1.
    10030    2    1    2    0    0  0.00000000000E+00  0.00000000000E+00 -0.29828113747E+04  0.38919887882E+04  0.25000826047E+04 0.  0.
        1    1    3    3  502    0  0.68275040032E+03  0.51464018861E+03 -0.71777461579E+02  0.85799454362E+03  0.50400001928E-02 0.  1.
       -1    1    3    3    0  502 -0.68275040032E+03 -0.51464018861E+03 -0.29110339131E+04  0.30339942446E+04  0.50400001928E-02 0. -1.
</event>
<event>
 5   0  0.9251138E-07  0.2499342E+04  0.7818609E-02  0.8403220E-01
       -2   -1    0    0    0  501  0.00000000000E+00  0.00000000000E+00  0.90536296187E+03  0.90536296187E+03  0.25500000920E-02 0.  1.
        2   -1    0    0  501    0  0.00000000000E+00  0.00000000000E+00 -0.17249182408E+04  0.17249182408E+04  0.25500000920E-02 0. -1.
    10030    2    1    2    0    0  0.00000000000E+00  0.00000000000E+00 -0.81955527896E+03  0.26302812027E+04  0.24993415833E+04 0.  0.
        5    1    3    3  502    0 -0.62514174878E+03 -0.83063234263E+03  0.32002457250E+03  0.10877454260E+04  0.46999998093E+01 0.  1.
       -5    1    3    3    0  502  0.62514174878E+03  0.83063234263E+03 -0.11395798515E+04  0.15425357767E+04  0.46999998093E+01 0. -1.
</event>
<event>
 5   0  0.3805418E-07  0.2500711E+04  0.7818609E-02  0.8402732E-01
        1   -1    0    0  501    0  0.00000000000E+00  0.00000000000E+00  0.11815436961E+04  0.11815436961E+04  0.50400001928E-02 0. -1.
       -1   -1    0    0    0  501  0.00000000000E+00  0.00000000000E+00 -0.13231751530E+04  0.13231751530E+04  0.50400001928E-02 0.  1.
    10030    2    1    2    0    0  0.00000000000E+00  0.00000000000E+00 -0.14163145691E+03  0.25047188492E+04  0.25007113076E+04 0.  0.
        4    1    3    3  502    0  0.40049515670E+03  0.10757124508E+04  0.42579534649E+03  0.12242781291E+04  0.12699999809E+01 0. -1.
       -4    1    3    3    0  502 -0.40049515670E+03 -0.10757124508E+04 -0.56742680339E+03  0.12804407200E+04  0.12699999809E+01 0.  1.
</event>
<event>
 5   0  0.3837524E-07  0.2500078E+04  0.7818609E-02  0.8402958E-01
        1   -1    0    0  501    0  0.00000000000E+00  0.00000000000E+00  0.12158086285E+04  0.12158086285E+04  0.50400001928E-02 0. -1.
       -1   -1    0    0    0  501  0.00000000000E+00  0.00000000000E+00 -0.12852330940E+04  0.12852330940E+04  0.50400001928E-02 0.  1.
    10030    2    1    2    0    0  0.00000000000E+00  0.00000000000E+00 -0.69424465552E+02  0.25010417225E+04  0.25000779871E+04 0.  0.
        5    1    3    3  502    0  0.67863028067E+03  0.40844953605E+03  0.93272069148E+03  0.12236666456E+04  0.46999998093E+01 0. -1.
       -5    1    3    3    0  502 -0.67863028067E+03 -0.40844953605E+03 -0.10021451570E+04  0.12773750769E+04  0.46999998093E+01 0.  1.
</event>
<event>
 5   0  0.9261602E-07  0.2493319E+04  0.7818609E-02  0.8405369E-01
       -2   -1    0    0    0  501  0.00000000000E+00  0.00000000000E+00  0.90447028803E+03  0.90447028803E+03  0.25500000920E-02 0. -1.
        2   -1    0    0  501    0  0.00000000000E+00  0.00000000000E+00 -0.17183099479E+04  0.17183099479E+04  0.25500000920E-02 0.  1.
    10030    2    1    2    0    0  0.00000000000E+00  0.00000000000E+00 -0.81383965987E+03  0.26227802359E+04  0.24933193085E+04 0.  0.
        4    1    3    3  502    0 -0.11042410129E+04  0.57862614210E+03 -0.40849902093E+03  0.13118801355E+04  0.12699999809E+01 0. -1.
       -4    1    3    3    0  502  0.11042410129E+04 -0.57862614210E+03 -0.40534063894E+03  0.13109001004E+04  0.12699999809E+01 0.  1.
</event>
<event>
 5   0  0.3805418E-07  0.2499882E+04  0.7818609E-02  0.8403027E-01
        1   -1    0    0  501    0  0.00000000000E+00  0.00000000000E+00  0.12064860042E+04  0.12064860042E+04  0.50400001928E-02 0. -1.
       -1   -1    0    0    0  501  0.00000000000E+00  0.00000000000E+00 -0.12949614908E+04  0.12949614908E+04  0.50400001928E-02 0.  1.
    10030    2    1    2    0    0  0.00000000000E+00  0.00000000000E+00 -0.88475486634E+02  0.25014474950E+04  0.24998823289E+04 0.  0.
        4    1    3    3  502    0  0.34408483390E+03 -0.15908962679E+03 -0.12360533306E+04  0.12928779259E+04  0.12699999809E+01 0.  1.
       -4    1    3    3    0  502 -0.34408483390E+03  0.15908962679E+03  0.11475778440E+04  0.12085695690E+04  0.12699999809E+01 0. -1.
</event>
<event>
 5   0  0.3991066E-07  0.2500790E+04  0.7818609E-02  0.8402704E-01
       -1   -1    0    0    0  501  0.00000000000E+00  0.00000000000E+00  0.78548270983E+03  0.78548270984E+03  0.50400001928E-02 0. -1.
        1   -1    0    0  501    0  0.00000000000E+00  0.00000000000E+00 -0.19904806678E+04  0.19904806678E+04  0.50400001928E-02 0.  1.
    10030    2    1    2    0    0  0.00000000000E+00  0.00000000000E+00 -0.12049979580E+04  0.27759633777E+04  0.25007903941E+04 0.  0.
        1    1    3    3  502    0  0.50257683027E+03  0.83953534348E+03  0.26167908548E+03  0.10128568542E+04  0.50400001928E-02 0.  1.
       -1    1    3    3    0  502 -0.50257683027E+03 -0.83953534348E+03 -0.14666770435E+04  0.17631065235E+04  0.50400001928E-02 0. -1.
</event>
<event>
 5   0  0.8997210E-07  0.2498916E+04  0.7818609E-02  0.8403372E-01
       -2   -1    0    0    0  501  0.00000000000E+00  0.00000000000E+00  0.93893794652E+03  0.93893794652E+03  0.25500000920E-02 0. -1.
        2   -1    0    0  501    0  0.00000000000E+00  0.00000000000E+00 -0.16626707615E+04  0.16626707615E+04  0.25500000920E-02 0.  1.
    10030    2    1    2    0    0  0.00000000000E+00  0.00000000000E+00 -0.72373281502E+03  0.26016087081E+04  0.24989155012E+04 0.  0.
        1    1    3    3  502    0 -0.84469485467E+02 -0.74290195623E+02 -0.16573880879E+04  0.16612011923E+04  0.50400001928E-02 0.  1.
       -1    1    3    3    0  502  0.84469485467E+02  0.74290195623E+02  0.93365527290E+03  0.94040751581E+03  0.50400001928E-02 0. -1.
</event>
<event>
 5   0  0.3837524E-07  0.2499678E+04  0.7818609E-02  0.8403100E-01
       -1   -1    0    0    0  501  0.00000000000E+00  0.00000000000E+00  0.93988899344E+03  0.93988899346E+03  0.50400001928E-02 0.  1.
        1   -1    0    0  501    0  0.00000000000E+00  0.00000000000E+00 -0.16620027801E+04  0.16620027801E+04  0.50400001928E-02 0. -1.
    10030    2    1    2    0    0  0.00000000000E+00  0.00000000000E+00 -0.72211378663E+03  0.26018917735E+04  0.24996784754E+04 0.  0.
        5    1    3    3  502    0  0.10602611208E+04 -0.16168146506E+03 -0.10289984858E+04  0.14863224799E+04  0.46999998093E+01 0. -1.
       -5    1    3    3    0  502 -0.10602611208E+04  0.16168146506E+03  0.30688469913E+03  0.11155692937E+04  0.46999998093E+01 0.  1.
</event>
<event>
 5   0  0.9261602E-07  0.2500296E+04  0.7818609E-02  0.8402880E-01
        2   -1    0    0  501    0  0.00000000000E+00  0.00000000000E+00  0.22129389070E+04  0.22129389070E+04  0.25500000920E-02 0. -1.
       -2   -1    0    0    0  501  0.00000000000E+00  0.00000000000E+00 -0.70624186420E+03  0.70624186420E+03  0.25500000920E-02 0.  1.
    10030    2    1    2    0    0  0.00000000000E+00  0.00000000000E+00  0.15066970428E+04  0.29191807712E+04  0.25002960617E+04 0.  0.
        4    1    3    3  502    0  0.10704096616E+04 -0.56114412056E+02  0.21759399299E+01  0.10718824648E+04  0.12699999809E+01 0.  1.
       -4    1    3    3    0  502 -0.10704096616E+04  0.56114412056E+02  0.15045211029E+04  0.18472983064E+04  0.12699999809E+01 0. -1.
</event>
<event>
 5   0  0.8997210E-07  0.2505699E+04  0.7818609E-02  0.8400958E-01
       -2   -1    0    0    0  501  0.00000000000E+00  0.00000000000E+00  0.74910880370E+03  0.74910880370E+03  0.25500000920E-02 0.  1.
        2   -1    0    0  501    0  0.00000000000E+00  0.00000000000E+00 -0.20953329616E+04  0.20953329617E+04  0.25500000920E-02 0. -1.
    10030    2    1    2    0    0  0.00000000000E+00  0.00000000000E+00 -0.13462241580E+04  0.28444417654E+04  0.25056993980E+04 0.  0.
        1    1    3    3  502    0 -0.46807045545E+03  0.77016875294E+03 -0.16610410330E+04  0.18897902456E+04  0.50400001928E-02 0. -1.
       -1    1    3    3    0  502  0.46807045545E+03 -0.77016875294E+03  0.31481687502E+03  0.95465151971E+03  0.50400001928E-02 0.  1.
</event>
<event>
 5   0  0.9768582E-07  0.2496763E+04  0.7818609E-02  0.8404140E-01
       -2   -1    0    0    0  501  0.00000000000E+00  0.00000000000E+00  0.65068693611E+03  0.65068693612E+03  0.25500000920E-02 0.  1.
        2   -1    0    0  501    0  0.00000000000E+00  0.00000000000E+00 -0.23950942409E+04  0.23950942409E+04  0.25500000920E-02 0. -1.
    10030    2    1    2    0    0  0.00000000000E+00  0.00000000000E+00 -0.17444073048E+04  0.30457811770E+04  0.24967631312E+04 0.  0.
        3    1    3    3  502    0  0.10421666080E+04  0.39485505848E+03 -0.18598352402E+03  0.11298723987E+04  0.10100000352E+00 0.  1.
       -3    1    3    3    0  502 -0.10421666080E+04 -0.39485505848E+03 -0.15584237807E+04  0.19159087783E+04  0.10100000352E+00 0. -1.
</event>
<event>
 5   0  0.9508784E-07  0.2501043E+04  0.7818609E-02  0.8402614E-01
       -2   -1    0    0    0  501  0.00000000000E+00  0.00000000000E+00  0.93908521380E+03  0.93908521380E+03  0.25500000920E-02 0. -1.
        2   -1    0    0  501    0  0.00000000000E+00  0.00000000000E+00 -0.16652414088E+04  0.16652414088E+04  0.25500000920E-02 0.  1.
    10030    2    1    2    0    0  0.00000000000E+00  0.00000000000E+00 -0.72615619496E+03  0.26043266226E+04  0.25010426501E+04 0.  0.
        2    1    3    3  502    0 -0.17744664221E+03  0.95863687071E+03  0.45241827132E+03  0.10747810256E+04  0.25500000920E-02 0. -1.
       -2    1    3    3    0  502  0.17744664221E+03 -0.95863687071E+03 -0.11785744663E+04  0.15295455970E+04  0.25500000920E-02 0.  1.
</event>
<event>
 5   0  0.8997210E-07  0.2500758E+04  0.7818609E-02  0.8402716E-01
       -2   -1    0    0    0  501  0.00000000000E+00  0.00000000000E+00  0.11917492174E+04  0.11917492174E+04  0.25500000920E-02 0. -1.
        2   -1    0    0  501    0  0.00000000000E+00  0.00000000000E+00 -0.13118926716E+04  0.13118926716E+04  0.25500000920E-02 0.  1.
    10030    2    1    2    0    0  0.00000000000E+00  0.00000000000E+00 -0.12014345421E+03  0.25036418891E+04  0.25007575371E+04 0.  0.
        1    1    3    3  502    0  0.35409221286E+03  0.11211658642E+04  0.36592212852E+03  0.12313785748E+04  0.50400001928E-02 0.  1.
       -1    1    3    3    0  502 -0.35409221286E+03 -0.11211658642E+04 -0.48606558273E+03  0.12722633143E+04  0.50400001928E-02 0. -1.
</event>
<event>
 5   0  0.9251138E-07  0.2499417E+04  0.7818609E-02  0.8403193E-01
       -2   -1    0    0    0  501  0.00000000000E+00  0.00000000000E+00  0.79113256505E+03  0.79113256506E+03  0.25500000920E-02 0.  1.
        2   -1    0    0  501    0  0.00000000000E+00  0.00000000000E+00 -0.19740963261E+04  0.19740963261E+04  0.25500000920E-02 0. -1.
    10030    2    1    2    0    0  0.00000000000E+00  0.00000000000E+00 -0.11829637611E+04  0.27652288912E+04  0.24994174443E+04 0.  0.
        5    1    3    3  502    0 -0.10102684057E+04 -0.45258764368E+03 -0.12330423926E+04  0.16570737639E+04  0.46999998093E+01 0. -1.
       -5    1    3    3    0  502  0.10102684057E+04  0.45258764368E+03  0.50078631557E+02  0.11081551273E+04  0.46999998093E+01 0.  1.
</event>
<event>
 5   0  0.9508784E-07  0.2500037E+04  0.7818609E-02  0.8402972E-01
       -2   -1    0    0    0  501  0.00000000000E+00  0.00000000000E+00  0.77866120346E+03  0.77866120347E+03  0.25500000920E-02 0.  1.
        2   -1    0    0  501    0  0.00000000000E+00  0.00000000000E+00 -0.20067084047E+04  0.20067084047E+04  0.25500000920E-02 0. -1.
    10030    2    1    2    0    0  0.00000000000E+00  0.00000000000E+00 -0.12280472012E+04  0.27853696081E+04  0.25000367848E+04 0.  0.
        2    1    3    3  502    0  0.31205558010E+02  0.26769026541E+03  0.74590795521E+03  0.79310184888E+03  0.25500000920E-02 0.  1.
       -2    1    3    3    0  502 -0.31205558010E+02 -0.26769026541E+03 -0.19739551564E+04  0.19922677592E+04  0.25500000920E-02 0. -1.
</event>
<event>
 5   0  0.3972587E-07  0.2500234E+04  0.7818609E-02  0.8402902E-01
        1   -1    0    0  501    0  0.00000000000E+00  0.00000000000E+00  0.16262173334E+04  0.16262173334E+04  0.50400001928E-02 0.  1.
       -1   -1    0    0    0  501  0.00000000000E+00  0.00000000000E+00 -0.96099820382E+03  0.96099820383E+03  0.50400001928E-02 0. -1.
    10030    2    1    2    0    0  0.00000000000E+00  0.00000000000E+00  0.66521912961E+03  0.25872155373E+04  0.25002335383E+04 0.  0.
        3    1    3    3  502    0 -0.12003917641E+04  0.21602280652E+02 -0.27914560403E+02  0.12009106039E+04  0.10100000352E+00 0. -1.
       -3    1    3    3    0  502  0.12003917641E+04 -0.21602280652E+02  0.69313369001E+03  0.13863049333E+04  0.10100000352E+00 0.  1.
</event>
<event>
 5   0  0.3991066E-07  0.2501275E+04  0.7818609E-02  0.8402531E-01
       -1   -1    0    0    0  501  0.00000000000E+00  0.00000000000E+00  0.10407549846E+04  0.10407549846E+04  0.50400001928E-02 0.  1.
        1   -1    0    0  501    0  0.00000000000E+00  0.00000000000E+00 -0.15028457768E+04  0.15028457768E+04  0.50400001928E-02 0. -1.
    10030    2    1    2    0    0  0.00000000000E+00  0.00000000000E+00 -0.46209079221E+03  0.25436007614E+04  0.25012750615E+04 0.  0.
        1    1    3    3  502    0 -0.11762278651E+04 -0.82541148551E+02 -0.65495562474E+03  0.13488112923E+04  0.50400001928E-02 0. -1.
       -1    1    3    3    0  502  0.11762278651E+04  0.82541148551E+02  0.19286483253E+03  0.11947894691E+04  0.50400001928E-02 0.  1.
</event>
<event>
 5   0  0.9261602E-07  0.2501265E+04  0.7818609E-02  0.8402535E-01
       -2   -1    0    0    0  501  0.00000000000E+00  0.00000000000E+00  0.13906227509E+04  0.13906227509E+04  0.25500000920E-02 0.  1.
        2   -1    0    0  501    0  0.00000000000E+00  0.00000000000E+00 -0.11247348603E+04  0.11247348603E+04  0.25500000920E-02 0. -1.
    10030    2    1    2    0    0  0.00000000000E+00  0.00000000000E+00  0.26588789066E+03  0.25153576112E+04  0.25012651882E+04 0.  0.
        4    1    3    3  502    0 -0.11980277126E+04  0.24710958176E+03  0.39469241933E+03  0.12853471377E+04  0.12699999809E+01 0.  1.
       -4    1    3    3    0  502  0.11980277126E+04 -0.24710958176E+03 -0.12880452867E+03  0.12300104735E+04  0.12699999809E+01 0. -1.
</event>
<event>
 5   0  0.9251138E-07  0.2500485E+04  0.7818609E-02  0.8402813E-01
       -2   -1    0    0    0  501  0.00000000000E+00  0.00000000000E+00  0.80712660729E+03  0.80712660729E+03  0.25500000920E-02 0. -1.
        2   -1    0    0  501    0  0.00000000000E+00  0.00000000000E+00 -0.19366312876E+04  0.19366312876E+04  0.25500000920E-02 0.  1.
    10030    2    1    2    0    0  0.00000000000E+00  0.00000000000E+00 -0.11295046804E+04  0.27437578949E+04  0.25004852655E+04 0.  0.
        5    1    3    3  502    0 -0.56646985184E+03  0.36431148923E+03 -0.17205451094E+04  0.18476765186E+04  0.46999998093E+01 0.  1.
       -5    1    3    3    0  502  0.56646985184E+03 -0.36431148923E+03  0.59104042899E+03  0.89608137629E+03  0.46999998093E+01 0. -1.
</event>
<event>
 5   0  0.9251138E-07  0.2499553E+04  0.7818609E-02  0.8403145E-01
       -2   -1    0    0    0  501  0.00000000000E+00  0.00000000000E+00  0.13038033694E+04  0.13038033694E+04  0.25500000920E-02 0. -1.
        2   -1    0    0  501    0  0.00000000000E+00  0.00000000000E+00 -0.11979884742E+04  0.11979884742E+04  0.25500000920E-02 0.  1.
    10030    2    1    2    0    0  0.00000000000E+00  0.00000000000E+00  0.10581489521E+03  0.25017918436E+04  0.24995530874E+04 0.  0.
        5    1    3    3  502    0 -0.56655708935E+03 -0.12336260404E+02 -0.10619933715E+04  0.12037404745E+04  0.46999998093E+01 0.  1.
       -5    1    3    3    0  502  0.56655708935E+03  0.12336260404E+02  0.11678082667E+04  0.12980513690E+04  0.46999998093E+01 0. -1.
</event>
<event>
 5   0  0.3805418E-07  0.2496659E+04  0.7818609E-02  0.8404177E-01
       -1   -1    0    0    0  501  0.00000000000E+00  0.00000000000E+00  0.62680595559E+03  0.62680595561E+03  0.50400001928E-02 0.  1.
        1   -1    0    0  501    0  0.00000000000E+00  0.00000000000E+00 -0.24861396138E+04  0.24861396138E+04  0.50400001928E-02 0. -1.
    10030    2    1    2    0    0  0.00000000000E+00  0.00000000000E+00 -0.18593336582E+04  0.31129455694E+04  0.24966594613E+04 0.  0.
        4    1    3    3  502    0 -0.94538557814E+03  0.38376703699E+03 -0.18264369644E+04  0.20921053099E+04  0.12699999809E+01 0. -1.
       -4    1    3    3    0  502  0.94538557814E+03 -0.38376703699E+03 -0.32896693829E+02  0.10208402595E+04  0.12699999809E+01 0.  1.
</event>
<event>
 5   0  0.3837524E-07  0.2498788E+04  0.7818609E-02  0.8403417E-01
       -1   -1    0    0    0  501  0.00000000000E+00  0.00000000000E+00  0.11255954909E+04  0.11255954910E+04  0.50400001928E-02 0. -1.
        1   -1    0    0  501    0  0.00000000000E+00  0.00000000000E+00 -0.13868082863E+04  0.13868082863E+04  0.50400001928E-02 0.  1.
    10030    2    1    2    0    0  0.00000000000E+00  0.00000000000E+00 -0.26121279540E+03  0.25124037773E+04  0.24987878293E+04 0.  0.
        5    1    3    3  502    0 -0.81461575325E+01 -0.10766893375E+04 -0.76780789996E+03  0.13224512659E+04  0.46999998093E+01 0.  1.
       -5    1    3    3    0  502  0.81461575325E+01  0.10766893375E+04  0.50659510456E+03  0.11899525114E+04  0.46999998093E+01 0. -1.
</event>
<event>
 5   0  0.8997210E-07  0.2499817E+04  0.7818609E-02  0.8403051E-01
       -2   -1    0    0    0  501  0.00000000000E+00  0.00000000000E+00  0.19311593869E+04  0.19311593869E+04  0.25500000920E-02 0.  1.
        2   -1    0    0  501    0  0.00000000000E+00  0.00000000000E+00 -0.80898113552E+03  0.80898113553E+03  0.25500000920E-02 0. -1.
    10030    2    1    2    0    0  0.00000000000E+00  0.00000000000E+00  0.11221782514E+04  0.27401405225E+04  0.24998172043E+04 0.  0.
        1    1    3    3  502    0  0.24939034821E+02  0.62990948693E+03  0.17441364544E+04  0.18545673050E+04  0.50400001928E-02 0.  1.
       -1    1    3    3    0  502 -0.24939034821E+02 -0.62990948693E+03 -0.62195820300E+03  0.88557321746E+03  0.50400001928E-02 0. -1.
</event>
<event>
 5   0  0.9261602E-07  0.2498077E+04  0.7818609E-02  0.8403671E-01
        2   -1    0    0  501    0  0.00000000000E+00  0.00000000000E+00  0.22740585048E+04  0.22740585048E+04  0.25500000920E-02 0.  1.
       -2   -1    0    0    0  501  0.00000000000E+00  0.00000000000E+00 -0.68604093056E+03  0.68604093056E+03  0.25500000920E-02 0. -1.
    10030    2    1    2    0    0  0.00000000000E+00  0.00000000000E+00  0.15880175743E+04  0.29600994354E+04  0.24980770307E+04 0.  0.
        4    1    3    3  502    0  0.53822570572E+03  0.58606212486E+02 -0.53977159562E+03  0.76451068455E+03  0.12699999809E+01 0. -1.
       -4    1    3    3    0  502 -0.53822570572E+03 -0.58606212486E+02  0.21277891699E+04  0.21955887508E+04  0.12699999809E+01 0.  1.
</event>
<event>
 5   0  0.9508784E-07  0.2500233E+04  0.7818609E-02  0.8402903E-01
        2   -1    0    0  501    0  0.00000000000E+00  0.00000000000E+00  0.15930282728E+04  0.15930282728E+04  0.25500000920E-02 0.  1.
       -2   -1    0    0    0  501  0.00000000000E+00  0.00000000000E+00 -0.98101912195E+03  0.98101912195E+03  0.25500000920E-02 0. -1.
    10030    2    1    2    0    0  0.00000000000E+00  0.00000000000E+00  0.61200915084E+03  0.25740473947E+04  0.25002329471E+04 0.  0.
        2    1    3    3  502    0 -0.82001087073E+03 -0.46631305760E+03 -0.53853413103E+03  0.10862249795E+04  0.25500000920E-02 0. -1.
       -2    1    3    3    0  502  0.82001087073E+03  0.46631305760E+03  0.11505432819E+04  0.14878224152E+04  0.25500000920E-02 0.  1.
</event>
<event>
 5   0  0.9508784E-07  0.2500749E+04  0.7818609E-02  0.8402719E-01
       -2   -1    0    0    0  501  0.00000000000E+00  0.00000000000E+00  0.14515960195E+04  0.14515960195E+04  0.25500000920E-02 0. -1.
        2   -1    0    0  501    0  0.00000000000E+00  0.00000000000E+00 -0.10770465818E+04  0.10770465818E+04  0.25500000920E-02 0.  1.
    10030    2    1    2    0    0  0.00000000000E+00  0.00000000000E+00  0.37454943772E+03  0.25286426013E+04  0.25007491125E+04 0.  0.
        2    1    3    3  502    0  0.80620687654E+03  0.16253541214E+03  0.11396128900E+04  0.14053842276E+04  0.25500000920E-02 0. -1.
       -2    1    3    3    0  502 -0.80620687654E+03 -0.16253541214E+03 -0.76506345232E+03  0.11232583737E+04  0.25500000920E-02 0.  1.
</event>
<event>
 5   0  0.3873231E-07  0.2500070E+04  0.7818609E-02  0.8402961E-01
        1   -1    0    0  501    0  0.00000000000E+00  0.00000000000E+00  0.13888749822E+04  0.13888749822E+04  0.50400001928E-02 0. -1.
       -1   -1    0    0    0  501  0.00000000000E+00  0.00000000000E+00 -0.11250744059E+04  0.11250744059E+04  0.50400001928E-02 0.  1.
    10030    2    1    2    0    0  0.00000000000E+00  0.00000000000E+00  0.26380057632E+03  0.25139493881E+04  0.25000701554E+04 0.  0.
        2    1    3    3  502    0 -0.97380536010E+02 -0.94889300069E+03 -0.68048753077E+03  0.11717270054E+04  0.25500000920E-02 0.  1.
       -2    1    3    3    0  502  0.97380536010E+02  0.94889300069E+03  0.94428810709E+03  0.13422223827E+04  0.25500000920E-02 0. -1.
</event>
<event>
 5   0  0.3972587E-07  0.2499942E+04  0.7818609E-02  0.8403006E-01
       -1   -1    0    0    0  501  0.00000000000E+00  0.00000000000E+00  0.11906486925E+04  0.11906486925E+04  0.50400001928E-02 0. -1.
        1   -1    0    0  501    0  0.00000000000E+00  0.00000000000E+00 -0.13122494703E+04  0.13122494703E+04  0.50400001928E-02 0.  1.
    10030    2    1    2    0    0  0.00000000000E+00  0.00000000000E+00 -0.12160077774E+03  0.25028981628E+04  0.24999424922E+04 0.  0.
        3    1    3    3  502    0  0.10528570154E+03 -0.10526507896E+04 -0.72737229963E+03  0.12838338040E+04  0.10100000352E+00 0.  1.
       -3    1    3    3    0  502 -0.10528570154E+03  0.10526507896E+04  0.60577152189E+03  0.12190643588E+04  0.10100000352E+00 0. -1.
</event>
<event>
 5   0  0.9251138E-07  0.2500456E+04  0.7818609E-02  0.8402823E-01
       -2   -1    0    0    0  501  0.00000000000E+00  0.00000000000E+00  0.78440364298E+03  0.78440364299E+03  0.25500000920E-02 0.  1.
        2   -1    0    0  501    0  0.00000000000E+00  0.00000000000E+00 -0.19926863481E+04  0.19926863481E+04  0.25500000920E-02 0. -1.
    10030    2    1    2    0    0  0.00000000000E+00  0.00000000000E+00 -0.12082827052E+04  0.27770899911E+04  0.25004563030E+04 0.  0.
        5    1    3    3  502    0 -0.84754623950E+03  0.28986665279E+03 -0.15728090853E+04  0.18100021584E+04  0.46999998093E+01 0. -1.
       -5    1    3    3    0  502  0.84754623950E+03 -0.28986665279E+03  0.36452638013E+03  0.96708783277E+03  0.46999998093E+01 0.  1.
</event>
<event>
 5   0  0.8997210E-07  0.2499364E+04  0.7818609E-02  0.8403212E-01
        2   -1    0    0  501    0  0.00000000000E+00  0.00000000000E+00  0.89479900288E+03  0.89479900288E+03  0.25500000920E-02 0. -1.
       -2   -1    0    0    0  501  0.00000000000E+00  0.00000000000E+00 -0.17453143312E+04  0.17453143312E+04  0.25500000920E-02 0.  1.
    10030    2    1    2    0    0  0.00000000000E+00  0.00000000000E+00 -0.85051532830E+03  0.26401133341E+04  0.24993643378E+04 0.  0.
        1    1    3    3  502    0 -0.65428870102E+03  0.19851365800E+03  0.67969120015E+03  0.96409621111E+03  0.50400001928E-02 0. -1.
       -1    1    3    3    0  502  0.65428870102E+03 -0.19851365800E+03 -0.15302065284E+04  0.16760171229E+04  0.50400001928E-02 0.  1.
</event>
<event>
 5   0  0.3805418E-07  0.2500302E+04  0.7818609E-02  0.8402878E-01
       -1   -1    0    0    0  501  0.00000000000E+00  0.00000000000E+00  0.93403738540E+03  0.93403738541E+03  0.50400001928E-02 0.  1.
        1   -1    0    0  501    0  0.00000000000E+00  0.00000000000E+00 -0.16732489491E+04  0.16732489491E+04  0.50400001928E-02 0. -1.
    10030    2    1    2    0    0  0.00000000000E+00  0.00000000000E+00 -0.73921156369E+03  0.26072863345E+04  0.25003016406E+04 0.  0.
        4    1    3    3  502    0 -0.76418266947E+03  0.23189709757E+03 -0.13725950978E+04  0.15880082908E+04  0.12699999809E+01 0. -1.
       -4    1    3    3    0  502  0.76418266947E+03 -0.23189709757E+03  0.63338353412E+03  0.10192780437E+04  0.12699999809E+01 0.  1.
</event>
<event>
 5   0  0.3972587E-07  0.2503364E+04  0.7818609E-02  0.8401788E-01
       -1   -1    0    0    0  501  0.00000000000E+00  0.00000000000E+00  0.17105826351E+04  0.17105826351E+04  0.50400001928E-02 0.  1.
        1   -1    0    0  501    0  0.00000000000E+00  0.00000000000E+00 -0.91589139664E+03  0.91589139665E+03  0.50400001928E-02 0. -1.
    10030    2    1    2    0    0  0.00000000000E+00  0.00000000000E+00  0.79469123844E+03  0.26264740317E+04  0.25033640716E+04 0.  0.
        3    1    3    3  502    0 -0.76514558194E+03 -0.91329899666E+03  0.79980493388E+03  0.14350089760E+04  0.10100000352E+00 0.  1.
       -3    1    3    3    0  502  0.76514558194E+03  0.91329899666E+03 -0.51136954343E+01  0.11914650557E+04  0.10100000352E+00 0. -1.
</event>
<event>
 5   0  0.9251138E-07  0.2500143E+04  0.7818609E-02  0.8402934E-01
        2   -1    0    0  501    0  0.00000000000E+00  0.00000000000E+00  0.13856739442E+04  0.13856739442E+04  0.25500000920E-02 0.  1.
       -2   -1    0    0    0  501  0.00000000000E+00  0.00000000000E+00 -0.11277395075E+04  0.11277395075E+04  0.25500000920E-02 0. -1.
    10030    2    1    2    0    0  0.00000000000E+00  0.00000000000E+00  0.25793443663E+03  0.25134134517E+04  0.25001433970E+04 0.  0.
        5    1    3    3  502    0 -0.12334179970E+04 -0.18941952945E+03  0.20323386598E+03  0.12643282041E+04  0.46999998093E+01 0.  1.
       -5    1    3    3    0  502  0.12334179970E+04  0.18941952945E+03  0.54700570651E+02  0.12490852476E+04  0.46999998093E+01 0. -1.
</event>
<event>
 5   0  0.9251138E-07  0.2500135E+04  0.7818609E-02  0.8402937E-01
       -2   -1    0    0    0  501  0.00000000000E+00  0.00000000000E+00  0.65156342331E+03  0.65156342331E+03  0.25500000920E-02 0.  1.
        2   -1    0    0  501    0  0.00000000000E+00  0.00000000000E+00 -0.23983375660E+04  0.23983375660E+04  0.25500000920E-02 0. -1.
    10030    2    1    2    0    0  0.00000000000E+00  0.00000000000E+00 -0.17467741426E+04  0.30499009893E+04  0.25001352241E+04 0.  0.
        5    1    3    3  502    0 -0.15706863698E+03 -0.32962357035E+03  0.58504998280E+03  0.68965776094E+03  0.46999998093E+01 0.  1.
       -5    1    3    3    0  502  0.15706863698E+03  0.32962357035E+03 -0.23318241254E+04  0.23602432283E+04  0.46999998093E+01 0. -1.
</event>
<event>
 5   0  0.9508784E-07  0.2501106E+04  0.7818609E-02  0.8402592E-01
        2   -1    0    0  501    0  0.00000000000E+00  0.00000000000E+00  0.16084430049E+04  0.16084430049E+04  0.25500000920E-02 0.  1.
       -2   -1    0    0    0  501  0.00000000000E+00  0.00000000000E+00 -0.97229616653E+03  0.97229616654E+03  0.25500000920E-02 0. -1.
    10030    2    1    2    0    0  0.00000000000E+00  0.00000000000E+00  0.63614683833E+03  0.25807391714E+04  0.25011061295E+04 0.  0.
        2    1    3    3  502    0 -0.58056454111E+03  0.15664133095E+03 -0.81332831712E+03  0.10114814108E+04  0.25500000920E-02 0. -1.
       -2    1    3    3    0  502  0.58056454111E+03 -0.15664133095E+03  0.14494751555E+04  0.15692577606E+04  0.25500000920E-02 0.  1.
</event>
<event>
 5   0  0.9261602E-07  0.2499312E+04  0.7818609E-02  0.8403231E-01
        2   -1    0    0  501    0  0.00000000000E+00  0.00000000000E+00  0.24544762649E+04  0.24544762649E+04  0.25500000920E-02 0.  1.
       -2   -1    0    0    0  501  0.00000000000E+00  0.00000000000E+00 -0.63624153756E+03  0.63624153757E+03  0.25500000920E-02 0. -1.
    10030    2    1    2    0    0  0.00000000000E+00  0.00000000000E+00  0.18182347273E+04  0.30907178025E+04  0.24993117074E+04 0.  0.
        4    1    3    3  502    0 -0.11037357964E+04  0.69413353257E+02  0.18954544003E+03  0.11220427838E+04  0.12699999809E+01 0. -1.
       -4    1    3    3    0  502  0.11037357964E+04 -0.69413353257E+02  0.16286892873E+04  0.19686750187E+04  0.12699999809E+01 0.  1.
</event>
<event>
 5   0  0.3991066E-07  0.2500167E+04  0.7818609E-02  0.8402926E-01
       -1   -1    0    0    0  501  0.00000000000E+00  0.00000000000E+00  0.57707444444E+03  0.57707444446E+03  0.50400001928E-02 0. -1.
        1   -1    0    0  501    0  0.00000000000E+00  0.00000000000E+00 -0.27079853981E+04  0.27079853981E+04  0.50400001928E-02 0.  1.
    10030    2    1    2    0    0  0.00000000000E+00  0.00000000000E+00 -0.21309109536E+04  0.32850598425E+04  0.25001673297E+04 0.  0.
        1    1    3    3  502    0  0.39817167187E+03 -0.10582900181E+04 -0.36500221730E+03  0.11881687849E+04  0.50400001928E-02 0. -1.
       -1    1    3    3    0  502 -0.39817167187E+03  0.10582900181E+04 -0.17659087363E+04  0.20968910577E+04  0.50400001928E-02 0.  1.
</event>
<event>
 5   0  0.3991066E-07  0.2499585E+04  0.7818609E-02  0.8403133E-01
        1   -1    0    0  501    0  0.00000000000E+00  0.00000000000E+00  0.11280767438E+04  0.11280767438E+04  0.50400001928E-02 0.  1.
       -1   -1    0    0    0  501  0.00000000000E+00  0.00000000000E+00 -0.13846407249E+04  0.13846407249E+04  0.50400001928E-02 0. -1.
    10030    2    1    2    0    0  0.00000000000E+00  0.00000000000E+00 -0.25656398110E+03  0.25127174687E+04  0.24995847657E+04 0.  0.
        1    1    3    3  502    0  0.73532086716E+03  0.94229846412E+03  0.23881856788E+03  0.12188754988E+04  0.50400001928E-02 0. -1.
       -1    1    3    3    0  502 -0.73532086716E+03 -0.94229846412E+03 -0.49538254899E+03  0.12938419699E+04  0.50400001928E-02 0.  1.
</event>
<event>
 5   0  0.3972587E-07  0.2500959E+04  0.7818609E-02  0.8402644E-01
       -1   -1    0    0    0  501  0.00000000000E+00  0.00000000000E+00  0.14261742803E+04  0.14261742803E+04  0.50400001928E-02 0. -1.
        1   -1    0    0  501    0  0.00000000000E+00  0.00000000000E+00 -0.10964292533E+04  0.10964292533E+04  0.50400001928E-02 0.  1.
    10030    2    1    2    0    0  0.00000000000E+00  0.00000000000E+00  0.32974502693E+03  0.25226035336E+04  0.25009591770E+04 0.  0.
        3    1    3    3  502    0  0.12041369658E+03 -0.87516477733E+03 -0.72782160777E+03  0.11446122264E+04  0.10100000352E+00 0.  1.
       -3    1    3    3    0  502 -0.12041369658E+03  0.87516477733E+03  0.10575666347E+04  0.13779913072E+04  0.10100000352E+00 0. -1.
</event>
<event>
 5   0  0.8997210E-07  0.2505573E+04  0.7818609E-02  0.8401003E-01
       -2   -1    0    0    0  501  0.00000000000E+00  0.00000000000E+00  0.19355707457E+04  0.19355707457E+04  0.25500000920E-02 0. -1.
        2   -1    0    0  501    0  0.00000000000E+00  0.00000000000E+00 -0.81085823850E+03  0.81085823850E+03  0.25500000920E-02 0.  1.
    10030    2    1    2    0    0  0.00000000000E+00  0.00000000000E+00  0.11247125072E+04  0.27464289842E+04  0.25055725775E+04 0.  0.
        1    1    3    3  502    0  0.37062129519E+03 -0.77212528263E+03  0.15645411930E+04  0.17836274109E+04  0.50400001928E-02 0. -1.
       -1    1    3    3    0  502 -0.37062129519E+03  0.77212528263E+03 -0.43982868581E+03  0.96280157323E+03  0.50400001928E-02 0.  1.
</event>
<event>
 5   0  0.3214375E-07  0.2503252E+04  0.7818609E-02  0.8401828E-01
       -3   -1    0    0    0  501  0.00000000000E+00  0.00000000000E+00  0.10439505794E+04  0.10439505843E+04  0.10100000352E+00 0.  1.
        3   -1    0    0  501    0  0.00000000000E+00  0.00000000000E+00 -0.15006152654E+04  0.15006152688E+04  0.10100000352E+00 0. -1.
    10030    2    1    2    0    0  0.00000000000E+00  0.00000000000E+00 -0.45666468602E+03  0.25445658531E+04  0.25032524334E+04 0.  0.
        5    1    3    3  502    0  0.46306619683E+03 -0.33146009253E+03 -0.13612896655E+04  0.14756109714E+04  0.46999998093E+01 0. -1.
       -5    1    3    3    0  502 -0.46306619683E+03  0.33146009253E+03  0.90462497950E+03  0.10689548817E+04  0.46999998093E+01 0.  1.
</event>
<event>
 5   0  0.9261602E-07  0.2499828E+04  0.7818609E-02  0.8403047E-01
        2   -1    0    0  501    0  0.00000000000E+00  0.00000000000E+00  0.12321963608E+04  0.12321963609E+04  0.25500000920E-02 0.  1.
       -2   -1    0    0    0  501  0.00000000000E+00  0.00000000000E+00 -0.12678860618E+04  0.12678860618E+04  0.25500000920E-02 0. -1.
    10030    2    1    2    0    0  0.00000000000E+00  0.00000000000E+00 -0.35689700952E+02  0.25000824227E+04  0.24998276671E+04 0.  0.
        4    1    3    3  502    0 -0.11585374805E+04 -0.10697211421E+03  0.43896296076E+03  0.12435200927E+04  0.12699999809E+01 0.  1.
       -4    1    3    3    0  502  0.11585374805E+04  0.10697211421E+03 -0.47465266172E+03  0.12565623300E+04  0.12699999809E+01 0. -1.
</event>
<event>
 5   0  0.3805418E-07  0.2500044E+04  0.7818609E-02  0.8402970E-01
       -1   -1    0    0    0  501  0.00000000000E+00  0.00000000000E+00  0.68447697163E+03  0.68447697165E+03  0.50400001928E-02 0. -1.
        1   -1    0    0  501    0  0.00000000000E+00  0.00000000000E+00 -0.22828455600E+04  0.22828455600E+04  0.50400001928E-02 0.  1.
    10030    2    1    2    0    0  0.00000000000E+00  0.00000000000E+00 -0.15983685883E+04  0.29673225316E+04  0.25000441721E+04 0.  0.
        4    1    3    3  502    0  0.11675286008E+04 -0.44534052250E+03 -0.83859228619E+03  0.15048886504E+04  0.12699999809E+01 0. -1.
       -4    1    3    3    0  502 -0.11675286008E+04  0.44534052250E+03 -0.75977630215E+03  0.14624338812E+04  0.12699999809E+01 0.  1.
</event>
<event>
 5   0  0.3837524E-07  0.2501440E+04  0.7818609E-02  0.8402473E-01
        1   -1    0    0  501    0  0.00000000000E+00  0.00000000000E+00  0.20829196721E+04  0.20829196721E+04  0.50400001928E-02 0.  1.
       -1   -1    0    0    0  501  0.00000000000E+00  0.00000000000E+00 -0.75101360243E+03  0.75101360244E+03  0.50400001928E-02 0. -1.
    10030    2    1    2    0    0  0.00000000000E+00  0.00000000000E+00  0.13319060696E+04  0.28339332745E+04  0.25014403903E+04 0.  0.
        5    1    3    3  502    0 -0.60013752784E+02 -0.51396185976E+03  0.19559513762E+04  0.20232464802E+04  0.46999998093E+01 0.  1.
       -5    1    3    3    0  502  0.60013752784E+02  0.51396185976E+03 -0.62404530654E+03  0.81068679428E+03  0.46999998093E+01 0. -1.
</event>
<event>
 5   0  0.8997210E-07  0.2501685E+04  0.7818609E-02  0.8402386E-01
       -2   -1    0    0    0  501  0.00000000000E+00  0.00000000000E+00  0.91886643304E+03  0.91886643305E+03  0.25500000920E-02 0. -1.
        2   -1    0    0  501    0  0.00000000000E+00  0.00000000000E+00 -0.17027572763E+04  0.17027572763E+04  0.25500000920E-02 0.  1.
    10030    2    1    2    0    0  0.00000000000E+00  0.00000000000E+00 -0.78389084323E+03  0.26216237093E+04  0.25016846362E+04 0.  0.
        1    1    3    3  502    0 -0.37829180083E+03  0.11170820178E+04  0.44720858642E+02  0.11802444138E+04  0.50400001928E-02 0. -1.
       -1    1    3    3    0  502  0.37829180083E+03 -0.11170820178E+04 -0.82861170188E+03  0.14413792955E+04  0.50400001928E-02 0.  1.
</event>
<event>
 5   0  0.3972587E-07  0.2499721E+04  0.7818609E-02  0.8403085E-01
        1   -1    0    0  501    0  0.00000000000E+00  0.00000000000E+00  0.10167422043E+04  0.10167422043E+04  0.50400001928E-02 0. -1.
       -1   -1    0    0    0  501  0.00000000000E+00  0.00000000000E+00 -0.15364280988E+04  0.15364280988E+04  0.50400001928E-02 0.  1.
    10030    2    1    2    0    0  0.00000000000E+00  0.00000000000E+00 -0.51968589449E+03  0.25531703031E+04  0.24997210180E+04 0.  0.
        3    1    3    3  502    0  0.33185301676E+03 -0.45820974301E+03 -0.13981542531E+04  0.15082831031E+04  0.10100000352E+00 0.  1.
       -3    1    3    3    0  502 -0.33185301676E+03  0.45820974301E+03  0.87846835866E+03  0.10448872000E+04  0.10100000352E+00 0. -1.
</event>
<event>
 5   0  0.9508784E-07  0.2502778E+04  0.7818609E-02  0.8401997E-01
       -2   -1    0    0    0  501  0.00000000000E+00  0.00000000000E+00  0.90952101646E+03  0.90952101647E+03  0.25500000920E-02 0. -1.
        2   -1    0    0  501    0  0.00000000000E+00  0.00000000000E+00 -0.17217573794E+04  0.17217573794E+04  0.25500000920E-02 0.  1.
    10030    2    1    2    0    0  0.00000000000E+00  0.00000000000E+00 -0.81223636289E+03  0.26312783958E+04  0.25027780739E+04 0.  0.
        2    1    3    3  502    0 -0.10930749845E+04  0.52629779078E+03 -0.72874903590E+03  0.14152305267E+04  0.25500000920E-02 0.  1.
       -2    1    3    3    0  502  0.10930749845E+04 -0.52629779078E+03 -0.83487326991E+02  0.12160478692E+04  0.25500000920E-02 0. -1.
</event>
<event>
 5   0  0.9508784E-07  0.2490858E+04  0.7818609E-02  0.8406250E-01
        2   -1    0    0  501    0  0.00000000000E+00  0.00000000000E+00  0.26416158147E+04  0.26416158147E+04  0.25500000920E-02 0. -1.
       -2   -1    0    0    0  501  0.00000000000E+00  0.00000000000E+00 -0.58717583330E+03  0.58717583330E+03  0.25500000920E-02 0.  1.
    10030    2    1    2    0    0  0.00000000000E+00  0.00000000000E+00  0.20544399814E+04  0.32287916480E+04  0.24908576573E+04 0.  0.
        2    1    3    3  502    0  0.89981426001E+03 -0.85926021196E+03  0.10993826635E+04  0.16603120355E+04  0.25500000920E-02 0.  1.
       -2    1    3    3    0  502 -0.89981426001E+03  0.85926021196E+03  0.95505731787E+03  0.15684796125E+04  0.25500000920E-02 0. -1.
</event>
<event>
 5   0  0.9261602E-07  0.2499083E+04  0.7818609E-02  0.8403312E-01
       -2   -1    0    0    0  501  0.00000000000E+00  0.00000000000E+00  0.77551736580E+03  0.77551736581E+03  0.25500000920E-02 0. -1.
        2   -1    0    0  501    0  0.00000000000E+00  0.00000000000E+00 -0.20133061814E+04  0.20133061814E+04  0.25500000920E-02 0.  1.
    10030    2    1    2    0    0  0.00000000000E+00  0.00000000000E+00 -0.12377888156E+04  0.27888235472E+04  0.24990829569E+04 0.  0.
        4    1    3    3  502    0 -0.14541108748E+03 -0.27438639491E+03 -0.19695583950E+04  0.19938892051E+04  0.12699999809E+01 0.  1.
       -4    1    3    3    0  502  0.14541108748E+03  0.27438639491E+03  0.73176957938E+03  0.79493434212E+03  0.12699999809E+01 0. -1.
</event>
<event>
 5   0  0.9768582E-07  0.2499982E+04  0.7818609E-02  0.8402992E-01
       -2   -1    0    0    0  501  0.00000000000E+00  0.00000000000E+00  0.10382288997E+04  0.10382288997E+04  0.25500000920E-02 0. -1.
        2   -1    0    0  501    0  0.00000000000E+00  0.00000000000E+00 -0.15049446837E+04  0.15049446837E+04  0.25500000920E-02 0.  1.
    10030    2    1    2    0    0  0.00000000000E+00  0.00000000000E+00 -0.46671578396E+03  0.25431735834E+04  0.24999816504E+04 0.  0.
        3    1    3    3  502    0  0.77713797382E+03 -0.50435752157E+03  0.62028055714E+03  0.11149295582E+04  0.10100000352E+00 0.  1.
       -3    1    3    3    0  502 -0.77713797382E+03  0.50435752157E+03 -0.10869963411E+04  0.14282440253E+04  0.10100000352E+00 0. -1.
</event>
<event>
 5   0  0.8997210E-07  0.2502229E+04  0.7818609E-02  0.8402192E-01
        2   -1    0    0  501    0  0.00000000000E+00  0.00000000000E+00  0.17205678232E+04  0.17205678232E+04  0.25500000920E-02 0.  1.
       -2   -1    0    0    0  501  0.00000000000E+00  0.00000000000E+00 -0.90975070349E+03  0.90975070349E+03  0.25500000920E-02 0. -1.
    10030    2    1    2    0    0  0.00000000000E+00  0.00000000000E+00  0.81081711971E+03  0.26303185267E+04  0.25022292362E+04 0.  0.
        1    1    3    3  502    0  0.65233539543E+03  0.61347052368E+03  0.13238625278E+04  0.15982801832E+04  0.50400001928E-02 0.  1.
       -1    1    3    3    0  502 -0.65233539543E+03 -0.61347052368E+03 -0.51304540811E+03  0.10320383435E+04  0.50400001928E-02 0. -1.
</event>
<event>
 5   0  0.9251138E-07  0.2501055E+04  0.7818609E-02  0.8402610E-01
       -2   -1    0    0    0  501  0.00000000000E+00  0.00000000000E+00  0.71647049731E+03  0.71647049732E+03  0.25500000920E-02 0. -1.
        2   -1    0    0  501    0  0.00000000000E+00  0.00000000000E+00 -0.21826704993E+04  0.21826704993E+04  0.25500000920E-02 0.  1.
    10030    2    1    2    0    0  0.00000000000E+00  0.00000000000E+00 -0.14662000020E+04  0.28991409966E+04  0.25010549919E+04 0.  0.
        5    1    3    3  502    0  0.75963791143E+03 -0.91961030585E+03 -0.29773422981E+03  0.12293903500E+04  0.46999998093E+01 0.  1.
       -5    1    3    3    0  502 -0.75963791143E+03  0.91961030585E+03 -0.11684657722E+04  0.16697506466E+04  0.46999998093E+01 0. -1.
</event>
<event>
 5   0  0.3805418E-07  0.2500771E+04  0.7818609E-02  0.8402711E-01
       -1   -1    0    0    0  501  0.00000000000E+00  0.00000000000E+00  0.63908459145E+03  0.63908459147E+03  0.50400001928E-02 0. -1.
        1   -1    0    0  501    0  0.00000000000E+00  0.00000000000E+00 -0.24464117176E+04  0.24464117176E+04  0.50400001928E-02 0.  1.
    10030    2    1    2    0    0  0.00000000000E+00  0.00000000000E+00 -0.18073271261E+04  0.30854963090E+04  0.25007711075E+04 0.  0.
        4    1    3    3  502    0 -0.15854435491E+03  0.10078188329E+03 -0.24288986869E+04  0.24361534731E+04  0.12699999809E+01 0.  1.
       -4    1    3    3    0  502  0.15854435491E+03 -0.10078188329E+03  0.62157156079E+03  0.64934283592E+03  0.12699999809E+01 0. -1.
</event>
<event>
 5   0  0.3837524E-07  0.2499476E+04  0.7818609E-02  0.8403172E-01
        1   -1    0    0  501    0  0.00000000000E+00  0.00000000000E+00  0.10681516523E+04  0.10681516523E+04  0.50400001928E-02 0. -1.
       -1   -1    0    0    0  501  0.00000000000E+00  0.00000000000E+00 -0.14621943058E+04  0.14621943058E+04  0.50400001928E-02 0.  1.
    10030    2    1    2    0    0  0.00000000000E+00  0.00000000000E+00 -0.39404265351E+03  0.25303459580E+04  0.24994761560E+04 0.  0.
        5    1    3    3  502    0 -0.15365227470E+02 -0.50994028798E+03 -0.13519655147E+04  0.14450287300E+04  0.46999998093E+01 0.  1.
       -5    1    3    3    0  502  0.15365227470E+02  0.50994028798E+03  0.95792286120E+03  0.10853172281E+04  0.46999998093E+01 0. -1.
</event>
<event>
 5   0  0.9261602E-07  0.2499912E+04  0.7818609E-02  0.8403017E-01
       -2   -1    0    0    0  501  0.00000000000E+00  0.00000000000E+00  0.11646462466E+04  0.11646462466E+04  0.25500000920E-02 0. -1.
        2   -1    0    0  501    0  0.00000000000E+00  0.00000000000E+00 -0.13415146319E+04  0.13415146319E+04  0.25500000920E-02 0.  1.
    10030    2    1    2    0    0  0.00000000000E+00  0.00000000000E+00 -0.17686838536E+03  0.25061608785E+04  0.24999119831E+04 0.  0.
        4    1    3    3  502    0 -0.14645008718E+02 -0.73897241280E+03  0.92210020198E+03  0.11817635544E+04  0.12699999809E+01 0. -1.
       -4    1    3    3    0  502  0.14645008718E+02  0.73897241280E+03 -0.10989685873E+04  0.13243973241E+04  0.12699999809E+01 0.  1.
</event>
<event>
 5   0  0.9508784E-07  0.2500418E+04  0.7818609E-02  0.8402837E-01
        2   -1    0    0  501    0  0.00000000000E+00  0.00000000000E+00  0.13342683634E+04  0.13342683634E+04  0.25500000920E-02 0.  1.
       -2   -1    0    0    0  501  0.00000000000E+00  0.00000000000E+00 -0.11714451874E+04  0.11714451874E+04  0.25500000920E-02 0. -1.
    10030    2    1    2    0    0  0.00000000000E+00  0.00000000000E+00  0.16282317607E+03  0.25057135508E+04  0.25004177675E+04 0.  0.
        2    1    3    3  502    0 -0.42806608332E+03 -0.83038824243E+03 -0.75115308363E+03  0.11987560886E+04  0.25500000920E-02 0. -1.
       -2    1    3    3    0  502  0.42806608332E+03  0.83038824243E+03  0.91397625969E+03  0.13069574623E+04  0.25500000920E-02 0.  1.
</event>
<event>
 5   0  0.3837524E-07  0.2498157E+04  0.7818609E-02  0.8403643E-01
       -1   -1    0    0    0  501  0.00000000000E+00  0.00000000000E+00  0.59193841909E+03  0.59193841911E+03  0.50400001928E-02 0.  1.
        1   -1    0    0  501    0  0.00000000000E+00  0.00000000000E+00 -0.26357415086E+04  0.26357415086E+04  0.50400001928E-02 0. -1.
    10030    2    1    2    0    0  0.00000000000E+00  0.00000000000E+00 -0.20438030895E+04  0.32276799277E+04  0.24981566499E+04 0.  0.
        5    1    3    3  502    0  0.36781137723E+03  0.10113612827E+03 -0.25586293891E+04  0.25869132507E+04  0.46999998093E+01 0. -1.
       -5    1    3    3    0  502 -0.36781137723E+03 -0.10113612827E+03  0.51482629960E+03  0.64076667705E+03  0.46999998093E+01 0.  1.
</event>
<event>
 5   0  0.3873231E-07  0.2500007E+04  0.7818609E-02  0.8402983E-01
        1   -1    0    0  501    0  0.00000000000E+00  0.00000000000E+00  0.16463192525E+04  0.16463192525E+04  0.50400001928E-02 0.  1.
       -1   -1    0    0    0  501  0.00000000000E+00  0.00000000000E+00 -0.94909206962E+03  0.94909206963E+03  0.50400001928E-02 0. -1.
    10030    2    1    2    0    0  0.00000000000E+00  0.00000000000E+00  0.69722718290E+03  0.25954113222E+04  0.25000068373E+04 0.  0.
        2    1    3    3  502    0  0.81247212742E+03 -0.22819073886E+03  0.13059352282E+04  0.15548790279E+04  0.25500000920E-02 0.  1.
       -2    1    3    3    0  502 -0.81247212742E+03  0.22819073886E+03 -0.60870804525E+03  0.10405322943E+04  0.25500000920E-02 0. -1.
</event>
<event>
 5   0  0.9251138E-07  0.2499941E+04  0.7818609E-02  0.8403007E-01
        2   -1    0    0  501    0  0.00000000000E+00  0.00000000000E+00  0.24638848244E+04  0.24638848244E+04  0.25500000920E-02 0. -1.
       -2   -1    0    0    0  501  0.00000000000E+00  0.00000000000E+00 -0.63413104810E+03  0.63413104811E+03  0.25500000920E-02 0.  1.
    10030    2    1    2    0    0  0.00000000000E+00  0.00000000000E+00  0.18297537763E+04  0.30980158725E+04  0.24999406922E+04 0.  0.
        5    1    3    3  502    0 -0.57374444723E+03  0.25551064379E+03 -0.42437831746E+03  0.75801545244E+03  0.46999998093E+01 0.  1.
       -5    1    3    3    0  502  0.57374444723E+03 -0.25551064379E+03  0.22541320937E+04  0.23400004201E+04  0.46999998093E+01 0. -1.
</event>
<event>
 5   0  0.3873231E-07  0.2499988E+04  0.7818609E-02  0.8402990E-01
        1   -1    0    0  501    0  0.00000000000E+00  0.00000000000E+00  0.12279530996E+04  0.12279530996E+04  0.50400001928E-02 0.  1.
       -1   -1    0    0    0  501  0.00000000000E+00  0.00000000000E+00 -0.12724307444E+04  0.12724307444E+04  0.50400001928E-02 0. -1.
    10030    2    1    2    0    0  0.00000000000E+00  0.00000000000E+00 -0.44477644828E+02  0.25003838440E+04  0.24999882213E+04 0.  0.
        2    1    3    3  502    0  0.28460333058E+03 -0.12166554812E+04  0.12918708944E+02  0.12495665283E+04  0.25500000920E-02 0.  1.
       -2    1    3    3    0  502 -0.28460333058E+03  0.12166554812E+04 -0.57396353772E+02  0.12508173157E+04  0.25500000920E-02 0. -1.
</event>
<event>
 5   0  0.3972587E-07  0.2500757E+04  0.7818609E-02  0.8402716E-01
       -1   -1    0    0    0  501  0.00000000000E+00  0.00000000000E+00  0.85871520325E+03  0.85871520327E+03  0.50400001928E-02 0. -1.
        1   -1    0    0  501    0  0.00000000000E+00  0.00000000000E+00 -0.18206816354E+04  0.18206816355E+04  0.50400001928E-02 0.  1.
    10030    2    1    2    0    0  0.00000000000E+00  0.00000000000E+00 -0.96196643220E+03  0.26793968387E+04  0.25007574858E+04 0.  0.
        3    1    3    3  502    0 -0.53339934519E+03  0.27369482266E+02  0.73034543222E+03  0.90480296782E+03  0.10100000352E+00 0. -1.
       -3    1    3    3    0  502  0.53339934519E+03 -0.27369482266E+02 -0.16923118644E+04  0.17745938709E+04  0.10100000352E+00 0.  1.
</event>
<event>
 5   0  0.3991066E-07  0.2499609E+04  0.7818609E-02  0.8403125E-01
        1   -1    0    0  501    0  0.00000000000E+00  0.00000000000E+00  0.11636983180E+04  0.11636983180E+04  0.50400001928E-02 0.  1.
       -1   -1    0    0    0  501  0.00000000000E+00  0.00000000000E+00 -0.13422822543E+04  0.13422822543E+04  0.50400001928E-02 0. -1.
    10030    2    1    2    0    0  0.00000000000E+00  0.00000000000E+00 -0.17858393630E+03  0.25059805723E+04  0.24996092507E+04 0.  0.
        1    1    3    3  502    0  0.65263170258E+03  0.72338783335E+03 -0.87409858003E+03  0.13089180357E+04  0.50400001928E-02 0. -1.
       -1    1    3    3    0  502 -0.65263170258E+03 -0.72338783335E+03  0.69551464373E+03  0.11970625365E+04  0.50400001928E-02 0.  1.
</event>
<event>
 5   0  0.8997210E-07  0.2498038E+04  0.7818609E-02  0.8403685E-01
       -2   -1    0    0    0  501  0.00000000000E+00  0.00000000000E+00  0.78298394176E+03  0.78298394177E+03  0.25500000920E-02 0. -1.
        2   -1    0    0  501    0  0.00000000000E+00  0.00000000000E+00 -0.19924397051E+04  0.19924397051E+04  0.25500000920E-02 0.  1.
    10030    2    1    2    0    0  0.00000000000E+00  0.00000000000E+00 -0.12094557634E+04  0.27754236469E+04  0.24980378653E+04 0.  0.
        1    1    3    3  502    0 -0.45362689453E+03 -0.12940593403E+03  0.68020732132E+03  0.82777125778E+03  0.50400001928E-02 0. -1.
       -1    1    3    3    0  502  0.45362689453E+03  0.12940593403E+03 -0.18896630847E+04  0.19476523891E+04  0.50400001928E-02 0.  1.
</event>
<event>
 5   0  0.9768582E-07  0.2496987E+04  0.7818609E-02  0.8404060E-01
        2   -1    0    0  501    0  0.00000000000E+00  0.00000000000E+00  0.19721959022E+04  0.19721959023E+04  0.25500000920E-02 0. -1.
       -2   -1    0    0    0  501  0.00000000000E+00  0.00000000000E+00 -0.79035539340E+03  0.79035539341E+03  0.25500000920E-02 0.  1.
    10030    2    1    2    0    0  0.00000000000E+00  0.00000000000E+00  0.11818405088E+04  0.27625512957E+04  0.24969867186E+04 0.  0.
        3    1    3    3  502    0  0.48378596910E+03  0.10128005386E+04  0.11958054546E+04  0.16400501488E+04  0.10100000352E+00 0. -1.
       -3    1    3    3    0  502 -0.48378596910E+03 -0.10128005386E+04 -0.13964945796E+02  0.11225011469E+04  0.10100000352E+00 0.  1.
</event>
<event>
 5   0  0.9251138E-07  0.2499776E+04  0.7818609E-02  0.8403065E-01
       -2   -1    0    0    0  501  0.00000000000E+00  0.00000000000E+00  0.13339576616E+04  0.13339576616E+04  0.25500000920E-02 0.  1.
        2   -1    0    0  501    0  0.00000000000E+00  0.00000000000E+00 -0.11711162779E+04  0.11711162779E+04  0.25500000920E-02 0. -1.
    10030    2    1    2    0    0  0.00000000000E+00  0.00000000000E+00  0.16284138372E+03  0.25050739395E+04  0.24997756152E+04 0.  0.
        5    1    3    3  502    0 -0.44749774442E+03  0.76301746141E+03  0.96632545952E+03  0.13100598694E+04  0.46999998093E+01 0.  1.
       -5    1    3    3    0  502  0.44749774442E+03 -0.76301746141E+03 -0.80348407580E+03  0.11950140701E+04  0.46999998093E+01 0. -1.
</event>
<event>
 5   0  0.9261602E-07  0.2499737E+04  0.7818609E-02  0.8403079E-01
       -2   -1    0    0    0  501  0.00000000000E+00  0.00000000000E+00  0.83727760053E+03  0.83727760054E+03  0.25500000920E-02 0. -1.
        2   -1    0    0  501    0  0.00000000000E+00  0.00000000000E+00 -0.18657739428E+04  0.18657739428E+04  0.25500000920E-02 0.  1.
    10030    2    1    2    0    0  0.00000000000E+00  0.00000000000E+00 -0.10284963423E+04  0.27030515433E+04  0.24997365701E+04 0.  0.
        4    1    3    3  502    0 -0.31345358159E+03 -0.73504001069E+03 -0.15534732162E+04  0.17469452228E+04  0.12699999809E+01 0.  1.
       -4    1    3    3    0  502  0.31345358159E+03  0.73504001069E+03  0.52497687392E+03  0.95610632054E+03  0.12699999809E+01 0. -1.
</event>
<event>
 5   0  0.8997210E-07  0.2500402E+04  0.7818609E-02  0.8402842E-01
        2   -1    0    0  501    0  0.00000000000E+00  0.00000000000E+00  0.10400849815E+04  0.10400849815E+04  0.25500000920E-02 0.  1.
       -2   -1    0    0    0  501  0.00000000000E+00  0.00000000000E+00 -0.15027647530E+04  0.15027647530E+04  0.25500000920E-02 0. -1.
    10030    2    1    2    0    0  0.00000000000E+00  0.00000000000E+00 -0.46267977155E+03  0.25428497345E+04  0.25004024079E+04 0.  0.
        1    1    3    3  502    0  0.61487599027E+03 -0.61135269751E+03  0.68460425704E+03  0.11047658543E+04  0.50400001928E-02 0.  1.
       -1    1    3    3    0  502 -0.61487599027E+03  0.61135269751E+03 -0.11472840286E+04  0.14380838802E+04  0.50400001928E-02 0. -1.
</event>
<event>
 5   0  0.3873231E-07  0.2500096E+04  0.7818609E-02  0.8402951E-01
       -1   -1    0    0    0  501  0.00000000000E+00  0.00000000000E+00  0.10286604777E+04  0.10286604777E+04  0.50400001928E-02 0.  1.
        1   -1    0    0  501    0  0.00000000000E+00  0.00000000000E+00 -0.15190822067E+04  0.15190822067E+04  0.50400001928E-02 0. -1.
    10030    2    1    2    0    0  0.00000000000E+00  0.00000000000E+00 -0.49042172901E+03  0.25477426845E+04  0.25000958610E+04 0.  0.
        2    1    3    3  502    0 -0.51803464496E+03 -0.47222499555E+03  0.80953311185E+03  0.10708408841E+04  0.25500000920E-02 0.  1.
       -2    1    3    3    0  502  0.51803464496E+03  0.47222499555E+03 -0.12999548409E+04  0.14769018004E+04  0.25500000920E-02 0. -1.
</event>
<event>
 5   0  0.3972587E-07  0.2499613E+04  0.7818609E-02  0.8403124E-01
        1   -1    0    0  501    0  0.00000000000E+00  0.00000000000E+00  0.11795351711E+04  0.11795351711E+04  0.50400001928E-02 0.  1.
       -1   -1    0    0    0  501  0.00000000000E+00  0.00000000000E+00 -0.13242639251E+04  0.13242639251E+04  0.50400001928E-02 0. -1.
    10030    2    1    2    0    0  0.00000000000E+00  0.00000000000E+00 -0.14472875400E+03  0.25037990963E+04  0.24996126705E+04 0.  0.
        3    1    3    3  502    0 -0.11212904679E+04 -0.55015371479E+03 -0.26962510900E+02  0.12492751541E+04  0.10100000352E+00 0. -1.
       -3    1    3    3    0  502  0.11212904679E+04  0.55015371479E+03 -0.11776624310E+03  0.12545239422E+04  0.10100000352E+00 0.  1.
</event>
<event>
 5   0  0.9768582E-07  0.2500393E+04  0.7818609E-02  0.8402846E-01
       -2   -1    0    0    0  501  0.00000000000E+00  0.00000000000E+00  0.10878634370E+04  0.10878634370E+04  0.25500000920E-02 0.  1.
        2   -1    0    0  501    0  0.00000000000E+00  0.00000000000E+00 -0.14367531480E+04  0.14367531480E+04  0.25500000920E-02 0. -1.
    10030    2    1    2    0    0  0.00000000000E+00  0.00000000000E+00 -0.34888971106E+03  0.25246165850E+04  0.25003929433E+04 0.  0.
        3    1    3    3  502    0 -0.28076666879E+03 -0.12087615077E+04 -0.32776091510E+03  0.12834958249E+04  0.10100000352E+00 0. -1.
       -3    1    3    3    0  502  0.28076666879E+03  0.12087615077E+04 -0.21128795955E+02  0.12411207601E+04  0.10100000352E+00 0.  1.
</event>
<event>
 5   0  0.9768582E-07  0.2500594E+04  0.7818609E-02  0.8402774E-01
        2   -1    0    0  501    0  0.00000000000E+00  0.00000000000E+00  0.92535797694E+03  0.92535797694E+03  0.25500000920E-02 0.  1.
       -2   -1    0    0    0  501  0.00000000000E+00  0.00000000000E+00 -0.16893388260E+04  0.16893388260E+04  0.25500000920E-02 0. -1.
    10030    2    1    2    0    0  0.00000000000E+00  0.00000000000E+00 -0.76398084905E+03  0.26146968029E+04  0.25005944560E+04 0.  0.
        3    1    3    3  502    0  0.86614061948E+03  0.18664818909E+03 -0.13044033234E+04  0.15768656123E+04  0.10100000352E+00 0. -1.
       -3    1    3    3    0  502 -0.86614061948E+03 -0.18664818909E+03  0.54042247431E+03  0.10378311906E+04  0.10100000352E+00 0.  1.
</event>
<event>
 5   0  0.3873231E-07  0.2499726E+04  0.7818609E-02  0.8403083E-01
        1   -1    0    0  501    0  0.00000000000E+00  0.00000000000E+00  0.15766634625E+04  0.15766634625E+04  0.50400001928E-02 0. -1.
       -1   -1    0    0    0  501  0.00000000000E+00  0.00000000000E+00 -0.99079941270E+03  0.99079941271E+03  0.50400001928E-02 0.  1.
    10030    2    1    2    0    0  0.00000000000E+00  0.00000000000E+00  0.58586404981E+03  0.25674628752E+04  0.24997257711E+04 0.  0.
        2    1    3    3  502    0  0.11760550728E+04 -0.39979915216E+02  0.72559910307E+03  0.13824608444E+04  0.25500000920E-02 0. -1.
       -2    1    3    3    0  502 -0.11760550728E+04  0.39979915216E+02 -0.13973505326E+03  0.11850020308E+04  0.25500000920E-02 0.  1.
</event>
<event>
 5   0  0.3991066E-07  0.2499370E+04  0.7818609E-02  0.8403210E-01
        1   -1    0    0  501    0  0.00000000000E+00  0.00000000000E+00  0.10721253039E+04  0.10721253039E+04  0.50400001928E-02 0. -1.
       -1   -1    0    0    0  501  0.00000000000E+00  0.00000000000E+00 -0.14566506337E+04  0.14566506337E+04  0.50400001928E-02 0.  1.
    10030    2    1    2    0    0  0.00000000000E+00  0.00000000000E+00 -0.38452532978E+03  0.25287759375E+04  0.24993695231E+04 0.  0.
        1    1    3    3  502    0  0.10814723931E+03 -0.10914676991E+04  0.41371178074E+03  0.11722435759E+04  0.50400001928E-02 0. -1.
       -1    1    3    3    0  502 -0.10814723931E+03  0.10914676991E+04 -0.79823711053E+03  0.13565323617E+04  0.50400001928E-02 0.  1.
</event>
<event>
 5   0  0.9251138E-07  0.2495272E+04  0.7818609E-02  0.8404672E-01
       -2   -1    0    0    0  501  0.00000000000E+00  0.00000000000E+00  0.79000271087E+03  0.79000271087E+03  0.25500000920E-02 0. -1.
        2   -1    0    0  501    0  0.00000000000E+00  0.00000000000E+00 -0.19703671482E+04  0.19703671482E+04  0.25500000920E-02 0.  1.
    10030    2    1    2    0    0  0.00000000000E+00  0.00000000000E+00 -0.11803644373E+04  0.27603698590E+04  0.24952718397E+04 0.  0.
        5    1    3    3  502    0  0.11334689705E+04  0.51088214339E+03 -0.47510757554E+03  0.13309777496E+04  0.46999998093E+01 0. -1.
       -5    1    3    3    0  502 -0.11334689705E+04 -0.51088214339E+03 -0.70525686175E+03  0.14293921095E+04  0.46999998093E+01 0.  1.
</event>
<event>
 5   0  0.3805418E-07  0.2499733E+04  0.7818609E-02  0.8403081E-01
       -1   -1    0    0    0  501  0.00000000000E+00  0.00000000000E+00  0.70675693852E+03  0.70675693854E+03  0.50400001928E-02 0.  1.
        1   -1    0    0  501    0  0.00000000000E+00  0.00000000000E+00 -0.22103299320E+04  0.22103299320E+04  0.50400001928E-02 0. -1.
    10030    2    1    2    0    0  0.00000000000E+00  0.00000000000E+00 -0.15035729935E+04  0.29170868705E+04  0.24997327984E+04 0.  0.
        4    1    3    3  502    0 -0.78792692950E+03 -0.94643031225E+03 -0.10009951139E+04  0.15869946481E+04  0.12699999809E+01 0. -1.
       -4    1    3    3    0  502  0.78792692950E+03  0.94643031225E+03 -0.50257787951E+03  0.13300922224E+04  0.12699999809E+01 0.  1.
</event>
<event>
 5   0  0.3991066E-07  0.2500007E+04  0.7818609E-02  0.8402983E-01
        1   -1    0    0  501    0  0.00000000000E+00  0.00000000000E+00  0.18183868177E+04  0.18183868177E+04  0.50400001928E-02 0.  1.
       -1   -1    0    0    0  501  0.00000000000E+00  0.00000000000E+00 -0.85928313024E+03  0.85928313026E+03  0.50400001928E-02 0. -1.
    10030    2    1    2    0    0  0.00000000000E+00  0.00000000000E+00  0.95910368747E+03  0.26776699480E+04  0.25000072934E+04 0.  0.
        1    1    3    3  502    0 -0.55576242371E+03  0.25985990567E+03  0.16460344469E+04  0.17566526243E+04  0.50400001928E-02 0.  1.
       -1    1    3    3    0  502  0.55576242371E+03 -0.25985990567E+03 -0.68693075943E+03  0.92101732364E+03  0.50400001928E-02 0. -1.
</event>
<event>
 5   0  0.9261602E-07  0.2500871E+04  0.7818609E-02  0.8402675E-01
        2   -1    0    0  501    0  0.00000000000E+00  0.00000000000E+00  0.11649703590E+04  0.11649703590E+04  0.25500000920E-02 0. -1.
       -2   -1    0    0    0  501  0.00000000000E+00  0.00000000000E+00 -0.13421701024E+04  0.13421701024E+04  0.25500000920E-02 0.  1.
    10030    2    1    2    0    0  0.00000000000E+00  0.00000000000E+00 -0.17719974336E+03  0.25071404614E+04  0.25008705573E+04 0.  0.
        4    1    3    3  502    0  0.25413693475E+03 -0.78731002791E+03  0.85137769283E+03  0.11871344702E+04  0.12699999809E+01 0.  1.
       -4    1    3    3    0  502 -0.25413693475E+03  0.78731002791E+03 -0.10285774362E+04  0.13200059912E+04  0.12699999809E+01 0. -1.
</event>
<event>
 5   0  0.3972587E-07  0.2500830E+04  0.7818609E-02  0.8402690E-01
        1   -1    0    0  501    0  0.00000000000E+00  0.00000000000E+00  0.12400107273E+04  0.12400107273E+04  0.50400001928E-02 0.  1.
       -1   -1    0    0    0  501  0.00000000000E+00  0.00000000000E+00 -0.12609064322E+04  0.12609064322E+04  0.50400001928E-02 0. -1.
    10030    2    1    2    0    0  0.00000000000E+00  0.00000000000E+00 -0.20895704863E+02  0.25009171595E+04  0.25008298640E+04 0.  0.
        3    1    3    3  502    0 -0.32743984796E+03  0.36841512218E+02  0.11958128650E+04  0.12403800101E+04  0.10100000352E+00 0.  1.
       -3    1    3    3    0  502  0.32743984796E+03 -0.36841512218E+02 -0.12167085699E+04  0.12605371495E+04  0.10100000352E+00 0. -1.
</event>
<event>
 5   0  0.3991066E-07  0.2501383E+04  0.7818609E-02  0.8402493E-01
        1   -1    0    0  501    0  0.00000000000E+00  0.00000000000E+00  0.22531081250E+04  0.22531081250E+04  0.50400001928E-02 0.  1.
       -1   -1    0    0    0  501  0.00000000000E+00  0.00000000000E+00 -0.69425406399E+03  0.69425406401E+03  0.50400001928E-02 0. -1.
    10030    2    1    2    0    0  0.00000000000E+00  0.00000000000E+00  0.15588540610E+04  0.29473621890E+04  0.25013831953E+04 0.  0.
        1    1    3    3  502    0 -0.83319137785E+03 -0.18078562855E+03 -0.29878387695E+03  0.90341746760E+03  0.50400001928E-02 0. -1.
       -1    1    3    3    0  502  0.83319137785E+03  0.18078562855E+03  0.18576379380E+04  0.20439447214E+04  0.50400001928E-02 0.  1.
</event>
<event>
 5   0  0.3991066E-07  0.2516153E+04  0.7818609E-02  0.8397253E-01
        1   -1    0    0  501    0  0.00000000000E+00  0.00000000000E+00  0.13366766757E+04  0.13366766757E+04  0.50400001928E-02 0. -1.
       -1   -1    0    0    0  501  0.00000000000E+00  0.00000000000E+00 -0.11840982809E+04  0.11840982809E+04  0.50400001928E-02 0.  1.
    10030    2    1    2    0    0  0.00000000000E+00  0.00000000000E+00  0.15257839478E+03  0.25207749567E+04  0.25161530589E+04 0.  0.
        1    1    3    3  502    0  0.68971333957E+03 -0.84256873362E+03  0.70762928076E+03  0.12986014634E+04  0.50400001928E-02 0. -1.
       -1    1    3    3    0  502 -0.68971333957E+03  0.84256873362E+03 -0.55505088598E+03  0.12221734933E+04  0.50400001928E-02 0.  1.
</event>
<event>
 5   0  0.3837524E-07  0.2499181E+04  0.7818609E-02  0.8403277E-01
        1   -1    0    0  501    0  0.00000000000E+00  0.00000000000E+00  0.14222444645E+04  0.14222444645E+04  0.50400001928E-02 0.  1.
       -1   -1    0    0    0  501  0.00000000000E+00  0.00000000000E+00 -0.10978962460E+04  0.10978962460E+04  0.50400001928E-02 0. -1.
    10030    2    1    2    0    0  0.00000000000E+00  0.00000000000E+00  0.32434821853E+03  0.25201407105E+04  0.24991813527E+04 0.  0.
        5    1    3    3  502    0  0.91905409892E+03  0.31021236608E+03  0.95653860330E+03  0.13623069912E+04  0.46999998093E+01 0. -1.
       -5    1    3    3    0  502 -0.91905409892E+03 -0.31021236608E+03 -0.63219038477E+03  0.11578337192E+04  0.46999998093E+01 0.  1.
</event>
<event>
 5   0  0.3837524E-07  0.2497226E+04  0.7818609E-02  0.8403974E-01
       -1   -1    0    0    0  501  0.00000000000E+00  0.00000000000E+00  0.83673455486E+03  0.83673455488E+03  0.50400001928E-02 0. -1.
        1   -1    0    0  501    0  0.00000000000E+00  0.00000000000E+00 -0.18632371958E+04  0.18632371958E+04  0.50400001928E-02 0.  1.
    10030    2    1    2    0    0  0.00000000000E+00  0.00000000000E+00 -0.10265026409E+04  0.26999717507E+04  0.24972264180E+04 0.  0.
        5    1    3    3  502    0 -0.59570857114E+03 -0.29471700813E+02 -0.16992490285E+04  0.18008905113E+04  0.46999998093E+01 0.  1.
       -5    1    3    3    0  502  0.59570857114E+03  0.29471700813E+02  0.67274638760E+03  0.89908123933E+03  0.46999998093E+01 0. -1.
</event>
<event>
 5   0  0.3873231E-07  0.2507404E+04  0.7818609E-02  0.8400353E-01
       -1   -1    0    0    0  501  0.00000000000E+00  0.00000000000E+00  0.72737654650E+03  0.72737654652E+03  0.50400001928E-02 0. -1.
        1   -1    0    0  501    0  0.00000000000E+00  0.00000000000E+00 -0.21608736795E+04  0.21608736795E+04  0.50400001928E-02 0.  1.
    10030    2    1    2    0    0  0.00000000000E+00  0.00000000000E+00 -0.14334971330E+04  0.28882502260E+04  0.25074041034E+04 0.  0.
        2    1    3    3  502    0  0.26133170791E+03  0.31327470396E+03 -0.20822752414E+04  0.21218636815E+04  0.25500000920E-02 0.  1.
       -2    1    3    3    0  502 -0.26133170791E+03 -0.31327470396E+03  0.64877810842E+03  0.76638654456E+03  0.25500000920E-02 0. -1.
</event>
<event>
 5   0  0.3873231E-07  0.2501299E+04  0.7818609E-02  0.8402523E-01
        1   -1    0    0  501    0  0.00000000000E+00  0.00000000000E+00  0.18265044843E+04  0.18265044843E+04  0.50400001928E-02 0.  1.
       -1   -1    0    0    0  501  0.00000000000E+00  0.00000000000E+00 -0.85634851019E+03  0.85634851020E+03  0.50400001928E-02 0. -1.
    10030    2    1    2    0    0  0.00000000000E+00  0.00000000000E+00  0.97015597411E+03  0.26828529945E+04  0.25012991776E+04 0.  0.
        2    1    3    3  502    0 -0.13773361448E+02  0.12452207376E+04  0.60905310074E+03  0.13862575772E+04  0.25500000920E-02 0.  1.
       -2    1    3    3    0  502  0.13773361448E+02 -0.12452207376E+04  0.36110287337E+03  0.12965954173E+04  0.25500000920E-02 0. -1.
</event>
<event>
 5   0  0.3873231E-07  0.2501187E+04  0.7818609E-02  0.8402563E-01
        1   -1    0    0  501    0  0.00000000000E+00  0.00000000000E+00  0.12256973405E+04  0.12256973405E+04  0.50400001928E-02 0. -1.
       -1   -1    0    0    0  501  0.00000000000E+00  0.00000000000E+00 -0.12759952659E+04  0.12759952659E+04  0.50400001928E-02 0.  1.
    10030    2    1    2    0    0  0.00000000000E+00  0.00000000000E+00 -0.50297925365E+02  0.25016926064E+04  0.25011869214E+04 0.  0.
        2    1    3    3  502    0 -0.12149118902E+04  0.29638398312E+03 -0.36537108142E+02  0.12510752682E+04  0.25500000920E-02 0. -1.
       -2    1    3    3    0  502  0.12149118902E+04 -0.29638398312E+03 -0.13760817222E+02  0.12506173382E+04  0.25500000920E-02 0.  1.
</event>
<event>
 5   0  0.9251138E-07  0.2509440E+04  0.7818609E-02  0.8399630E-01
        2   -1    0    0  501    0  0.00000000000E+00  0.00000000000E+00  0.14375643409E+04  0.14375643409E+04  0.25500000920E-02 0.  1.
       -2   -1    0    0    0  501  0.00000000000E+00  0.00000000000E+00 -0.10951317505E+04  0.10951317505E+04  0.25500000920E-02 0. -1.
    10030    2    1    2    0    0  0.00000000000E+00  0.00000000000E+00  0.34243259042E+03  0.25326960913E+04  0.25094400595E+04 0.  0.
        5    1    3    3  502    0  0.77912075362E+03  0.19731842843E+03 -0.80121511598E+03  0.11348706812E+04  0.46999998093E+01 0. -1.
       -5    1    3    3    0  502 -0.77912075362E+03 -0.19731842843E+03  0.11436477064E+04  0.13978254101E+04  0.46999998093E+01 0.  1.
</event>
<event>
 5   0  0.3991066E-07  0.2500739E+04  0.7818609E-02  0.8402722E-01
        1   -1    0    0  501    0  0.00000000000E+00  0.00000000000E+00  0.14937747225E+04  0.14937747225E+04  0.50400001928E-02 0.  1.
       -1   -1    0    0    0  501  0.00000000000E+00  0.00000000000E+00 -0.10466266413E+04  0.10466266413E+04  0.50400001928E-02 0. -1.
    10030    2    1    2    0    0  0.00000000000E+00  0.00000000000E+00  0.44714808120E+03  0.25404013638E+04  0.25007394272E+04 0.  0.
        1    1    3    3  502    0 -0.41374899993E+03 -0.71065689311E+03 -0.73327932414E+03  0.11017803873E+04  0.50400001928E-02 0. -1.
       -1    1    3    3    0  502  0.41374899993E+03  0.71065689311E+03  0.11804274053E+04  0.14386209765E+04  0.50400001928E-02 0.  1.
</event>
<event>
 5   0  0.3214375E-07  0.2499564E+04  0.7818609E-02  0.8403141E-01
        3   -1    0    0  501    0  0.00000000000E+00  0.00000000000E+00  0.15195636917E+04  0.15195636950E+04  0.10100000352E+00 0. -1.
       -3   -1    0    0    0  501  0.00000000000E+00  0.00000000000E+00 -0.10278967814E+04  0.10278967863E+04  0.10100000352E+00 0.  1.
    10030    2    1    2    0    0  0.00000000000E+00  0.00000000000E+00  0.49166691028E+03  0.25474604813E+04  0.24995636726E+04 0.  0.
        4    1    3    3  502    0  0.82822576513E+03 -0.23987577812E+03  0.11678539605E+04  0.14516827453E+04  0.12699999809E+01 0. -1.
       -4    1    3    3    0  502 -0.82822576513E+03  0.23987577812E+03 -0.67618705027E+03  0.10957777360E+04  0.12699999809E+01 0.  1.
</event>
<event>
 5   0  0.9768582E-07  0.2500464E+04  0.7818609E-02  0.8402820E-01
        2   -1    0    0  501    0  0.00000000000E+00  0.00000000000E+00  0.14604313935E+04  0.14604313935E+04  0.25500000920E-02 0.  1.
       -2   -1    0    0    0  501  0.00000000000E+00  0.00000000000E+00 -0.10702862295E+04  0.10702862295E+04  0.25500000920E-02 0. -1.
    10030    2    1    2    0    0  0.00000000000E+00  0.00000000000E+00  0.39014516393E+03  0.25307176230E+04  0.25004636447E+04 0.  0.
        3    1    3    3  502    0  0.10321581540E+04  0.48169902289E+03 -0.32662040165E+03  0.11849326143E+04  0.10100000352E+00 0. -1.
       -3    1    3    3    0  502 -0.10321581540E+04 -0.48169902289E+03  0.71676556558E+03  0.13457850087E+04  0.10100000352E+00 0.  1.
</event>
<event>
 5   0  0.3805418E-07  0.2499412E+04  0.7818609E-02  0.8403195E-01
        1   -1    0    0  501    0  0.00000000000E+00  0.00000000000E+00  0.15595999921E+04  0.15595999922E+04  0.50400001928E-02 0.  1.
       -1   -1    0    0    0  501  0.00000000000E+00  0.00000000000E+00 -0.10013879742E+04  0.10013879742E+04  0.50400001928E-02 0. -1.
    10030    2    1    2    0    0  0.00000000000E+00  0.00000000000E+00  0.55821201791E+03  0.25609879664E+04  0.24994116722E+04 0.  0.
        4    1    3    3  502    0  0.65484928333E+03  0.64355684073E+03  0.11477958392E+04  0.14698400908E+04  0.12699999809E+01 0.  1.
       -4    1    3    3    0  502 -0.65484928333E+03 -0.64355684073E+03 -0.58958382131E+03  0.10911478756E+04  0.12699999809E+01 0. -1.
</event>
<event>
 5   0  0.9261602E-07  0.2499361E+04  0.7818609E-02  0.8403213E-01
       -2   -1    0    0    0  501  0.00000000000E+00  0.00000000000E+00  0.11007697453E+04  0.11007697453E+04  0.25500000920E-02 0. -1.
        2   -1    0    0  501    0  0.00000000000E+00  0.00000000000E+00 -0.14187359573E+04  0.14187359573E+04  0.25500000920E-02 0.  1.
    10030    2    1    2    0    0  0.00000000000E+00  0.00000000000E+00 -0.31796621194E+03  0.25195057026E+04  0.24993612131E+04 0.  0.
        4    1    3    3  502    0 -0.71848816992E+03  0.27111229326E+03  0.83484984861E+03  0.11343293210E+04  0.12699999809E+01 0. -1.
       -4    1    3    3    0  502  0.71848816992E+03 -0.27111229326E+03 -0.11528160605E+04  0.13851763816E+04  0.12699999809E+01 0.  1.
</event>
<event>
 5   0  0.8997210E-07  0.2499961E+04  0.7818609E-02  0.8402999E-01
       -2   -1    0    0    0  501  0.00000000000E+00  0.00000000000E+00  0.96256406052E+03  0.96256406052E+03  0.25500000920E-02 0. -1.
        2   -1    0    0  501    0  0.00000000000E+00  0.00000000000E+00 -0.16232178433E+04  0.16232178433E+04  0.25500000920E-02 0.  1.
    10030    2    1    2    0    0  0.00000000000E+00  0.00000000000E+00 -0.66065378275E+03  0.25857819038E+04  0.24999609264E+04 0.  0.
        1    1    3    3  502    0 -0.10826278994E+04 -0.57392819233E+03 -0.74920060099E+02  0.12276358393E+04  0.50400001928E-02 0. -1.
       -1    1    3    3    0  502  0.10826278994E+04  0.57392819233E+03 -0.58573372265E+03  0.13581460645E+04  0.50400001928E-02 0.  1.
</event>
<event>
 5   0  0.3972587E-07  0.2498326E+04  0.7818609E-02  0.8403582E-01
        1   -1    0    0  501    0  0.00000000000E+00  0.00000000000E+00  0.20500997986E+04  0.20500997986E+04  0.50400001928E-02 0. -1.
       -1   -1    0    0    0  501  0.00000000000E+00  0.00000000000E+00 -0.76113787315E+03  0.76113787317E+03  0.50400001928E-02 0.  1.
    10030    2    1    2    0    0  0.00000000000E+00  0.00000000000E+00  0.12889619255E+04  0.28112376718E+04  0.24983263202E+04 0.  0.
        3    1    3    3  502    0  0.49078834667E+03 -0.19394095613E+03  0.19185097785E+04  0.19897653320E+04  0.10100000352E+00 0. -1.
       -3    1    3    3    0  502 -0.49078834667E+03  0.19394095613E+03 -0.62954785305E+03  0.82147233987E+03  0.10100000352E+00 0.  1.
</event>
<event>
 5   0  0.9768582E-07  0.2499447E+04  0.7818609E-02  0.8403183E-01
       -2   -1    0    0    0  501  0.00000000000E+00  0.00000000000E+00  0.83030386192E+03  0.83030386192E+03  0.25500000920E-02 0.  1.
        2   -1    0    0  501    0  0.00000000000E+00  0.00000000000E+00 -0.18810087998E+04  0.18810087998E+04  0.25500000920E-02 0. -1.
    10030    2    1    2    0    0  0.00000000000E+00  0.00000000000E+00 -0.10507049379E+04  0.27113126618E+04  0.24994470355E+04 0.  0.
        3    1    3    3  502    0 -0.45457378836E+03  0.10708225844E+04 -0.10206881967E+04  0.15476119480E+04  0.10100000352E+00 0. -1.
       -3    1    3    3    0  502  0.45457378836E+03 -0.10708225844E+04 -0.30016741198E+02  0.11637007138E+04  0.10100000352E+00 0.  1.
</event>
<event>
 5   0  0.3805418E-07  0.2507933E+04  0.7818609E-02  0.8400165E-01
        1   -1    0    0  501    0  0.00000000000E+00  0.00000000000E+00  0.17030348220E+04  0.17030348220E+04  0.50400001928E-02 0.  1.
       -1   -1    0    0    0  501  0.00000000000E+00  0.00000000000E+00 -0.92331162924E+03  0.92331162926E+03  0.50400001928E-02 0. -1.
    10030    2    1    2    0    0  0.00000000000E+00  0.00000000000E+00  0.77972319277E+03  0.26263464513E+04  0.25079328988E+04 0.  0.
        4    1    3    3  502    0 -0.91869368516E+03 -0.58366099183E+03 -0.26225360977E+03  0.11195699216E+04  0.12699999809E+01 0. -1.
       -4    1    3    3    0  502  0.91869368516E+03  0.58366099183E+03  0.10419768025E+04  0.15067765297E+04  0.12699999809E+01 0.  1.
</event>
<event>
 5   0  0.9508784E-07  0.2500341E+04  0.7818609E-02  0.8402864E-01
        2   -1    0    0  501    0  0.00000000000E+00  0.00000000000E+00  0.18035076514E+04  0.18035076514E+04  0.25500000920E-02 0.  1.
       -2   -1    0    0    0  501  0.00000000000E+00  0.00000000000E+00 -0.86660387094E+03  0.86660387094E+03  0.25500000920E-02 0. -1.
    10030    2    1    2    0    0  0.00000000000E+00  0.00000000000E+00  0.93690378044E+03  0.26701115223E+04  0.25003413463E+04 0.  0.
        2    1    3    3  502    0 -0.94602665439E+03  0.24544047424E+03  0.13009468190E+04  0.16271662739E+04  0.25500000920E-02 0.  1.
       -2    1    3    3    0  502  0.94602665439E+03 -0.24544047424E+03 -0.36404303854E+03  0.10429452484E+04  0.25500000920E-02 0. -1.
</event>
<event>
 5   0  0.3805418E-07  0.2499531E+04  0.7818609E-02  0.8403153E-01
        1   -1    0    0  501    0  0.00000000000E+00  0.00000000000E+00  0.91907555749E+03  0.91907555751E+03  0.50400001928E-02 0. -1.
       -1   -1    0    0    0  501  0.00000000000E+00  0.00000000000E+00 -0.16994399511E+04  0.16994399511E+04  0.50400001928E-02 0.  1.
    10030    2    1    2    0    0  0.00000000000E+00  0.00000000000E+00 -0.78036439356E+03  0.26185155086E+04  0.24995309324E+04 0.  0.
        4    1    3    3  502    0 -0.43794924654E+03 -0.34603716132E+03 -0.15616114217E+04  0.16583645874E+04  0.12699999809E+01 0.  1.
       -4    1    3    3    0  502  0.43794924654E+03  0.34603716132E+03  0.78124702811E+03  0.96015092116E+03  0.12699999809E+01 0. -1.
</event>
<event>
 5   0  0.3805418E-07  0.2500547E+04  0.7818609E-02  0.8402791E-01
        1   -1    0    0  501    0  0.00000000000E+00  0.00000000000E+00  0.21666954267E+04  0.21666954267E+04  0.50400001928E-02 0. -1.
       -1   -1    0    0    0  501  0.00000000000E+00  0.00000000000E+00 -0.72145965514E+03  0.72145965515E+03  0.50400001928E-02 0.  1.
    10030    2    1    2    0    0  0.00000000000E+00  0.00000000000E+00  0.14452357715E+04  0.28881550818E+04  0.25005466085E+04 0.  0.
        4    1    3    3  502    0  0.98360845440E+03  0.61476958183E+03  0.12615935009E+04  0.17137814927E+04  0.12699999809E+01 0. -1.
       -4    1    3    3    0  502 -0.98360845440E+03 -0.61476958183E+03  0.18364227060E+03  0.11743735891E+04  0.12699999809E+01 0.  1.
</event>
<event>
 5   0  0.3873231E-07  0.2500306E+04  0.7818609E-02  0.8402876E-01
        1   -1    0    0  501    0  0.00000000000E+00  0.00000000000E+00  0.13645002018E+04  0.13645002018E+04  0.50400001928E-02 0. -1.
       -1   -1    0    0    0  501  0.00000000000E+00  0.00000000000E+00 -0.11453886789E+04  0.11453886789E+04  0.50400001928E-02 0.  1.
    10030    2    1    2    0    0  0.00000000000E+00  0.00000000000E+00  0.21911152291E+03  0.25098888807E+04  0.25003064480E+04 0.  0.
        2    1    3    3  502    0  0.37274328787E+03  0.34041795215E+03  0.12576440215E+04  0.13551717329E+04  0.25500000920E-02 0. -1.
       -2    1    3    3    0  502 -0.37274328787E+03 -0.34041795215E+03 -0.10385324986E+04  0.11547171478E+04  0.25500000920E-02 0.  1.
</event>
<event>
 5   0  0.9508784E-07  0.2507791E+04  0.7818609E-02  0.8400215E-01
        2   -1    0    0  501    0  0.00000000000E+00  0.00000000000E+00  0.26644224937E+04  0.26644224937E+04  0.25500000920E-02 0.  1.
       -2   -1    0    0    0  501  0.00000000000E+00  0.00000000000E+00 -0.59009194564E+03  0.59009194565E+03  0.25500000920E-02 0. -1.
    10030    2    1    2    0    0  0.00000000000E+00  0.00000000000E+00  0.20743305480E+04  0.32545144393E+04  0.25077912619E+04 0.  0.
        2    1    3    3  502    0  0.94369322368E+03  0.76544204308E+03  0.63549645088E+03  0.13712454780E+04  0.25500000920E-02 0. -1.
       -2    1    3    3    0  502 -0.94369322368E+03 -0.76544204308E+03  0.14388340972E+04  0.18832689614E+04  0.25500000920E-02 0.  1.
</event>
<event>
 5   0  0.8997210E-07  0.2500012E+04  0.7818609E-02  0.8402981E-01
       -2   -1    0    0    0  501  0.00000000000E+00  0.00000000000E+00  0.74922376122E+03  0.74922376122E+03  0.25500000920E-02 0.  1.
        2   -1    0    0  501    0  0.00000000000E+00  0.00000000000E+00 -0.20855116287E+04  0.20855116287E+04  0.25500000920E-02 0. -1.
    10030    2    1    2    0    0  0.00000000000E+00  0.00000000000E+00 -0.13362878674E+04  0.28347353899E+04  0.25000118932E+04 0.  0.
        1    1    3    3  502    0  0.44939824976E+03 -0.70074177223E+03 -0.17254713698E+04  0.19157894629E+04  0.50400001928E-02 0. -1.
       -1    1    3    3    0  502 -0.44939824976E+03  0.70074177223E+03  0.38918350232E+03  0.91894592699E+03  0.50400001928E-02 0.  1.
</event>
<event>
 5   0  0.9251138E-07  0.2500034E+04  0.7818609E-02  0.8402973E-01
       -2   -1    0    0    0  501  0.00000000000E+00  0.00000000000E+00  0.10062381960E+04  0.10062381961E+04  0.25500000920E-02 0. -1.
        2   -1    0    0  501    0  0.00000000000E+00  0.00000000000E+00 -0.15528554344E+04  0.15528554344E+04  0.25500000920E-02 0.  1.
    10030    2    1    2    0    0  0.00000000000E+00  0.00000000000E+00 -0.54661723834E+03  0.25590936304E+04  0.25000339606E+04 0.  0.
        5    1    3    3  502    0  0.48574208944E+03  0.11130661691E+04  0.29757751363E+02  0.12148124497E+04  0.46999998093E+01 0.  1.
       -5    1    3    3    0  502 -0.48574208944E+03 -0.11130661691E+04 -0.57637498970E+03  0.13442811807E+04  0.46999998093E+01 0. -1.
</event>
<event>
 5   0  0.8997210E-07  0.2498970E+04  0.7818609E-02  0.8403353E-01
        2   -1    0    0  501    0  0.00000000000E+00  0.00000000000E+00  0.19539865148E+04  0.19539865148E+04  0.25500000920E-02 0.  1.
       -2   -1    0    0    0  501  0.00000000000E+00  0.00000000000E+00 -0.79898819628E+03  0.79898819629E+03  0.25500000920E-02 0. -1.
    10030    2    1    2    0    0  0.00000000000E+00  0.00000000000E+00  0.11549983186E+04  0.27529747111E+04  0.24989695165E+04 0.  0.
        1    1    3    3  502    0 -0.10196586224E+04 -0.35107632689E+03  0.12727175700E+04  0.16681631534E+04  0.50400001928E-02 0.  1.
       -1    1    3    3    0  502  0.10196586224E+04  0.35107632689E+03 -0.11771925142E+03  0.10848115577E+04  0.50400001928E-02 0. -1.
</event>
<event>
 5   0  0.3991066E-07  0.2499771E+04  0.7818609E-02  0.8403067E-01
        1   -1    0    0  501    0  0.00000000000E+00  0.00000000000E+00  0.24285638681E+04  0.24285638681E+04  0.50400001928E-02 0.  1.
       -1   -1    0    0    0  501  0.00000000000E+00  0.00000000000E+00 -0.64326651190E+03  0.64326651192E+03  0.50400001928E-02 0. -1.
    10030    2    1    2    0    0  0.00000000000E+00  0.00000000000E+00  0.17852973562E+04  0.30718303800E+04  0.24997710362E+04 0.  0.
        1    1    3    3  502    0  0.62631956127E+02 -0.12161597494E+04  0.54671959711E+03  0.13348668907E+04  0.50400001928E-02 0.  1.
       -1    1    3    3    0  502 -0.62631956127E+02  0.12161597494E+04  0.12385777591E+04  0.17369634893E+04  0.50400001928E-02 0. -1.
</event>
<event>
 5   0  0.9251138E-07  0.2499959E+04  0.7818609E-02  0.8403000E-01
        2   -1    0    0  501    0  0.00000000000E+00  0.00000000000E+00  0.96075287237E+03  0.96075287237E+03  0.25500000920E-02 0.  1.
       -2   -1    0    0    0  501  0.00000000000E+00  0.00000000000E+00 -0.16262755947E+04  0.16262755947E+04  0.25500000920E-02 0. -1.
    10030    2    1    2    0    0  0.00000000000E+00  0.00000000000E+00 -0.66552272229E+03  0.25870284670E+04  0.24999591587E+04 0.  0.
        5    1    3    3  502    0  0.11774572246E+04  0.26247425424E+03 -0.67146590789E+03  0.13806472415E+04  0.46999998093E+01 0. -1.
       -5    1    3    3    0  502 -0.11774572246E+04 -0.26247425424E+03  0.59431856072E+01  0.12063812256E+04  0.46999998093E+01 0.  1.
</event>
<event>
 5   0  0.3214375E-07  0.2499756E+04  0.7818609E-02  0.8403073E-01
       -3   -1    0    0    0  501  0.00000000000E+00  0.00000000000E+00  0.11652525052E+04  0.11652525096E+04  0.10100000352E+00 0. -1.
        3   -1    0    0  501    0  0.00000000000E+00  0.00000000000E+00 -0.13406489751E+04  0.13406489789E+04  0.10100000352E+00 0.  1.
    10030    2    1    2    0    0  0.00000000000E+00  0.00000000000E+00 -0.17539646982E+03  0.25059014885E+04  0.24997556577E+04 0.  0.
        5    1    3    3  502    0 -0.22571412376E+03  0.73107253631E+03 -0.10784390415E+04  0.13222960241E+04  0.46999998093E+01 0.  1.
       -5    1    3    3    0  502  0.22571412376E+03 -0.73107253631E+03  0.90304257171E+03  0.11836054644E+04  0.46999998093E+01 0. -1.
</event>
<event>
 5   0  0.9261602E-07  0.2499556E+04  0.7818609E-02  0.8403144E-01
        2   -1    0    0  501    0  0.00000000000E+00  0.00000000000E+00  0.22164690216E+04  0.22164690216E+04  0.25500000920E-02 0.  1.
       -2   -1    0    0    0  501  0.00000000000E+00  0.00000000000E+00 -0.70469976632E+03  0.70469976633E+03  0.25500000920E-02 0. -1.
    10030    2    1    2    0    0  0.00000000000E+00  0.00000000000E+00  0.15117692553E+04  0.29211687879E+04  0.24995561219E+04 0.  0.
        4    1    3    3  502    0 -0.55174130795E+03 -0.95693075730E+03  0.14391434998E+04  0.18141859252E+04  0.12699999809E+01 0.  1.
       -4    1    3    3    0  502  0.55174130795E+03  0.95693075730E+03  0.72625755462E+02  0.11069828627E+04  0.12699999809E+01 0. -1.
</event>
<event>
 5   0  0.9261602E-07  0.2500455E+04  0.7818609E-02  0.8402824E-01
        2   -1    0    0  501    0  0.00000000000E+00  0.00000000000E+00  0.26861005476E+04  0.26861005476E+04  0.25500000920E-02 0. -1.
       -2   -1    0    0    0  501  0.00000000000E+00  0.00000000000E+00 -0.58190978681E+03  0.58190978682E+03  0.25500000920E-02 0.  1.
    10030    2    1    2    0    0  0.00000000000E+00  0.00000000000E+00  0.21041907608E+04  0.32680103344E+04  0.25004545163E+04 0.  0.
        4    1    3    3  502    0 -0.78562943051E+03 -0.58534568143E+02  0.23208810063E+04  0.24509447476E+04  0.12699999809E+01 0. -1.
       -4    1    3    3    0  502  0.78562943051E+03  0.58534568143E+02 -0.21669024548E+03  0.81706558680E+03  0.12699999809E+01 0.  1.
</event>
<event>
 5   0  0.3873231E-07  0.2499845E+04  0.7818609E-02  0.8403041E-01
       -1   -1    0    0    0  501  0.00000000000E+00  0.00000000000E+00  0.90081002862E+03  0.90081002863E+03  0.50400001928E-02 0. -1.
        1   -1    0    0  501    0  0.00000000000E+00  0.00000000000E+00 -0.17343350056E+04  0.17343350056E+04  0.50400001928E-02 0.  1.
    10030    2    1    2    0    0  0.00000000000E+00  0.00000000000E+00 -0.83352497699E+03  0.26351450342E+04  0.24998450881E+04 0.  0.
        2    1    3    3  502    0 -0.84638884544E+03 -0.30988678313E+03  0.49607573740E+03  0.10288318781E+04  0.25500000920E-02 0. -1.
       -2    1    3    3    0  502  0.84638884544E+03  0.30988678313E+03 -0.13296007144E+04  0.16063131562E+04  0.25500000920E-02 0.  1.
</event>
<event>
 5   0  0.3972587E-07  0.2500381E+04  0.7818609E-02  0.8402850E-01
        1   -1    0    0  501    0  0.00000000000E+00  0.00000000000E+00  0.95724404255E+03  0.95724404256E+03  0.50400001928E-02 0.  1.
       -1   -1    0    0    0  501  0.00000000000E+00  0.00000000000E+00 -0.16327870709E+04  0.16327870709E+04  0.50400001928E-02 0. -1.
    10030    2    1    2    0    0  0.00000000000E+00  0.00000000000E+00 -0.67554302831E+03  0.25900311134E+04  0.25003805281E+04 0.  0.
        3    1    3    3  502    0  0.10155702536E+04  0.73452677279E+02  0.41363203617E+03  0.10990312586E+04  0.10100000352E+00 0.  1.
       -3    1    3    3    0  502 -0.10155702536E+04 -0.73452677279E+02 -0.10891750645E+04  0.14909998548E+04  0.10100000352E+00 0. -1.
</event>
<event>
 5   0  0.3837524E-07  0.2499070E+04  0.7818609E-02  0.8403317E-01
       -1   -1    0    0    0  501  0.00000000000E+00  0.00000000000E+00  0.85652513663E+03  0.85652513664E+03  0.50400001928E-02 0. -1.
        1   -1    0    0  501    0  0.00000000000E+00  0.00000000000E+00 -0.18228741880E+04  0.18228741880E+04  0.50400001928E-02 0.  1.
    10030    2    1    2    0    0  0.00000000000E+00  0.00000000000E+00 -0.96634905134E+03  0.26793993246E+04  0.24990698773E+04 0.  0.
        5    1    3    3  502    0 -0.68204557177E+03  0.20421135307E+03 -0.15841238009E+04  0.17367667504E+04  0.46999998093E+01 0.  1.
       -5    1    3    3    0  502  0.68204557177E+03 -0.20421135307E+03  0.61777474959E+03  0.94263257419E+03  0.46999998093E+01 0. -1.
</event>
<event>
 5   0  0.9261602E-07  0.2499425E+04  0.7818609E-02  0.8403190E-01
        2   -1    0    0  501    0  0.00000000000E+00  0.00000000000E+00  0.11935484743E+04  0.11935484743E+04  0.25500000920E-02 0.  1.
       -2   -1    0    0    0  501  0.00000000000E+00  0.00000000000E+00 -0.13085195445E+04  0.13085195445E+04  0.25500000920E-02 0. -1.
    10030    2    1    2    0    0  0.00000000000E+00  0.00000000000E+00 -0.11497107015E+03  0.25020680188E+04  0.24994251386E+04 0.  0.
        4    1    3    3  502    0  0.17650308575E+03 -0.11943508118E+04  0.26558267695E+03  0.12361888902E+04  0.12699999809E+01 0. -1.
       -4    1    3    3    0  502 -0.17650308575E+03  0.11943508118E+04 -0.38055374710E+03  0.12658791286E+04  0.12699999809E+01 0.  1.
</event>
<event>
 5   0  0.9251138E-07  0.2502731E+04  0.7818609E-02  0.8402013E-01
        2   -1    0    0  501    0  0.00000000000E+00  0.00000000000E+00  0.75701236209E+03  0.75701236209E+03  0.25500000920E-02 0.  1.
       -2   -1    0    0    0  501  0.00000000000E+00  0.00000000000E+00 -0.20685468932E+04  0.20685468932E+04  0.25500000920E-02 0. -1.
    10030    2    1    2    0    0  0.00000000000E+00  0.00000000000E+00 -0.13115345311E+04  0.28255592553E+04  0.25027309641E+04 0.  0.
        5    1    3    3  502    0  0.10432454488E+04 -0.49922557968E+03 -0.11952147069E+04  0.16631739330E+04  0.46999998093E+01 0. -1.
       -5    1    3    3    0  502 -0.10432454488E+04  0.49922557968E+03 -0.11631982420E+03  0.11623853223E+04  0.46999998093E+01 0.  1.
</event>
<event>
 5   0  0.8997210E-07  0.2495838E+04  0.7818609E-02  0.8404470E-01
       -2   -1    0    0    0  501  0.00000000000E+00  0.00000000000E+00  0.72687734056E+03  0.72687734056E+03  0.25500000920E-02 0.  1.
        2   -1    0    0  501    0  0.00000000000E+00  0.00000000000E+00 -0.21424550929E+04  0.21424550929E+04  0.25500000920E-02 0. -1.
    10030    2    1    2    0    0  0.00000000000E+00  0.00000000000E+00 -0.14155777523E+04  0.28693324334E+04  0.24958381840E+04 0.  0.
        1    1    3    3  502    0 -0.60053327707E+03 -0.43949025264E+03 -0.18594516522E+04  0.20028360757E+04  0.50400001928E-02 0. -1.
       -1    1    3    3    0  502  0.60053327707E+03  0.43949025264E+03  0.44387389988E+03  0.86649635779E+03  0.50400001928E-02 0.  1.
</event>
<event>
 5   0  0.8997210E-07  0.2499589E+04  0.7818609E-02  0.8403132E-01
       -2   -1    0    0    0  501  0.00000000000E+00  0.00000000000E+00  0.71844653466E+03  0.71844653466E+03  0.25500000920E-02 0. -1.
        2   -1    0    0  501    0  0.00000000000E+00  0.00000000000E+00 -0.21741159371E+04  0.21741159371E+04  0.25500000920E-02 0.  1.
    10030    2    1    2    0    0  0.00000000000E+00  0.00000000000E+00 -0.14556694025E+04  0.28925624718E+04  0.24995888150E+04 0.  0.
        1    1    3    3  502    0 -0.48731765966E+03 -0.97961025852E+03 -0.28823673542E+02  0.10945069960E+04  0.50400001928E-02 0. -1.
       -1    1    3    3    0  502  0.48731765966E+03  0.97961025852E+03 -0.14268457289E+04  0.17980554758E+04  0.50400001928E-02 0.  1.
</event>
<event>
 5   0  0.3837524E-07  0.2500537E+04  0.7818609E-02  0.8402794E-01
        1   -1    0    0  501    0  0.00000000000E+00  0.00000000000E+00  0.12220777919E+04  0.12220777919E+04  0.50400001928E-02 0.  1.
       -1   -1    0    0    0  501  0.00000000000E+00  0.00000000000E+00 -0.12791097488E+04  0.12791097488E+04  0.50400001928E-02 0. -1.
    10030    2    1    2    0    0  0.00000000000E+00  0.00000000000E+00 -0.57031956867E+02  0.25011875408E+04  0.25005372363E+04 0.  0.
        5    1    3    3  502    0  0.49728544231E+03  0.75756623467E+03 -0.89010525325E+03  0.12702396872E+04  0.46999998093E+01 0. -1.
       -5    1    3    3    0  502 -0.49728544231E+03 -0.75756623467E+03  0.83307329638E+03  0.12309478536E+04  0.46999998093E+01 0.  1.
</event>
<event>
 5   0  0.3837524E-07  0.2500167E+04  0.7818609E-02  0.8402926E-01
        1   -1    0    0  501    0  0.00000000000E+00  0.00000000000E+00  0.18194710413E+04  0.18194710413E+04  0.50400001928E-02 0. -1.
       -1   -1    0    0    0  501  0.00000000000E+00  0.00000000000E+00 -0.85888071317E+03  0.85888071318E+03  0.50400001928E-02 0.  1.
    10030    2    1    2    0    0  0.00000000000E+00  0.00000000000E+00  0.96059032815E+03  0.26783517545E+04  0.25001668629E+04 0.  0.
        5    1    3    3  502    0  0.24144476552E+03 -0.89337629567E+03  0.13805882413E+04  0.16620658117E+04  0.46999998093E+01 0. -1.
       -5    1    3    3    0  502 -0.24144476552E+03  0.89337629567E+03 -0.41999791315E+03  0.10162859428E+04  0.46999998093E+01 0.  1.
</event>
<event>
 5   0  0.9261602E-07  0.2499833E+04  0.7818609E-02  0.8403045E-01
       -2   -1    0    0    0  501  0.00000000000E+00  0.00000000000E+00  0.10875283203E+04  0.10875283203E+04  0.25500000920E-02 0. -1.
        2   -1    0    0  501    0  0.00000000000E+00  0.00000000000E+00 -0.14365517681E+04  0.14365517681E+04  0.25500000920E-02 0.  1.
    10030    2    1    2    0    0  0.00000000000E+00  0.00000000000E+00 -0.34902344787E+03  0.25240800884E+04  0.24998325795E+04 0.  0.
        4    1    3    3  502    0  0.67691966708E+03 -0.10267918770E+04  0.50738043831E+02  0.12308930727E+04  0.12699999809E+01 0. -1.
       -4    1    3    3    0  502 -0.67691966708E+03  0.10267918770E+04 -0.39976149170E+03  0.12931870157E+04  0.12699999809E+01 0.  1.
</event>
<event>
 5   0  0.3805418E-07  0.2498874E+04  0.7818609E-02  0.8403387E-01
       -1   -1    0    0    0  501  0.00000000000E+00  0.00000000000E+00  0.68801047746E+03  0.68801047748E+03  0.50400001928E-02 0.  1.
        1   -1    0    0  501    0  0.00000000000E+00  0.00000000000E+00 -0.22689959011E+04  0.22689959011E+04  0.50400001928E-02 0. -1.
    10030    2    1    2    0    0  0.00000000000E+00  0.00000000000E+00 -0.15809854237E+04  0.29570063786E+04  0.24988741091E+04 0.  0.
        4    1    3    3  502    0  0.11619318922E+04  0.45922075563E+03 -0.77742685394E+03  0.14715174313E+04  0.12699999809E+01 0. -1.
       -4    1    3    3    0  502 -0.11619318922E+04 -0.45922075563E+03 -0.80355856972E+03  0.14854889473E+04  0.12699999809E+01 0.  1.
</event>
<event>
 5   0  0.9261602E-07  0.2500983E+04  0.7818609E-02  0.8402635E-01
       -2   -1    0    0    0  501  0.00000000000E+00  0.00000000000E+00  0.58502481656E+03  0.58502481656E+03  0.25500000920E-02 0.  1.
        2   -1    0    0  501    0  0.00000000000E+00  0.00000000000E+00 -0.26729283671E+04  0.26729283671E+04  0.25500000920E-02 0. -1.
    10030    2    1    2    0    0  0.00000000000E+00  0.00000000000E+00 -0.20879035505E+04  0.32579531836E+04  0.25009833487E+04 0.  0.
        4    1    3    3  502    0 -0.61664309680E+03 -0.68138709165E+03  0.60778056366E+02  0.92099547367E+03  0.12699999809E+01 0.  1.
       -4    1    3    3    0  502  0.61664309680E+03  0.68138709165E+03 -0.21486816069E+04  0.23369577099E+04  0.12699999809E+01 0. -1.
</event>
<event>
 5   0  0.3972587E-07  0.2498443E+04  0.7818609E-02  0.8403540E-01
        1   -1    0    0  501    0  0.00000000000E+00  0.00000000000E+00  0.16933270199E+04  0.16933270199E+04  0.50400001928E-02 0. -1.
       -1   -1    0    0    0  501  0.00000000000E+00  0.00000000000E+00 -0.92159092128E+03  0.92159092130E+03  0.50400001928E-02 0.  1.
    10030    2    1    2    0    0  0.00000000000E+00  0.00000000000E+00  0.77173609858E+03  0.26149179412E+04  0.24984433620E+04 0.  0.
        3    1    3    3  502    0  0.91535339460E+03  0.28139908603E+03  0.12254478729E+04  0.15552426763E+04  0.10100000352E+00 0. -1.
       -3    1    3    3    0  502 -0.91535339460E+03 -0.28139908603E+03 -0.45371177436E+03  0.10596752649E+04  0.10100000352E+00 0.  1.
</event>
<event>
 5   0  0.3805418E-07  0.2500142E+04  0.7818609E-02  0.8402935E-01
        1   -1    0    0  501    0  0.00000000000E+00  0.00000000000E+00  0.15775741097E+04  0.15775741097E+04  0.50400001928E-02 0. -1.
       -1   -1    0    0    0  501  0.00000000000E+00  0.00000000000E+00 -0.99055763855E+03  0.99055763856E+03  0.50400001928E-02 0.  1.
    10030    2    1    2    0    0  0.00000000000E+00  0.00000000000E+00  0.58701647113E+03  0.25681317482E+04  0.25001424637E+04 0.  0.
        4    1    3    3  502    0 -0.10976986988E+04 -0.22478556771E+02 -0.32043150613E+03  0.11437332214E+04  0.12699999809E+01 0.  1.
       -4    1    3    3    0  502  0.10976986988E+04  0.22478556771E+02  0.90744797725E+03  0.14243985268E+04  0.12699999809E+01 0. -1.
</event>
<event>
 5   0  0.3873231E-07  0.2500155E+04  0.7818609E-02  0.8402930E-01
       -1   -1    0    0    0  501  0.00000000000E+00  0.00000000000E+00  0.14265553937E+04  0.14265553938E+04  0.50400001928E-02 0. -1.
        1   -1    0    0  501    0  0.00000000000E+00  0.00000000000E+00 -0.10954311526E+04  0.10954311526E+04  0.50400001928E-02 0.  1.
    10030    2    1    2    0    0  0.00000000000E+00  0.00000000000E+00  0.33112424115E+03  0.25219865464E+04  0.25001545706E+04 0.  0.
        2    1    3    3  502    0 -0.43030022286E+03  0.48638574612E+03  0.12430486441E+04  0.14024618738E+04  0.25500000920E-02 0. -1.
       -2    1    3    3    0  502  0.43030022286E+03 -0.48638574612E+03 -0.91192440293E+03  0.11195246726E+04  0.25500000920E-02 0.  1.
</event>
<event>
 5   0  0.8997210E-07  0.2499664E+04  0.7818609E-02  0.8403105E-01
       -2   -1    0    0    0  501  0.00000000000E+00  0.00000000000E+00  0.10460741831E+04  0.10460741831E+04  0.25500000920E-02 0. -1.
        2   -1    0    0  501    0  0.00000000000E+00  0.00000000000E+00 -0.14932783864E+04  0.14932783864E+04  0.25500000920E-02 0.  1.
    10030    2    1    2    0    0  0.00000000000E+00  0.00000000000E+00 -0.44720420325E+03  0.25393525695E+04  0.24996639520E+04 0.  0.
        1    1    3    3  502    0 -0.97682206786E+02 -0.10726632813E+03 -0.14846953989E+04  0.14917668404E+04  0.50400001928E-02 0.  1.
       -1    1    3    3    0  502  0.97682206786E+02  0.10726632813E+03  0.10374911957E+04  0.10475857291E+04  0.50400001928E-02 0. -1.
</event>
<event>
 5   0  0.3991066E-07  0.2500826E+04  0.7818609E-02  0.8402691E-01
        1   -1    0    0  501    0  0.00000000000E+00  0.00000000000E+00  0.77243016682E+03  0.77243016684E+03  0.50400001928E-02 0. -1.
       -1   -1    0    0    0  501  0.00000000000E+00  0.00000000000E+00 -0.20241728238E+04  0.20241728238E+04  0.50400001928E-02 0.  1.
    10030    2    1    2    0    0  0.00000000000E+00  0.00000000000E+00 -0.12517426569E+04  0.27966029906E+04  0.25008255853E+04 0.  0.
        1    1    3    3  502    0  0.33928466482E+03  0.10260739405E+04 -0.13292193191E+04  0.17131158202E+04  0.50400001928E-02 0.  1.
       -1    1    3    3    0  502 -0.33928466482E+03 -0.10260739405E+04  0.77476662105E+02  0.10834871704E+04  0.50400001928E-02 0. -1.
</event>
<event>
 5   0  0.8997210E-07  0.2501639E+04  0.7818609E-02  0.8402402E-01
        2   -1    0    0  501    0  0.00000000000E+00  0.00000000000E+00  0.13273082979E+04  0.13273082979E+04  0.25500000920E-02 0. -1.
       -2   -1    0    0    0  501  0.00000000000E+00  0.00000000000E+00 -0.11787385731E+04  0.11787385731E+04  0.25500000920E-02 0.  1.
    10030    2    1    2    0    0  0.00000000000E+00  0.00000000000E+00  0.14856972481E+03  0.25060468710E+04  0.25016390540E+04 0.  0.
        1    1    3    3  502    0 -0.10830213056E+04  0.22137732034E+03 -0.51207237680E+03  0.12182615423E+04  0.50400001928E-02 0.  1.
       -1    1    3    3    0  502  0.10830213056E+04 -0.22137732034E+03  0.66064210161E+03  0.12877853287E+04  0.50400001928E-02 0. -1.
</event>
<event>
 5   0  0.9508784E-07  0.2500046E+04  0.7818609E-02  0.8402969E-01
       -2   -1    0    0    0  501  0.00000000000E+00  0.00000000000E+00  0.13305569363E+04  0.13305569363E+04  0.25500000920E-02 0.  1.
        2   -1    0    0  501    0  0.00000000000E+00  0.00000000000E+00 -0.11743635695E+04  0.11743635695E+04  0.25500000920E-02 0. -1.
    10030    2    1    2    0    0  0.00000000000E+00  0.00000000000E+00  0.15619336676E+03  0.25049205058E+04  0.25000460741E+04 0.  0.
        2    1    3    3  502    0 -0.11566039321E+04  0.38827271103E+03 -0.19459059521E+03  0.12354569412E+04  0.25500000920E-02 0. -1.
       -2    1    3    3    0  502  0.11566039321E+04 -0.38827271103E+03  0.35078396198E+03  0.12694635646E+04  0.25500000920E-02 0.  1.
</event>
<event>
 5   0  0.9261602E-07  0.2501999E+04  0.7818609E-02  0.8402274E-01
        2   -1    0    0  501    0  0.00000000000E+00  0.00000000000E+00  0.23298405476E+04  0.23298405476E+04  0.25500000920E-02 0.  1.
       -2   -1    0    0    0  501  0.00000000000E+00  0.00000000000E+00 -0.67171955635E+03  0.67171955635E+03  0.25500000920E-02 0. -1.
    10030    2    1    2    0    0  0.00000000000E+00  0.00000000000E+00  0.16581209912E+04  0.30015601039E+04  0.25019987682E+04 0.  0.
        4    1    3    3  502    0  0.99459296379E+02 -0.52924677699E+03  0.21836747726E+04  0.22490956911E+04  0.12699999809E+01 0.  1.
       -4    1    3    3    0  502 -0.99459296379E+02  0.52924677699E+03 -0.52555378133E+03  0.75246441281E+03  0.12699999809E+01 0. -1.
</event>
<event>
 5   0  0.3805418E-07  0.2500103E+04  0.7818609E-02  0.8402949E-01
        1   -1    0    0  501    0  0.00000000000E+00  0.00000000000E+00  0.14160910436E+04  0.14160910436E+04  0.50400001928E-02 0. -1.
       -1   -1    0    0    0  501  0.00000000000E+00  0.00000000000E+00 -0.11034803265E+04  0.11034803265E+04  0.50400001928E-02 0.  1.
    10030    2    1    2    0    0  0.00000000000E+00  0.00000000000E+00  0.31261071707E+03  0.25195713701E+04  0.25001028836E+04 0.  0.
        4    1    3    3  502    0 -0.32299156056E+03 -0.89712793553E+03 -0.65836125915E+03  0.11587075737E+04  0.12699999809E+01 0.  1.
       -4    1    3    3    0  502  0.32299156056E+03  0.89712793553E+03  0.97097197622E+03  0.13608637964E+04  0.12699999809E+01 0. -1.
</event>
<event>
 5   0  0.3991066E-07  0.2491235E+04  0.7818609E-02  0.8406115E-01
       -1   -1    0    0    0  501  0.00000000000E+00  0.00000000000E+00  0.12499221309E+04  0.12499221309E+04  0.50400001928E-02 0.  1.
        1   -1    0    0  501    0  0.00000000000E+00  0.00000000000E+00 -0.12413277430E+04  0.12413277430E+04  0.50400001928E-02 0. -1.
    10030    2    1    2    0    0  0.00000000000E+00  0.00000000000E+00  0.85943878334E+01  0.24912498739E+04  0.24912350493E+04 0.  0.
        1    1    3    3  502    0 -0.23224078249E+03 -0.66699164528E+03 -0.10217446722E+04  0.12420852672E+04  0.50400001928E-02 0. -1.
       -1    1    3    3    0  502  0.23224078249E+03  0.66699164528E+03  0.10303390600E+04  0.12491646067E+04  0.50400001928E-02 0.  1.
</event>
<event>
 5   0  0.9261602E-07  0.2484547E+04  0.7818609E-02  0.8408511E-01
       -2   -1    0    0    0  501  0.00000000000E+00  0.00000000000E+00  0.90928637755E+03  0.90928637755E+03  0.25500000920E-02 0. -1.
        2   -1    0    0  501    0  0.00000000000E+00  0.00000000000E+00 -0.16972030542E+04  0.16972030542E+04  0.25500000920E-02 0.  1.
    10030    2    1    2    0    0  0.00000000000E+00  0.00000000000E+00 -0.78791667660E+03  0.26064894317E+04  0.24845471355E+04 0.  0.
        4    1    3    3  502    0 -0.67226378270E+03  0.72879568274E+03 -0.11791304703E+04  0.15405946968E+04  0.12699999809E+01 0.  1.
       -4    1    3    3    0  502  0.67226378270E+03 -0.72879568274E+03  0.39121379372E+03  0.10658947350E+04  0.12699999809E+01 0. -1.
</event>
<event>
 5   0  0.9251138E-07  0.2500711E+04  0.7818609E-02  0.8402732E-01
       -2   -1    0    0    0  501  0.00000000000E+00  0.00000000000E+00  0.95660395781E+03  0.95660395782E+03  0.25500000920E-02 0. -1.
        2   -1    0    0  501    0  0.00000000000E+00  0.00000000000E+00 -0.16343109073E+04  0.16343109073E+04  0.25500000920E-02 0.  1.
    10030    2    1    2    0    0  0.00000000000E+00  0.00000000000E+00 -0.67770694946E+03  0.25909148651E+04  0.25007105248E+04 0.  0.
        5    1    3    3  502    0 -0.36028117242E+03 -0.72399757930E+02  0.89938066831E+03  0.97157188343E+03  0.46999998093E+01 0. -1.
       -5    1    3    3    0  502  0.36028117242E+03  0.72399757930E+02 -0.15770876178E+04  0.16193429817E+04  0.46999998093E+01 0.  1.
</event>
<event>
 5   0  0.3873231E-07  0.2500304E+04  0.7818609E-02  0.8402877E-01
       -1   -1    0    0    0  501  0.00000000000E+00  0.00000000000E+00  0.15808862516E+04  0.15808862516E+04  0.50400001928E-02 0.  1.
        1   -1    0    0  501    0  0.00000000000E+00  0.00000000000E+00 -0.98860989922E+03  0.98860989923E+03  0.50400001928E-02 0. -1.
    10030    2    1    2    0    0  0.00000000000E+00  0.00000000000E+00  0.59227635234E+03  0.25694961508E+04  0.25003038198E+04 0.  0.
        2    1    3    3  502    0  0.11175185060E+04 -0.29216981907E+03 -0.19528860183E+03  0.11714727707E+04  0.25500000920E-02 0. -1.
       -2    1    3    3    0  502 -0.11175185060E+04  0.29216981907E+03  0.78756495417E+03  0.13980233801E+04  0.25500000920E-02 0.  1.
</event>
<event>
 5   0  0.3972587E-07  0.2501372E+04  0.7818609E-02  0.8402497E-01
        1   -1    0    0  501    0  0.00000000000E+00  0.00000000000E+00  0.17675975118E+04  0.17675975118E+04  0.50400001928E-02 0.  1.
       -1   -1    0    0    0  501  0.00000000000E+00  0.00000000000E+00 -0.88493866983E+03  0.88493866984E+03  0.50400001928E-02 0. -1.
    10030    2    1    2    0    0  0.00000000000E+00  0.00000000000E+00  0.88265884192E+03  0.26525361816E+04  0.25013719363E+04 0.  0.
        3    1    3    3  502    0  0.10164140098E+04  0.72462582774E+03  0.52371179680E+03  0.13536816782E+04  0.10100000352E+00 0. -1.
       -3    1    3    3    0  502 -0.10164140098E+04 -0.72462582774E+03  0.35894704512E+03  0.12988545034E+04  0.10100000352E+00 0.  1.
</event>
<event>
 5   0  0.9508784E-07  0.2498566E+04  0.7818609E-02  0.8403497E-01
       -2   -1    0    0    0  501  0.00000000000E+00  0.00000000000E+00  0.99619135521E+03  0.99619135521E+03  0.25500000920E-02 0. -1.
        2   -1    0    0  501    0  0.00000000000E+00  0.00000000000E+00 -0.15666748980E+04  0.15666748980E+04  0.25500000920E-02 0.  1.
    10030    2    1    2    0    0  0.00000000000E+00  0.00000000000E+00 -0.57048354274E+03  0.25628662532E+04  0.24985659805E+04 0.  0.
        2    1    3    3  502    0 -0.40507382170E+03  0.11538126855E+04 -0.54743588759E+03  0.13397964642E+04  0.25500000920E-02 0. -1.
       -2    1    3    3    0  502  0.40507382170E+03 -0.11538126855E+04 -0.23047655152E+02  0.12230697890E+04  0.25500000920E-02 0.  1.
</event>
<event>
 5   0  0.9261602E-07  0.2499935E+04  0.7818609E-02  0.8403009E-01
        2   -1    0    0  501    0  0.00000000000E+00  0.00000000000E+00  0.12075358195E+04  0.12075358195E+04  0.25500000920E-02 0. -1.
       -2   -1    0    0    0  501  0.00000000000E+00  0.00000000000E+00 -0.12938900481E+04  0.12938900481E+04  0.25500000920E-02 0.  1.
    10030    2    1    2    0    0  0.00000000000E+00  0.00000000000E+00 -0.86354228636E+02  0.25014258676E+04  0.24999348628E+04 0.  0.
        4    1    3    3  502    0 -0.12305900137E+04  0.90444660163E+02 -0.24300839003E+03  0.12576115095E+04  0.12699999809E+01 0.  1.
       -4    1    3    3    0  502  0.12305900137E+04 -0.90444660163E+02  0.15665416139E+03  0.12438143581E+04  0.12699999809E+01 0. -1.
</event>
<event>
 5   0  0.3991066E-07  0.2501162E+04  0.7818609E-02  0.8402572E-01
       -1   -1    0    0    0  501  0.00000000000E+00  0.00000000000E+00  0.82984660783E+03  0.82984660784E+03  0.50400001928E-02 0. -1.
        1   -1    0    0  501    0  0.00000000000E+00  0.00000000000E+00 -0.18846282539E+04  0.18846282539E+04  0.50400001928E-02 0.  1.
    10030    2    1    2    0    0  0.00000000000E+00  0.00000000000E+00 -0.10547816461E+04  0.27144748617E+04  0.25011616209E+04 0.  0.
        1    1    3    3  502    0 -0.15692607493E+03  0.11108875271E+04 -0.11270103913E+04  0.15902356156E+04  0.50400001928E-02 0. -1.
       -1    1    3    3    0  502  0.15692607493E+03 -0.11108875271E+04  0.72228745206E+02  0.11242392462E+04  0.50400001928E-02 0.  1.
</event>
<event>
 5   0  0.3991066E-07  0.2499527E+04  0.7818609E-02  0.8403154E-01
        1   -1    0    0  501    0  0.00000000000E+00  0.00000000000E+00  0.97587844059E+03  0.97587844060E+03  0.50400001928E-02 0.  1.
       -1   -1    0    0    0  501  0.00000000000E+00  0.00000000000E+00 -0.16005158429E+04  0.16005158429E+04  0.50400001928E-02 0. -1.
    10030    2    1    2    0    0  0.00000000000E+00  0.00000000000E+00 -0.62463740229E+03  0.25763942835E+04  0.24995270792E+04 0.  0.
        1    1    3    3  502    0  0.11058046994E+04 -0.58127111746E+03 -0.34845036347E+03  0.12969571316E+04  0.50400001928E-02 0.  1.
       -1    1    3    3    0  502 -0.11058046994E+04  0.58127111746E+03 -0.27618703882E+03  0.12794371519E+04  0.50400001928E-02 0. -1.
</event>
<event>
 5   0  0.9768582E-07  0.2500816E+04  0.7818609E-02  0.8402695E-01
       -2   -1    0    0    0  501  0.00000000000E+00  0.00000000000E+00  0.11508469326E+04  0.11508469327E+04  0.25500000920E-02 0.  1.
        2   -1    0    0  501    0  0.00000000000E+00  0.00000000000E+00 -0.13585824615E+04  0.13585824615E+04  0.25500000920E-02 0. -1.
    10030    2    1    2    0    0  0.00000000000E+00  0.00000000000E+00 -0.20773552883E+03  0.25094293941E+04  0.25008162336E+04 0.  0.
        3    1    3    3  502    0  0.11698092617E+04  0.40432296051E+03  0.74479247008E+02  0.12399507787E+04  0.10100000352E+00 0. -1.
       -3    1    3    3    0  502 -0.11698092617E+04 -0.40432296051E+03 -0.28221477584E+03  0.12694786154E+04  0.10100000352E+00 0.  1.
</event>
<event>
 5   0  0.3805418E-07  0.2509701E+04  0.7818609E-02  0.8399537E-01
       -1   -1    0    0    0  501  0.00000000000E+00  0.00000000000E+00  0.11484705834E+04  0.11484705834E+04  0.50400001928E-02 0.  1.
        1   -1    0    0  501    0  0.00000000000E+00  0.00000000000E+00 -0.13710846118E+04  0.13710846118E+04  0.50400001928E-02 0. -1.
    10030    2    1    2    0    0  0.00000000000E+00  0.00000000000E+00 -0.22261402843E+03  0.25195551953E+04  0.25097014516E+04 0.  0.
        4    1    3    3  502    0 -0.84281931036E+03  0.61079357669E+03 -0.81494083860E+03  0.13219468093E+04  0.12699999809E+01 0. -1.
       -4    1    3    3    0  502  0.84281931036E+03 -0.61079357669E+03  0.59232681017E+03  0.11976083860E+04  0.12699999809E+01 0.  1.
</event>
<event>
 5   0  0.3991066E-07  0.2500115E+04  0.7818609E-02  0.8402944E-01
       -1   -1    0    0    0  501  0.00000000000E+00  0.00000000000E+00  0.98901735524E+03  0.98901735525E+03  0.50400001928E-02 0. -1.
        1   -1    0    0  501    0  0.00000000000E+00  0.00000000000E+00 -0.15799968870E+04  0.15799968870E+04  0.50400001928E-02 0.  1.
    10030    2    1    2    0    0  0.00000000000E+00  0.00000000000E+00 -0.59097953173E+03  0.25690142422E+04  0.25001154713E+04 0.  0.
        1    1    3    3  502    0 -0.59870097721E+03  0.10780269407E+04 -0.50622539471E+03  0.13329850319E+04  0.50400001928E-02 0.  1.
       -1    1    3    3    0  502  0.59870097721E+03 -0.10780269407E+04 -0.84754137012E+02  0.12360292103E+04  0.50400001928E-02 0. -1.
</event>
<event>
 5   0  0.3991066E-07  0.2500594E+04  0.7818609E-02  0.8402774E-01
       -1   -1    0    0    0  501  0.00000000000E+00  0.00000000000E+00  0.80781972913E+03  0.80781972914E+03  0.50400001928E-02 0.  1.
        1   -1    0    0  501    0  0.00000000000E+00  0.00000000000E+00 -0.19351373910E+04  0.19351373910E+04  0.50400001928E-02 0. -1.
    10030    2    1    2    0    0  0.00000000000E+00  0.00000000000E+00 -0.11273176618E+04  0.27429571201E+04  0.25005936599E+04 0.  0.
        1    1    3    3  502    0  0.10448580147E+04  0.24195787528E+03 -0.12685714595E+04  0.16611879581E+04  0.50400001928E-02 0.  1.
       -1    1    3    3    0  502 -0.10448580147E+04 -0.24195787528E+03  0.14125379767E+03  0.10817691620E+04  0.50400001928E-02 0. -1.
</event>
<event>
 5   0  0.3972587E-07  0.2500339E+04  0.7818609E-02  0.8402865E-01
        1   -1    0    0  501    0  0.00000000000E+00  0.00000000000E+00  0.63545907417E+03  0.63545907419E+03  0.50400001928E-02 0. -1.
       -1   -1    0    0    0  501  0.00000000000E+00  0.00000000000E+00 -0.24595187188E+04  0.24595187188E+04  0.50400001928E-02 0.  1.
    10030    2    1    2    0    0  0.00000000000E+00  0.00000000000E+00 -0.18240596447E+04  0.30949777930E+04  0.25003387674E+04 0.  0.
        3    1    3    3  502    0  0.87415671739E+03 -0.89325358586E+03 -0.87548692415E+03  0.15259519323E+04  0.10100000352E+00 0. -1.
       -3    1    3    3    0  502 -0.87415671739E+03  0.89325358586E+03 -0.94857272050E+03  0.15690258607E+04  0.10100000352E+00 0.  1.
</event>
<event>
 5   0  0.9251138E-07  0.2499765E+04  0.7818609E-02  0.8403069E-01
       -2   -1    0    0    0  501  0.00000000000E+00  0.00000000000E+00  0.77428906443E+03  0.77428906444E+03  0.25500000920E-02 0. -1.
        2   -1    0    0  501    0  0.00000000000E+00  0.00000000000E+00 -0.20176003392E+04  0.20176003392E+04  0.25500000920E-02 0.  1.
    10030    2    1    2    0    0  0.00000000000E+00  0.00000000000E+00 -0.12433112747E+04  0.27918894036E+04  0.24997646922E+04 0.  0.
        5    1    3    3  502    0 -0.23197368383E+03 -0.75610139670E+03  0.45926877413E+03  0.91457695629E+03  0.46999998093E+01 0. -1.
       -5    1    3    3    0  502  0.23197368383E+03  0.75610139670E+03 -0.17025800489E+04  0.18773124473E+04  0.46999998093E+01 0.  1.
</event>
<event>
 5   0  0.3805418E-07  0.2504884E+04  0.7818609E-02  0.8401248E-01
        1   -1    0    0  501    0  0.00000000000E+00  0.00000000000E+00  0.10468398934E+04  0.10468398934E+04  0.50400001928E-02 0. -1.
       -1   -1    0    0    0  501  0.00000000000E+00  0.00000000000E+00 -0.14984249141E+04  0.14984249141E+04  0.50400001928E-02 0.  1.
    10030    2    1    2    0    0  0.00000000000E+00  0.00000000000E+00 -0.45158502076E+03  0.25452648075E+04  0.25048840112E+04 0.  0.
        4    1    3    3  502    0  0.77100244533E+03 -0.76537635631E+03  0.40744207434E+03  0.11602828941E+04  0.12699999809E+01 0. -1.
       -4    1    3    3    0  502 -0.77100244533E+03  0.76537635631E+03 -0.85902709511E+03  0.13849819134E+04  0.12699999809E+01 0.  1.
</event>
<event>
 5   0  0.3991066E-07  0.2502235E+04  0.7818609E-02  0.8402190E-01
       -1   -1    0    0    0  501  0.00000000000E+00  0.00000000000E+00  0.12701358374E+04  0.12701358374E+04  0.50400001928E-02 0. -1.
        1   -1    0    0  501    0  0.00000000000E+00  0.00000000000E+00 -0.12323840834E+04  0.12323840834E+04  0.50400001928E-02 0.  1.
    10030    2    1    2    0    0  0.00000000000E+00  0.00000000000E+00  0.37751754083E+02  0.25025199208E+04  0.25022351526E+04 0.  0.
        1    1    3    3  502    0 -0.33338034557E+03  0.25778751852E+03  0.11970160231E+04  0.12690327888E+04  0.50400001928E-02 0. -1.
       -1    1    3    3    0  502  0.33338034557E+03 -0.25778751852E+03 -0.11592642690E+04  0.12334871320E+04  0.50400001928E-02 0.  1.
</event>
<event>
 5   0  0.3991066E-07  0.2499895E+04  0.7818609E-02  0.8403023E-01
       -1   -1    0    0    0  501  0.00000000000E+00  0.00000000000E+00  0.11918379044E+04  0.11918379045E+04  0.50400001928E-02 0.  1.
        1   -1    0    0  501    0  0.00000000000E+00  0.00000000000E+00 -0.13108906984E+04  0.13108906984E+04  0.50400001928E-02 0. -1.
    10030    2    1    2    0    0  0.00000000000E+00  0.00000000000E+00 -0.11905279399E+03  0.25027286029E+04  0.24998953762E+04 0.  0.
        1    1    3    3  502    0 -0.48955974130E+03  0.20869750465E+03 -0.11918014902E+04  0.13052257202E+04  0.50400001928E-02 0. -1.
       -1    1    3    3    0  502  0.48955974130E+03 -0.20869750465E+03  0.10727486962E+04  0.11975028827E+04  0.50400001928E-02 0.  1.
</event>
<event>
 5   0  0.9251138E-07  0.2499778E+04  0.7818609E-02  0.8403065E-01
       -2   -1    0    0    0  501  0.00000000000E+00  0.00000000000E+00  0.11631528498E+04  0.11631528498E+04  0.25500000920E-02 0. -1.
        2   -1    0    0  501    0  0.00000000000E+00  0.00000000000E+00 -0.13430928650E+04  0.13430928650E+04  0.25500000920E-02 0.  1.
    10030    2    1    2    0    0  0.00000000000E+00  0.00000000000E+00 -0.17994001516E+03  0.25062457148E+04  0.24997778249E+04 0.  0.
        5    1    3    3  502    0  0.56287341467E+03 -0.29807861052E+03  0.98823004286E+03  0.11757117192E+04  0.46999998093E+01 0. -1.
       -5    1    3    3    0  502 -0.56287341467E+03  0.29807861052E+03 -0.11681700580E+04  0.13305339956E+04  0.46999998093E+01 0.  1.
</event>
<event>
 5   0  0.9261602E-07  0.2490163E+04  0.7818609E-02  0.8406499E-01
       -2   -1    0    0    0  501  0.00000000000E+00  0.00000000000E+00  0.70966802511E+03  0.70966802511E+03  0.25500000920E-02 0. -1.
        2   -1    0    0  501    0  0.00000000000E+00  0.00000000000E+00 -0.21844403466E+04  0.21844403466E+04  0.25500000920E-02 0.  1.
    10030    2    1    2    0    0  0.00000000000E+00  0.00000000000E+00 -0.14747723215E+04  0.28941083717E+04  0.24901626186E+04 0.  0.
        4    1    3    3  502    0 -0.68249381977E+03  0.53642017676E+03 -0.17747459946E+04  0.19756693495E+04  0.12699999809E+01 0.  1.
       -4    1    3    3    0  502  0.68249381977E+03 -0.53642017676E+03  0.29997367316E+03  0.91843902223E+03  0.12699999809E+01 0. -1.
</event>
<event>
 5   0  0.3837524E-07  0.2501029E+04  0.7818609E-02  0.8402619E-01
        1   -1    0    0  501    0  0.00000000000E+00  0.00000000000E+00  0.14089695853E+04  0.14089695853E+04  0.50400001928E-02 0.  1.
       -1   -1    0    0    0  501  0.00000000000E+00  0.00000000000E+00 -0.11098799485E+04  0.11098799485E+04  0.50400001928E-02 0. -1.
    10030    2    1    2    0    0  0.00000000000E+00  0.00000000000E+00  0.29908963681E+03  0.25188495337E+04  0.25010294606E+04 0.  0.
        5    1    3    3  502    0 -0.10046176617E+04 -0.51852684810E+02  0.89768331026E+03  0.13482591600E+04  0.46999998093E+01 0.  1.
       -5    1    3    3    0  502  0.10046176617E+04  0.51852684810E+02 -0.59859367346E+03  0.11705903737E+04  0.46999998093E+01 0. -1.
</event>
<event>
 5   0  0.9261602E-07  0.2501660E+04  0.7818609E-02  0.8402394E-01
        2   -1    0    0  501    0  0.00000000000E+00  0.00000000000E+00  0.18329635731E+04  0.18329635731E+04  0.25500000920E-02 0.  1.
       -2   -1    0    0    0  501  0.00000000000E+00  0.00000000000E+00 -0.85357689284E+03  0.85357689285E+03  0.25500000920E-02 0. -1.
    10030    2    1    2    0    0  0.00000000000E+00  0.00000000000E+00  0.97938668023E+03  0.26865404659E+04  0.25016597302E+04 0.  0.
        4    1    3    3  502    0 -0.46941235968E+03  0.11080768953E+04  0.12331858835E+03  0.12097071780E+04  0.12699999809E+01 0.  1.
       -4    1    3    3    0  502  0.46941235968E+03 -0.11080768953E+04  0.85606809188E+03  0.14768332879E+04  0.12699999809E+01 0. -1.
</event>
<event>
 5   0  0.3972587E-07  0.2499815E+04  0.7818609E-02  0.8403051E-01
       -1   -1    0    0    0  501  0.00000000000E+00  0.00000000000E+00  0.66921349282E+03  0.66921349284E+03  0.50400001928E-02 0. -1.
        1   -1    0    0  501    0  0.00000000000E+00  0.00000000000E+00 -0.23344848018E+04  0.23344848018E+04  0.50400001928E-02 0.  1.
    10030    2    1    2    0    0  0.00000000000E+00  0.00000000000E+00 -0.16652713090E+04  0.30036982946E+04  0.24998149757E+04 0.  0.
        3    1    3    3  502    0 -0.11250358713E+04 -0.33734600737E+03 -0.13463123017E+04  0.17866350675E+04  0.10100000352E+00 0.  1.
       -3    1    3    3    0  502  0.11250358713E+04  0.33734600737E+03 -0.31895900727E+03  0.12170632272E+04  0.10100000352E+00 0. -1.
</event>
<event>
 5   0  0.9508784E-07  0.2500532E+04  0.7818609E-02  0.8402796E-01
       -2   -1    0    0    0  501  0.00000000000E+00  0.00000000000E+00  0.77931939200E+03  0.77931939200E+03  0.25500000920E-02 0. -1.
        2   -1    0    0  501    0  0.00000000000E+00  0.00000000000E+00 -0.20058087363E+04  0.20058087363E+04  0.25500000920E-02 0.  1.
    10030    2    1    2    0    0  0.00000000000E+00  0.00000000000E+00 -0.12264893443E+04  0.27851281283E+04  0.25005324592E+04 0.  0.
        2    1    3    3  502    0  0.12493079050E+04 -0.16804016522E+02 -0.56204521751E+03  0.13700173149E+04  0.25500000920E-02 0.  1.
       -2    1    3    3    0  502 -0.12493079050E+04  0.16804016522E+02 -0.66444412678E+03  0.14151108134E+04  0.25500000920E-02 0. -1.
</event>
<event>
 5   0  0.8997210E-07  0.2499473E+04  0.7818609E-02  0.8403173E-01
        2   -1    0    0  501    0  0.00000000000E+00  0.00000000000E+00  0.19988547878E+04  0.19988547878E+04  0.25500000920E-02 0.  1.
       -2   -1    0    0    0  501  0.00000000000E+00  0.00000000000E+00 -0.78136801720E+03  0.78136801720E+03  0.25500000920E-02 0. -1.
    10030    2    1    2    0    0  0.00000000000E+00  0.00000000000E+00  0.12174867706E+04  0.27802228050E+04  0.24994729062E+04 0.  0.
        1    1    3    3  502    0  0.11314934306E+04 -0.39920285940E+03  0.99758108256E+03  0.15603872349E+04  0.50400001928E-02 0.  1.
       -1    1    3    3    0  502 -0.11314934306E+04  0.39920285940E+03  0.21990568809E+03  0.12198355702E+04  0.50400001928E-02 0. -1.
</event>
<event>
 5   0  0.3805418E-07  0.2500060E+04  0.7818609E-02  0.8402964E-01
        1   -1    0    0  501    0  0.00000000000E+00  0.00000000000E+00  0.10458567446E+04  0.10458567446E+04  0.50400001928E-02 0.  1.
       -1   -1    0    0    0  501  0.00000000000E+00  0.00000000000E+00 -0.14940623455E+04  0.14940623455E+04  0.50400001928E-02 0. -1.
    10030    2    1    2    0    0  0.00000000000E+00  0.00000000000E+00 -0.44820560087E+03  0.25399190901E+04  0.25000601440E+04 0.  0.
        4    1    3    3  502    0  0.25993805410E+03  0.45686952369E+03 -0.13763257239E+04  0.14732860092E+04  0.12699999809E+01 0. -1.
       -4    1    3    3    0  502 -0.25993805410E+03 -0.45686952369E+03  0.92812012304E+03  0.10666330809E+04  0.12699999809E+01 0.  1.
</event>
<event>
 5   0  0.8997210E-07  0.2503053E+04  0.7818609E-02  0.8401899E-01
       -2   -1    0    0    0  501  0.00000000000E+00  0.00000000000E+00  0.15419087132E+04  0.15419087132E+04  0.25500000920E-02 0. -1.
        2   -1    0    0  501    0  0.00000000000E+00  0.00000000000E+00 -0.10158309181E+04  0.10158309181E+04  0.25500000920E-02 0.  1.
    10030    2    1    2    0    0  0.00000000000E+00  0.00000000000E+00  0.52607779507E+03  0.25577396312E+04  0.25030529708E+04 0.  0.
        1    1    3    3  502    0 -0.62596457491E+02  0.10745044516E+04 -0.38953758691E+03  0.11446473976E+04  0.50400001928E-02 0.  1.
       -1    1    3    3    0  502  0.62596457491E+02 -0.10745044516E+04  0.91561538199E+03  0.14130922337E+04  0.50400001928E-02 0. -1.
</event>
<event>
 5   0  0.3873231E-07  0.2498921E+04  0.7818609E-02  0.8403370E-01
       -1   -1    0    0    0  501  0.00000000000E+00  0.00000000000E+00  0.15246523920E+04  0.15246523920E+04  0.50400001928E-02 0. -1.
        1   -1    0    0  501    0  0.00000000000E+00  0.00000000000E+00 -0.10239392263E+04  0.10239392264E+04  0.50400001928E-02 0.  1.
    10030    2    1    2    0    0  0.00000000000E+00  0.00000000000E+00  0.50071316564E+03  0.25485916183E+04  0.24989208797E+04 0.  0.
        2    1    3    3  502    0 -0.12451580709E+03  0.38334590213E+03  0.14565278108E+04  0.15112681862E+04  0.25500000920E-02 0. -1.
       -2    1    3    3    0  502  0.12451580709E+03 -0.38334590213E+03 -0.95581464519E+03  0.10373234321E+04  0.25500000920E-02 0.  1.
</event>
<event>
 5   0  0.9261602E-07  0.2518028E+04  0.7818609E-02  0.8396591E-01
       -2   -1    0    0    0  501  0.00000000000E+00  0.00000000000E+00  0.72025458344E+03  0.72025458345E+03  0.25500000920E-02 0.  1.
        2   -1    0    0  501    0  0.00000000000E+00  0.00000000000E+00 -0.22007729983E+04  0.22007729983E+04  0.25500000920E-02 0. -1.
    10030    2    1    2    0    0  0.00000000000E+00  0.00000000000E+00 -0.14805184148E+04  0.29210275817E+04  0.25180284662E+04 0.  0.
        4    1    3    3  502    0  0.45798644235E+03  0.11684096599E+04 -0.62320083615E+03  0.14011829323E+04  0.12699999809E+01 0. -1.
       -4    1    3    3    0  502 -0.45798644235E+03 -0.11684096599E+04 -0.85731757867E+03  0.15198446494E+04  0.12699999809E+01 0.  1.
</event>
<event>
 5   0  0.9768582E-07  0.2502220E+04  0.7818609E-02  0.8402195E-01
       -2   -1    0    0    0  501  0.00000000000E+00  0.00000000000E+00  0.12953989755E+04  0.12953989755E+04  0.25500000920E-02 0. -1.
        2   -1    0    0  501    0  0.00000000000E+00  0.00000000000E+00 -0.12083349233E+04  0.12083349233E+04  0.25500000920E-02 0.  1.
    10030    2    1    2    0    0  0.00000000000E+00  0.00000000000E+00  0.87064052169E+02  0.25037338988E+04  0.25022196720E+04 0.  0.
        3    1    3    3  502    0  0.28455829542E+03  0.60813387835E+02  0.12610691497E+04  0.12942052010E+04  0.10100000352E+00 0. -1.
       -3    1    3    3    0  502 -0.28455829542E+03 -0.60813387835E+02 -0.11740050976E+04  0.12095286979E+04  0.10100000352E+00 0.  1.
</event>
<event>
 5   0  0.3873231E-07  0.2498842E+04  0.7818609E-02  0.8403398E-01
        1   -1    0    0  501    0  0.00000000000E+00  0.00000000000E+00  0.10470148289E+04  0.10470148289E+04  0.50400001928E-02 0. -1.
       -1   -1    0    0    0  501  0.00000000000E+00  0.00000000000E+00 -0.14909559869E+04  0.14909559869E+04  0.50400001928E-02 0.  1.
    10030    2    1    2    0    0  0.00000000000E+00  0.00000000000E+00 -0.44394115801E+03  0.25379708157E+04  0.24988421538E+04 0.  0.
        2    1    3    3  502    0  0.42749737753E+03 -0.72325654392E+03  0.71727982425E+03  0.11046919853E+04  0.25500000920E-02 0. -1.
       -2    1    3    3    0  502 -0.42749737753E+03  0.72325654392E+03 -0.11612209823E+04  0.14332788304E+04  0.25500000920E-02 0.  1.
</event>
<event>
 5   0  0.3805418E-07  0.2499993E+04  0.7818609E-02  0.8402988E-01
        1   -1    0    0  501    0  0.00000000000E+00  0.00000000000E+00  0.11888493284E+04  0.11888493284E+04  0.50400001928E-02 0. -1.
       -1   -1    0    0    0  501  0.00000000000E+00  0.00000000000E+00 -0.13142888318E+04  0.13142888318E+04  0.50400001928E-02 0.  1.
    10030    2    1    2    0    0  0.00000000000E+00  0.00000000000E+00 -0.12543950340E+03  0.25031381602E+04  0.24999931160E+04 0.  0.
        4    1    3    3  502    0  0.95531004903E+03 -0.40755015271E+02 -0.86884844768E+03  0.12919665239E+04  0.12699999809E+01 0.  1.
       -4    1    3    3    0  502 -0.95531004903E+03  0.40755015271E+02  0.74340894428E+03  0.12111716362E+04  0.12699999809E+01 0. -1.
</event>
<event>
 5   0  0.3972587E-07  0.2499506E+04  0.7818609E-02  0.8403162E-01
        1   -1    0    0  501    0  0.00000000000E+00  0.00000000000E+00  0.17245702377E+04  0.17245702377E+04  0.50400001928E-02 0. -1.
       -1   -1    0    0    0  501  0.00000000000E+00  0.00000000000E+00 -0.90566454657E+03  0.90566454658E+03  0.50400001928E-02 0.  1.
    10030    2    1    2    0    0  0.00000000000E+00  0.00000000000E+00  0.81890569113E+03  0.26302347843E+04  0.24995056490E+04 0.  0.
        3    1    3    3  502    0  0.28134819401E+03 -0.10384643855E+04 -0.25966314579E+03  0.11067926842E+04  0.10100000352E+00 0.  1.
       -3    1    3    3    0  502 -0.28134819401E+03  0.10384643855E+04  0.10785688369E+04  0.15234421001E+04  0.10100000352E+00 0. -1.
</event>
<event>
 5   0  0.3972587E-07  0.2489699E+04  0.7818609E-02  0.8406664E-01
        1   -1    0    0  501    0  0.00000000000E+00  0.00000000000E+00  0.78356483892E+03  0.78356483894E+03  0.50400001928E-02 0. -1.
       -1   -1    0    0    0  501  0.00000000000E+00  0.00000000000E+00 -0.19776929144E+04  0.19776929144E+04  0.50400001928E-02 0.  1.
    10030    2    1    2    0    0  0.00000000000E+00  0.00000000000E+00 -0.11941280754E+04  0.27612577533E+04  0.24896992830E+04 0.  0.
        3    1    3    3  502    0 -0.33621339180E+03  0.11398209958E+04 -0.10081984947E+04  0.15584272721E+04  0.10100000352E+00 0.  1.
       -3    1    3    3    0  502  0.33621339180E+03 -0.11398209958E+04 -0.18592958071E+03  0.12028304812E+04  0.10100000352E+00 0. -1.
</event>
<event>
 5   0  0.8997210E-07  0.2499997E+04  0.7818609E-02  0.8402987E-01
        2   -1    0    0  501    0  0.00000000000E+00  0.00000000000E+00  0.12713422019E+04  0.12713422019E+04  0.25500000920E-02 0. -1.
       -2   -1    0    0    0  501  0.00000000000E+00  0.00000000000E+00 -0.12290132783E+04  0.12290132783E+04  0.25500000920E-02 0.  1.
    10030    2    1    2    0    0  0.00000000000E+00  0.00000000000E+00  0.42328923527E+02  0.25003554802E+04  0.24999971579E+04 0.  0.
        1    1    3    3  502    0  0.44538725643E+03  0.77470252603E+03  0.89533929963E+03  0.12649767877E+04  0.50400001928E-02 0. -1.
       -1    1    3    3    0  502 -0.44538725643E+03 -0.77470252603E+03 -0.85301037610E+03  0.12353786925E+04  0.50400001928E-02 0.  1.
</event>
<event>
 5   0  0.9251138E-07  0.2499223E+04  0.7818609E-02  0.8403263E-01
       -2   -1    0    0    0  501  0.00000000000E+00  0.00000000000E+00  0.15305412591E+04  0.15305412591E+04  0.25500000920E-02 0.  1.
        2   -1    0    0  501    0  0.00000000000E+00  0.00000000000E+00 -0.10202458554E+04  0.10202458554E+04  0.25500000920E-02 0. -1.
    10030    2    1    2    0    0  0.00000000000E+00  0.00000000000E+00  0.51029540371E+03  0.25507871145E+04  0.24992225800E+04 0.  0.
        5    1    3    3  502    0  0.88016547347E+03 -0.23686553906E+03  0.11276000727E+04  0.14499312254E+04  0.46999998093E+01 0.  1.
       -5    1    3    3    0  502 -0.88016547347E+03  0.23686553906E+03 -0.61730466900E+03  0.11008558891E+04  0.46999998093E+01 0. -1.
</event>
<event>
 5   0  0.9508784E-07  0.2500884E+04  0.7818609E-02  0.8402671E-01
       -2   -1    0    0    0  501  0.00000000000E+00  0.00000000000E+00  0.65108014760E+03  0.65108014760E+03  0.25500000920E-02 0.  1.
        2   -1    0    0  501    0  0.00000000000E+00  0.00000000000E+00 -0.24015546798E+04  0.24015546798E+04  0.25500000920E-02 0. -1.
    10030    2    1    2    0    0  0.00000000000E+00  0.00000000000E+00 -0.17504745322E+04  0.30526348274E+04  0.25008835042E+04 0.  0.
        2    1    3    3  502    0 -0.63024384592E+03 -0.51538425534E+03 -0.20337208334E+04  0.21906274590E+04  0.25500000920E-02 0. -1.
       -2    1    3    3    0  502  0.63024384592E+03  0.51538425534E+03  0.28324630122E+03  0.86200736838E+03  0.25500000920E-02 0.  1.
</event>
<event>
 5   0  0.3991066E-07  0.2500285E+04  0.7818609E-02  0.8402884E-01
        1   -1    0    0  501    0  0.00000000000E+00  0.00000000000E+00  0.11770338921E+04  0.11770338921E+04  0.50400001928E-02 0.  1.
       -1   -1    0    0    0  501  0.00000000000E+00  0.00000000000E+00 -0.13277922450E+04  0.13277922450E+04  0.50400001928E-02 0. -1.
    10030    2    1    2    0    0  0.00000000000E+00  0.00000000000E+00 -0.15075835287E+03  0.25048261371E+04  0.25002851630E+04 0.  0.
        1    1    3    3  502    0  0.54463181386E+03 -0.57256984660E+03  0.89508881675E+03  0.11940033634E+04  0.50400001928E-02 0.  1.
       -1    1    3    3    0  502 -0.54463181386E+03  0.57256984660E+03 -0.10458471696E+04  0.13108227737E+04  0.50400001928E-02 0. -1.
</event>
<event>
 5   0  0.9508784E-07  0.2499281E+04  0.7818609E-02  0.8403242E-01
       -2   -1    0    0    0  501  0.00000000000E+00  0.00000000000E+00  0.92909348856E+03  0.92909348857E+03  0.25500000920E-02 0. -1.
        2   -1    0    0  501    0  0.00000000000E+00  0.00000000000E+00 -0.16807791646E+04  0.16807791646E+04  0.25500000920E-02 0.  1.
    10030    2    1    2    0    0  0.00000000000E+00  0.00000000000E+00 -0.75168567608E+03  0.26098726532E+04  0.24992806786E+04 0.  0.
        2    1    3    3  502    0  0.42982850032E+03  0.48384720689E+03  0.74044979918E+03  0.98342593234E+03  0.25500000920E-02 0. -1.
       -2    1    3    3    0  502 -0.42982850032E+03 -0.48384720689E+03 -0.14921354753E+04  0.16264467209E+04  0.25500000920E-02 0.  1.
</event>
<event>
 5   0  0.3991066E-07  0.2498129E+04  0.7818609E-02  0.8403652E-01
       -1   -1    0    0    0  501  0.00000000000E+00  0.00000000000E+00  0.69917300478E+03  0.69917300479E+03  0.50400001928E-02 0. -1.
        1   -1    0    0  501    0  0.00000000000E+00  0.00000000000E+00 -0.22314392635E+04  0.22314392635E+04  0.50400001928E-02 0.  1.
    10030    2    1    2    0    0  0.00000000000E+00  0.00000000000E+00 -0.15322662587E+04  0.29306122683E+04  0.24981289757E+04 0.  0.
        1    1    3    3  502    0 -0.12311309320E+03 -0.88453229474E+03  0.25832485368E+03  0.92966980386E+03  0.50400001928E-02 0. -1.
       -1    1    3    3    0  502  0.12311309320E+03  0.88453229474E+03 -0.17905911124E+04  0.20009424644E+04  0.50400001928E-02 0.  1.
</event>
<event>
 5   0  0.3837524E-07  0.2500215E+04  0.7818609E-02  0.8402909E-01
       -1   -1    0    0    0  501  0.00000000000E+00  0.00000000000E+00  0.10809428387E+04  0.10809428388E+04  0.50400001928E-02 0.  1.
        1   -1    0    0  501    0  0.00000000000E+00  0.00000000000E+00 -0.14457460638E+04  0.14457460638E+04  0.50400001928E-02 0. -1.
    10030    2    1    2    0    0  0.00000000000E+00  0.00000000000E+00 -0.36480322502E+03  0.25266889025E+04  0.25002150742E+04 0.  0.
        5    1    3    3  502    0 -0.18976152199E+03 -0.30297515850E+03 -0.13929768511E+04  0.14381272473E+04  0.46999998093E+01 0. -1.
       -5    1    3    3    0  502  0.18976152199E+03  0.30297515850E+03  0.10281736260E+04  0.10885616552E+04  0.46999998093E+01 0.  1.
</event>
<event>
 5   0  0.9261602E-07  0.2499818E+04  0.7818609E-02  0.8403050E-01
       -2   -1    0    0    0  501  0.00000000000E+00  0.00000000000E+00  0.10479014384E+04  0.10479014384E+04  0.25500000920E-02 0. -1.
        2   -1    0    0  501    0  0.00000000000E+00  0.00000000000E+00 -0.14908579527E+04  0.14908579527E+04  0.25500000920E-02 0.  1.
    10030    2    1    2    0    0  0.00000000000E+00  0.00000000000E+00 -0.44295651430E+03  0.25387593911E+04  0.24998177479E+04 0.  0.
        4    1    3    3  502    0 -0.79258309648E+01  0.57228365365E+03  0.90700150745E+03  0.10724853129E+04  0.12699999809E+01 0. -1.
       -4    1    3    3    0  502  0.79258309648E+01 -0.57228365365E+03 -0.13499580218E+04  0.14662740782E+04  0.12699999809E+01 0.  1.
</event>
<event>
 5   0  0.3972587E-07  0.2500323E+04  0.7818609E-02  0.8402870E-01
       -1   -1    0    0    0  501  0.00000000000E+00  0.00000000000E+00  0.90000684667E+03  0.90000684669E+03  0.50400001928E-02 0.  1.
        1   -1    0    0  501    0  0.00000000000E+00  0.00000000000E+00 -0.17365469214E+04  0.17365469214E+04  0.50400001928E-02 0. -1.
    10030    2    1    2    0    0  0.00000000000E+00  0.00000000000E+00 -0.83654007472E+03  0.26365537681E+04  0.25003232742E+04 0.  0.
        3    1    3    3  502    0 -0.12752961208E+03 -0.67142218551E+03 -0.15221264075E+04  0.16685144182E+04  0.10100000352E+00 0. -1.
       -3    1    3    3    0  502  0.12752961208E+03  0.67142218551E+03  0.68558633273E+03  0.96803934992E+03  0.10100000352E+00 0.  1.
</event>
<event>
 5   0  0.3214375E-07  0.2499671E+04  0.7818609E-02  0.8403103E-01
        3   -1    0    0  501    0  0.00000000000E+00  0.00000000000E+00  0.16212406845E+04  0.16212406876E+04  0.10100000352E+00 0.  1.
       -3   -1    0    0    0  501  0.00000000000E+00  0.00000000000E+00 -0.96351414004E+03  0.96351414533E+03  0.10100000352E+00 0. -1.
    10030    2    1    2    0    0  0.00000000000E+00  0.00000000000E+00  0.65772654446E+03  0.25847548330E+04  0.24996706462E+04 0.  0.
        4    1    3    3  502    0  0.66172206940E+03  0.72339851076E+03  0.11304297640E+04  0.14963470743E+04  0.12699999809E+01 0.  1.
       -4    1    3    3    0  502 -0.66172206940E+03 -0.72339851076E+03 -0.47270321954E+03  0.10884077587E+04  0.12699999809E+01 0. -1.
</event>
<event>
 5   0  0.3991066E-07  0.2501134E+04  0.7818609E-02  0.8402582E-01
       -1   -1    0    0    0  501  0.00000000000E+00  0.00000000000E+00  0.13375151231E+04  0.13375151231E+04  0.50400001928E-02 0.  1.
        1   -1    0    0  501    0  0.00000000000E+00  0.00000000000E+00 -0.11692713827E+04  0.11692713827E+04  0.50400001928E-02 0. -1.
    10030    2    1    2    0    0  0.00000000000E+00  0.00000000000E+00  0.16824374041E+03  0.25067865057E+04  0.25011342685E+04 0.  0.
        1    1    3    3  502    0  0.99855570561E+03  0.57479304440E+03  0.57144862865E+03  0.12861003368E+04  0.50400001928E-02 0.  1.
       -1    1    3    3    0  502 -0.99855570561E+03 -0.57479304440E+03 -0.40320488824E+03  0.12206861689E+04  0.50400001928E-02 0. -1.
</event>
<event>
 5   0  0.3873231E-07  0.2500091E+04  0.7818609E-02  0.8402953E-01
        1   -1    0    0  501    0  0.00000000000E+00  0.00000000000E+00  0.14143516652E+04  0.14143516652E+04  0.50400001928E-02 0. -1.
       -1   -1    0    0    0  501  0.00000000000E+00  0.00000000000E+00 -0.11048265686E+04  0.11048265686E+04  0.50400001928E-02 0.  1.
    10030    2    1    2    0    0  0.00000000000E+00  0.00000000000E+00  0.30952509662E+03  0.25191782338E+04  0.25000906360E+04 0.  0.
        2    1    3    3  502    0  0.15411286735E+02 -0.92839579408E+03  0.99808544865E+03  0.13632060817E+04  0.25500000920E-02 0. -1.
       -2    1    3    3    0  502 -0.15411286735E+02  0.92839579408E+03 -0.68856035203E+03  0.11559721522E+04  0.25500000920E-02 0.  1.
</event>
<event>
 5   0  0.3805418E-07  0.2502821E+04  0.7818609E-02  0.8401981E-01
        1   -1    0    0  501    0  0.00000000000E+00  0.00000000000E+00  0.25429643295E+04  0.25429643295E+04  0.50400001928E-02 0.  1.
       -1   -1    0    0    0  501  0.00000000000E+00  0.00000000000E+00 -0.61582782782E+03  0.61582782784E+03  0.50400001928E-02 0. -1.
    10030    2    1    2    0    0  0.00000000000E+00  0.00000000000E+00  0.19271365017E+04  0.31587921574E+04  0.25028209679E+04 0.  0.
        4    1    3    3  502    0  0.14882587982E+03 -0.74682473706E+03  0.22168779722E+04  0.23440234399E+04  0.12699999809E+01 0.  1.
       -4    1    3    3    0  502 -0.14882587982E+03  0.74682473706E+03 -0.28974147045E+03  0.81476871748E+03  0.12699999809E+01 0. -1.
</event>
<event>
 5   0  0.3837524E-07  0.2500400E+04  0.7818609E-02  0.8402843E-01
       -1   -1    0    0    0  501  0.00000000000E+00  0.00000000000E+00  0.32802154047E+04  0.32802154047E+04  0.50400001928E-02 0. -1.
        1   -1    0    0  501    0  0.00000000000E+00  0.00000000000E+00 -0.47649312961E+03  0.47649312964E+03  0.50400001928E-02 0.  1.
    10030    2    1    2    0    0  0.00000000000E+00  0.00000000000E+00  0.28037222751E+04  0.37567085343E+04  0.25004000512E+04 0.  0.
        5    1    3    3  502    0  0.39703664262E+03  0.93292929161E+03  0.30293643860E+03  0.10582002337E+04  0.46999998093E+01 0.  1.
       -5    1    3    3    0  502 -0.39703664262E+03 -0.93292929161E+03  0.25007858365E+04  0.26985083006E+04  0.46999998093E+01 0. -1.
</event>
<event>
 5   0  0.8997210E-07  0.2500986E+04  0.7818609E-02  0.8402634E-01
       -2   -1    0    0    0  501  0.00000000000E+00  0.00000000000E+00  0.83913863796E+03  0.83913863796E+03  0.25500000920E-02 0. -1.
        2   -1    0    0  501    0  0.00000000000E+00  0.00000000000E+00 -0.18634974539E+04  0.18634974539E+04  0.25500000920E-02 0.  1.
    10030    2    1    2    0    0  0.00000000000E+00  0.00000000000E+00 -0.10243588160E+04  0.27026360919E+04  0.25009859778E+04 0.  0.
        1    1    3    3  502    0 -0.64147822515E+03  0.61068777370E+03  0.44177656518E+03  0.98974764655E+03  0.50400001928E-02 0. -1.
       -1    1    3    3    0  502  0.64147822515E+03 -0.61068777370E+03 -0.14661353811E+04  0.17128884453E+04  0.50400001928E-02 0.  1.
</event>
<event>
 5   0  0.3873231E-07  0.2498613E+04  0.7818609E-02  0.8403480E-01
        1   -1    0    0  501    0  0.00000000000E+00  0.00000000000E+00  0.28228674422E+04  0.28228674422E+04  0.50400001928E-02 0. -1.
       -1   -1    0    0    0  501  0.00000000000E+00  0.00000000000E+00 -0.55290131405E+03  0.55290131408E+03  0.50400001928E-02 0.  1.
    10030    2    1    2    0    0  0.00000000000E+00  0.00000000000E+00  0.22699661281E+04  0.33757687563E+04  0.24986133100E+04 0.  0.
        2    1    3    3  502    0  0.13243014541E+03  0.39052026198E+03 -0.45830391013E+03  0.61651138877E+03  0.25500000920E-02 0.  1.
       -2    1    3    3    0  502 -0.13243014541E+03 -0.39052026198E+03  0.27282700383E+04  0.27592573675E+04  0.25500000920E-02 0. -1.
</event>
<event>
 5   0  0.9768582E-07  0.2500457E+04  0.7818609E-02  0.8402823E-01
        2   -1    0    0  501    0  0.00000000000E+00  0.00000000000E+00  0.18552629709E+04  0.18552629709E+04  0.25500000920E-02 0.  1.
       -2   -1    0    0    0  501  0.00000000000E+00  0.00000000000E+00 -0.84250663017E+03  0.84250663017E+03  0.25500000920E-02 0. -1.
    10030    2    1    2    0    0  0.00000000000E+00  0.00000000000E+00  0.10127563407E+04  0.26977696011E+04  0.25004570412E+04 0.  0.
        3    1    3    3  502    0 -0.53491346965E+03 -0.37474009593E+03 -0.64381784148E+03  0.91709540546E+03  0.10100000352E+00 0. -1.
       -3    1    3    3    0  502  0.53491346965E+03  0.37474009593E+03  0.16565741822E+04  0.17806741956E+04  0.10100000352E+00 0.  1.
</event>
<event>
 5   0  0.3805418E-07  0.2500793E+04  0.7818609E-02  0.8402703E-01
       -1   -1    0    0    0  501  0.00000000000E+00  0.00000000000E+00  0.64496249893E+03  0.64496249895E+03  0.50400001928E-02 0.  1.
        1   -1    0    0  501    0  0.00000000000E+00  0.00000000000E+00 -0.24241590576E+04  0.24241590576E+04  0.50400001928E-02 0. -1.
    10030    2    1    2    0    0  0.00000000000E+00  0.00000000000E+00 -0.17791965587E+04  0.30691215566E+04  0.25007932211E+04 0.  0.
        4    1    3    3  502    0  0.33611775472E+03 -0.11740717328E+04 -0.56012890612E+03  0.13435645065E+04  0.12699999809E+01 0.  1.
       -4    1    3    3    0  502 -0.33611775472E+03  0.11740717328E+04 -0.12190676526E+04  0.17255570501E+04  0.12699999809E+01 0. -1.
</event>
<event>
 5   0  0.8997210E-07  0.2502114E+04  0.7818609E-02  0.8402233E-01
        2   -1    0    0  501    0  0.00000000000E+00  0.00000000000E+00  0.13664797778E+04  0.13664797778E+04  0.25500000920E-02 0. -1.
       -2   -1    0    0    0  501  0.00000000000E+00  0.00000000000E+00 -0.11453832403E+04  0.11453832403E+04  0.25500000920E-02 0.  1.
    10030    2    1    2    0    0  0.00000000000E+00  0.00000000000E+00  0.22109653755E+03  0.25118630181E+04  0.25021135351E+04 0.  0.
        1    1    3    3  502    0  0.87817629896E+03 -0.51559828553E+03  0.84009017498E+03  0.13201464715E+04  0.50400001928E-02 0. -1.
       -1    1    3    3    0  502 -0.87817629896E+03  0.51559828553E+03 -0.61899363743E+03  0.11917165465E+04  0.50400001928E-02 0.  1.
</event>
<event>
 5   0  0.3972587E-07  0.2499216E+04  0.7818609E-02  0.8403265E-01
       -1   -1    0    0    0  501  0.00000000000E+00  0.00000000000E+00  0.20135282948E+04  0.20135282948E+04  0.50400001928E-02 0.  1.
        1   -1    0    0  501    0  0.00000000000E+00  0.00000000000E+00 -0.77551448928E+03  0.77551448930E+03  0.50400001928E-02 0. -1.
    10030    2    1    2    0    0  0.00000000000E+00  0.00000000000E+00  0.12380138056E+04  0.27890427841E+04  0.24992161709E+04 0.  0.
        3    1    3    3  502    0 -0.85897738688E+03 -0.60997592673E+03 -0.13094249890E+03  0.10616302231E+04  0.10100000352E+00 0.  1.
       -3    1    3    3    0  502  0.85897738688E+03  0.60997592673E+03  0.13689563045E+04  0.17274125610E+04  0.10100000352E+00 0. -1.
</event>
<event>
 5   0  0.9261602E-07  0.2501122E+04  0.7818609E-02  0.8402586E-01
        2   -1    0    0  501    0  0.00000000000E+00  0.00000000000E+00  0.23948402460E+04  0.23948402460E+04  0.25500000920E-02 0.  1.
       -2   -1    0    0    0  501  0.00000000000E+00  0.00000000000E+00 -0.65303020186E+03  0.65303020187E+03  0.25500000920E-02 0. -1.
    10030    2    1    2    0    0  0.00000000000E+00  0.00000000000E+00  0.17418100442E+04  0.30478704479E+04  0.25011221556E+04 0.  0.
        4    1    3    3  502    0 -0.92603858336E+03  0.64998410883E+03  0.15201743172E+04  0.18949824187E+04  0.12699999809E+01 0.  1.
       -4    1    3    3    0  502  0.92603858336E+03 -0.64998410883E+03  0.22163572702E+03  0.11528880293E+04  0.12699999809E+01 0. -1.
</event>
<event>
 5   0  0.9261602E-07  0.2501109E+04  0.7818609E-02  0.8402590E-01
       -2   -1    0    0    0  501  0.00000000000E+00  0.00000000000E+00  0.15229637294E+04  0.15229637294E+04  0.25500000920E-02 0.  1.
        2   -1    0    0  501    0  0.00000000000E+00  0.00000000000E+00 -0.10268706600E+04  0.10268706600E+04  0.25500000920E-02 0. -1.
    10030    2    1    2    0    0  0.00000000000E+00  0.00000000000E+00  0.49609306935E+03  0.25498343894E+04  0.25011091699E+04 0.  0.
        4    1    3    3  502    0  0.25659495777E+03 -0.90574788930E+03  0.10872878121E+04  0.14381990858E+04  0.12699999809E+01 0.  1.
       -4    1    3    3    0  502 -0.25659495777E+03  0.90574788930E+03 -0.59119474272E+03  0.11116353035E+04  0.12699999809E+01 0. -1.
</event>
<event>
 5   0  0.9251138E-07  0.2500049E+04  0.7818609E-02  0.8402968E-01
        2   -1    0    0  501    0  0.00000000000E+00  0.00000000000E+00  0.16600263331E+04  0.16600263331E+04  0.25500000920E-02 0.  1.
       -2   -1    0    0    0  501  0.00000000000E+00  0.00000000000E+00 -0.94128731936E+03  0.94128731936E+03  0.25500000920E-02 0. -1.
    10030    2    1    2    0    0  0.00000000000E+00  0.00000000000E+00  0.71873901377E+03  0.26013136525E+04  0.25000493892E+04 0.  0.
        5    1    3    3  502    0  0.67778977637E+03 -0.20351913612E+03  0.14315039775E+04  0.15968859531E+04  0.46999998093E+01 0.  1.
       -5    1    3    3    0  502 -0.67778977637E+03  0.20351913612E+03 -0.71276496373E+03  0.10044276994E+04  0.46999998093E+01 0. -1.
</event>
<event>
 5   0  0.9508784E-07  0.2499934E+04  0.7818609E-02  0.8403009E-01
        2   -1    0    0  501    0  0.00000000000E+00  0.00000000000E+00  0.25256855441E+04  0.25256855442E+04  0.25500000920E-02 0. -1.
       -2   -1    0    0    0  501  0.00000000000E+00  0.00000000000E+00 -0.61861111621E+03  0.61861111621E+03  0.25500000920E-02 0.  1.
    10030    2    1    2    0    0  0.00000000000E+00  0.00000000000E+00  0.19070744279E+04  0.31442966604E+04  0.24999337221E+04 0.  0.
        2    1    3    3  502    0  0.11339903100E+04 -0.51970014660E+03  0.10541171819E+04  0.16331519521E+04  0.25500000920E-02 0.  1.
       -2    1    3    3    0  502 -0.11339903100E+04  0.51970014660E+03  0.85295724608E+03  0.15111447082E+04  0.25500000920E-02 0. -1.
</event>
<event>
 5   0  0.9768582E-07  0.2499399E+04  0.7818609E-02  0.8403200E-01
       -2   -1    0    0    0  501  0.00000000000E+00  0.00000000000E+00  0.10319623645E+04  0.10319623645E+04  0.25500000920E-02 0. -1.
        2   -1    0    0  501    0  0.00000000000E+00  0.00000000000E+00 -0.15133780911E+04  0.15133780911E+04  0.25500000920E-02 0.  1.
    10030    2    1    2    0    0  0.00000000000E+00  0.00000000000E+00 -0.48141572653E+03  0.25453404556E+04  0.24993993145E+04 0.  0.
        3    1    3    3  502    0 -0.10893926242E+04  0.42458591637E+03  0.20865058585E+03  0.11876803304E+04  0.10100000352E+00 0. -1.
       -3    1    3    3    0  502  0.10893926242E+04 -0.42458591637E+03 -0.69006631239E+03  0.13576601252E+04  0.10100000352E+00 0.  1.
</event>
<event>
 5   0  0.9768582E-07  0.2498233E+04  0.7818609E-02  0.8403615E-01
       -2   -1    0    0    0  501  0.00000000000E+00  0.00000000000E+00  0.11313023349E+04  0.11313023349E+04  0.25500000920E-02 0. -1.
        2   -1    0    0  501    0  0.00000000000E+00  0.00000000000E+00 -0.13791999760E+04  0.13791999760E+04  0.25500000920E-02 0.  1.
    10030    2    1    2    0    0  0.00000000000E+00  0.00000000000E+00 -0.24789764108E+03  0.25105023109E+04  0.24982330981E+04 0.  0.
        3    1    3    3  502    0 -0.66184607013E+03  0.33048365053E+03 -0.11353870215E+04  0.13551248513E+04  0.10100000352E+00 0.  1.
       -3    1    3    3    0  502  0.66184607013E+03 -0.33048365053E+03  0.88748938037E+03  0.11553774597E+04  0.10100000352E+00 0. -1.
</event>
<event>
 5   0  0.9508784E-07  0.2498736E+04  0.7818609E-02  0.8403436E-01
        2   -1    0    0  501    0  0.00000000000E+00  0.00000000000E+00  0.18660764196E+04  0.18660764196E+04  0.25500000920E-02 0. -1.
       -2   -1    0    0    0  501  0.00000000000E+00  0.00000000000E+00 -0.83647189929E+03  0.83647189929E+03  0.25500000920E-02 0.  1.
    10030    2    1    2    0    0  0.00000000000E+00  0.00000000000E+00  0.10296045203E+04  0.27025483189E+04  0.24987360701E+04 0.  0.
        2    1    3    3  502    0 -0.11353727214E+04 -0.27339334949E+03  0.34624231543E+02  0.11683381263E+04  0.25500000920E-02 0.  1.
       -2    1    3    3    0  502  0.11353727214E+04  0.27339334949E+03  0.99498028878E+03  0.15342101926E+04  0.25500000920E-02 0. -1.
</event>
<event>
 5   0  0.3214375E-07  0.2493754E+04  0.7818609E-02  0.8405214E-01
        3   -1    0    0  501    0  0.00000000000E+00  0.00000000000E+00  0.12232005824E+04  0.12232005866E+04  0.10100000352E+00 0. -1.
       -3   -1    0    0    0  501  0.00000000000E+00  0.00000000000E+00 -0.12710113431E+04  0.12710113471E+04  0.10100000352E+00 0.  1.
    10030    2    1    2    0    0  0.00000000000E+00  0.00000000000E+00 -0.47810760659E+02  0.24942119337E+04  0.24937536569E+04 0.  0.
        5    1    3    3  502    0  0.10600706310E+03  0.29524455123E+02 -0.12661362576E+04  0.12709178981E+04  0.46999998093E+01 0.  1.
       -5    1    3    3    0  502 -0.10600706310E+03 -0.29524455123E+02  0.12183254970E+04  0.12232940356E+04  0.46999998093E+01 0. -1.
</event>
<event>
 5   0  0.9251138E-07  0.2500408E+04  0.7818609E-02  0.8402840E-01
       -2   -1    0    0    0  501  0.00000000000E+00  0.00000000000E+00  0.97681944677E+03  0.97681944677E+03  0.25500000920E-02 0. -1.
        2   -1    0    0  501    0  0.00000000000E+00  0.00000000000E+00 -0.16001009361E+04  0.16001009361E+04  0.25500000920E-02 0.  1.
    10030    2    1    2    0    0  0.00000000000E+00  0.00000000000E+00 -0.62328148934E+03  0.25769203829E+04  0.25004077357E+04 0.  0.
        5    1    3    3  502    0 -0.10673919429E+03 -0.75915720007E+03  0.70613863652E+03  0.10422891988E+04  0.46999998093E+01 0. -1.
       -5    1    3    3    0  502  0.10673919429E+03  0.75915720007E+03 -0.13294201259E+04  0.15346311840E+04  0.46999998093E+01 0.  1.
</event>
<event>
 5   0  0.9768582E-07  0.2500701E+04  0.7818609E-02  0.8402736E-01
        2   -1    0    0  501    0  0.00000000000E+00  0.00000000000E+00  0.11226183198E+04  0.11226183198E+04  0.25500000920E-02 0. -1.
       -2   -1    0    0    0  501  0.00000000000E+00  0.00000000000E+00 -0.13926161913E+04  0.13926161913E+04  0.25500000920E-02 0.  1.
    10030    2    1    2    0    0  0.00000000000E+00  0.00000000000E+00 -0.26999787152E+03  0.25152345111E+04  0.25007010608E+04 0.  0.
        3    1    3    3  502    0 -0.10054440014E+04  0.69867190093E+03 -0.39007956496E+03  0.12849988880E+04  0.10100000352E+00 0.  1.
       -3    1    3    3    0  502  0.10054440014E+04 -0.69867190093E+03  0.12008169344E+03  0.12302356231E+04  0.10100000352E+00 0. -1.
</event>
<event>
 5   0  0.3805418E-07  0.2498930E+04  0.7818609E-02  0.8403367E-01
       -1   -1    0    0    0  501  0.00000000000E+00  0.00000000000E+00  0.15803195203E+04  0.15803195203E+04  0.50400001928E-02 0. -1.
        1   -1    0    0  501    0  0.00000000000E+00  0.00000000000E+00 -0.98787809420E+03  0.98787809422E+03  0.50400001928E-02 0.  1.
    10030    2    1    2    0    0  0.00000000000E+00  0.00000000000E+00  0.59244142609E+03  0.25681976145E+04  0.24989301999E+04 0.  0.
        4    1    3    3  502    0 -0.27285551722E+03  0.43714687969E+03  0.14660220442E+04  0.15539529513E+04  0.12699999809E+01 0. -1.
       -4    1    3    3    0  502  0.27285551722E+03 -0.43714687969E+03 -0.87358061813E+03  0.10142446633E+04  0.12699999809E+01 0.  1.
</event>
<event>
 5   0  0.8997210E-07  0.2499654E+04  0.7818609E-02  0.8403109E-01
       -2   -1    0    0    0  501  0.00000000000E+00  0.00000000000E+00  0.81027661780E+03  0.81027661780E+03  0.25500000920E-02 0. -1.
        2   -1    0    0  501    0  0.00000000000E+00  0.00000000000E+00 -0.19278207807E+04  0.19278207807E+04  0.25500000920E-02 0.  1.
    10030    2    1    2    0    0  0.00000000000E+00  0.00000000000E+00 -0.11175441629E+04  0.27380973985E+04  0.24996544577E+04 0.  0.
        1    1    3    3  502    0 -0.70659487146E+03  0.99971246901E+03 -0.28303212909E+03  0.12565064740E+04  0.50400001928E-02 0.  1.
       -1    1    3    3    0  502  0.70659487146E+03 -0.99971246901E+03 -0.83451203383E+03  0.14815909245E+04  0.50400001928E-02 0. -1.
</event>
<event>
 5   0  0.9508784E-07  0.2499742E+04  0.7818609E-02  0.8403078E-01
        2   -1    0    0  501    0  0.00000000000E+00  0.00000000000E+00  0.11657797221E+04  0.11657797221E+04  0.25500000920E-02 0. -1.
       -2   -1    0    0    0  501  0.00000000000E+00  0.00000000000E+00 -0.13400276438E+04  0.13400276438E+04  0.25500000920E-02 0.  1.
    10030    2    1    2    0    0  0.00000000000E+00  0.00000000000E+00 -0.17424792162E+03  0.25058073659E+04  0.24997416300E+04 0.  0.
        2    1    3    3  502    0 -0.10544227782E+04  0.58896279774E+03  0.23535913905E+03  0.12304789704E+04  0.25500000920E-02 0. -1.
       -2    1    3    3    0  502  0.10544227782E+04 -0.58896279774E+03 -0.40960706066E+03  0.12753283955E+04  0.25500000920E-02 0.  1.
</event>
<event>
 5   0  0.3873231E-07  0.2499870E+04  0.7818609E-02  0.8403032E-01
       -1   -1    0    0    0  501  0.00000000000E+00  0.00000000000E+00  0.11644729778E+04  0.11644729778E+04  0.50400001928E-02 0.  1.
        1   -1    0    0  501    0  0.00000000000E+00  0.00000000000E+00 -0.13416688958E+04  0.13416688958E+04  0.50400001928E-02 0. -1.
    10030    2    1    2    0    0  0.00000000000E+00  0.00000000000E+00 -0.17719591799E+03  0.25061418737E+04  0.24998697361E+04 0.  0.
        2    1    3    3  502    0 -0.38947390669E+03 -0.16652211970E+03  0.10903277303E+04  0.11697153926E+04  0.25500000920E-02 0.  1.
       -2    1    3    3    0  502  0.38947390669E+03  0.16652211970E+03 -0.12675236483E+04  0.13364264810E+04  0.25500000920E-02 0. -1.
</event>
<event>
 5   0  0.9251138E-07  0.2500371E+04  0.7818609E-02  0.8402853E-01
       -2   -1    0    0    0  501  0.00000000000E+00  0.00000000000E+00  0.13542979420E+04  0.13542979420E+04  0.25500000920E-02 0.  1.
        2   -1    0    0  501    0  0.00000000000E+00  0.00000000000E+00 -0.11540772233E+04  0.11540772233E+04  0.25500000920E-02 0. -1.
    10030    2    1    2    0    0  0.00000000000E+00  0.00000000000E+00  0.20022071870E+03  0.25083751654E+04  0.25003714992E+04 0.  0.
        5    1    3    3  502    0  0.36457472727E+03  0.11411869577E+04 -0.25841283868E+03  0.12255699447E+04  0.46999998093E+01 0.  1.
       -5    1    3    3    0  502 -0.36457472727E+03 -0.11411869577E+04  0.45863355738E+03  0.12828052207E+04  0.46999998093E+01 0. -1.
</event>
<event>
 5   0  0.3972587E-07  0.2498832E+04  0.7818609E-02  0.8403402E-01
        1   -1    0    0  501    0  0.00000000000E+00  0.00000000000E+00  0.17780668433E+04  0.17780668434E+04  0.50400001928E-02 0.  1.
       -1   -1    0    0    0  501  0.00000000000E+00  0.00000000000E+00 -0.87794241199E+03  0.87794241201E+03  0.50400001928E-02 0. -1.
    10030    2    1    2    0    0  0.00000000000E+00  0.00000000000E+00  0.90012443135E+03  0.26560092554E+04  0.24988319617E+04 0.  0.
        3    1    3    3  502    0  0.72987157379E+03  0.65373920469E+02 -0.62554563918E+03  0.96347995339E+03  0.10100000352E+00 0. -1.
       -3    1    3    3    0  502 -0.72987157379E+03 -0.65373920469E+02  0.15256700705E+04  0.16925293020E+04  0.10100000352E+00 0.  1.
</event>
<event>
 5   0  0.3972587E-07  0.2500145E+04  0.7818609E-02  0.8402934E-01
       -1   -1    0    0    0  501  0.00000000000E+00  0.00000000000E+00  0.13464941963E+04  0.13464941963E+04  0.50400001928E-02 0.  1.
        1   -1    0    0  501    0  0.00000000000E+00  0.00000000000E+00 -0.11605555355E+04  0.11605555355E+04  0.50400001928E-02 0. -1.
    10030    2    1    2    0    0  0.00000000000E+00  0.00000000000E+00  0.18593866084E+03  0.25070497318E+04  0.25001450302E+04 0.  0.
        3    1    3    3  502    0 -0.54622921296E+03 -0.86967577909E+03  0.80766411508E+03  0.13065311503E+04  0.10100000352E+00 0.  1.
       -3    1    3    3    0  502  0.54622921296E+03  0.86967577909E+03 -0.62172545424E+03  0.12005185815E+04  0.10100000352E+00 0. -1.
</event>
<event>
 5   0  0.3805418E-07  0.2499959E+04  0.7818609E-02  0.8403000E-01
       -1   -1    0    0    0  501  0.00000000000E+00  0.00000000000E+00  0.11269359678E+04  0.11269359678E+04  0.50400001928E-02 0.  1.
        1   -1    0    0  501    0  0.00000000000E+00  0.00000000000E+00 -0.13864573727E+04  0.13864573727E+04  0.50400001928E-02 0. -1.
    10030    2    1    2    0    0  0.00000000000E+00  0.00000000000E+00 -0.25952140492E+03  0.25133933405E+04  0.24999589446E+04 0.  0.
        4    1    3    3  502    0  0.68707770943E+03  0.94416676645E+03  0.31864099981E+03  0.12103967785E+04  0.12699999809E+01 0.  1.
       -4    1    3    3    0  502 -0.68707770943E+03 -0.94416676645E+03 -0.57816240473E+03  0.13029965621E+04  0.12699999809E+01 0. -1.
</event>
<event>
 5   0  0.9261602E-07  0.2503197E+04  0.7818609E-02  0.8401848E-01
       -2   -1    0    0    0  501  0.00000000000E+00  0.00000000000E+00  0.10593728671E+04  0.10593728671E+04  0.25500000920E-02 0. -1.
        2   -1    0    0  501    0  0.00000000000E+00  0.00000000000E+00 -0.14787036870E+04  0.14787036870E+04  0.25500000920E-02 0.  1.
    10030    2    1    2    0    0  0.00000000000E+00  0.00000000000E+00 -0.41933081985E+03  0.25380765541E+04  0.25031968076E+04 0.  0.
        4    1    3    3  502    0 -0.35330885388E+03 -0.57553431294E+03  0.85878735164E+03  0.10925128008E+04  0.12699999809E+01 0. -1.
       -4    1    3    3    0  502  0.35330885388E+03  0.57553431294E+03 -0.12781181715E+04  0.14455637533E+04  0.12699999809E+01 0.  1.
</event>
<event>
 5   0  0.9508784E-07  0.2499895E+04  0.7818609E-02  0.8403023E-01
       -2   -1    0    0    0  501  0.00000000000E+00  0.00000000000E+00  0.12632480119E+04  0.12632480119E+04  0.25500000920E-02 0. -1.
        2   -1    0    0  501    0  0.00000000000E+00  0.00000000000E+00 -0.12367869676E+04  0.12367869676E+04  0.25500000920E-02 0.  1.
    10030    2    1    2    0    0  0.00000000000E+00  0.00000000000E+00  0.26461044262E+02  0.25000349795E+04  0.24998949401E+04 0.  0.
        2    1    3    3  502    0 -0.48059055718E+03  0.11840598882E+03  0.11610671893E+04  0.12621665025E+04  0.25500000920E-02 0. -1.
       -2    1    3    3    0  502  0.48059055718E+03 -0.11840598882E+03 -0.11346061451E+04  0.12378684770E+04  0.25500000920E-02 0.  1.
</event>
<event>
 5   0  0.9261602E-07  0.2500170E+04  0.7818609E-02  0.8402925E-01
       -2   -1    0    0    0  501  0.00000000000E+00  0.00000000000E+00  0.75233791328E+03  0.75233791329E+03  0.25500000920E-02 0.  1.
        2   -1    0    0  501    0  0.00000000000E+00  0.00000000000E+00 -0.20771420631E+04  0.20771420631E+04  0.25500000920E-02 0. -1.
    10030    2    1    2    0    0  0.00000000000E+00  0.00000000000E+00 -0.13248041498E+04  0.28294799764E+04  0.25001701745E+04 0.  0.
        4    1    3    3  502    0  0.75183681550E+02  0.37423342012E+02 -0.20739451021E+04  0.20756451989E+04  0.12699999809E+01 0. -1.
       -4    1    3    3    0  502 -0.75183681550E+02 -0.37423342012E+02  0.74914095225E+03  0.75383477748E+03  0.12699999809E+01 0.  1.
</event>
<event>
 5   0  0.8997210E-07  0.2500393E+04  0.7818609E-02  0.8402845E-01
       -2   -1    0    0    0  501  0.00000000000E+00  0.00000000000E+00  0.23119689441E+04  0.23119689441E+04  0.25500000920E-02 0.  1.
        2   -1    0    0  501    0  0.00000000000E+00  0.00000000000E+00 -0.67604345089E+03  0.67604345089E+03  0.25500000920E-02 0. -1.
    10030    2    1    2    0    0  0.00000000000E+00  0.00000000000E+00  0.16359254932E+04  0.29880123950E+04  0.25003931397E+04 0.  0.
        1    1    3    3  502    0  0.64772156076E+03  0.99359049764E+03  0.12902986770E+04  0.17526083342E+04  0.50400001928E-02 0.  1.
       -1    1    3    3    0  502 -0.64772156076E+03 -0.99359049764E+03  0.34562681623E+03  0.12354040608E+04  0.50400001928E-02 0. -1.
</event>
<event>
 5   0  0.9768582E-07  0.2499378E+04  0.7818609E-02  0.8403207E-01
        2   -1    0    0  501    0  0.00000000000E+00  0.00000000000E+00  0.14139677523E+04  0.14139677523E+04  0.25500000920E-02 0. -1.
       -2   -1    0    0    0  501  0.00000000000E+00  0.00000000000E+00 -0.11044966130E+04  0.11044966130E+04  0.25500000920E-02 0.  1.
    10030    2    1    2    0    0  0.00000000000E+00  0.00000000000E+00  0.30947113929E+03  0.25184643653E+04  0.24993779972E+04 0.  0.
        3    1    3    3  502    0 -0.51064792063E+02 -0.84614418884E+03  0.10799823300E+04  0.13729273268E+04  0.10100000352E+00 0. -1.
       -3    1    3    3    0  502  0.51064792063E+02  0.84614418884E+03 -0.77051119073E+03  0.11455370385E+04  0.10100000352E+00 0.  1.
</event>
<event>
 5   0  0.3991066E-07  0.2499615E+04  0.7818609E-02  0.8403123E-01
       -1   -1    0    0    0  501  0.00000000000E+00  0.00000000000E+00  0.12250996722E+04  0.12250996722E+04  0.50400001928E-02 0.  1.
        1   -1    0    0  501    0  0.00000000000E+00  0.00000000000E+00 -0.12750141448E+04  0.12750141448E+04  0.50400001928E-02 0. -1.
    10030    2    1    2    0    0  0.00000000000E+00  0.00000000000E+00 -0.49914472546E+02  0.25001138170E+04  0.24996154991E+04 0.  0.
        1    1    3    3  502    0 -0.99793637030E+03  0.56128804994E+03 -0.52615406728E+03  0.12600632431E+04  0.50400001928E-02 0. -1.
       -1    1    3    3    0  502  0.99793637030E+03 -0.56128804994E+03  0.47623959473E+03  0.12400505739E+04  0.50400001928E-02 0.  1.
</event>
<event>
 5   0  0.9508784E-07  0.2502406E+04  0.7818609E-02  0.8402129E-01
        2   -1    0    0  501    0  0.00000000000E+00  0.00000000000E+00  0.21411986066E+04  0.21411986066E+04  0.25500000920E-02 0.  1.
       -2   -1    0    0    0  501  0.00000000000E+00  0.00000000000E+00 -0.73113657218E+03  0.73113657218E+03  0.25500000920E-02 0. -1.
    10030    2    1    2    0    0  0.00000000000E+00  0.00000000000E+00  0.14100620344E+04  0.28723351788E+04  0.25024057302E+04 0.  0.
        2    1    3    3  502    0 -0.11468709950E+04  0.21610297709E+03  0.18724025407E+03  0.11819782099E+04  0.25500000920E-02 0. -1.
       -2    1    3    3    0  502  0.11468709950E+04 -0.21610297709E+03  0.12228217803E+04  0.16903569689E+04  0.25500000920E-02 0.  1.
</event>
<event>
 5   0  0.3873231E-07  0.2501580E+04  0.7818609E-02  0.8402423E-01
       -1   -1    0    0    0  501  0.00000000000E+00  0.00000000000E+00  0.11371678030E+04  0.11371678030E+04  0.50400001928E-02 0. -1.
        1   -1    0    0  501    0  0.00000000000E+00  0.00000000000E+00 -0.13757651050E+04  0.13757651050E+04  0.50400001928E-02 0.  1.
    10030    2    1    2    0    0  0.00000000000E+00  0.00000000000E+00 -0.23859730199E+03  0.25129329080E+04  0.25015801262E+04 0.  0.
        2    1    3    3  502    0 -0.12214095764E+04 -0.24690477829E+03 -0.22782811487E+03  0.12667710814E+04  0.25500000920E-02 0.  1.
       -2    1    3    3    0  502  0.12214095764E+04  0.24690477829E+03 -0.10769187117E+02  0.12461618266E+04  0.25500000920E-02 0. -1.
</event>
<event>
 5   0  0.9261602E-07  0.2499338E+04  0.7818609E-02  0.8403222E-01
        2   -1    0    0  501    0  0.00000000000E+00  0.00000000000E+00  0.14297608626E+04  0.14297608626E+04  0.25500000920E-02 0. -1.
       -2   -1    0    0    0  501  0.00000000000E+00  0.00000000000E+00 -0.10922610082E+04  0.10922610082E+04  0.25500000920E-02 0.  1.
    10030    2    1    2    0    0  0.00000000000E+00  0.00000000000E+00  0.33749985441E+03  0.25220218707E+04  0.24993375452E+04 0.  0.
        4    1    3    3  502    0 -0.61220395830E+03  0.58139096444E+03 -0.76094893472E+03  0.11365975692E+04  0.12699999809E+01 0.  1.
       -4    1    3    3    0  502  0.61220395830E+03 -0.58139096444E+03  0.10984487891E+04  0.13854243016E+04  0.12699999809E+01 0. -1.
</event>
<event>
 5   0  0.9261602E-07  0.2500152E+04  0.7818609E-02  0.8402931E-01
        2   -1    0    0  501    0  0.00000000000E+00  0.00000000000E+00  0.15638212486E+04  0.15638212486E+04  0.25500000920E-02 0.  1.
       -2   -1    0    0    0  501  0.00000000000E+00  0.00000000000E+00 -0.99927697391E+03  0.99927697391E+03  0.25500000920E-02 0. -1.
    10030    2    1    2    0    0  0.00000000000E+00  0.00000000000E+00  0.56454427466E+03  0.25630982225E+04  0.25001524474E+04 0.  0.
        4    1    3    3  502    0 -0.44497581913E+03  0.11275737689E+04  0.59535056371E+03  0.13505073086E+04  0.12699999809E+01 0.  1.
       -4    1    3    3    0  502  0.44497581913E+03 -0.11275737689E+04 -0.30806289050E+02  0.12125909139E+04  0.12699999809E+01 0. -1.
</event>
<event>
 5   0  0.3991066E-07  0.2499741E+04  0.7818609E-02  0.8403078E-01
       -1   -1    0    0    0  501  0.00000000000E+00  0.00000000000E+00  0.87844224040E+03  0.87844224041E+03  0.50400001928E-02 0.  1.
        1   -1    0    0  501    0  0.00000000000E+00  0.00000000000E+00 -0.17783476179E+04  0.17783476179E+04  0.50400001928E-02 0. -1.
    10030    2    1    2    0    0  0.00000000000E+00  0.00000000000E+00 -0.89990537747E+03  0.26567898583E+04  0.24997405191E+04 0.  0.
        1    1    3    3  502    0  0.61747148018E+03  0.32307536696E+03  0.65279137089E+03  0.95487449202E+03  0.50400001928E-02 0.  1.
       -1    1    3    3    0  502 -0.61747148018E+03 -0.32307536696E+03 -0.15526967484E+04  0.17019153663E+04  0.50400001928E-02 0. -1.
</event>
<event>
 5   0  0.3972587E-07  0.2498521E+04  0.7818609E-02  0.8403513E-01
       -1   -1    0    0    0  501  0.00000000000E+00  0.00000000000E+00  0.12536608553E+04  0.12536608553E+04  0.50400001928E-02 0.  1.
        1   -1    0    0  501    0  0.00000000000E+00  0.00000000000E+00 -0.12448758249E+04  0.12448758249E+04  0.50400001928E-02 0. -1.
    10030    2    1    2    0    0  0.00000000000E+00  0.00000000000E+00  0.87850303701E+01  0.24985366802E+04  0.24985212357E+04 0.  0.
        3    1    3    3  502    0  0.10364878470E+04  0.66122803359E+03 -0.21724484416E+03  0.12484890476E+04  0.10100000352E+00 0. -1.
       -3    1    3    3    0  502 -0.10364878470E+04 -0.66122803359E+03  0.22602987453E+03  0.12500476326E+04  0.10100000352E+00 0.  1.
</event>
<event>
 5   0  0.9768582E-07  0.2500269E+04  0.7818609E-02  0.8402890E-01
       -2   -1    0    0    0  501  0.00000000000E+00  0.00000000000E+00  0.12560601343E+04  0.12560601343E+04  0.25500000920E-02 0. -1.
        2   -1    0    0  501    0  0.00000000000E+00  0.00000000000E+00 -0.12442369491E+04  0.12442369491E+04  0.25500000920E-02 0.  1.
    10030    2    1    2    0    0  0.00000000000E+00  0.00000000000E+00  0.11823185163E+02  0.25002970834E+04  0.25002691290E+04 0.  0.
        3    1    3    3  502    0  0.55354741825E+03 -0.10933630731E+04  0.25285334472E+03  0.12513162582E+04  0.10100000352E+00 0. -1.
       -3    1    3    3    0  502 -0.55354741825E+03  0.10933630731E+04 -0.24103015956E+03  0.12489808252E+04  0.10100000352E+00 0.  1.
</event>
<event>
 5   0  0.3837524E-07  0.2500451E+04  0.7818609E-02  0.8402825E-01
        1   -1    0    0  501    0  0.00000000000E+00  0.00000000000E+00  0.18955663189E+04  0.18955663189E+04  0.50400001928E-02 0.  1.
       -1   -1    0    0    0  501  0.00000000000E+00  0.00000000000E+00 -0.82458932417E+03  0.82458932418E+03  0.50400001928E-02 0. -1.
    10030    2    1    2    0    0  0.00000000000E+00  0.00000000000E+00  0.10709769948E+04  0.27201556431E+04  0.25004509592E+04 0.  0.
        5    1    3    3  502    0  0.61768622120E+02  0.12402237930E+04  0.37757455931E+03  0.12979041017E+04  0.46999998093E+01 0.  1.
       -5    1    3    3    0  502 -0.61768622120E+02 -0.12402237930E+04  0.69340243544E+03  0.14222515414E+04  0.46999998093E+01 0. -1.
</event>
<event>
 5   0  0.3805418E-07  0.2499577E+04  0.7818609E-02  0.8403136E-01
       -1   -1    0    0    0  501  0.00000000000E+00  0.00000000000E+00  0.86637361146E+03  0.86637361147E+03  0.50400001928E-02 0.  1.
        1   -1    0    0  501    0  0.00000000000E+00  0.00000000000E+00 -0.18028848288E+04  0.18028848288E+04  0.50400001928E-02 0. -1.
    10030    2    1    2    0    0  0.00000000000E+00  0.00000000000E+00 -0.93651121736E+03  0.26692584403E+04  0.24995774365E+04 0.  0.
        4    1    3    3  502    0 -0.68163777240E+03  0.11360522108E+03 -0.15803088938E+04  0.17247939041E+04  0.12699999809E+01 0. -1.
       -4    1    3    3    0  502  0.68163777240E+03 -0.11360522108E+03  0.64379767643E+03  0.94446453618E+03  0.12699999809E+01 0.  1.
</event>
<event>
 5   0  0.9261602E-07  0.2500517E+04  0.7818609E-02  0.8402801E-01
        2   -1    0    0  501    0  0.00000000000E+00  0.00000000000E+00  0.18041579205E+04  0.18041579205E+04  0.25500000920E-02 0.  1.
       -2   -1    0    0    0  501  0.00000000000E+00  0.00000000000E+00 -0.86641326422E+03  0.86641326422E+03  0.25500000920E-02 0. -1.
    10030    2    1    2    0    0  0.00000000000E+00  0.00000000000E+00  0.93774465628E+03  0.26705711847E+04  0.25005170290E+04 0.  0.
        4    1    3    3  502    0  0.58506576500E+03  0.35946372704E+03  0.15847376955E+04  0.17271106788E+04  0.12699999809E+01 0.  1.
       -4    1    3    3    0  502 -0.58506576500E+03 -0.35946372704E+03 -0.64699303925E+03  0.94346050589E+03  0.12699999809E+01 0. -1.
</event>
<event>
 5   0  0.8997210E-07  0.2499125E+04  0.7818609E-02  0.8403297E-01
        2   -1    0    0  501    0  0.00000000000E+00  0.00000000000E+00  0.27902856345E+04  0.27902856345E+04  0.25500000920E-02 0.  1.
       -2   -1    0    0    0  501  0.00000000000E+00  0.00000000000E+00 -0.55958658227E+03  0.55958658228E+03  0.25500000920E-02 0. -1.
    10030    2    1    2    0    0  0.00000000000E+00  0.00000000000E+00  0.22306990522E+04  0.33498722168E+04  0.24991249683E+04 0.  0.
        1    1    3    3  502    0 -0.32969933971E+03 -0.36319547663E+03 -0.42513654929E+03  0.64911762757E+03  0.50400001928E-02 0. -1.
       -1    1    3    3    0  502  0.32969933971E+03  0.36319547663E+03  0.26558356015E+04  0.27007545892E+04  0.50400001928E-02 0.  1.
</event>
<event>
 5   0  0.3873231E-07  0.2500036E+04  0.7818609E-02  0.8402973E-01
       -1   -1    0    0    0  501  0.00000000000E+00  0.00000000000E+00  0.14482952908E+04  0.14482952908E+04  0.50400001928E-02 0.  1.
        1   -1    0    0  501    0  0.00000000000E+00  0.00000000000E+00 -0.10788858420E+04  0.10788858420E+04  0.50400001928E-02 0. -1.
    10030    2    1    2    0    0  0.00000000000E+00  0.00000000000E+00  0.36940944880E+03  0.25271811328E+04  0.25000362272E+04 0.  0.
        2    1    3    3  502    0  0.11367718278E+03  0.16519013334E+01 -0.10736488371E+04  0.10796513586E+04  0.25500000920E-02 0. -1.
       -2    1    3    3    0  502 -0.11367718278E+03 -0.16519013334E+01  0.14430582859E+04  0.14475297742E+04  0.25500000920E-02 0.  1.
</event>
<event>
 5   0  0.9508784E-07  0.2499921E+04  0.7818609E-02  0.8403014E-01
       -2   -1    0    0    0  501  0.00000000000E+00  0.00000000000E+00  0.12939499420E+04  0.12939499420E+04  0.25500000920E-02 0. -1.
        2   -1    0    0  501    0  0.00000000000E+00  0.00000000000E+00 -0.12074668649E+04  0.12074668649E+04  0.25500000920E-02 0.  1.
    10030    2    1    2    0    0  0.00000000000E+00  0.00000000000E+00  0.86483077080E+02  0.25014168069E+04  0.24999213426E+04 0.  0.
        2    1    3    3  502    0  0.62327427975E+03 -0.10831599658E+04  0.16856453820E+02  0.12497961751E+04  0.25500000920E-02 0. -1.
       -2    1    3    3    0  502 -0.62327427975E+03  0.10831599658E+04  0.69626623260E+02  0.12516206318E+04  0.25500000920E-02 0.  1.
</event>
<event>
 5   0  0.8997210E-07  0.2495620E+04  0.7818609E-02  0.8404548E-01
        2   -1    0    0  501    0  0.00000000000E+00  0.00000000000E+00  0.10362160352E+04  0.10362160352E+04  0.25500000920E-02 0.  1.
       -2   -1    0    0    0  501  0.00000000000E+00  0.00000000000E+00 -0.15026110799E+04  0.15026110799E+04  0.25500000920E-02 0. -1.
    10030    2    1    2    0    0  0.00000000000E+00  0.00000000000E+00 -0.46639504467E+03  0.25388271152E+04  0.24956199196E+04 0.  0.
        1    1    3    3  502    0 -0.10723740631E+04 -0.29336850541E+02 -0.88155647176E+03  0.13885202897E+04  0.50400001928E-02 0. -1.
       -1    1    3    3    0  502  0.10723740631E+04  0.29336850541E+02  0.41516142709E+03  0.11503068254E+04  0.50400001928E-02 0.  1.
</event>
<event>
 5   0  0.9768582E-07  0.2499028E+04  0.7818609E-02  0.8403332E-01
        2   -1    0    0  501    0  0.00000000000E+00  0.00000000000E+00  0.16101011911E+04  0.16101011911E+04  0.25500000920E-02 0.  1.
       -2   -1    0    0    0  501  0.00000000000E+00  0.00000000000E+00 -0.96968153915E+03  0.96968153916E+03  0.25500000920E-02 0. -1.
    10030    2    1    2    0    0  0.00000000000E+00  0.00000000000E+00  0.64041965199E+03  0.25797827303E+04  0.24990281321E+04 0.  0.
        3    1    3    3  502    0 -0.62206774117E+02 -0.91119503728E+03  0.12004897527E+04  0.15084169633E+04  0.10100000352E+00 0.  1.
       -3    1    3    3    0  502  0.62206774117E+02  0.91119503728E+03 -0.56007010071E+03  0.10713657670E+04  0.10100000352E+00 0. -1.
</event>
<event>
 5   0  0.9508784E-07  0.2501557E+04  0.7818609E-02  0.8402431E-01
        2   -1    0    0  501    0  0.00000000000E+00  0.00000000000E+00  0.21650837289E+04  0.21650837289E+04  0.25500000920E-02 0.  1.
       -2   -1    0    0    0  501  0.00000000000E+00  0.00000000000E+00 -0.72258048580E+03  0.72258048581E+03  0.25500000920E-02 0. -1.
    10030    2    1    2    0    0  0.00000000000E+00  0.00000000000E+00  0.14425032431E+04  0.28876642147E+04  0.25015573170E+04 0.  0.
        2    1    3    3  502    0 -0.10254005580E+04  0.33964370451E+03  0.14491704608E+04  0.18074565485E+04  0.25500000920E-02 0.  1.
       -2    1    3    3    0  502  0.10254005580E+04 -0.33964370451E+03 -0.66672177024E+01  0.10802076662E+04  0.25500000920E-02 0. -1.
</event>
<event>
 5   0  0.3837524E-07  0.2498031E+04  0.7818609E-02  0.8403687E-01
        1   -1    0    0  501    0  0.00000000000E+00  0.00000000000E+00  0.16850382693E+04  0.16850382693E+04  0.50400001928E-02 0. -1.
       -1   -1    0    0    0  501  0.00000000000E+00  0.00000000000E+00 -0.92581877471E+03  0.92581877472E+03  0.50400001928E-02 0.  1.
    10030    2    1    2    0    0  0.00000000000E+00  0.00000000000E+00  0.75921949460E+03  0.26108570440E+04  0.24980312775E+04 0.  0.
        5    1    3    3  502    0 -0.62061078367E+03  0.62445865589E+03 -0.54635744559E+03  0.10361635518E+04  0.46999998093E+01 0.  1.
       -5    1    3    3    0  502  0.62061078367E+03 -0.62445865589E+03  0.13055769402E+04  0.15746934922E+04  0.46999998093E+01 0. -1.
</event>
<event>
 5   0  0.9261602E-07  0.2499304E+04  0.7818609E-02  0.8403234E-01
       -2   -1    0    0    0  501  0.00000000000E+00  0.00000000000E+00  0.14758067864E+04  0.14758067864E+04  0.25500000920E-02 0. -1.
        2   -1    0    0  501    0  0.00000000000E+00  0.00000000000E+00 -0.10581532363E+04  0.10581532363E+04  0.25500000920E-02 0.  1.
    10030    2    1    2    0    0  0.00000000000E+00  0.00000000000E+00  0.41765355009E+03  0.25339600228E+04  0.24993036848E+04 0.  0.
        4    1    3    3  502    0 -0.69530346141E+02  0.80480128359E+03  0.11755091954E+04  0.14263109957E+04  0.12699999809E+01 0. -1.
       -4    1    3    3    0  502  0.69530346141E+02 -0.80480128359E+03 -0.75785564531E+03  0.11076490270E+04  0.12699999809E+01 0.  1.
</event>
<event>
 5   0  0.3972587E-07  0.2502755E+04  0.7818609E-02  0.8402005E-01
       -1   -1    0    0    0  501  0.00000000000E+00  0.00000000000E+00  0.89970359459E+03  0.89970359460E+03  0.50400001928E-02 0. -1.
        1   -1    0    0  501    0  0.00000000000E+00  0.00000000000E+00 -0.17405121456E+04  0.17405121456E+04  0.50400001928E-02 0.  1.
    10030    2    1    2    0    0  0.00000000000E+00  0.00000000000E+00 -0.84080855097E+03  0.26402157402E+04  0.25027545096E+04 0.  0.
        3    1    3    3  502    0  0.39869663791E+03  0.11518477787E+04 -0.71921548954E+03  0.14152679057E+04  0.10100000352E+00 0.  1.
       -3    1    3    3    0  502 -0.39869663791E+03 -0.11518477787E+04 -0.12159306143E+03  0.12249478345E+04  0.10100000352E+00 0. -1.
</event>
<event>
 5   0  0.3991066E-07  0.2499713E+04  0.7818609E-02  0.8403088E-01
       -1   -1    0    0    0  501  0.00000000000E+00  0.00000000000E+00  0.37679664564E+04  0.37679664564E+04  0.50400001928E-02 0.  1.
        1   -1    0    0  501    0  0.00000000000E+00  0.00000000000E+00 -0.41458482295E+03  0.41458482298E+03  0.50400001928E-02 0. -1.
    10030    2    1    2    0    0  0.00000000000E+00  0.00000000000E+00  0.33533816335E+04  0.41825512794E+04  0.24997133486E+04 0.  0.
        1    1    3    3  502    0 -0.91996828633E+03 -0.26807492392E+03  0.33401124382E+03  0.10147755041E+04  0.50400001928E-02 0. -1.
       -1    1    3    3    0  502  0.91996828633E+03  0.26807492392E+03  0.30193703897E+04  0.31677757753E+04  0.50400001928E-02 0.  1.
</event>
<event>
 5   0  0.9768582E-07  0.2502215E+04  0.7818609E-02  0.8402197E-01
       -2   -1    0    0    0  501  0.00000000000E+00  0.00000000000E+00  0.17827078568E+04  0.17827078568E+04  0.25500000920E-02 0.  1.
        2   -1    0    0  501    0  0.00000000000E+00  0.00000000000E+00 -0.87802976472E+03  0.87802976472E+03  0.25500000920E-02 0. -1.
    10030    2    1    2    0    0  0.00000000000E+00  0.00000000000E+00  0.90467809205E+03  0.26607376215E+04  0.25022154664E+04 0.  0.
        3    1    3    3  502    0 -0.55173982448E+03  0.80493089204E+01  0.16463231331E+04  0.17363356513E+04  0.10100000352E+00 0.  1.
       -3    1    3    3    0  502  0.55173982448E+03 -0.80493089204E+01 -0.74164504106E+03  0.92440197015E+03  0.10100000352E+00 0. -1.
</event>
<event>
 5   0  0.3214375E-07  0.2499174E+04  0.7818609E-02  0.8403280E-01
        3   -1    0    0  501    0  0.00000000000E+00  0.00000000000E+00  0.14242164958E+04  0.14242164994E+04  0.10100000352E+00 0. -1.
       -3   -1    0    0    0  501  0.00000000000E+00  0.00000000000E+00 -0.10963692580E+04  0.10963692627E+04  0.10100000352E+00 0.  1.
    10030    2    1    2    0    0  0.00000000000E+00  0.00000000000E+00  0.32784723780E+03  0.25205857621E+04  0.24991736180E+04 0.  0.
        4    1    3    3  502    0  0.66028631364E+03 -0.57785659191E+02  0.12323145548E+04  0.13992562214E+04  0.12699999809E+01 0. -1.
       -4    1    3    3    0  502 -0.66028631364E+03  0.57785659191E+02 -0.90446731698E+03  0.11213295407E+04  0.12699999809E+01 0.  1.
</event>
<event>
 5   0  0.3972587E-07  0.2500015E+04  0.7818609E-02  0.8402980E-01
        1   -1    0    0  501    0  0.00000000000E+00  0.00000000000E+00  0.17888192152E+04  0.17888192152E+04  0.50400001928E-02 0. -1.
       -1   -1    0    0    0  501  0.00000000000E+00  0.00000000000E+00 -0.87349195872E+03  0.87349195873E+03  0.50400001928E-02 0.  1.
    10030    2    1    2    0    0  0.00000000000E+00  0.00000000000E+00  0.91532725648E+03  0.26623111739E+04  0.25000153600E+04 0.  0.
        3    1    3    3  502    0  0.20950232768E+03  0.43873841619E+03  0.16840018468E+04  0.17527820325E+04  0.10100000352E+00 0. -1.
       -3    1    3    3    0  502 -0.20950232768E+03 -0.43873841619E+03 -0.76867459033E+03  0.90952914146E+03  0.10100000352E+00 0.  1.
</event>
<event>
 5   0  0.3805418E-07  0.2499962E+04  0.7818609E-02  0.8402999E-01
       -1   -1    0    0    0  501  0.00000000000E+00  0.00000000000E+00  0.19676886784E+04  0.19676886785E+04  0.50400001928E-02 0.  1.
        1   -1    0    0  501    0  0.00000000000E+00  0.00000000000E+00 -0.79405445209E+03  0.79405445211E+03  0.50400001928E-02 0. -1.
    10030    2    1    2    0    0  0.00000000000E+00  0.00000000000E+00  0.11736342264E+04  0.27617431306E+04  0.24999615641E+04 0.  0.
        4    1    3    3  502    0 -0.38742601750E+03 -0.14206797985E+03 -0.71663713508E+03  0.82695382350E+03  0.12699999809E+01 0. -1.
       -4    1    3    3    0  502  0.38742601750E+03  0.14206797985E+03  0.18902713614E+04  0.19347893071E+04  0.12699999809E+01 0.  1.
</event>
<event>
 5   0  0.3837524E-07  0.2499543E+04  0.7818609E-02  0.8403148E-01
        1   -1    0    0  501    0  0.00000000000E+00  0.00000000000E+00  0.76342774071E+03  0.76342774073E+03  0.50400001928E-02 0. -1.
       -1   -1    0    0    0  501  0.00000000000E+00  0.00000000000E+00 -0.20459423450E+04  0.20459423450E+04  0.50400001928E-02 0.  1.
    10030    2    1    2    0    0  0.00000000000E+00  0.00000000000E+00 -0.12825146043E+04  0.28093700857E+04  0.24995432720E+04 0.  0.
        5    1    3    3  502    0  0.51865552474E+02  0.12474776137E+04 -0.57952555231E+03  0.13765036825E+04  0.46999998093E+01 0. -1.
       -5    1    3    3    0  502 -0.51865552474E+02 -0.12474776137E+04 -0.70298905198E+03  0.14328664032E+04  0.46999998093E+01 0.  1.
</event>
<event>
 5   0  0.3805418E-07  0.2485952E+04  0.7818609E-02  0.8408007E-01
       -1   -1    0    0    0  501  0.00000000000E+00  0.00000000000E+00  0.62844313609E+03  0.62844313611E+03  0.50400001928E-02 0.  1.
        1   -1    0    0  501    0  0.00000000000E+00  0.00000000000E+00 -0.24584401733E+04  0.24584401733E+04  0.50400001928E-02 0. -1.
    10030    2    1    2    0    0  0.00000000000E+00  0.00000000000E+00 -0.18299970372E+04  0.30868833094E+04  0.24859524150E+04 0.  0.
        4    1    3    3  502    0 -0.10943206644E+04  0.33861722706E+03 -0.31588580999E+03  0.11882696667E+04  0.12699999809E+01 0.  1.
       -4    1    3    3    0  502  0.10943206644E+04 -0.33861722706E+03 -0.15141112272E+04  0.18986136427E+04  0.12699999809E+01 0. -1.
</event>
<event>
 5   0  0.8997210E-07  0.2494008E+04  0.7818609E-02  0.8405123E-01
       -2   -1    0    0    0  501  0.00000000000E+00  0.00000000000E+00  0.71459626371E+03  0.71459626372E+03  0.25500000920E-02 0. -1.
        2   -1    0    0  501    0  0.00000000000E+00  0.00000000000E+00 -0.21760797418E+04  0.21760797418E+04  0.25500000920E-02 0.  1.
    10030    2    1    2    0    0  0.00000000000E+00  0.00000000000E+00 -0.14614834781E+04  0.28906760055E+04  0.24940075806E+04 0.  0.
        1    1    3    3  502    0 -0.92149159819E+03  0.29671854542E+03  0.18029537895E+03  0.98473097059E+03  0.50400001928E-02 0. -1.
       -1    1    3    3    0  502  0.92149159819E+03 -0.29671854542E+03 -0.16417788570E+04  0.19059450349E+04  0.50400001928E-02 0.  1.
</event>
<event>
 5   0  0.3991066E-07  0.2499740E+04  0.7818609E-02  0.8403078E-01
       -1   -1    0    0    0  501  0.00000000000E+00  0.00000000000E+00  0.11575923831E+04  0.11575923831E+04  0.50400001928E-02 0. -1.
        1   -1    0    0  501    0  0.00000000000E+00  0.00000000000E+00 -0.13495038979E+04  0.13495038979E+04  0.50400001928E-02 0.  1.
    10030    2    1    2    0    0  0.00000000000E+00  0.00000000000E+00 -0.19191151476E+03  0.25070962810E+04  0.24997403331E+04 0.  0.
        1    1    3    3  502    0 -0.23683355194E+03  0.11696555327E+04  0.27660908409E+03  0.12250292984E+04  0.50400001928E-02 0.  1.
       -1    1    3    3    0  502  0.23683355194E+03 -0.11696555327E+04 -0.46852059886E+03  0.12820669826E+04  0.50400001928E-02 0. -1.
</event>
<event>
 5   0  0.9768582E-07  0.2501234E+04  0.7818609E-02  0.8402546E-01
       -2   -1    0    0    0  501  0.00000000000E+00  0.00000000000E+00  0.59681498502E+03  0.59681498502E+03  0.25500000920E-02 0.  1.
        2   -1    0    0  501    0  0.00000000000E+00  0.00000000000E+00 -0.26206499512E+04  0.26206499512E+04  0.25500000920E-02 0. -1.
    10030    2    1    2    0    0  0.00000000000E+00  0.00000000000E+00 -0.20238349662E+04  0.32174649363E+04  0.25012342245E+04 0.  0.
        3    1    3    3  502    0  0.52176082063E+03 -0.86326358197E+03 -0.19629343718E+04  0.22069367286E+04  0.10100000352E+00 0. -1.
       -3    1    3    3    0  502 -0.52176082063E+03  0.86326358197E+03 -0.60900594446E+02  0.10105282077E+04  0.10100000352E+00 0.  1.
</event>
<event>
 5   0  0.9261602E-07  0.2500253E+04  0.7818609E-02  0.8402895E-01
       -2   -1    0    0    0  501  0.00000000000E+00  0.00000000000E+00  0.85168619744E+03  0.85168619744E+03  0.25500000920E-02 0.  1.
        2   -1    0    0  501    0  0.00000000000E+00  0.00000000000E+00 -0.18349676014E+04  0.18349676014E+04  0.25500000920E-02 0. -1.
    10030    2    1    2    0    0  0.00000000000E+00  0.00000000000E+00 -0.98328140400E+03  0.26866537989E+04  0.25002532503E+04 0.  0.
        4    1    3    3  502    0  0.38455254224E+03  0.10311588085E+04  0.14556614842E+03  0.11101172292E+04  0.12699999809E+01 0.  1.
       -4    1    3    3    0  502 -0.38455254224E+03 -0.10311588085E+04 -0.11288475524E+04  0.15765365697E+04  0.12699999809E+01 0. -1.
</event>
<event>
 5   0  0.3805418E-07  0.2500258E+04  0.7818609E-02  0.8402894E-01
       -1   -1    0    0    0  501  0.00000000000E+00  0.00000000000E+00  0.13019358867E+04  0.13019358867E+04  0.50400001928E-02 0. -1.
        1   -1    0    0  501    0  0.00000000000E+00  0.00000000000E+00 -0.12003836891E+04  0.12003836892E+04  0.50400001928E-02 0.  1.
    10030    2    1    2    0    0  0.00000000000E+00  0.00000000000E+00  0.10155219752E+03  0.25023195758E+04  0.25002580688E+04 0.  0.
        4    1    3    3  502    0  0.87672625236E+03  0.50480693295E+03 -0.68422851986E+03  0.12213309304E+04  0.12699999809E+01 0.  1.
       -4    1    3    3    0  502 -0.87672625236E+03 -0.50480693295E+03  0.78578071738E+03  0.12809886455E+04  0.12699999809E+01 0. -1.
</event>
<event>
 5   0  0.3991066E-07  0.2499574E+04  0.7818609E-02  0.8403137E-01
       -1   -1    0    0    0  501  0.00000000000E+00  0.00000000000E+00  0.17913868603E+04  0.17913868603E+04  0.50400001928E-02 0.  1.
        1   -1    0    0  501    0  0.00000000000E+00  0.00000000000E+00 -0.87193182299E+03  0.87193182301E+03  0.50400001928E-02 0. -1.
    10030    2    1    2    0    0  0.00000000000E+00  0.00000000000E+00  0.91945503730E+03  0.26633186833E+04  0.24995737323E+04 0.  0.
        1    1    3    3  502    0 -0.21161091393E+03 -0.10446787446E+04  0.11550360054E+04  0.15717000453E+04  0.50400001928E-02 0.  1.
       -1    1    3    3    0  502  0.21161091393E+03  0.10446787446E+04 -0.23558096814E+03  0.10916186381E+04  0.50400001928E-02 0. -1.
</event>
<event>
 5   0  0.9508784E-07  0.2500690E+04  0.7818609E-02  0.8402740E-01
        2   -1    0    0  501    0  0.00000000000E+00  0.00000000000E+00  0.11438365649E+04  0.11438365649E+04  0.25500000920E-02 0.  1.
       -2   -1    0    0    0  501  0.00000000000E+00  0.00000000000E+00 -0.13667705311E+04  0.13667705311E+04  0.25500000920E-02 0. -1.
    10030    2    1    2    0    0  0.00000000000E+00  0.00000000000E+00 -0.22293396620E+03  0.25106070960E+04  0.25006895924E+04 0.  0.
        2    1    3    3  502    0 -0.71021430249E+02 -0.95545236298E+03 -0.91803900200E+03  0.13269245912E+04  0.25500000920E-02 0. -1.
       -2    1    3    3    0  502  0.71021430249E+02  0.95545236298E+03  0.69510503581E+03  0.11836825049E+04  0.25500000920E-02 0.  1.
</event>
<event>
 5   0  0.9768582E-07  0.2501532E+04  0.7818609E-02  0.8402440E-01
        2   -1    0    0  501    0  0.00000000000E+00  0.00000000000E+00  0.16461712286E+04  0.16461712286E+04  0.25500000920E-02 0.  1.
       -2   -1    0    0    0  501  0.00000000000E+00  0.00000000000E+00 -0.95033572198E+03  0.95033572199E+03  0.25500000920E-02 0. -1.
    10030    2    1    2    0    0  0.00000000000E+00  0.00000000000E+00  0.69583550657E+03  0.25965069505E+04  0.25015317891E+04 0.  0.
        3    1    3    3  502    0 -0.85252491181E+03 -0.45931368259E+03  0.11695833982E+04  0.15184508948E+04  0.10100000352E+00 0.  1.
       -3    1    3    3    0  502  0.85252491181E+03  0.45931368259E+03 -0.47374789167E+03  0.10780560557E+04  0.10100000352E+00 0. -1.
</event>
<event>
 5   0  0.3805418E-07  0.2500013E+04  0.7818609E-02  0.8402981E-01
        1   -1    0    0  501    0  0.00000000000E+00  0.00000000000E+00  0.15082966784E+04  0.15082966785E+04  0.50400001928E-02 0. -1.
       -1   -1    0    0    0  501  0.00000000000E+00  0.00000000000E+00 -0.10359471891E+04  0.10359471892E+04  0.50400001928E-02 0.  1.
    10030    2    1    2    0    0  0.00000000000E+00  0.00000000000E+00  0.47234948931E+03  0.25442438676E+04  0.25000125635E+04 0.  0.
        4    1    3    3  502    0 -0.19032507329E+03 -0.86228328369E+03 -0.66421450655E+03  0.11049609126E+04  0.12699999809E+01 0.  1.
       -4    1    3    3    0  502  0.19032507329E+03  0.86228328369E+03  0.11365639959E+04  0.14392829550E+04  0.12699999809E+01 0. -1.
</event>
<event>
 5   0  0.3873231E-07  0.2498238E+04  0.7818609E-02  0.8403613E-01
        1   -1    0    0  501    0  0.00000000000E+00  0.00000000000E+00  0.13753559555E+04  0.13753559555E+04  0.50400001928E-02 0. -1.
       -1   -1    0    0    0  501  0.00000000000E+00  0.00000000000E+00 -0.11344690518E+04  0.11344690518E+04  0.50400001928E-02 0.  1.
    10030    2    1    2    0    0  0.00000000000E+00  0.00000000000E+00  0.24088690367E+03  0.25098250073E+04  0.24982383927E+04 0.  0.
        2    1    3    3  502    0 -0.76265790518E+02 -0.11576252233E+03 -0.11267170384E+04  0.11352130712E+04  0.25500000920E-02 0.  1.
       -2    1    3    3    0  502  0.76265790518E+02  0.11576252233E+03  0.13676039421E+04  0.13746119361E+04  0.25500000920E-02 0. -1.
</event>
<event>
 5   0  0.3991066E-07  0.2500104E+04  0.7818609E-02  0.8402948E-01
        1   -1    0    0  501    0  0.00000000000E+00  0.00000000000E+00  0.23753725183E+04  0.23753725183E+04  0.50400001928E-02 0.  1.
       -1   -1    0    0    0  501  0.00000000000E+00  0.00000000000E+00 -0.65784648938E+03  0.65784648940E+03  0.50400001928E-02 0. -1.
    10030    2    1    2    0    0  0.00000000000E+00  0.00000000000E+00  0.17175260290E+04  0.30332190077E+04  0.25001043756E+04 0.  0.
        1    1    3    3  502    0 -0.11576783905E+04 -0.21633081611E+03  0.35034261969E+03  0.12287221936E+04  0.50400001928E-02 0. -1.
       -1    1    3    3    0  502  0.11576783905E+04  0.21633081611E+03  0.13671834093E+04  0.18044968142E+04  0.50400001928E-02 0.  1.
</event>
<event>
 5   0  0.9508784E-07  0.2500371E+04  0.7818609E-02  0.8402853E-01
       -2   -1    0    0    0  501  0.00000000000E+00  0.00000000000E+00  0.85195683751E+03  0.85195683752E+03  0.25500000920E-02 0.  1.
        2   -1    0    0  501    0  0.00000000000E+00  0.00000000000E+00 -0.18345574010E+04  0.18345574010E+04  0.25500000920E-02 0. -1.
    10030    2    1    2    0    0  0.00000000000E+00  0.00000000000E+00 -0.98260056347E+03  0.26865142385E+04  0.25003709497E+04 0.  0.
        2    1    3    3  502    0  0.38261216481E+03  0.11855591109E+04 -0.60409793944E+03  0.13845131976E+04  0.25500000920E-02 0. -1.
       -2    1    3    3    0  502 -0.38261216481E+03 -0.11855591109E+04 -0.37850262403E+03  0.13020010409E+04  0.25500000920E-02 0.  1.
</event>
<event>
 5   0  0.3837524E-07  0.2500369E+04  0.7818609E-02  0.8402854E-01
        1   -1    0    0  501    0  0.00000000000E+00  0.00000000000E+00  0.11122470784E+04  0.11122470784E+04  0.50400001928E-02 0. -1.
       -1   -1    0    0    0  501  0.00000000000E+00  0.00000000000E+00 -0.14052280469E+04  0.14052280469E+04  0.50400001928E-02 0.  1.
    10030    2    1    2    0    0  0.00000000000E+00  0.00000000000E+00 -0.29298096853E+03  0.25174751253E+04  0.25003686045E+04 0.  0.
        5    1    3    3  502    0 -0.30559668107E+03  0.10939487053E+04  0.37941016751E+03  0.11975338269E+04  0.46999998093E+01 0. -1.
       -5    1    3    3    0  502  0.30559668107E+03 -0.10939487053E+04 -0.67239113604E+03  0.13199412984E+04  0.46999998093E+01 0.  1.
</event>
<event>
 5   0  0.3972587E-07  0.2500013E+04  0.7818609E-02  0.8402981E-01
       -1   -1    0    0    0  501  0.00000000000E+00  0.00000000000E+00  0.11150882355E+04  0.11150882355E+04  0.50400001928E-02 0. -1.
        1   -1    0    0  501    0  0.00000000000E+00  0.00000000000E+00 -0.14012494301E+04  0.14012494301E+04  0.50400001928E-02 0.  1.
    10030    2    1    2    0    0  0.00000000000E+00  0.00000000000E+00 -0.28616119462E+03  0.25163376656E+04  0.25000134035E+04 0.  0.
        3    1    3    3  502    0  0.79399246339E+03 -0.13074964570E+03 -0.11058814669E+04  0.13676598009E+04  0.10100000352E+00 0.  1.
       -3    1    3    3    0  502 -0.79399246339E+03  0.13074964570E+03  0.81972027232E+03  0.11486778647E+04  0.10100000352E+00 0. -1.
</event>
<event>
 5   0  0.9768582E-07  0.2496781E+04  0.7818609E-02  0.8404133E-01
       -2   -1    0    0    0  501  0.00000000000E+00  0.00000000000E+00  0.63896362844E+03  0.63896362845E+03  0.25500000920E-02 0.  1.
        2   -1    0    0  501    0  0.00000000000E+00  0.00000000000E+00 -0.24390728752E+04  0.24390728752E+04  0.25500000920E-02 0. -1.
    10030    2    1    2    0    0  0.00000000000E+00  0.00000000000E+00 -0.18001092468E+04  0.30780365037E+04  0.24967810111E+04 0.  0.
        3    1    3    3  502    0  0.47407142709E+03  0.11443568145E+03 -0.23167793416E+04  0.23675526965E+04  0.10100000352E+00 0. -1.
       -3    1    3    3    0  502 -0.47407142709E+03 -0.11443568145E+03  0.51667009478E+03  0.71048380714E+03  0.10100000352E+00 0.  1.
</event>
<event>
 5   0  0.9768582E-07  0.2498892E+04  0.7818609E-02  0.8403380E-01
        2   -1    0    0  501    0  0.00000000000E+00  0.00000000000E+00  0.15817499304E+04  0.15817499304E+04  0.25500000920E-02 0. -1.
       -2   -1    0    0    0  501  0.00000000000E+00  0.00000000000E+00 -0.98695486744E+03  0.98695486744E+03  0.25500000920E-02 0.  1.
    10030    2    1    2    0    0  0.00000000000E+00  0.00000000000E+00  0.59479506301E+03  0.25687047979E+04  0.24988923890E+04 0.  0.
        3    1    3    3  502    0 -0.26539503444E+03 -0.12153899107E+04  0.17792386526E+03  0.12566877382E+04  0.10100000352E+00 0.  1.
       -3    1    3    3    0  502  0.26539503444E+03  0.12153899107E+04  0.41687119776E+03  0.13120170597E+04  0.10100000352E+00 0. -1.
</event>
<event>
 5   0  0.3991066E-07  0.2508672E+04  0.7818609E-02  0.8399903E-01
       -1   -1    0    0    0  501  0.00000000000E+00  0.00000000000E+00  0.10242379521E+04  0.10242379521E+04  0.50400001928E-02 0. -1.
        1   -1    0    0  501    0  0.00000000000E+00  0.00000000000E+00 -0.15361260307E+04  0.15361260307E+04  0.50400001928E-02 0.  1.
    10030    2    1    2    0    0  0.00000000000E+00  0.00000000000E+00 -0.51188807859E+03  0.25603639829E+04  0.25086718238E+04 0.  0.
        1    1    3    3  502    0 -0.79872286623E+03 -0.96575979292E+03 -0.20282954167E+03  0.12695629239E+04  0.50400001928E-02 0. -1.
       -1    1    3    3    0  502  0.79872286623E+03  0.96575979292E+03 -0.30905853692E+03  0.12908010590E+04  0.50400001928E-02 0.  1.
</event>
<event>
 5   0  0.8997210E-07  0.2503988E+04  0.7818609E-02  0.8401566E-01
       -2   -1    0    0    0  501  0.00000000000E+00  0.00000000000E+00  0.10084132600E+04  0.10084132600E+04  0.25500000920E-02 0.  1.
        2   -1    0    0  501    0  0.00000000000E+00  0.00000000000E+00 -0.15544119025E+04  0.15544119025E+04  0.25500000920E-02 0. -1.
    10030    2    1    2    0    0  0.00000000000E+00  0.00000000000E+00 -0.54599864251E+03  0.25628251626E+04  0.25039884777E+04 0.  0.
        1    1    3    3  502    0  0.32937937379E+03 -0.33241620096E+03  0.91553533658E+03  0.10282004936E+04  0.50400001928E-02 0.  1.
       -1    1    3    3    0  502 -0.32937937379E+03  0.33241620096E+03 -0.14615339791E+04  0.15346246690E+04  0.50400001928E-02 0. -1.
</event>
<event>
 5   0  0.3873231E-07  0.2501085E+04  0.7818609E-02  0.8402599E-01
        1   -1    0    0  501    0  0.00000000000E+00  0.00000000000E+00  0.16340816847E+04  0.16340816847E+04  0.50400001928E-02 0. -1.
       -1   -1    0    0    0  501  0.00000000000E+00  0.00000000000E+00 -0.95702437728E+03  0.95702437730E+03  0.50400001928E-02 0.  1.
    10030    2    1    2    0    0  0.00000000000E+00  0.00000000000E+00  0.67705730738E+03  0.25911060620E+04  0.25010845701E+04 0.  0.
        2    1    3    3  502    0  0.38926205917E+03  0.23883142560E+03 -0.86754276987E+03  0.98040596598E+03  0.25500000920E-02 0.  1.
       -2    1    3    3    0  502 -0.38926205917E+03 -0.23883142560E+03  0.15446000772E+04  0.16107000960E+04  0.25500000920E-02 0. -1.
</event>
<event>
 5   0  0.3991066E-07  0.2501182E+04  0.7818609E-02  0.8402565E-01
       -1   -1    0    0    0  501  0.00000000000E+00  0.00000000000E+00  0.11087768795E+04  0.11087768796E+04  0.50400001928E-02 0. -1.
        1   -1    0    0  501    0  0.00000000000E+00  0.00000000000E+00 -0.14105428960E+04  0.14105428960E+04  0.50400001928E-02 0.  1.
    10030    2    1    2    0    0  0.00000000000E+00  0.00000000000E+00 -0.30176601647E+03  0.25193197756E+04  0.25011816014E+04 0.  0.
        1    1    3    3  502    0  0.12134989508E+04 -0.29465870184E+03 -0.21900404337E+03  0.12678194766E+04  0.50400001928E-02 0.  1.
       -1    1    3    3    0  502 -0.12134989508E+04  0.29465870184E+03 -0.82761973092E+02  0.12515002990E+04  0.50400001928E-02 0. -1.
</event>
<event>
 5   0  0.3214375E-07  0.2500775E+04  0.7818609E-02  0.8402709E-01
        4   -1    0    0  501    0  0.00000000000E+00  0.00000000000E+00  0.11833142376E+04  0.11833149192E+04  0.12699999809E+01 0. -1.
       -4   -1    0    0    0  501  0.00000000000E+00  0.00000000000E+00 -0.13212613545E+04  0.13212619649E+04  0.12699999809E+01 0.  1.
    10030    2    1    2    0    0  0.00000000000E+00  0.00000000000E+00 -0.13794711684E+03  0.25045768840E+04  0.25007750720E+04 0.  0.
        4    1    3    3  502    0  0.72601037030E+03  0.10533748420E+03 -0.10830741824E+04  0.13081430888E+04  0.12699999809E+01 0.  1.
       -4    1    3    3    0  502 -0.72601037030E+03 -0.10533748420E+03  0.94512706555E+03  0.11964337952E+04  0.12699999809E+01 0. -1.
</event>
<event>
 5   0  0.8997210E-07  0.2493232E+04  0.7818609E-02  0.8405401E-01
        2   -1    0    0  501    0  0.00000000000E+00  0.00000000000E+00  0.12635007911E+04  0.12635007911E+04  0.25500000920E-02 0. -1.
       -2   -1    0    0    0  501  0.00000000000E+00  0.00000000000E+00 -0.12299565385E+04  0.12299565385E+04  0.25500000920E-02 0.  1.
    10030    2    1    2    0    0  0.00000000000E+00  0.00000000000E+00  0.33544252560E+02  0.24934573296E+04  0.24932316855E+04 0.  0.
        1    1    3    3  502    0 -0.84281837147E+03  0.91842189499E+03  0.22975674738E+01  0.12465339399E+04  0.50400001928E-02 0.  1.
       -1    1    3    3    0  502  0.84281837147E+03 -0.91842189499E+03  0.31246685086E+02  0.12469233897E+04  0.50400001928E-02 0. -1.
</event>
<event>
 5   0  0.3873231E-07  0.2499666E+04  0.7818609E-02  0.8403105E-01
       -1   -1    0    0    0  501  0.00000000000E+00  0.00000000000E+00  0.10532650295E+04  0.10532650296E+04  0.50400001928E-02 0.  1.
        1   -1    0    0  501    0  0.00000000000E+00  0.00000000000E+00 -0.14830859294E+04  0.14830859294E+04  0.50400001928E-02 0. -1.
    10030    2    1    2    0    0  0.00000000000E+00  0.00000000000E+00 -0.42982089986E+03  0.25363509590E+04  0.24996660139E+04 0.  0.
        2    1    3    3  502    0  0.32224431200E+03  0.80119518248E+03 -0.11316786834E+04  0.14235349520E+04  0.25500000920E-02 0. -1.
       -2    1    3    3    0  502 -0.32224431200E+03 -0.80119518248E+03  0.70185778355E+03  0.11128160070E+04  0.25500000920E-02 0.  1.
</event>
<event>
 5   0  0.3873231E-07  0.2499071E+04  0.7818609E-02  0.8403317E-01
       -1   -1    0    0    0  501  0.00000000000E+00  0.00000000000E+00  0.91770594619E+03  0.91770594621E+03  0.50400001928E-02 0. -1.
        1   -1    0    0  501    0  0.00000000000E+00  0.00000000000E+00 -0.17013495974E+04  0.17013495974E+04  0.50400001928E-02 0.  1.
    10030    2    1    2    0    0  0.00000000000E+00  0.00000000000E+00 -0.78364365117E+03  0.26190555436E+04  0.24990707410E+04 0.  0.
        2    1    3    3  502    0  0.16471741587E+03  0.15111986467E+03  0.89658050113E+03  0.92402685870E+03  0.25500000920E-02 0. -1.
       -2    1    3    3    0  502 -0.16471741587E+03 -0.15111986467E+03 -0.16802241523E+04  0.16950286849E+04  0.25500000920E-02 0.  1.
</event>
<event>
 5   0  0.9508784E-07  0.2503822E+04  0.7818609E-02  0.8401625E-01
        2   -1    0    0  501    0  0.00000000000E+00  0.00000000000E+00  0.82529845846E+03  0.82529845847E+03  0.25500000920E-02 0. -1.
       -2   -1    0    0    0  501  0.00000000000E+00  0.00000000000E+00 -0.18990470084E+04  0.18990470084E+04  0.25500000920E-02 0.  1.
    10030    2    1    2    0    0  0.00000000000E+00  0.00000000000E+00 -0.10737485499E+04  0.27243454668E+04  0.25038215340E+04 0.  0.
        2    1    3    3  502    0  0.11694660551E+04  0.27017376894E+03 -0.92407587339E+03  0.15147808222E+04  0.25500000920E-02 0.  1.
       -2    1    3    3    0  502 -0.11694660551E+04 -0.27017376894E+03 -0.14967267652E+03  0.12095646447E+04  0.25500000920E-02 0. -1.
</event>
<event>
 5   0  0.3972587E-07  0.2499688E+04  0.7818609E-02  0.8403097E-01
       -1   -1    0    0    0  501  0.00000000000E+00  0.00000000000E+00  0.69494808911E+03  0.69494808913E+03  0.50400001928E-02 0.  1.
        1   -1    0    0  501    0  0.00000000000E+00  0.00000000000E+00 -0.22478078544E+04  0.22478078544E+04  0.50400001928E-02 0. -1.
    10030    2    1    2    0    0  0.00000000000E+00  0.00000000000E+00 -0.15528597652E+04  0.29427559435E+04  0.24996877990E+04 0.  0.
        3    1    3    3  502    0 -0.10052543573E+04 -0.43960268628E+03 -0.14811323115E+04  0.18432416496E+04  0.10100000352E+00 0. -1.
       -3    1    3    3    0  502  0.10052543573E+04  0.43960268628E+03 -0.71727453778E+02  0.10995142939E+04  0.10100000352E+00 0.  1.
</event>
<event>
 5   0  0.9251138E-07  0.2501464E+04  0.7818609E-02  0.8402464E-01
       -2   -1    0    0    0  501  0.00000000000E+00  0.00000000000E+00  0.98261822157E+03  0.98261822157E+03  0.25500000920E-02 0. -1.
        2   -1    0    0  501    0  0.00000000000E+00  0.00000000000E+00 -0.15920021283E+04  0.15920021283E+04  0.25500000920E-02 0.  1.
    10030    2    1    2    0    0  0.00000000000E+00  0.00000000000E+00 -0.60938390671E+03  0.25746203499E+04  0.25014638115E+04 0.  0.
        5    1    3    3  502    0 -0.82276364347E+03 -0.93783140812E+03 -0.21355607494E+03  0.12657393295E+04  0.46999998093E+01 0.  1.
       -5    1    3    3    0  502  0.82276364347E+03  0.93783140812E+03 -0.39582783177E+03  0.13088810204E+04  0.46999998093E+01 0. -1.
</event>
<event>
 5   0  0.3972587E-07  0.2498329E+04  0.7818609E-02  0.8403581E-01
       -1   -1    0    0    0  501  0.00000000000E+00  0.00000000000E+00  0.17151147795E+04  0.17151147795E+04  0.50400001928E-02 0. -1.
        1   -1    0    0  501    0  0.00000000000E+00  0.00000000000E+00 -0.90980039956E+03  0.90980039958E+03  0.50400001928E-02 0.  1.
    10030    2    1    2    0    0  0.00000000000E+00  0.00000000000E+00  0.80531437991E+03  0.26249151791E+04  0.24983291310E+04 0.  0.
        3    1    3    3  502    0 -0.27836797496E+03 -0.49772157479E+03  0.15703636078E+04  0.16707056492E+04  0.10100000352E+00 0. -1.
       -3    1    3    3    0  502  0.27836797496E+03  0.49772157479E+03 -0.76504922789E+03  0.95420952982E+03  0.10100000352E+00 0.  1.
</event>
<event>
 5   0  0.9508784E-07  0.2500315E+04  0.7818609E-02  0.8402873E-01
        2   -1    0    0  501    0  0.00000000000E+00  0.00000000000E+00  0.10771206825E+04  0.10771206825E+04  0.25500000920E-02 0.  1.
       -2   -1    0    0    0  501  0.00000000000E+00  0.00000000000E+00 -0.14509920261E+04  0.14509920261E+04  0.25500000920E-02 0. -1.
    10030    2    1    2    0    0  0.00000000000E+00  0.00000000000E+00 -0.37387134356E+03  0.25281127086E+04  0.25003147974E+04 0.  0.
        2    1    3    3  502    0 -0.67363785172E+03 -0.95392530572E+03  0.26426771709E+03  0.11973298921E+04  0.25500000920E-02 0.  1.
       -2    1    3    3    0  502  0.67363785172E+03  0.95392530572E+03 -0.63813906065E+03  0.13307828166E+04  0.25500000920E-02 0. -1.
</event>
<event>
 5   0  0.9508784E-07  0.2502271E+04  0.7818609E-02  0.8402177E-01
       -2   -1    0    0    0  501  0.00000000000E+00  0.00000000000E+00  0.96210110352E+03  0.96210110353E+03  0.25500000920E-02 0.  1.
        2   -1    0    0  501    0  0.00000000000E+00  0.00000000000E+00 -0.16270017133E+04  0.16270017133E+04  0.25500000920E-02 0. -1.
    10030    2    1    2    0    0  0.00000000000E+00  0.00000000000E+00 -0.66490060973E+03  0.25891028168E+04  0.25022710834E+04 0.  0.
        2    1    3    3  502    0 -0.19460908280E+03  0.11228903643E+04 -0.86668554551E+03  0.14317469400E+04  0.25500000920E-02 0. -1.
       -2    1    3    3    0  502  0.19460908280E+03 -0.11228903643E+04  0.20178493578E+03  0.11573558768E+04  0.25500000920E-02 0.  1.
</event>
<event>
 5   0  0.3991066E-07  0.2499739E+04  0.7818609E-02  0.8403078E-01
        1   -1    0    0  501    0  0.00000000000E+00  0.00000000000E+00  0.14306068599E+04  0.14306068599E+04  0.50400001928E-02 0. -1.
       -1   -1    0    0    0  501  0.00000000000E+00  0.00000000000E+00 -0.10919662207E+04  0.10919662207E+04  0.50400001928E-02 0.  1.
    10030    2    1    2    0    0  0.00000000000E+00  0.00000000000E+00  0.33864063914E+03  0.25225730806E+04  0.24997394793E+04 0.  0.
        1    1    3    3  502    0  0.72615519029E+03  0.55826163587E+03 -0.68886939698E+03  0.11460796048E+04  0.50400001928E-02 0.  1.
       -1    1    3    3    0  502 -0.72615519029E+03 -0.55826163587E+03  0.10275100361E+04  0.13764934758E+04  0.50400001928E-02 0. -1.
</event>
<event>
 5   0  0.9768582E-07  0.2501540E+04  0.7818609E-02  0.8402437E-01
        2   -1    0    0  501    0  0.00000000000E+00  0.00000000000E+00  0.19450537780E+04  0.19450537780E+04  0.25500000920E-02 0.  1.
       -2   -1    0    0    0  501  0.00000000000E+00  0.00000000000E+00 -0.80430964079E+03  0.80430964080E+03  0.25500000920E-02 0. -1.
    10030    2    1    2    0    0  0.00000000000E+00  0.00000000000E+00  0.11407441372E+04  0.27493634188E+04  0.25015399301E+04 0.  0.
        3    1    3    3  502    0  0.96995596693E+03  0.46096375127E+02 -0.29607173436E+03  0.10151836955E+04  0.10100000352E+00 0. -1.
       -3    1    3    3    0  502 -0.96995596693E+03 -0.46096375127E+02  0.14368158715E+04  0.17341797232E+04  0.10100000352E+00 0.  1.
</event>
<event>
 5   0  0.9508784E-07  0.2499499E+04  0.7818609E-02  0.8403164E-01
        2   -1    0    0  501    0  0.00000000000E+00  0.00000000000E+00  0.19453870334E+04  0.19453870334E+04  0.25500000920E-02 0. -1.
       -2   -1    0    0    0  501  0.00000000000E+00  0.00000000000E+00 -0.80285997102E+03  0.80285997103E+03  0.25500000920E-02 0.  1.
    10030    2    1    2    0    0  0.00000000000E+00  0.00000000000E+00  0.11425270624E+04  0.27482470044E+04  0.24994986516E+04 0.  0.
        2    1    3    3  502    0  0.11294928246E+04 -0.51831308217E+03  0.71659521777E+03  0.14345421562E+04  0.25500000920E-02 0. -1.
       -2    1    3    3    0  502 -0.11294928246E+04  0.51831308217E+03  0.42593184462E+03  0.13137048482E+04  0.25500000920E-02 0.  1.
</event>
<event>
 5   0  0.3972587E-07  0.2499884E+04  0.7818609E-02  0.8403027E-01
       -1   -1    0    0    0  501  0.00000000000E+00  0.00000000000E+00  0.13741497183E+04  0.13741497183E+04  0.50400001928E-02 0. -1.
        1   -1    0    0  501    0  0.00000000000E+00  0.00000000000E+00 -0.11369614440E+04  0.11369614440E+04  0.50400001928E-02 0.  1.
    10030    2    1    2    0    0  0.00000000000E+00  0.00000000000E+00  0.23718827429E+03  0.25111111624E+04  0.24998841958E+04 0.  0.
        3    1    3    3  502    0  0.65527792362E+03 -0.10169140523E+04  0.43441334385E+03  0.12853864440E+04  0.10100000352E+00 0. -1.
       -3    1    3    3    0  502 -0.65527792362E+03  0.10169140523E+04 -0.19722506955E+03  0.12257247184E+04  0.10100000352E+00 0.  1.
</event>
<event>
 5   0  0.3972587E-07  0.2500434E+04  0.7818609E-02  0.8402831E-01
       -1   -1    0    0    0  501  0.00000000000E+00  0.00000000000E+00  0.31483695874E+04  0.31483695874E+04  0.50400001928E-02 0. -1.
        1   -1    0    0  501    0  0.00000000000E+00  0.00000000000E+00 -0.49646099340E+03  0.49646099342E+03  0.50400001928E-02 0.  1.
    10030    2    1    2    0    0  0.00000000000E+00  0.00000000000E+00  0.26519085940E+04  0.36448305809E+04  0.25004341167E+04 0.  0.
        3    1    3    3  502    0 -0.56928591787E+03  0.10170810879E+03  0.29416860181E+04  0.29979905996E+04  0.10100000352E+00 0. -1.
       -3    1    3    3    0  502  0.56928591787E+03 -0.10170810879E+03 -0.28977742409E+03  0.64683998129E+03  0.10100000352E+00 0.  1.
</event>
<event>
 5   0  0.3805418E-07  0.2500003E+04  0.7818609E-02  0.8402984E-01
        1   -1    0    0  501    0  0.00000000000E+00  0.00000000000E+00  0.13906390256E+04  0.13906390256E+04  0.50400001928E-02 0. -1.
       -1   -1    0    0    0  501  0.00000000000E+00  0.00000000000E+00 -0.11235868647E+04  0.11235868647E+04  0.50400001928E-02 0.  1.
    10030    2    1    2    0    0  0.00000000000E+00  0.00000000000E+00  0.26705216084E+03  0.25142258903E+04  0.25000029942E+04 0.  0.
        4    1    3    3  502    0 -0.11334822179E+04  0.48263129818E+03 -0.79307830893E+02  0.12345064816E+04  0.12699999809E+01 0.  1.
       -4    1    3    3    0  502  0.11334822179E+04 -0.48263129818E+03  0.34635999174E+03  0.12797194087E+04  0.12699999809E+01 0. -1.
</event>
<event>
 5   0  0.9768582E-07  0.2500165E+04  0.7818609E-02  0.8402927E-01
       -2   -1    0    0    0  501  0.00000000000E+00  0.00000000000E+00  0.97450344367E+03  0.97450344368E+03  0.25500000920E-02 0. -1.
        2   -1    0    0  501    0  0.00000000000E+00  0.00000000000E+00 -0.16035925368E+04  0.16035925368E+04  0.25500000920E-02 0.  1.
    10030    2    1    2    0    0  0.00000000000E+00  0.00000000000E+00 -0.62908909308E+03  0.25780959804E+04  0.25001651540E+04 0.  0.
        3    1    3    3  502    0  0.43166831404E+03 -0.23879974100E+03 -0.14989743843E+04  0.15780643411E+04  0.10100000352E+00 0.  1.
       -3    1    3    3    0  502 -0.43166831404E+03  0.23879974100E+03  0.86988529121E+03  0.10000316394E+04  0.10100000352E+00 0. -1.
</event>
<event>
 5   0  0.9508784E-07  0.2500170E+04  0.7818609E-02  0.8402925E-01
       -2   -1    0    0    0  501  0.00000000000E+00  0.00000000000E+00  0.10530065558E+04  0.10530065558E+04  0.25500000920E-02 0. -1.
        2   -1    0    0  501    0  0.00000000000E+00  0.00000000000E+00 -0.14840480877E+04  0.14840480877E+04  0.25500000920E-02 0.  1.
    10030    2    1    2    0    0  0.00000000000E+00  0.00000000000E+00 -0.43104153192E+03  0.25370546436E+04  0.25001698867E+04 0.  0.
        2    1    3    3  502    0 -0.52730266047E+03 -0.94014696910E+03 -0.85793865658E+03  0.13776730954E+04  0.25500000920E-02 0.  1.
       -2    1    3    3    0  502  0.52730266047E+03  0.94014696910E+03  0.42689712466E+03  0.11593815482E+04  0.25500000920E-02 0. -1.
</event>
<event>
 5   0  0.9261602E-07  0.2505180E+04  0.7818609E-02  0.8401143E-01
        2   -1    0    0  501    0  0.00000000000E+00  0.00000000000E+00  0.15297805267E+04  0.15297805268E+04  0.25500000920E-02 0. -1.
       -2   -1    0    0    0  501  0.00000000000E+00  0.00000000000E+00 -0.10256249818E+04  0.10256249818E+04  0.25500000920E-02 0.  1.
    10030    2    1    2    0    0  0.00000000000E+00  0.00000000000E+00  0.50415554492E+03  0.25554055086E+04  0.25051795345E+04 0.  0.
        4    1    3    3  502    0  0.52614703249E+03 -0.33902028201E+03  0.13588256348E+04  0.14960528634E+04  0.12699999809E+01 0. -1.
       -4    1    3    3    0  502 -0.52614703249E+03  0.33902028201E+03 -0.85467008988E+03  0.10593526452E+04  0.12699999809E+01 0.  1.
</event>
<event>
 5   0  0.3873231E-07  0.2501002E+04  0.7818609E-02  0.8402629E-01
       -1   -1    0    0    0  501  0.00000000000E+00  0.00000000000E+00  0.92649243571E+03  0.92649243572E+03  0.50400001928E-02 0.  1.
        1   -1    0    0  501    0  0.00000000000E+00  0.00000000000E+00 -0.16878198967E+04  0.16878198967E+04  0.50400001928E-02 0. -1.
    10030    2    1    2    0    0  0.00000000000E+00  0.00000000000E+00 -0.76132746102E+03  0.26143123325E+04  0.25010016931E+04 0.  0.
        2    1    3    3  502    0 -0.36513511311E+03 -0.11787358365E+04 -0.59234929885E+03  0.13688022191E+04  0.25500000920E-02 0.  1.
       -2    1    3    3    0  502  0.36513511311E+03  0.11787358365E+04 -0.16897816217E+03  0.12455101134E+04  0.25500000920E-02 0. -1.
</event>
<event>
 5   0  0.3214375E-07  0.2499361E+04  0.7818609E-02  0.8403213E-01
        3   -1    0    0  501    0  0.00000000000E+00  0.00000000000E+00  0.14210379900E+04  0.14210379936E+04  0.10100000352E+00 0. -1.
       -3   -1    0    0    0  501  0.00000000000E+00  0.00000000000E+00 -0.10989861501E+04  0.10989861548E+04  0.10100000352E+00 0.  1.
    10030    2    1    2    0    0  0.00000000000E+00  0.00000000000E+00  0.32205183986E+03  0.25200241483E+04  0.24993607824E+04 0.  0.
        3    1    3    3  502    0  0.18711087415E+03  0.62167808212E+03  0.12376586885E+04  0.13976026461E+04  0.10100000352E+00 0. -1.
       -3    1    3    3    0  502 -0.18711087415E+03 -0.62167808212E+03 -0.91560684867E+03  0.11224215022E+04  0.10100000352E+00 0.  1.
</event>
<event>
 5   0  0.8997210E-07  0.2503142E+04  0.7818609E-02  0.8401867E-01
       -2   -1    0    0    0  501  0.00000000000E+00  0.00000000000E+00  0.89875160484E+03  0.89875160484E+03  0.25500000920E-02 0.  1.
        2   -1    0    0  501    0  0.00000000000E+00  0.00000000000E+00 -0.17428951266E+04  0.17428951266E+04  0.25500000920E-02 0. -1.
    10030    2    1    2    0    0  0.00000000000E+00  0.00000000000E+00 -0.84414352176E+03  0.26416467314E+04  0.25031418594E+04 0.  0.
        1    1    3    3  502    0  0.70399695743E+03 -0.29117548442E+03 -0.14700093586E+04  0.16556939311E+04  0.50400001928E-02 0. -1.
       -1    1    3    3    0  502 -0.70399695743E+03  0.29117548442E+03  0.62586583689E+03  0.98595280039E+03  0.50400001928E-02 0.  1.
</event>
<event>
 5   0  0.9508784E-07  0.2500628E+04  0.7818609E-02  0.8402762E-01
        2   -1    0    0  501    0  0.00000000000E+00  0.00000000000E+00  0.11989245691E+04  0.11989245691E+04  0.25500000920E-02 0.  1.
       -2   -1    0    0    0  501  0.00000000000E+00  0.00000000000E+00 -0.13039063724E+04  0.13039063724E+04  0.25500000920E-02 0. -1.
    10030    2    1    2    0    0  0.00000000000E+00  0.00000000000E+00 -0.10498180332E+03  0.25028309416E+04  0.25006282297E+04 0.  0.
        2    1    3    3  502    0 -0.35052083570E+03  0.11934243029E+04  0.74738980581E+02  0.12460787849E+04  0.25500000920E-02 0.  1.
       -2    1    3    3    0  502  0.35052083570E+03 -0.11934243029E+04 -0.17972078390E+03  0.12567521566E+04  0.25500000920E-02 0. -1.
</event>
<event>
 5   0  0.3991066E-07  0.2498434E+04  0.7818609E-02  0.8403544E-01
        1   -1    0    0  501    0  0.00000000000E+00  0.00000000000E+00  0.11187687098E+04  0.11187687098E+04  0.50400001928E-02 0.  1.
       -1   -1    0    0    0  501  0.00000000000E+00  0.00000000000E+00 -0.13948755682E+04  0.13948755682E+04  0.50400001928E-02 0. -1.
    10030    2    1    2    0    0  0.00000000000E+00  0.00000000000E+00 -0.27610685843E+03  0.25136442781E+04  0.24984340214E+04 0.  0.
        1    1    3    3  502    0  0.86358962741E+03 -0.89149701894E+03 -0.28029718474E+03  0.12724466555E+04  0.50400001928E-02 0. -1.
       -1    1    3    3    0  502 -0.86358962741E+03  0.89149701894E+03  0.41903263113E+01  0.12411976225E+04  0.50400001928E-02 0.  1.
</event>
<event>
 5   0  0.3972587E-07  0.2499732E+04  0.7818609E-02  0.8403081E-01
       -1   -1    0    0    0  501  0.00000000000E+00  0.00000000000E+00  0.13020712087E+04  0.13020712087E+04  0.50400001928E-02 0.  1.
        1   -1    0    0  501    0  0.00000000000E+00  0.00000000000E+00 -0.11997542536E+04  0.11997542536E+04  0.50400001928E-02 0. -1.
    10030    2    1    2    0    0  0.00000000000E+00  0.00000000000E+00  0.10231695513E+03  0.25018254623E+04  0.24997323626E+04 0.  0.
        3    1    3    3  502    0  0.38553997515E+03  0.49990391278E+02 -0.11377020378E+04  0.12022919981E+04  0.10100000352E+00 0. -1.
       -3    1    3    3    0  502 -0.38553997515E+03 -0.49990391278E+02  0.12400189929E+04  0.12995334643E+04  0.10100000352E+00 0.  1.
</event>
<event>
 5   0  0.3805418E-07  0.2500535E+04  0.7818609E-02  0.8402795E-01
        1   -1    0    0  501    0  0.00000000000E+00  0.00000000000E+00  0.17589036800E+04  0.17589036801E+04  0.50400001928E-02 0.  1.
       -1   -1    0    0    0  501  0.00000000000E+00  0.00000000000E+00 -0.88871784683E+03  0.88871784684E+03  0.50400001928E-02 0. -1.
    10030    2    1    2    0    0  0.00000000000E+00  0.00000000000E+00  0.87018583322E+03  0.26476215269E+04  0.25005352158E+04 0.  0.
        4    1    3    3  502    0 -0.28992226992E+03  0.10867092092E+04 -0.14308169324E+03  0.11337838470E+04  0.12699999809E+01 0.  1.
       -4    1    3    3    0  502  0.28992226992E+03 -0.10867092092E+04  0.10132675265E+04  0.15138376799E+04  0.12699999809E+01 0. -1.
</event>
<event>
 5   0  0.3991066E-07  0.2500725E+04  0.7818609E-02  0.8402727E-01
       -1   -1    0    0    0  501  0.00000000000E+00  0.00000000000E+00  0.11689169695E+04  0.11689169695E+04  0.50400001928E-02 0.  1.
        1   -1    0    0  501    0  0.00000000000E+00  0.00000000000E+00 -0.13374826313E+04  0.13374826313E+04  0.50400001928E-02 0. -1.
    10030    2    1    2    0    0  0.00000000000E+00  0.00000000000E+00 -0.16856566176E+03  0.25063996008E+04  0.25007248102E+04 0.  0.
        1    1    3    3  502    0  0.48384609029E+03  0.77298662649E+03  0.77310610842E+03  0.11955368747E+04  0.50400001928E-02 0.  1.
       -1    1    3    3    0  502 -0.48384609029E+03 -0.77298662649E+03 -0.94167177019E+03  0.13108627261E+04  0.50400001928E-02 0. -1.
</event>
<event>
 5   0  0.9768582E-07  0.2500419E+04  0.7818609E-02  0.8402836E-01
        2   -1    0    0  501    0  0.00000000000E+00  0.00000000000E+00  0.92922307490E+03  0.92922307490E+03  0.25500000920E-02 0.  1.
       -2   -1    0    0    0  501  0.00000000000E+00  0.00000000000E+00 -0.16820755503E+04  0.16820755503E+04  0.25500000920E-02 0. -1.
    10030    2    1    2    0    0  0.00000000000E+00  0.00000000000E+00 -0.75285247538E+03  0.26112986252E+04  0.25004186970E+04 0.  0.
        3    1    3    3  502    0 -0.10300433093E+04 -0.69258281389E+03 -0.53260108317E+03  0.13506754225E+04  0.10100000352E+00 0. -1.
       -3    1    3    3    0  502  0.10300433093E+04  0.69258281389E+03 -0.22025139221E+03  0.12606232026E+04  0.10100000352E+00 0.  1.
</event>
<event>
 5   0  0.3873231E-07  0.2499778E+04  0.7818609E-02  0.8403065E-01
        1   -1    0    0  501    0  0.00000000000E+00  0.00000000000E+00  0.99715977591E+03  0.99715977592E+03  0.50400001928E-02 0. -1.
       -1   -1    0    0    0  501  0.00000000000E+00  0.00000000000E+00 -0.15666721694E+04  0.15666721694E+04  0.50400001928E-02 0.  1.
    10030    2    1    2    0    0  0.00000000000E+00  0.00000000000E+00 -0.56951239353E+03  0.25638319454E+04  0.24997779657E+04 0.  0.
        2    1    3    3  502    0 -0.37717433930E+03  0.11769006032E+04 -0.93244570437E+02  0.12393748674E+04  0.25500000920E-02 0.  1.
       -2    1    3    3    0  502  0.37717433930E+03 -0.11769006032E+04 -0.47626782310E+03  0.13244570780E+04  0.25500000920E-02 0. -1.
</event>
<event>
 5   0  0.8997210E-07  0.2499261E+04  0.7818609E-02  0.8403249E-01
        2   -1    0    0  501    0  0.00000000000E+00  0.00000000000E+00  0.17896743232E+04  0.17896743232E+04  0.25500000920E-02 0. -1.
       -2   -1    0    0    0  501  0.00000000000E+00  0.00000000000E+00 -0.87254749304E+03  0.87254749304E+03  0.25500000920E-02 0.  1.
    10030    2    1    2    0    0  0.00000000000E+00  0.00000000000E+00  0.91712683018E+03  0.26622218163E+04  0.24992605659E+04 0.  0.
        1    1    3    3  502    0 -0.16074096902E+03 -0.81821196578E+03  0.14499857025E+04  0.16726526889E+04  0.50400001928E-02 0. -1.
       -1    1    3    3    0  502  0.16074096902E+03  0.81821196578E+03 -0.53285887232E+03  0.98956912740E+03  0.50400001928E-02 0.  1.
</event>
<event>
 5   0  0.3873231E-07  0.2499988E+04  0.7818609E-02  0.8402990E-01
        1   -1    0    0  501    0  0.00000000000E+00  0.00000000000E+00  0.12395409839E+04  0.12395409839E+04  0.50400001928E-02 0.  1.
       -1   -1    0    0    0  501  0.00000000000E+00  0.00000000000E+00 -0.12605354258E+04  0.12605354258E+04  0.50400001928E-02 0. -1.
    10030    2    1    2    0    0  0.00000000000E+00  0.00000000000E+00 -0.20994441954E+02  0.25000764097E+04  0.24999882575E+04 0.  0.
        2    1    3    3  502    0  0.84030282162E+03  0.22863663362E+01 -0.93593314883E+03  0.12578095717E+04  0.25500000920E-02 0. -1.
       -2    1    3    3    0  502 -0.84030282162E+03 -0.22863663362E+01  0.91493870688E+03  0.12422668380E+04  0.25500000920E-02 0.  1.
</event>
<event>
 5   0  0.3972587E-07  0.2499370E+04  0.7818609E-02  0.8403210E-01
        1   -1    0    0  501    0  0.00000000000E+00  0.00000000000E+00  0.28960948498E+04  0.28960948498E+04  0.50400001928E-02 0.  1.
       -1   -1    0    0    0  501  0.00000000000E+00  0.00000000000E+00 -0.53924758998E+03  0.53924759000E+03  0.50400001928E-02 0. -1.
    10030    2    1    2    0    0  0.00000000000E+00  0.00000000000E+00  0.23568472599E+04  0.34353424398E+04  0.24993696551E+04 0.  0.
        3    1    3    3  502    0  0.55202626129E+03  0.96723283686E+03  0.19576961635E+04  0.22522980781E+04  0.10100000352E+00 0.  1.
       -3    1    3    3    0  502 -0.55202626129E+03 -0.96723283686E+03  0.39915109632E+03  0.11830443617E+04  0.10100000352E+00 0. -1.
</event>
<event>
 5   0  0.9261602E-07  0.2500285E+04  0.7818609E-02  0.8402884E-01
       -2   -1    0    0    0  501  0.00000000000E+00  0.00000000000E+00  0.81728103608E+03  0.81728103609E+03  0.25500000920E-02 0. -1.
        2   -1    0    0  501    0  0.00000000000E+00  0.00000000000E+00 -0.19122629113E+04  0.19122629113E+04  0.25500000920E-02 0.  1.
    10030    2    1    2    0    0  0.00000000000E+00  0.00000000000E+00 -0.10949818753E+04  0.27295439474E+04  0.25002849545E+04 0.  0.
        4    1    3    3  502    0  0.13649521046E+03 -0.92587696565E+03  0.35734784928E+03  0.10017875006E+04  0.12699999809E+01 0. -1.
       -4    1    3    3    0  502 -0.13649521046E+03  0.92587696565E+03 -0.14523297245E+04  0.17277564469E+04  0.12699999809E+01 0.  1.
</event>
<event>
 5   0  0.3805418E-07  0.2498465E+04  0.7818609E-02  0.8403532E-01
       -1   -1    0    0    0  501  0.00000000000E+00  0.00000000000E+00  0.11213362406E+04  0.11213362406E+04  0.50400001928E-02 0. -1.
        1   -1    0    0  501    0  0.00000000000E+00  0.00000000000E+00 -0.13917166214E+04  0.13917166214E+04  0.50400001928E-02 0.  1.
    10030    2    1    2    0    0  0.00000000000E+00  0.00000000000E+00 -0.27038038077E+03  0.25130528621E+04  0.24984653564E+04 0.  0.
        4    1    3    3  502    0  0.77551961310E+03  0.72757001495E+03  0.52422263901E+03  0.11855799362E+04  0.12699999809E+01 0. -1.
       -4    1    3    3    0  502 -0.77551961310E+03 -0.72757001495E+03 -0.79460301978E+03  0.13274729259E+04  0.12699999809E+01 0.  1.
</event>
<event>
 5   0  0.9508784E-07  0.2500345E+04  0.7818609E-02  0.8402863E-01
       -2   -1    0    0    0  501  0.00000000000E+00  0.00000000000E+00  0.73875952771E+03  0.73875952771E+03  0.25500000920E-02 0.  1.
        2   -1    0    0  501    0  0.00000000000E+00  0.00000000000E+00 -0.21156156953E+04  0.21156156953E+04  0.25500000920E-02 0. -1.
    10030    2    1    2    0    0  0.00000000000E+00  0.00000000000E+00 -0.13768561676E+04  0.28543752230E+04  0.25003449777E+04 0.  0.
        2    1    3    3  502    0 -0.10971753750E+04  0.41638588256E+03 -0.19640269037E+03  0.11898508409E+04  0.25500000920E-02 0. -1.
       -2    1    3    3    0  502  0.10971753750E+04 -0.41638588256E+03 -0.11804534772E+04  0.16645243821E+04  0.25500000920E-02 0.  1.
</event>
<event>
 5   0  0.3837524E-07  0.2499733E+04  0.7818609E-02  0.8403081E-01
       -1   -1    0    0    0  501  0.00000000000E+00  0.00000000000E+00  0.78488337070E+03  0.78488337071E+03  0.50400001928E-02 0. -1.
        1   -1    0    0  501    0  0.00000000000E+00  0.00000000000E+00 -0.19903158457E+04  0.19903158458E+04  0.50400001928E-02 0.  1.
    10030    2    1    2    0    0  0.00000000000E+00  0.00000000000E+00 -0.12054324750E+04  0.27751992165E+04  0.24997326335E+04 0.  0.
        5    1    3    3  502    0 -0.90245559352E+03 -0.77880984754E+03 -0.10198508086E+04  0.15687857211E+04  0.46999998093E+01 0. -1.
       -5    1    3    3    0  502  0.90245559352E+03  0.77880984754E+03 -0.18558166644E+03  0.12064134954E+04  0.46999998093E+01 0.  1.
</event>
<event>
 5   0  0.9768582E-07  0.2499050E+04  0.7818609E-02  0.8403324E-01
       -2   -1    0    0    0  501  0.00000000000E+00  0.00000000000E+00  0.98035528926E+03  0.98035528926E+03  0.25500000920E-02 0. -1.
        2   -1    0    0  501    0  0.00000000000E+00  0.00000000000E+00 -0.15925991532E+04  0.15925991532E+04  0.25500000920E-02 0.  1.
    10030    2    1    2    0    0  0.00000000000E+00  0.00000000000E+00 -0.61224386390E+03  0.25729544424E+04  0.24990502224E+04 0.  0.
        3    1    3    3  502    0 -0.77225057303E+03  0.19145885234E+03 -0.12980904937E+04  0.15225197469E+04  0.10100000352E+00 0.  1.
       -3    1    3    3    0  502  0.77225057303E+03 -0.19145885234E+03  0.68584662981E+03  0.10504346955E+04  0.10100000352E+00 0. -1.
</event>
<event>
 5   0  0.3873231E-07  0.2500342E+04  0.7818609E-02  0.8402864E-01
       -1   -1    0    0    0  501  0.00000000000E+00  0.00000000000E+00  0.13976469775E+04  0.13976469775E+04  0.50400001928E-02 0.  1.
        1   -1    0    0  501    0  0.00000000000E+00  0.00000000000E+00 -0.11182564204E+04  0.11182564204E+04  0.50400001928E-02 0. -1.
    10030    2    1    2    0    0  0.00000000000E+00  0.00000000000E+00  0.27939055713E+03  0.25159033979E+04  0.25003421414E+04 0.  0.
        2    1    3    3  502    0 -0.53292620039E+02  0.90535584887E+03 -0.72613569797E+03  0.11618013463E+04  0.25500000920E-02 0. -1.
       -2    1    3    3    0  502  0.53292620039E+02 -0.90535584887E+03  0.10055262551E+04  0.13541020516E+04  0.25500000920E-02 0.  1.
</event>
<event>
 5   0  0.9508784E-07  0.2500246E+04  0.7818609E-02  0.8402898E-01
        2   -1    0    0  501    0  0.00000000000E+00  0.00000000000E+00  0.22182476857E+04  0.22182476857E+04  0.25500000920E-02 0. -1.
       -2   -1    0    0    0  501  0.00000000000E+00  0.00000000000E+00 -0.70452326594E+03  0.70452326594E+03  0.25500000920E-02 0.  1.
    10030    2    1    2    0    0  0.00000000000E+00  0.00000000000E+00  0.15137244198E+04  0.29227709517E+04  0.25002456713E+04 0.  0.
        2    1    3    3  502    0 -0.83650790258E+03  0.62942126060E+02 -0.32665032050E+03  0.90022642385E+03  0.25500000920E-02 0.  1.
       -2    1    3    3    0  502  0.83650790258E+03 -0.62942126060E+02  0.18403747403E+04  0.20225445278E+04  0.25500000920E-02 0. -1.
</event>
<event>
 5   0  0.8997210E-07  0.2499442E+04  0.7818609E-02  0.8403184E-01
       -2   -1    0    0    0  501  0.00000000000E+00  0.00000000000E+00  0.65844388855E+03  0.65844388855E+03  0.25500000920E-02 0. -1.
        2   -1    0    0  501    0  0.00000000000E+00  0.00000000000E+00 -0.23719594919E+04  0.23719594919E+04  0.25500000920E-02 0.  1.
    10030    2    1    2    0    0  0.00000000000E+00  0.00000000000E+00 -0.17135156034E+04  0.30304033805E+04  0.24994417228E+04 0.  0.
        1    1    3    3  502    0 -0.95117931789E+02  0.76191580616E+03  0.33872675803E+03  0.83922519818E+03  0.50400001928E-02 0. -1.
       -1    1    3    3    0  502  0.95117931789E+02 -0.76191580616E+03 -0.20522423614E+04  0.21911781823E+04  0.50400001928E-02 0.  1.
</event>
<event>
 5   0  0.3972587E-07  0.2500632E+04  0.7818609E-02  0.8402760E-01
        1   -1    0    0  501    0  0.00000000000E+00  0.00000000000E+00  0.18348554474E+04  0.18348554474E+04  0.50400001928E-02 0.  1.
       -1   -1    0    0    0  501  0.00000000000E+00  0.00000000000E+00 -0.85199652915E+03  0.85199652917E+03  0.50400001928E-02 0. -1.
    10030    2    1    2    0    0  0.00000000000E+00  0.00000000000E+00  0.98285891821E+03  0.26868519765E+04  0.25006322982E+04 0.  0.
        3    1    3    3  502    0  0.45183010155E+03  0.27736742956E+03  0.17081001119E+04  0.17884879463E+04  0.10100000352E+00 0.  1.
       -3    1    3    3    0  502 -0.45183010155E+03 -0.27736742956E+03 -0.72524119367E+03  0.89836403024E+03  0.10100000352E+00 0. -1.
</event>
<event>
 5   0  0.3805418E-07  0.2501330E+04  0.7818609E-02  0.8402512E-01
        1   -1    0    0  501    0  0.00000000000E+00  0.00000000000E+00  0.68900429463E+03  0.68900429465E+03  0.50400001928E-02 0.  1.
       -1   -1    0    0    0  501  0.00000000000E+00  0.00000000000E+00 -0.22701781586E+04  0.22701781587E+04  0.50400001928E-02 0. -1.
    10030    2    1    2    0    0  0.00000000000E+00  0.00000000000E+00 -0.15811738640E+04  0.29591824533E+04  0.25013296471E+04 0.  0.
        4    1    3    3  502    0 -0.34183798301E+03 -0.91933608195E+03  0.12741909084E+03  0.98907495966E+03  0.12699999809E+01 0.  1.
       -4    1    3    3    0  502  0.34183798301E+03  0.91933608195E+03 -0.17085929549E+04  0.19701074936E+04  0.12699999809E+01 0. -1.
</event>
<event>
 5   0  0.9508784E-07  0.2499228E+04  0.7818609E-02  0.8403261E-01
       -2   -1    0    0    0  501  0.00000000000E+00  0.00000000000E+00  0.11295912207E+04  0.11295912207E+04  0.25500000920E-02 0. -1.
        2   -1    0    0  501    0  0.00000000000E+00  0.00000000000E+00 -0.13823896085E+04  0.13823896085E+04  0.25500000920E-02 0.  1.
    10030    2    1    2    0    0  0.00000000000E+00  0.00000000000E+00 -0.25279838782E+03  0.25119808292E+04  0.24992280131E+04 0.  0.
        2    1    3    3  502    0  0.11533484807E+04 -0.39737005186E+03 -0.39874213315E+03  0.12833982098E+04  0.25500000920E-02 0.  1.
       -2    1    3    3    0  502 -0.11533484807E+04  0.39737005186E+03  0.14594374533E+03  0.12285826195E+04  0.25500000920E-02 0. -1.
</event>
<event>
 5   0  0.9261602E-07  0.2499272E+04  0.7818609E-02  0.8403245E-01
       -2   -1    0    0    0  501  0.00000000000E+00  0.00000000000E+00  0.74996618909E+03  0.74996618909E+03  0.25500000920E-02 0.  1.
        2   -1    0    0  501    0  0.00000000000E+00  0.00000000000E+00 -0.20822144375E+04  0.20822144375E+04  0.25500000920E-02 0. -1.
    10030    2    1    2    0    0  0.00000000000E+00  0.00000000000E+00 -0.13322482484E+04  0.28321806266E+04  0.24992722353E+04 0.  0.
        4    1    3    3  502    0 -0.25807126223E+03 -0.80147278042E+03 -0.17124995699E+04  0.19083018063E+04  0.12699999809E+01 0. -1.
       -4    1    3    3    0  502  0.25807126223E+03  0.80147278042E+03  0.38025132150E+03  0.92387882027E+03  0.12699999809E+01 0.  1.
</event>
<event>
 5   0  0.9768582E-07  0.2500384E+04  0.7818609E-02  0.8402849E-01
       -2   -1    0    0    0  501  0.00000000000E+00  0.00000000000E+00  0.18719646637E+04  0.18719646637E+04  0.25500000920E-02 0. -1.
        2   -1    0    0  501    0  0.00000000000E+00  0.00000000000E+00 -0.83494072496E+03  0.83494072497E+03  0.25500000920E-02 0.  1.
    10030    2    1    2    0    0  0.00000000000E+00  0.00000000000E+00  0.10370239387E+04  0.27069053886E+04  0.25003835973E+04 0.  0.
        3    1    3    3  502    0  0.15612316431E+03  0.77735473482E+03 -0.52793048264E+03  0.95255731107E+03  0.10100000352E+00 0.  1.
       -3    1    3    3    0  502 -0.15612316431E+03 -0.77735473482E+03  0.15649544213E+04  0.17543480776E+04  0.10100000352E+00 0. -1.
</event>
<event>
 5   0  0.9251138E-07  0.2498347E+04  0.7818609E-02  0.8403575E-01
        2   -1    0    0  501    0  0.00000000000E+00  0.00000000000E+00  0.14982801889E+04  0.14982801889E+04  0.25500000920E-02 0.  1.
       -2   -1    0    0    0  501  0.00000000000E+00  0.00000000000E+00 -0.10414835711E+04  0.10414835711E+04  0.25500000920E-02 0. -1.
    10030    2    1    2    0    0  0.00000000000E+00  0.00000000000E+00  0.45679661783E+03  0.25397637600E+04  0.24983468147E+04 0.  0.
        5    1    3    3  502    0  0.82070808104E+03 -0.80235727453E+02 -0.72545967028E+03  0.10983229714E+04  0.46999998093E+01 0. -1.
       -5    1    3    3    0  502 -0.82070808104E+03  0.80235727453E+02  0.11822562881E+04  0.14414407886E+04  0.46999998093E+01 0.  1.
</event>
<event>
 5   0  0.3805418E-07  0.2498792E+04  0.7818609E-02  0.8403416E-01
       -1   -1    0    0    0  501  0.00000000000E+00  0.00000000000E+00  0.15639190536E+04  0.15639190536E+04  0.50400001928E-02 0.  1.
        1   -1    0    0  501    0  0.00000000000E+00  0.00000000000E+00 -0.99812718076E+03  0.99812718078E+03  0.50400001928E-02 0. -1.
    10030    2    1    2    0    0  0.00000000000E+00  0.00000000000E+00  0.56579187286E+03  0.25620462344E+04  0.24987918008E+04 0.  0.
        4    1    3    3  502    0  0.98487730096E+03  0.67717173856E+03 -0.90244613415E+02  0.11986202754E+04  0.12699999809E+01 0. -1.
       -4    1    3    3    0  502 -0.98487730096E+03 -0.67717173856E+03  0.65603648628E+03  0.13634259590E+04  0.12699999809E+01 0.  1.
</event>
<event>
 5   0  0.3837524E-07  0.2499616E+04  0.7818609E-02  0.8403122E-01
        1   -1    0    0  501    0  0.00000000000E+00  0.00000000000E+00  0.12638671270E+04  0.12638671270E+04  0.50400001928E-02 0.  1.
       -1   -1    0    0    0  501  0.00000000000E+00  0.00000000000E+00 -0.12359053558E+04  0.12359053558E+04  0.50400001928E-02 0. -1.
    10030    2    1    2    0    0  0.00000000000E+00  0.00000000000E+00  0.27961771124E+02  0.24997724828E+04  0.24996160915E+04 0.  0.
        5    1    3    3  502    0  0.26221931811E+03 -0.11429540697E+04 -0.41835980450E+03  0.12450501967E+04  0.46999998093E+01 0. -1.
       -5    1    3    3    0  502 -0.26221931811E+03  0.11429540697E+04  0.44632157563E+03  0.12547222861E+04  0.46999998093E+01 0.  1.
</event>
<event>
 5   0  0.3991066E-07  0.2501048E+04  0.7818609E-02  0.8402612E-01
        1   -1    0    0  501    0  0.00000000000E+00  0.00000000000E+00  0.71650946438E+03  0.71650946440E+03  0.50400001928E-02 0. -1.
       -1   -1    0    0    0  501  0.00000000000E+00  0.00000000000E+00 -0.21825387871E+04  0.21825387871E+04  0.50400001928E-02 0.  1.
    10030    2    1    2    0    0  0.00000000000E+00  0.00000000000E+00 -0.14660293227E+04  0.28990482515E+04  0.25010475384E+04 0.  0.
        1    1    3    3  502    0 -0.68059204664E+03  0.99528930369E+03 -0.34856765537E+03  0.12551118446E+04  0.50400001928E-02 0. -1.
       -1    1    3    3    0  502  0.68059204664E+03 -0.99528930369E+03 -0.11174616673E+04  0.16439364069E+04  0.50400001928E-02 0.  1.
</event>
<event>
 5   0  0.9261602E-07  0.2501002E+04  0.7818609E-02  0.8402629E-01
        2   -1    0    0  501    0  0.00000000000E+00  0.00000000000E+00  0.11689885187E+04  0.11689885187E+04  0.25500000920E-02 0. -1.
       -2   -1    0    0    0  501  0.00000000000E+00  0.00000000000E+00 -0.13376973448E+04  0.13376973449E+04  0.25500000920E-02 0.  1.
    10030    2    1    2    0    0  0.00000000000E+00  0.00000000000E+00 -0.16870882612E+03  0.25066858636E+04  0.25010020693E+04 0.  0.
        4    1    3    3  502    0 -0.61207967277E+03 -0.57051487785E+03 -0.10157792796E+04  0.13160311203E+04  0.12699999809E+01 0.  1.
       -4    1    3    3    0  502  0.61207967277E+03  0.57051487785E+03  0.84707045352E+03  0.11906547433E+04  0.12699999809E+01 0. -1.
</event>
<event>
 5   0  0.9261602E-07  0.2489101E+04  0.7818609E-02  0.8406879E-01
       -2   -1    0    0    0  501  0.00000000000E+00  0.00000000000E+00  0.63534445977E+03  0.63534445977E+03  0.25500000920E-02 0.  1.
        2   -1    0    0  501    0  0.00000000000E+00  0.00000000000E+00 -0.24379001158E+04  0.24379001158E+04  0.25500000920E-02 0. -1.
    10030    2    1    2    0    0  0.00000000000E+00  0.00000000000E+00 -0.18025556560E+04  0.30732445755E+04  0.24891013093E+04 0.  0.
        4    1    3    3  502    0 -0.23354725989E+03 -0.91945122186E+03  0.93364208563E+02  0.95323310912E+03  0.12699999809E+01 0.  1.
       -4    1    3    3    0  502  0.23354725989E+03  0.91945122186E+03 -0.18959198646E+04  0.21200114664E+04  0.12699999809E+01 0. -1.
</event>
<event>
 5   0  0.3214375E-07  0.2499524E+04  0.7818609E-02  0.8403155E-01
        3   -1    0    0  501    0  0.00000000000E+00  0.00000000000E+00  0.10087451671E+04  0.10087451721E+04  0.10100000352E+00 0.  1.
       -3   -1    0    0    0  501  0.00000000000E+00  0.00000000000E+00 -0.15483645587E+04  0.15483645620E+04  0.10100000352E+00 0. -1.
    10030    2    1    2    0    0  0.00000000000E+00  0.00000000000E+00 -0.53961939159E+03  0.25571097341E+04  0.24995241756E+04 0.  0.
        2    1    3    3  502    0 -0.64848331172E+03 -0.98103641001E+03 -0.70257102872E+03  0.13698792260E+04  0.25500000920E-02 0. -1.
       -2    1    3    3    0  502  0.64848331172E+03  0.98103641001E+03  0.16295163713E+03  0.11872305081E+04  0.25500000920E-02 0.  1.
</event>
<event>
 5   0  0.9508784E-07  0.2498094E+04  0.7818609E-02  0.8403665E-01
       -2   -1    0    0    0  501  0.00000000000E+00  0.00000000000E+00  0.93759483428E+03  0.93759483428E+03  0.25500000920E-02 0. -1.
        2   -1    0    0  501    0  0.00000000000E+00  0.00000000000E+00 -0.16639576761E+04  0.16639576761E+04  0.25500000920E-02 0.  1.
    10030    2    1    2    0    0  0.00000000000E+00  0.00000000000E+00 -0.72636284186E+03  0.26015525104E+04  0.24980937705E+04 0.  0.
        2    1    3    3  502    0 -0.77160604461E+03 -0.95870570831E+03 -0.58562923705E+03  0.13628844876E+04  0.25500000920E-02 0.  1.
       -2    1    3    3    0  502  0.77160604461E+03  0.95870570831E+03 -0.14073360480E+03  0.12386680228E+04  0.25500000920E-02 0. -1.
</event>
<event>
 5   0  0.3873231E-07  0.2499676E+04  0.7818609E-02  0.8403101E-01
        1   -1    0    0  501    0  0.00000000000E+00  0.00000000000E+00  0.25031086959E+04  0.25031086959E+04  0.50400001928E-02 0.  1.
       -1   -1    0    0    0  501  0.00000000000E+00  0.00000000000E+00 -0.62406194428E+03  0.62406194430E+03  0.50400001928E-02 0. -1.
    10030    2    1    2    0    0  0.00000000000E+00  0.00000000000E+00  0.18790467516E+04  0.31271706402E+04  0.24996758826E+04 0.  0.
        2    1    3    3  502    0  0.61758780981E+03 -0.79111113003E+03  0.76750104889E+01  0.10036585219E+04  0.25500000920E-02 0. -1.
       -2    1    3    3    0  502 -0.61758780981E+03  0.79111113003E+03  0.18713717411E+04  0.21235121182E+04  0.25500000920E-02 0.  1.
</event>
<event>
 5   0  0.3972587E-07  0.2501395E+04  0.7818609E-02  0.8402489E-01
        1   -1    0    0  501    0  0.00000000000E+00  0.00000000000E+00  0.21834939712E+04  0.21834939712E+04  0.50400001928E-02 0.  1.
       -1   -1    0    0    0  501  0.00000000000E+00  0.00000000000E+00 -0.71639511847E+03  0.71639511849E+03  0.50400001928E-02 0. -1.
    10030    2    1    2    0    0  0.00000000000E+00  0.00000000000E+00  0.14670988528E+04  0.28998890897E+04  0.25013951485E+04 0.  0.
        3    1    3    3  502    0 -0.11961510263E+04  0.34713299661E+03  0.86555705496E+03  0.15167292509E+04  0.10100000352E+00 0. -1.
       -3    1    3    3    0  502  0.11961510263E+04 -0.34713299661E+03  0.60154179781E+03  0.13831598388E+04  0.10100000352E+00 0.  1.
</event>
<event>
 5   0  0.9251138E-07  0.2500543E+04  0.7818609E-02  0.8402792E-01
        2   -1    0    0  501    0  0.00000000000E+00  0.00000000000E+00  0.16334566106E+04  0.16334566106E+04  0.25500000920E-02 0. -1.
       -2   -1    0    0    0  501  0.00000000000E+00  0.00000000000E+00 -0.95697565809E+03  0.95697565809E+03  0.25500000920E-02 0.  1.
    10030    2    1    2    0    0  0.00000000000E+00  0.00000000000E+00  0.67648095255E+03  0.25904322687E+04  0.25005425131E+04 0.  0.
        5    1    3    3  502    0 -0.19921765397E+03 -0.10827259295E+04  0.95214179397E+03  0.14555339906E+04  0.46999998093E+01 0. -1.
       -5    1    3    3    0  502  0.19921765397E+03  0.10827259295E+04 -0.27566084142E+03  0.11348982781E+04  0.46999998093E+01 0.  1.
</event>
<event>
 5   0  0.8997210E-07  0.2501874E+04  0.7818609E-02  0.8402318E-01
       -2   -1    0    0    0  501  0.00000000000E+00  0.00000000000E+00  0.70803563224E+03  0.70803563225E+03  0.25500000920E-02 0.  1.
        2   -1    0    0  501    0  0.00000000000E+00  0.00000000000E+00 -0.22101191239E+04  0.22101191239E+04  0.25500000920E-02 0. -1.
    10030    2    1    2    0    0  0.00000000000E+00  0.00000000000E+00 -0.15020834917E+04  0.29181547562E+04  0.25018737708E+04 0.  0.
        1    1    3    3  502    0 -0.15317191271E+03  0.55194499541E+03 -0.20481666856E+04  0.21267561414E+04  0.50400001928E-02 0. -1.
       -1    1    3    3    0  502  0.15317191271E+03 -0.55194499541E+03  0.54608319392E+03  0.79139861480E+03  0.50400001928E-02 0.  1.
</event>
<event>
 5   0  0.3805418E-07  0.2499293E+04  0.7818609E-02  0.8403238E-01
       -1   -1    0    0    0  501  0.00000000000E+00  0.00000000000E+00  0.92989007648E+03  0.92989007649E+03  0.50400001928E-02 0. -1.
        1   -1    0    0  501    0  0.00000000000E+00  0.00000000000E+00 -0.16793555117E+04  0.16793555117E+04  0.50400001928E-02 0.  1.
    10030    2    1    2    0    0  0.00000000000E+00  0.00000000000E+00 -0.74946543521E+03  0.26092455882E+04  0.24992927201E+04 0.  0.
        4    1    3    3  502    0  0.39697235686E+03 -0.11445598409E+04 -0.54633095151E+02  0.12126791289E+04  0.12699999809E+01 0. -1.
       -4    1    3    3    0  502 -0.39697235686E+03  0.11445598409E+04 -0.69483234006E+03  0.13965664593E+04  0.12699999809E+01 0.  1.
</event>
<event>
 5   0  0.3805418E-07  0.2500055E+04  0.7818609E-02  0.8402966E-01
       -1   -1    0    0    0  501  0.00000000000E+00  0.00000000000E+00  0.10740139777E+04  0.10740139777E+04  0.50400001928E-02 0. -1.
        1   -1    0    0  501    0  0.00000000000E+00  0.00000000000E+00 -0.14548870236E+04  0.14548870236E+04  0.50400001928E-02 0.  1.
    10030    2    1    2    0    0  0.00000000000E+00  0.00000000000E+00 -0.38087304589E+03  0.25289010014E+04  0.25000551989E+04 0.  0.
        4    1    3    3  502    0  0.32084089055E+03 -0.60764137089E+03  0.86583421002E+03  0.11053675429E+04  0.12699999809E+01 0. -1.
       -4    1    3    3    0  502 -0.32084089055E+03  0.60764137089E+03 -0.12467072559E+04  0.14235334585E+04  0.12699999809E+01 0.  1.
</event>
<event>
 5   0  0.3837524E-07  0.2499619E+04  0.7818609E-02  0.8403121E-01
        1   -1    0    0  501    0  0.00000000000E+00  0.00000000000E+00  0.25826009090E+04  0.25826009090E+04  0.50400001928E-02 0. -1.
       -1   -1    0    0    0  501  0.00000000000E+00  0.00000000000E+00 -0.60482602511E+03  0.60482602513E+03  0.50400001928E-02 0.  1.
    10030    2    1    2    0    0  0.00000000000E+00  0.00000000000E+00  0.19777748839E+04  0.31874269341E+04  0.24996193648E+04 0.  0.
        5    1    3    3  502    0 -0.33454063226E+03  0.11399892607E+03  0.25175378780E+04  0.25422297785E+04  0.46999998093E+01 0. -1.
       -5    1    3    3    0  502  0.33454063226E+03 -0.11399892607E+03 -0.53976299411E+03  0.64519715559E+03  0.46999998093E+01 0.  1.
</event>
<event>
 5   0  0.9261602E-07  0.2499814E+04  0.7818609E-02  0.8403052E-01
       -2   -1    0    0    0  501  0.00000000000E+00  0.00000000000E+00  0.11221191137E+04  0.11221191137E+04  0.25500000920E-02 0. -1.
        2   -1    0    0  501    0  0.00000000000E+00  0.00000000000E+00 -0.13922469367E+04  0.13922469367E+04  0.25500000920E-02 0.  1.
    10030    2    1    2    0    0  0.00000000000E+00  0.00000000000E+00 -0.27012782307E+03  0.25143660504E+04  0.24998135120E+04 0.  0.
        4    1    3    3  502    0 -0.71368224062E+03  0.53185117828E+03 -0.10177014732E+04  0.13520081057E+04  0.12699999809E+01 0.  1.
       -4    1    3    3    0  502  0.71368224062E+03 -0.53185117828E+03  0.74757365011E+03  0.11623579447E+04  0.12699999809E+01 0. -1.
</event>
<event>
 5   0  0.3837524E-07  0.2499986E+04  0.7818609E-02  0.8402990E-01
       -1   -1    0    0    0  501  0.00000000000E+00  0.00000000000E+00  0.11214275665E+04  0.11214275665E+04  0.50400001928E-02 0.  1.
        1   -1    0    0  501    0  0.00000000000E+00  0.00000000000E+00 -0.13932978123E+04  0.13932978124E+04  0.50400001928E-02 0. -1.
    10030    2    1    2    0    0  0.00000000000E+00  0.00000000000E+00 -0.27187024585E+03  0.25147253789E+04  0.24999860601E+04 0.  0.
        5    1    3    3  502    0  0.85399657860E+02 -0.89631790405E+03 -0.10081004620E+04  0.13516536236E+04  0.46999998093E+01 0. -1.
       -5    1    3    3    0  502 -0.85399657860E+02  0.89631790405E+03  0.73623021616E+03  0.11630717553E+04  0.46999998093E+01 0.  1.
</event>
<event>
 5   0  0.9768582E-07  0.2501168E+04  0.7818609E-02  0.8402570E-01
        2   -1    0    0  501    0  0.00000000000E+00  0.00000000000E+00  0.20727609214E+04  0.20727609214E+04  0.25500000920E-02 0.  1.
       -2   -1    0    0    0  501  0.00000000000E+00  0.00000000000E+00 -0.75452982619E+03  0.75452982619E+03  0.25500000920E-02 0. -1.
    10030    2    1    2    0    0  0.00000000000E+00  0.00000000000E+00  0.13182310953E+04  0.28272907476E+04  0.25011676775E+04 0.  0.
        3    1    3    3  502    0 -0.54106728234E+03  0.11017387571E+04  0.38834604856E+03  0.12873984452E+04  0.10100000352E+00 0. -1.
       -3    1    3    3    0  502  0.54106728234E+03 -0.11017387571E+04  0.92988504670E+03  0.15398923025E+04  0.10100000352E+00 0.  1.
</event>
<event>
 5   0  0.9768582E-07  0.2499550E+04  0.7818609E-02  0.8403146E-01
       -2   -1    0    0    0  501  0.00000000000E+00  0.00000000000E+00  0.16320744413E+04  0.16320744413E+04  0.25500000920E-02 0.  1.
        2   -1    0    0  501    0  0.00000000000E+00  0.00000000000E+00 -0.95702603468E+03  0.95702603469E+03  0.25500000920E-02 0. -1.
    10030    2    1    2    0    0  0.00000000000E+00  0.00000000000E+00  0.67504840659E+03  0.25891004760E+04  0.24995501442E+04 0.  0.
        3    1    3    3  502    0  0.10028641872E+03  0.12133502020E+04  0.62987997930E+03  0.13707752832E+04  0.10100000352E+00 0. -1.
       -3    1    3    3    0  502 -0.10028641872E+03 -0.12133502020E+04  0.45168427298E+02  0.12183251928E+04  0.10100000352E+00 0.  1.
</event>
<event>
 5   0  0.3214375E-07  0.2499421E+04  0.7818609E-02  0.8403192E-01
       -3   -1    0    0    0  501  0.00000000000E+00  0.00000000000E+00  0.16231554502E+04  0.16231554534E+04  0.10100000352E+00 0.  1.
        3   -1    0    0  501    0  0.00000000000E+00  0.00000000000E+00 -0.96218555380E+03  0.96218555910E+03  0.10100000352E+00 0. -1.
    10030    2    1    2    0    0  0.00000000000E+00  0.00000000000E+00  0.66096989645E+03  0.25853410125E+04  0.24994213224E+04 0.  0.
        4    1    3    3  502    0 -0.48376346226E+03 -0.88099036219E+03 -0.43774649002E+03  0.10962639774E+04  0.12699999809E+01 0. -1.
       -4    1    3    3    0  502  0.48376346226E+03  0.88099036219E+03  0.10987163865E+04  0.14890770351E+04  0.12699999809E+01 0.  1.
</event>
<event>
 5   0  0.3837524E-07  0.2499532E+04  0.7818609E-02  0.8403152E-01
       -1   -1    0    0    0  501  0.00000000000E+00  0.00000000000E+00  0.11486480031E+04  0.11486480031E+04  0.50400001928E-02 0.  1.
        1   -1    0    0  501    0  0.00000000000E+00  0.00000000000E+00 -0.13597856502E+04  0.13597856502E+04  0.50400001928E-02 0. -1.
    10030    2    1    2    0    0  0.00000000000E+00  0.00000000000E+00 -0.21113764711E+03  0.25084336533E+04  0.24995320136E+04 0.  0.
        5    1    3    3  502    0 -0.11794849767E+04 -0.25583648230E+03 -0.43115583332E+03  0.12816218469E+04  0.46999998093E+01 0. -1.
       -5    1    3    3    0  502  0.11794849767E+04  0.25583648230E+03  0.22001818621E+03  0.12268118063E+04  0.46999998093E+01 0.  1.
</event>
<event>
 5   0  0.9768582E-07  0.2499926E+04  0.7818609E-02  0.8403012E-01
        2   -1    0    0  501    0  0.00000000000E+00  0.00000000000E+00  0.17497517519E+04  0.17497517519E+04  0.25500000920E-02 0. -1.
       -2   -1    0    0    0  501  0.00000000000E+00  0.00000000000E+00 -0.89293065478E+03  0.89293065478E+03  0.25500000920E-02 0.  1.
    10030    2    1    2    0    0  0.00000000000E+00  0.00000000000E+00  0.85682109709E+03  0.26426824067E+04  0.24999255809E+04 0.  0.
        3    1    3    3  502    0  0.28472765075E+03  0.11265194305E+04 -0.58650939981E+02  0.11634241725E+04  0.10100000352E+00 0.  1.
       -3    1    3    3    0  502 -0.28472765075E+03 -0.11265194305E+04  0.91547203708E+03  0.14792582341E+04  0.10100000352E+00 0. -1.
</event>
<event>
 5   0  0.3214375E-07  0.2499773E+04  0.7818609E-02  0.8403067E-01
        3   -1    0    0  501    0  0.00000000000E+00  0.00000000000E+00  0.19568498479E+04  0.19568498505E+04  0.10100000352E+00 0.  1.
       -3   -1    0    0    0  501  0.00000000000E+00  0.00000000000E+00 -0.79833192200E+03  0.79833192839E+03  0.10100000352E+00 0. -1.
    10030    2    1    2    0    0  0.00000000000E+00  0.00000000000E+00  0.11585179259E+04  0.27551817789E+04  0.24997725597E+04 0.  0.
        5    1    3    3  502    0 -0.81533175337E+02 -0.53522870578E+03  0.18208930025E+04  0.18996817740E+04  0.46999998093E+01 0.  1.
       -5    1    3    3    0  502  0.81533175337E+02  0.53522870578E+03 -0.66237507660E+03  0.85550000483E+03  0.46999998093E+01 0. -1.
</event>
<event>
 5   0  0.9508784E-07  0.2503112E+04  0.7818609E-02  0.8401878E-01
        2   -1    0    0  501    0  0.00000000000E+00  0.00000000000E+00  0.23118448885E+04  0.23118448885E+04  0.25500000920E-02 0.  1.
       -2   -1    0    0    0  501  0.00000000000E+00  0.00000000000E+00 -0.67755056036E+03  0.67755056037E+03  0.25500000920E-02 0. -1.
    10030    2    1    2    0    0  0.00000000000E+00  0.00000000000E+00  0.16342943282E+04  0.29893954489E+04  0.25031115035E+04 0.  0.
        2    1    3    3  502    0  0.76793189239E+02  0.76932984098E+03 -0.35824090821E+03  0.85211627520E+03  0.25500000920E-02 0. -1.
       -2    1    3    3    0  502 -0.76793189239E+02 -0.76932984098E+03  0.19925352364E+04  0.21372791737E+04  0.25500000920E-02 0.  1.
</event>
<event>
 5   0  0.8997210E-07  0.2500123E+04  0.7818609E-02  0.8402942E-01
       -2   -1    0    0    0  501  0.00000000000E+00  0.00000000000E+00  0.16051229734E+04  0.16051229734E+04  0.25500000920E-02 0.  1.
        2   -1    0    0  501    0  0.00000000000E+00  0.00000000000E+00 -0.97354181373E+03  0.97354181374E+03  0.25500000920E-02 0. -1.
    10030    2    1    2    0    0  0.00000000000E+00  0.00000000000E+00  0.63158115967E+03  0.25786647871E+04  0.25001234616E+04 0.  0.
        1    1    3    3  502    0  0.10317623367E+04  0.55486769024E+03 -0.13407978644E+03  0.11791475999E+04  0.50400001928E-02 0.  1.
       -1    1    3    3    0  502 -0.10317623367E+04 -0.55486769024E+03  0.76566094611E+03  0.13995171873E+04  0.50400001928E-02 0. -1.
</event>
<event>
 5   0  0.3991066E-07  0.2501193E+04  0.7818609E-02  0.8402561E-01
       -1   -1    0    0    0  501  0.00000000000E+00  0.00000000000E+00  0.18626720815E+04  0.18626720815E+04  0.50400001928E-02 0.  1.
        1   -1    0    0  501    0  0.00000000000E+00  0.00000000000E+00 -0.83964922086E+03  0.83964922087E+03  0.50400001928E-02 0. -1.
    10030    2    1    2    0    0  0.00000000000E+00  0.00000000000E+00  0.10230228607E+04  0.27023213024E+04  0.25011926451E+04 0.  0.
        1    1    3    3  502    0 -0.11530959292E+04 -0.31462119862E+03  0.11399216525E+03  0.12006710350E+04  0.50400001928E-02 0. -1.
       -1    1    3    3    0  502  0.11530959292E+04  0.31462119862E+03  0.90903069542E+03  0.15016502674E+04  0.50400001928E-02 0.  1.
</event>
<event>
 5   0  0.9261602E-07  0.2517080E+04  0.7818609E-02  0.8396926E-01
        2   -1    0    0  501    0  0.00000000000E+00  0.00000000000E+00  0.15388559011E+04  0.15388559011E+04  0.25500000920E-02 0.  1.
       -2   -1    0    0    0  501  0.00000000000E+00  0.00000000000E+00 -0.10292859574E+04  0.10292859574E+04  0.25500000920E-02 0. -1.
    10030    2    1    2    0    0  0.00000000000E+00  0.00000000000E+00  0.50956994370E+03  0.25681418585E+04  0.25170798712E+04 0.  0.
        4    1    3    3  502    0 -0.38343599124E+03 -0.49226560140E+02  0.14767772620E+04  0.15265382760E+04  0.12699999809E+01 0.  1.
       -4    1    3    3    0  502  0.38343599124E+03  0.49226560140E+02 -0.96720731831E+03  0.10416035825E+04  0.12699999809E+01 0. -1.
</event>
<event>
 5   0  0.9261602E-07  0.2499964E+04  0.7818609E-02  0.8402998E-01
        2   -1    0    0  501    0  0.00000000000E+00  0.00000000000E+00  0.17133992471E+04  0.17133992471E+04  0.25500000920E-02 0. -1.
       -2   -1    0    0    0  501  0.00000000000E+00  0.00000000000E+00 -0.91190384814E+03  0.91190384814E+03  0.25500000920E-02 0.  1.
    10030    2    1    2    0    0  0.00000000000E+00  0.00000000000E+00  0.80149539900E+03  0.26253030953E+04  0.24999642932E+04 0.  0.
        4    1    3    3  502    0  0.75551897063E+01  0.11188828754E+04  0.98590805820E+03  0.14912988574E+04  0.12699999809E+01 0.  1.
       -4    1    3    3    0  502 -0.75551897063E+01 -0.11188828754E+04 -0.18441265920E+03  0.11340042379E+04  0.12699999809E+01 0. -1.
</event>
<event>
 5   0  0.9251138E-07  0.2499193E+04  0.7818609E-02  0.8403273E-01
        2   -1    0    0  501    0  0.00000000000E+00  0.00000000000E+00  0.10017968789E+04  0.10017968789E+04  0.25500000920E-02 0. -1.
       -2   -1    0    0    0  501  0.00000000000E+00  0.00000000000E+00 -0.15586901758E+04  0.15586901758E+04  0.25500000920E-02 0.  1.
    10030    2    1    2    0    0  0.00000000000E+00  0.00000000000E+00 -0.55689329696E+03  0.25604870547E+04  0.24991926323E+04 0.  0.
        5    1    3    3  502    0 -0.70062412099E+02  0.12325180000E+04 -0.47673803445E+03  0.13233709251E+04  0.46999998093E+01 0.  1.
       -5    1    3    3    0  502  0.70062412099E+02 -0.12325180000E+04 -0.80155262508E+02  0.12371161296E+04  0.46999998093E+01 0. -1.
</event>
<event>
 5   0  0.3805418E-07  0.2500248E+04  0.7818609E-02  0.8402897E-01
       -1   -1    0    0    0  501  0.00000000000E+00  0.00000000000E+00  0.15094810807E+04  0.15094810808E+04  0.50400001928E-02 0.  1.
        1   -1    0    0  501    0  0.00000000000E+00  0.00000000000E+00 -0.10353292120E+04  0.10353292120E+04  0.50400001928E-02 0. -1.
    10030    2    1    2    0    0  0.00000000000E+00  0.00000000000E+00  0.47415186875E+03  0.25448102928E+04  0.25002478740E+04 0.  0.
        4    1    3    3  502    0 -0.11952135772E+04 -0.46229392238E+02 -0.13290747939E+03  0.12034694275E+04  0.12699999809E+01 0. -1.
       -4    1    3    3    0  502  0.11952135772E+04  0.46229392238E+02  0.60705934815E+03  0.13413408653E+04  0.12699999809E+01 0.  1.
</event>
<event>
 5   0  0.3873231E-07  0.2500602E+04  0.7818609E-02  0.8402771E-01
       -1   -1    0    0    0  501  0.00000000000E+00  0.00000000000E+00  0.81375163383E+03  0.81375163385E+03  0.50400001928E-02 0. -1.
        1   -1    0    0  501    0  0.00000000000E+00  0.00000000000E+00 -0.19210445432E+04  0.19210445432E+04  0.50400001928E-02 0.  1.
    10030    2    1    2    0    0  0.00000000000E+00  0.00000000000E+00 -0.11072929094E+04  0.27347961770E+04  0.25006024360E+04 0.  0.
        2    1    3    3  502    0  0.74041079737E+03 -0.91510804144E+03 -0.10145701225E+04  0.15540216890E+04  0.25500000920E-02 0.  1.
       -2    1    3    3    0  502 -0.74041079737E+03  0.91510804144E+03 -0.92722786808E+02  0.11807744880E+04  0.25500000920E-02 0. -1.
</event>
<event>
 5   0  0.9768582E-07  0.2500646E+04  0.7818609E-02  0.8402755E-01
        2   -1    0    0  501    0  0.00000000000E+00  0.00000000000E+00  0.17916499135E+04  0.17916499135E+04  0.25500000920E-02 0.  1.
       -2   -1    0    0    0  501  0.00000000000E+00  0.00000000000E+00 -0.87255181148E+03  0.87255181148E+03  0.25500000920E-02 0. -1.
    10030    2    1    2    0    0  0.00000000000E+00  0.00000000000E+00  0.91909810200E+03  0.26642017250E+04  0.25006458186E+04 0.  0.
        3    1    3    3  502    0  0.56801195151E+03 -0.82532801425E+03  0.12564719548E+04  0.16070238615E+04  0.10100000352E+00 0.  1.
       -3    1    3    3    0  502 -0.56801195151E+03  0.82532801425E+03 -0.33737385280E+03  0.10571778634E+04  0.10100000352E+00 0. -1.
</event>
<event>
 5   0  0.9261602E-07  0.2499907E+04  0.7818609E-02  0.8403019E-01
        2   -1    0    0  501    0  0.00000000000E+00  0.00000000000E+00  0.15457290549E+04  0.15457290549E+04  0.25500000920E-02 0.  1.
       -2   -1    0    0    0  501  0.00000000000E+00  0.00000000000E+00 -0.10107745246E+04  0.10107745246E+04  0.25500000920E-02 0. -1.
    10030    2    1    2    0    0  0.00000000000E+00  0.00000000000E+00  0.53495453029E+03  0.25565035796E+04  0.24999068388E+04 0.  0.
        4    1    3    3  502    0 -0.92035086849E+03 -0.41160935160E+03  0.10230646179E+04  0.14363602629E+04  0.12699999809E+01 0.  1.
       -4    1    3    3    0  502  0.92035086849E+03  0.41160935160E+03 -0.48811008760E+03  0.11201433167E+04  0.12699999809E+01 0. -1.
</event>
<event>
 5   0  0.9261602E-07  0.2499789E+04  0.7818609E-02  0.8403061E-01
       -2   -1    0    0    0  501  0.00000000000E+00  0.00000000000E+00  0.10275087111E+04  0.10275087111E+04  0.25500000920E-02 0. -1.
        2   -1    0    0  501    0  0.00000000000E+00  0.00000000000E+00 -0.15204116988E+04  0.15204116988E+04  0.25500000920E-02 0.  1.
    10030    2    1    2    0    0  0.00000000000E+00  0.00000000000E+00 -0.49290298775E+03  0.25479204099E+04  0.24997890031E+04 0.  0.
        4    1    3    3  502    0 -0.10403254494E+04 -0.68394127481E+03 -0.35894845813E+03  0.12957230864E+04  0.12699999809E+01 0. -1.
       -4    1    3    3    0  502  0.10403254494E+04  0.68394127481E+03 -0.13395452962E+03  0.12521973235E+04  0.12699999809E+01 0.  1.
</event>
<event>
 5   0  0.3972587E-07  0.2484923E+04  0.7818609E-02  0.8408377E-01
       -1   -1    0    0    0  501  0.00000000000E+00  0.00000000000E+00  0.11811245977E+04  0.11811245977E+04  0.50400001928E-02 0.  1.
        1   -1    0    0  501    0  0.00000000000E+00  0.00000000000E+00 -0.13069836936E+04  0.13069836936E+04  0.50400001928E-02 0. -1.
    10030    2    1    2    0    0  0.00000000000E+00  0.00000000000E+00 -0.12585909589E+03  0.24881082912E+04  0.24849230082E+04 0.  0.
        3    1    3    3  502    0 -0.11871518370E+04 -0.87989310838E+02 -0.41924941406E+03  0.12620783194E+04  0.10100000352E+00 0. -1.
       -3    1    3    3    0  502  0.11871518370E+04  0.87989310838E+02  0.29339031817E+03  0.12260299719E+04  0.10100000352E+00 0.  1.
</event>
<event>
 5   0  0.3991066E-07  0.2496759E+04  0.7818609E-02  0.8404141E-01
       -1   -1    0    0    0  501  0.00000000000E+00  0.00000000000E+00  0.10155399330E+04  0.10155399330E+04  0.50400001928E-02 0.  1.
        1   -1    0    0  501    0  0.00000000000E+00  0.00000000000E+00 -0.15346043242E+04  0.15346043242E+04  0.50400001928E-02 0. -1.
    10030    2    1    2    0    0  0.00000000000E+00  0.00000000000E+00 -0.51906439119E+03  0.25501442572E+04  0.24967594779E+04 0.  0.
        1    1    3    3  502    0 -0.92326787601E+03 -0.82461998889E+03 -0.42432089439E+03  0.13086137392E+04  0.50400001928E-02 0. -1.
       -1    1    3    3    0  502  0.92326787601E+03  0.82461998889E+03 -0.94743496795E+02  0.12415305180E+04  0.50400001928E-02 0.  1.
</event>
<event>
 5   0  0.3873231E-07  0.2498696E+04  0.7818609E-02  0.8403450E-01
        1   -1    0    0  501    0  0.00000000000E+00  0.00000000000E+00  0.19182549372E+04  0.19182549372E+04  0.50400001928E-02 0.  1.
       -1   -1    0    0    0  501  0.00000000000E+00  0.00000000000E+00 -0.81369296050E+03  0.81369296052E+03  0.50400001928E-02 0. -1.
    10030    2    1    2    0    0  0.00000000000E+00  0.00000000000E+00  0.11045619767E+04  0.27319478977E+04  0.24986960911E+04 0.  0.
        2    1    3    3  502    0  0.77912618431E+03  0.97572635197E+03  0.59855194163E+03  0.13846818955E+04  0.25500000920E-02 0. -1.
       -2    1    3    3    0  502 -0.77912618431E+03 -0.97572635197E+03  0.50601003505E+03  0.13472660022E+04  0.25500000920E-02 0.  1.
</event>
<event>
 5   0  0.8997210E-07  0.2499057E+04  0.7818609E-02  0.8403321E-01
        2   -1    0    0  501    0  0.00000000000E+00  0.00000000000E+00  0.84558137861E+03  0.84558137861E+03  0.25500000920E-02 0.  1.
       -2   -1    0    0    0  501  0.00000000000E+00  0.00000000000E+00 -0.18464476670E+04  0.18464476670E+04  0.25500000920E-02 0. -1.
    10030    2    1    2    0    0  0.00000000000E+00  0.00000000000E+00 -0.10008662884E+04  0.26920290456E+04  0.24990572333E+04 0.  0.
        1    1    3    3  502    0  0.63535805709E+03  0.65422637422E+03  0.41970875515E+03  0.10039160566E+04  0.50400001928E-02 0.  1.
       -1    1    3    3    0  502 -0.63535805709E+03 -0.65422637422E+03 -0.14205750436E+04  0.16881129891E+04  0.50400001928E-02 0. -1.
</event>
<event>
 5   0  0.9261602E-07  0.2498105E+04  0.7818609E-02  0.8403661E-01
        2   -1    0    0  501    0  0.00000000000E+00  0.00000000000E+00  0.15120893725E+04  0.15120893725E+04  0.25500000920E-02 0.  1.
       -2   -1    0    0    0  501  0.00000000000E+00  0.00000000000E+00 -0.10317725883E+04  0.10317725883E+04  0.25500000920E-02 0. -1.
    10030    2    1    2    0    0  0.00000000000E+00  0.00000000000E+00  0.48031678423E+03  0.25438619608E+04  0.24981051745E+04 0.  0.
        4    1    3    3  502    0 -0.89559228692E+03 -0.48370629760E+03  0.97734746911E+03  0.14111226081E+04  0.12699999809E+01 0.  1.
       -4    1    3    3    0  502  0.89559228692E+03  0.48370629760E+03 -0.49703068489E+03  0.11327393528E+04  0.12699999809E+01 0. -1.
</event>
<event>
 5   0  0.3837524E-07  0.2499382E+04  0.7818609E-02  0.8403206E-01
        1   -1    0    0  501    0  0.00000000000E+00  0.00000000000E+00  0.22218772708E+04  0.22218772708E+04  0.50400001928E-02 0.  1.
       -1   -1    0    0    0  501  0.00000000000E+00  0.00000000000E+00 -0.70288676001E+03  0.70288676003E+03  0.50400001928E-02 0. -1.
    10030    2    1    2    0    0  0.00000000000E+00  0.00000000000E+00  0.15189905108E+04  0.29247640308E+04  0.24993824165E+04 0.  0.
        5    1    3    3  502    0 -0.29394352919E+03 -0.51562704205E+03  0.20464072454E+04  0.21307460545E+04  0.46999998093E+01 0.  1.
       -5    1    3    3    0  502  0.29394352919E+03  0.51562704205E+03 -0.52741673458E+03  0.79401797634E+03  0.46999998093E+01 0. -1.
</event>
<event>
 5   0  0.8997210E-07  0.2505096E+04  0.7818609E-02  0.8401172E-01
       -2   -1    0    0    0  501  0.00000000000E+00  0.00000000000E+00  0.10656389123E+04  0.10656389123E+04  0.25500000920E-02 0. -1.
        2   -1    0    0  501    0  0.00000000000E+00  0.00000000000E+00 -0.14722400572E+04  0.14722400572E+04  0.25500000920E-02 0.  1.
    10030    2    1    2    0    0  0.00000000000E+00  0.00000000000E+00 -0.40660114488E+03  0.25378789694E+04  0.25050958410E+04 0.  0.
        1    1    3    3  502    0 -0.54686509238E+03 -0.10849186637E+04  0.10526098087E+03  0.12195039197E+04  0.50400001928E-02 0.  1.
       -1    1    3    3    0  502  0.54686509238E+03  0.10849186637E+04 -0.51186212575E+03  0.13183750498E+04  0.50400001928E-02 0. -1.
</event>
<event>
 5   0  0.3972587E-07  0.2500255E+04  0.7818609E-02  0.8402895E-01
       -1   -1    0    0    0  501  0.00000000000E+00  0.00000000000E+00  0.75845759737E+03  0.75845759738E+03  0.50400001928E-02 0.  1.
        1   -1    0    0  501    0  0.00000000000E+00  0.00000000000E+00 -0.20605221704E+04  0.20605221704E+04  0.50400001928E-02 0. -1.
    10030    2    1    2    0    0  0.00000000000E+00  0.00000000000E+00 -0.13020645731E+04  0.28189797678E+04  0.25002549428E+04 0.  0.
        3    1    3    3  502    0 -0.72431171117E+03  0.79688133442E+03  0.64867949745E+02  0.10788211980E+04  0.10100000352E+00 0.  1.
       -3    1    3    3    0  502  0.72431171117E+03 -0.79688133442E+03 -0.13669325228E+04  0.17401585698E+04  0.10100000352E+00 0. -1.
</event>
<event>
 5   0  0.3837524E-07  0.2501798E+04  0.7818609E-02  0.8402345E-01
        1   -1    0    0  501    0  0.00000000000E+00  0.00000000000E+00  0.15699470213E+04  0.15699470213E+04  0.50400001928E-02 0.  1.
       -1   -1    0    0    0  501  0.00000000000E+00  0.00000000000E+00 -0.99668867312E+03  0.99668867313E+03  0.50400001928E-02 0. -1.
    10030    2    1    2    0    0  0.00000000000E+00  0.00000000000E+00  0.57325834814E+03  0.25666356944E+04  0.25017980842E+04 0.  0.
        5    1    3    3  502    0 -0.38532613758E+03  0.11480495720E+04 -0.34913831961E+02  0.12115011835E+04  0.46999998093E+01 0. -1.
       -5    1    3    3    0  502  0.38532613758E+03 -0.11480495720E+04  0.60817218011E+03  0.13551345109E+04  0.46999998093E+01 0.  1.
</event>
<event>
 5   0  0.3837524E-07  0.2501596E+04  0.7818609E-02  0.8402417E-01
       -1   -1    0    0    0  501  0.00000000000E+00  0.00000000000E+00  0.13899679800E+04  0.13899679800E+04  0.50400001928E-02 0.  1.
        1   -1    0    0  501    0  0.00000000000E+00  0.00000000000E+00 -0.11255621105E+04  0.11255621105E+04  0.50400001928E-02 0. -1.
    10030    2    1    2    0    0  0.00000000000E+00  0.00000000000E+00  0.26440586958E+03  0.25155300905E+04  0.25015957252E+04 0.  0.
        5    1    3    3  502    0 -0.10609009694E+03  0.25593876472E+00  0.13854266427E+04  0.13894906428E+04  0.46999998093E+01 0.  1.
       -5    1    3    3    0  502  0.10609009694E+03 -0.25593876472E+00 -0.11210207731E+04  0.11260394477E+04  0.46999998093E+01 0. -1.
</event>
<event>
 5   0  0.9251138E-07  0.2496939E+04  0.7818609E-02  0.8404077E-01
       -2   -1    0    0    0  501  0.00000000000E+00  0.00000000000E+00  0.10185285951E+04  0.10185285951E+04  0.25500000920E-02 0. -1.
        2   -1    0    0  501    0  0.00000000000E+00  0.00000000000E+00 -0.15303217987E+04  0.15303217987E+04  0.25500000920E-02 0.  1.
    10030    2    1    2    0    0  0.00000000000E+00  0.00000000000E+00 -0.51179320352E+03  0.25488503938E+04  0.24969393358E+04 0.  0.
        5    1    3    3  502    0  0.14495089415E+03 -0.12019639946E+03  0.10039402808E+04  0.10214578374E+04  0.46999998093E+01 0. -1.
       -5    1    3    3    0  502 -0.14495089415E+03  0.12019639946E+03 -0.15157334843E+04  0.15273925565E+04  0.46999998093E+01 0.  1.
</event>
<event>
 5   0  0.9251138E-07  0.2499308E+04  0.7818609E-02  0.8403232E-01
        2   -1    0    0  501    0  0.00000000000E+00  0.00000000000E+00  0.17845827288E+04  0.17845827288E+04  0.25500000920E-02 0. -1.
       -2   -1    0    0    0  501  0.00000000000E+00  0.00000000000E+00 -0.87507042908E+03  0.87507042908E+03  0.25500000920E-02 0.  1.
    10030    2    1    2    0    0  0.00000000000E+00  0.00000000000E+00  0.90951229970E+03  0.26596531579E+04  0.24993083637E+04 0.  0.
        5    1    3    3  502    0  0.52732930489E+03 -0.52702421350E+03  0.15219842631E+04  0.16947828488E+04  0.46999998093E+01 0. -1.
       -5    1    3    3    0  502 -0.52732930489E+03  0.52702421350E+03 -0.61247196339E+03  0.96487030908E+03  0.46999998093E+01 0.  1.
</event>
<event>
 5   0  0.9261602E-07  0.2503159E+04  0.7818609E-02  0.8401861E-01
        2   -1    0    0  501    0  0.00000000000E+00  0.00000000000E+00  0.70487090891E+03  0.70487090891E+03  0.25500000920E-02 0. -1.
       -2   -1    0    0    0  501  0.00000000000E+00  0.00000000000E+00 -0.22223234783E+04  0.22223234783E+04  0.25500000920E-02 0.  1.
    10030    2    1    2    0    0  0.00000000000E+00  0.00000000000E+00 -0.15174525694E+04  0.29271943872E+04  0.25031589403E+04 0.  0.
        4    1    3    3  502    0 -0.23615540387E+03 -0.12058794110E+04 -0.10367756740E+04  0.16077375220E+04  0.12699999809E+01 0. -1.
       -4    1    3    3    0  502  0.23615540387E+03  0.12058794110E+04 -0.48067689544E+03  0.13194568652E+04  0.12699999809E+01 0.  1.
</event>
<event>
 5   0  0.3991066E-07  0.2499608E+04  0.7818609E-02  0.8403125E-01
       -1   -1    0    0    0  501  0.00000000000E+00  0.00000000000E+00  0.91871865332E+03  0.91871865334E+03  0.50400001928E-02 0.  1.
        1   -1    0    0  501    0  0.00000000000E+00  0.00000000000E+00 -0.17002043954E+04  0.17002043954E+04  0.50400001928E-02 0. -1.
    10030    2    1    2    0    0  0.00000000000E+00  0.00000000000E+00 -0.78148574204E+03  0.26189230487E+04  0.24996075632E+04 0.  0.
        1    1    3    3  502    0  0.74637133481E+03  0.12810374985E+03  0.65096407645E+03  0.99861652750E+03  0.50400001928E-02 0. -1.
       -1    1    3    3    0  502 -0.74637133481E+03 -0.12810374985E+03 -0.14324498185E+04  0.16203065212E+04  0.50400001928E-02 0.  1.
</event>
<event>
 5   0  0.9251138E-07  0.2501098E+04  0.7818609E-02  0.8402594E-01
       -2   -1    0    0    0  501  0.00000000000E+00  0.00000000000E+00  0.11560168715E+04  0.11560168715E+04  0.25500000920E-02 0.  1.
        2   -1    0    0  501    0  0.00000000000E+00  0.00000000000E+00 -0.13528118139E+04  0.13528118139E+04  0.25500000920E-02 0. -1.
    10030    2    1    2    0    0  0.00000000000E+00  0.00000000000E+00 -0.19679494240E+03  0.25088286855E+04  0.25010983835E+04 0.  0.
        5    1    3    3  502    0  0.38981097711E+03 -0.11851264333E+04 -0.12260471970E+02  0.12476576734E+04  0.46999998093E+01 0. -1.
       -5    1    3    3    0  502 -0.38981097711E+03  0.11851264333E+04 -0.18453447043E+03  0.12611710121E+04  0.46999998093E+01 0.  1.
</event>
<event>
 5   0  0.3837524E-07  0.2499991E+04  0.7818609E-02  0.8402989E-01
        1   -1    0    0  501    0  0.00000000000E+00  0.00000000000E+00  0.23235136952E+04  0.23235136952E+04  0.50400001928E-02 0. -1.
       -1   -1    0    0    0  501  0.00000000000E+00  0.00000000000E+00 -0.67246808274E+03  0.67246808276E+03  0.50400001928E-02 0.  1.
    10030    2    1    2    0    0  0.00000000000E+00  0.00000000000E+00  0.16510456124E+04  0.29959817780E+04  0.24999910399E+04 0.  0.
        5    1    3    3  502    0  0.11928641654E+04 -0.28361208239E+02  0.12718954238E+04  0.17439808871E+04  0.46999998093E+01 0. -1.
       -5    1    3    3    0  502 -0.11928641654E+04  0.28361208239E+02  0.37915018862E+03  0.12520008909E+04  0.46999998093E+01 0.  1.
</event>
<event>
 5   0  0.9768582E-07  0.2501021E+04  0.7818609E-02  0.8402622E-01
       -2   -1    0    0    0  501  0.00000000000E+00  0.00000000000E+00  0.95231874160E+03  0.95231874160E+03  0.25500000920E-02 0. -1.
        2   -1    0    0  501    0  0.00000000000E+00  0.00000000000E+00 -0.16420727852E+04  0.16420727852E+04  0.25500000920E-02 0.  1.
    10030    2    1    2    0    0  0.00000000000E+00  0.00000000000E+00 -0.68975404360E+03  0.25943915268E+04  0.25010211422E+04 0.  0.
        3    1    3    3  502    0 -0.92766621513E+03 -0.17076183391E+03  0.50678053781E+03  0.10707710933E+04  0.10100000352E+00 0. -1.
       -3    1    3    3    0  502  0.92766621513E+03  0.17076183391E+03 -0.11965345814E+04  0.15236204335E+04  0.10100000352E+00 0.  1.
</event>
<event>
 5   0  0.9251138E-07  0.2498663E+04  0.7818609E-02  0.8403462E-01
        2   -1    0    0  501    0  0.00000000000E+00  0.00000000000E+00  0.62218757765E+03  0.62218757765E+03  0.25500000920E-02 0.  1.
       -2   -1    0    0    0  501  0.00000000000E+00  0.00000000000E+00 -0.25086148096E+04  0.25086148096E+04  0.25500000920E-02 0. -1.
    10030    2    1    2    0    0  0.00000000000E+00  0.00000000000E+00 -0.18864272320E+04  0.31308023873E+04  0.24986628197E+04 0.  0.
        5    1    3    3  502    0  0.51516907439E+03  0.41796291332E+03  0.38325059798E+03  0.76615617401E+03  0.46999998093E+01 0.  1.
       -5    1    3    3    0  502 -0.51516907439E+03 -0.41796291332E+03 -0.22696778300E+04  0.23646462133E+04  0.46999998093E+01 0. -1.
</event>
<event>
 5   0  0.3805418E-07  0.2499449E+04  0.7818609E-02  0.8403182E-01
        1   -1    0    0  501    0  0.00000000000E+00  0.00000000000E+00  0.17010759920E+04  0.17010759920E+04  0.50400001928E-02 0.  1.
       -1   -1    0    0    0  501  0.00000000000E+00  0.00000000000E+00 -0.91813173444E+03  0.91813173445E+03  0.50400001928E-02 0. -1.
    10030    2    1    2    0    0  0.00000000000E+00  0.00000000000E+00  0.78294425757E+03  0.26192077265E+04  0.24994494202E+04 0.  0.
        4    1    3    3  502    0  0.86192356756E+03 -0.27862546397E+03  0.12936924146E+04  0.15792992313E+04  0.12699999809E+01 0.  1.
       -4    1    3    3    0  502 -0.86192356756E+03  0.27862546397E+03 -0.51074815704E+03  0.10399084952E+04  0.12699999809E+01 0. -1.
</event>
<event>
 5   0  0.9768582E-07  0.2500215E+04  0.7818609E-02  0.8402909E-01
        2   -1    0    0  501    0  0.00000000000E+00  0.00000000000E+00  0.12162863117E+04  0.12162863117E+04  0.25500000920E-02 0. -1.
       -2   -1    0    0    0  501  0.00000000000E+00  0.00000000000E+00 -0.12848694901E+04  0.12848694901E+04  0.25500000920E-02 0.  1.
    10030    2    1    2    0    0  0.00000000000E+00  0.00000000000E+00 -0.68583178364E+02  0.25011558017E+04  0.25002153292E+04 0.  0.
        3    1    3    3  502    0  0.11944071206E+02 -0.12497064115E+04 -0.63634976990E+02  0.12513825140E+04  0.10100000352E+00 0. -1.
       -3    1    3    3    0  502 -0.11944071206E+02  0.12497064115E+04 -0.49482013743E+01  0.12497732877E+04  0.10100000352E+00 0.  1.
</event>
<event>
 5   0  0.9508784E-07  0.2500214E+04  0.7818609E-02  0.8402909E-01
       -2   -1    0    0    0  501  0.00000000000E+00  0.00000000000E+00  0.92273615795E+03  0.92273615796E+03  0.25500000920E-02 0. -1.
        2   -1    0    0  501    0  0.00000000000E+00  0.00000000000E+00 -0.16936231920E+04  0.16936231920E+04  0.25500000920E-02 0.  1.
    10030    2    1    2    0    0  0.00000000000E+00  0.00000000000E+00 -0.77088703400E+03  0.26163593499E+04  0.25002138766E+04 0.  0.
        2    1    3    3  502    0 -0.10676632645E+04  0.62925009953E+03 -0.21379049937E+03  0.12576036386E+04  0.25500000920E-02 0. -1.
       -2    1    3    3    0  502  0.10676632645E+04 -0.62925009953E+03 -0.55709653463E+03  0.13587557113E+04  0.25500000920E-02 0.  1.
</event>
<event>
 5   0  0.9261602E-07  0.2499336E+04  0.7818609E-02  0.8403222E-01
        2   -1    0    0  501    0  0.00000000000E+00  0.00000000000E+00  0.15482521961E+04  0.15482521961E+04  0.25500000920E-02 0.  1.
       -2   -1    0    0    0  501  0.00000000000E+00  0.00000000000E+00 -0.10086661043E+04  0.10086661043E+04  0.25500000920E-02 0. -1.
    10030    2    1    2    0    0  0.00000000000E+00  0.00000000000E+00  0.53958609182E+03  0.25569183005E+04  0.24993355206E+04 0.  0.
        4    1    3    3  502    0  0.82970239820E+03  0.91734444885E+03  0.87528360568E+02  0.12399958606E+04  0.12699999809E+01 0. -1.
       -4    1    3    3    0  502 -0.82970239820E+03 -0.91734444885E+03  0.45205773125E+03  0.13169224399E+04  0.12699999809E+01 0.  1.
</event>
<event>
 5   0  0.9768582E-07  0.2499483E+04  0.7818609E-02  0.8403170E-01
       -2   -1    0    0    0  501  0.00000000000E+00  0.00000000000E+00  0.10404149153E+04  0.10404149153E+04  0.25500000920E-02 0.  1.
        2   -1    0    0  501    0  0.00000000000E+00  0.00000000000E+00 -0.15011831774E+04  0.15011831774E+04  0.25500000920E-02 0. -1.
    10030    2    1    2    0    0  0.00000000000E+00  0.00000000000E+00 -0.46076826214E+03  0.25415980928E+04  0.24994826412E+04 0.  0.
        3    1    3    3  502    0 -0.11791147611E+04  0.30457848391E+03 -0.51577977049E+03  0.13225386401E+04  0.10100000352E+00 0. -1.
       -3    1    3    3    0  502  0.11791147611E+04 -0.30457848391E+03  0.55011508359E+02  0.12190594526E+04  0.10100000352E+00 0.  1.
</event>
<event>
 5   0  0.8997210E-07  0.2484472E+04  0.7818609E-02  0.8408538E-01
       -2   -1    0    0    0  501  0.00000000000E+00  0.00000000000E+00  0.95807259710E+03  0.95807259710E+03  0.25500000920E-02 0. -1.
        2   -1    0    0  501    0  0.00000000000E+00  0.00000000000E+00 -0.16106818523E+04  0.16106818523E+04  0.25500000920E-02 0.  1.
    10030    2    1    2    0    0  0.00000000000E+00  0.00000000000E+00 -0.65260925522E+03  0.25687544494E+04  0.24844718919E+04 0.  0.
        1    1    3    3  502    0 -0.15560168793E+03 -0.98166303864E+03  0.44414266119E+03  0.10886399360E+04  0.50400001928E-02 0. -1.
       -1    1    3    3    0  502  0.15560168793E+03  0.98166303864E+03 -0.10967519164E+04  0.14801145134E+04  0.50400001928E-02 0.  1.
</event>
<event>
 5   0  0.8997210E-07  0.2500368E+04  0.7818609E-02  0.8402854E-01
        2   -1    0    0  501    0  0.00000000000E+00  0.00000000000E+00  0.15200897778E+04  0.15200897778E+04  0.25500000920E-02 0. -1.
       -2   -1    0    0    0  501  0.00000000000E+00  0.00000000000E+00 -0.10282025472E+04  0.10282025472E+04  0.25500000920E-02 0.  1.
    10030    2    1    2    0    0  0.00000000000E+00  0.00000000000E+00  0.49188723053E+03  0.25482923250E+04  0.25003681181E+04 0.  0.
        1    1    3    3  502    0  0.11114083583E+04 -0.50024066927E+03  0.52965103170E+03  0.13289091322E+04  0.50400001928E-02 0. -1.
       -1    1    3    3    0  502 -0.11114083583E+04  0.50024066927E+03 -0.37763801168E+02  0.12193831928E+04  0.50400001928E-02 0.  1.
</event>
<event>
 5   0  0.3991066E-07  0.2500198E+04  0.7818609E-02  0.8402915E-01
        1   -1    0    0  501    0  0.00000000000E+00  0.00000000000E+00  0.15705723763E+04  0.15705723763E+04  0.50400001928E-02 0. -1.
       -1   -1    0    0    0  501  0.00000000000E+00  0.00000000000E+00 -0.99501818519E+03  0.99501818521E+03  0.50400001928E-02 0.  1.
    10030    2    1    2    0    0  0.00000000000E+00  0.00000000000E+00  0.57555419108E+03  0.25655905615E+04  0.25001984526E+04 0.  0.
        1    1    3    3  502    0  0.89594583063E+03 -0.24438166522E+03 -0.57095366903E+03  0.10901511005E+04  0.50400001928E-02 0.  1.
       -1    1    3    3    0  502 -0.89594583063E+03  0.24438166522E+03  0.11465078601E+04  0.14754394610E+04  0.50400001928E-02 0. -1.
</event>
<event>
 5   0  0.3873231E-07  0.2496015E+04  0.7818609E-02  0.8404407E-01
        1   -1    0    0  501    0  0.00000000000E+00  0.00000000000E+00  0.24521581875E+04  0.24521581875E+04  0.50400001928E-02 0.  1.
       -1   -1    0    0    0  501  0.00000000000E+00  0.00000000000E+00 -0.63516399059E+03  0.63516399061E+03  0.50400001928E-02 0. -1.
    10030    2    1    2    0    0  0.00000000000E+00  0.00000000000E+00  0.18169941969E+04  0.30873221782E+04  0.24960148878E+04 0.  0.
        2    1    3    3  502    0  0.56254409890E+03  0.82018630729E+02 -0.46570979623E+03  0.73489355236E+03  0.25500000920E-02 0. -1.
       -2    1    3    3    0  502 -0.56254409890E+03 -0.82018630729E+02  0.22827039932E+04  0.23524286258E+04  0.25500000920E-02 0.  1.
</event>
<event>
 5   0  0.8997210E-07  0.2499808E+04  0.7818609E-02  0.8403054E-01
       -2   -1    0    0    0  501  0.00000000000E+00  0.00000000000E+00  0.80024308425E+03  0.80024308425E+03  0.25500000920E-02 0.  1.
        2   -1    0    0  501    0  0.00000000000E+00  0.00000000000E+00 -0.19522324778E+04  0.19522324778E+04  0.25500000920E-02 0. -1.
    10030    2    1    2    0    0  0.00000000000E+00  0.00000000000E+00 -0.11519893935E+04  0.27524755620E+04  0.24998084240E+04 0.  0.
        1    1    3    3  502    0 -0.65188641404E+03 -0.83157994326E+02  0.59466530738E+03  0.88628323726E+03  0.50400001928E-02 0.  1.
       -1    1    3    3    0  502  0.65188641404E+03  0.83157994326E+02 -0.17466547009E+04  0.18661923248E+04  0.50400001928E-02 0. -1.
</event>
<event>
 5   0  0.3837524E-07  0.2499824E+04  0.7818609E-02  0.8403048E-01
       -1   -1    0    0    0  501  0.00000000000E+00  0.00000000000E+00  0.11198074533E+04  0.11198074533E+04  0.50400001928E-02 0.  1.
        1   -1    0    0  501    0  0.00000000000E+00  0.00000000000E+00 -0.13951321774E+04  0.13951321775E+04  0.50400001928E-02 0. -1.
    10030    2    1    2    0    0  0.00000000000E+00  0.00000000000E+00 -0.27532472416E+03  0.25149396308E+04  0.24998235223E+04 0.  0.
        5    1    3    3  502    0 -0.39708863220E+03 -0.19440467631E+03 -0.13138274342E+04  0.13862312855E+04  0.46999998093E+01 0. -1.
       -5    1    3    3    0  502  0.39708863220E+03  0.19440467631E+03  0.10385027100E+04  0.11287083453E+04  0.46999998093E+01 0.  1.
</event>
<event>
 5   0  0.9251138E-07  0.2501926E+04  0.7818609E-02  0.8402300E-01
        2   -1    0    0  501    0  0.00000000000E+00  0.00000000000E+00  0.10535056457E+04  0.10535056457E+04  0.25500000920E-02 0.  1.
       -2   -1    0    0    0  501  0.00000000000E+00  0.00000000000E+00 -0.14854296417E+04  0.14854296417E+04  0.25500000920E-02 0. -1.
    10030    2    1    2    0    0  0.00000000000E+00  0.00000000000E+00 -0.43192399602E+03  0.25389352874E+04  0.25019260691E+04 0.  0.
        5    1    3    3  502    0 -0.11248071243E+04 -0.18312713400E+03  0.30757622921E+03  0.11804032535E+04  0.46999998093E+01 0. -1.
       -5    1    3    3    0  502  0.11248071243E+04  0.18312713400E+03 -0.73950022523E+03  0.13585320339E+04  0.46999998093E+01 0.  1.
</event>
<event>
 5   0  0.3972587E-07  0.2499134E+04  0.7818609E-02  0.8403294E-01
       -1   -1    0    0    0  501  0.00000000000E+00  0.00000000000E+00  0.11061212674E+04  0.11061212675E+04  0.50400001928E-02 0. -1.
        1   -1    0    0  501    0  0.00000000000E+00  0.00000000000E+00 -0.14116150807E+04  0.14116150808E+04  0.50400001928E-02 0.  1.
    10030    2    1    2    0    0  0.00000000000E+00  0.00000000000E+00 -0.30549381330E+03  0.25177363482E+04  0.24991338198E+04 0.  0.
        3    1    3    3  502    0  0.47284064579E+03  0.10110020704E+04 -0.71881366372E+03  0.13275528449E+04  0.10100000352E+00 0.  1.
       -3    1    3    3    0  502 -0.47284064579E+03 -0.10110020704E+04  0.41331985041E+03  0.11901835033E+04  0.10100000352E+00 0. -1.
</event>
<event>
 5   0  0.9508784E-07  0.2500772E+04  0.7818609E-02  0.8402710E-01
       -2   -1    0    0    0  501  0.00000000000E+00  0.00000000000E+00  0.90867722235E+03  0.90867722235E+03  0.25500000920E-02 0.  1.
        2   -1    0    0  501    0  0.00000000000E+00  0.00000000000E+00 -0.17205950823E+04  0.17205950823E+04  0.25500000920E-02 0. -1.
    10030    2    1    2    0    0  0.00000000000E+00  0.00000000000E+00 -0.81191785991E+03  0.26292723046E+04  0.25007723288E+04 0.  0.
        2    1    3    3  502    0  0.24329170508E+03 -0.11282647308E+04  0.99682947439E+02  0.11584942151E+04  0.25500000920E-02 0.  1.
       -2    1    3    3    0  502 -0.24329170508E+03  0.11282647308E+04 -0.91160080735E+03  0.14707780895E+04  0.25500000920E-02 0. -1.
</event>
<event>
 5   0  0.3805418E-07  0.2500131E+04  0.7818609E-02  0.8402939E-01
       -1   -1    0    0    0  501  0.00000000000E+00  0.00000000000E+00  0.73677755760E+03  0.73677755761E+03  0.50400001928E-02 0.  1.
        1   -1    0    0  501    0  0.00000000000E+00  0.00000000000E+00 -0.21209440175E+04  0.21209440175E+04  0.50400001928E-02 0. -1.
    10030    2    1    2    0    0  0.00000000000E+00  0.00000000000E+00 -0.13841664599E+04  0.28577215751E+04  0.25001311590E+04 0.  0.
        4    1    3    3  502    0  0.11912836194E+04 -0.83659037214E+02 -0.11143961164E+04  0.16334123219E+04  0.12699999809E+01 0.  1.
       -4    1    3    3    0  502 -0.11912836194E+04  0.83659037214E+02 -0.26977034352E+03  0.12243092532E+04  0.12699999809E+01 0. -1.
</event>
<event>
 5   0  0.3837524E-07  0.2498565E+04  0.7818609E-02  0.8403497E-01
        1   -1    0    0  501    0  0.00000000000E+00  0.00000000000E+00  0.84125433704E+03  0.84125433706E+03  0.50400001928E-02 0.  1.
       -1   -1    0    0    0  501  0.00000000000E+00  0.00000000000E+00 -0.18552142922E+04  0.18552142922E+04  0.50400001928E-02 0. -1.
    10030    2    1    2    0    0  0.00000000000E+00  0.00000000000E+00 -0.10139599551E+04  0.26964686292E+04  0.24985652439E+04 0.  0.
        5    1    3    3  502    0 -0.91664936855E+03  0.15193939451E+03  0.39424064005E+03  0.10093460342E+04  0.46999998093E+01 0.  1.
       -5    1    3    3    0  502  0.91664936855E+03 -0.15193939451E+03 -0.14082005952E+04  0.16871225951E+04  0.46999998093E+01 0. -1.
</event>
<event>
 5   0  0.3991066E-07  0.2499205E+04  0.7818609E-02  0.8403269E-01
        1   -1    0    0  501    0  0.00000000000E+00  0.00000000000E+00  0.20259008523E+04  0.20259008523E+04  0.50400001928E-02 0.  1.
       -1   -1    0    0    0  501  0.00000000000E+00  0.00000000000E+00 -0.77077143143E+03  0.77077143145E+03  0.50400001928E-02 0. -1.
    10030    2    1    2    0    0  0.00000000000E+00  0.00000000000E+00  0.12551294209E+04  0.27966722838E+04  0.24992050735E+04 0.  0.
        1    1    3    3  502    0  0.10090228250E+04 -0.71904101326E+03  0.44588436929E+03  0.13167991156E+04  0.50400001928E-02 0. -1.
       -1    1    3    3    0  502 -0.10090228250E+04  0.71904101326E+03  0.80924505158E+03  0.14798731681E+04  0.50400001928E-02 0.  1.
</event>
<event>
 5   0  0.3873231E-07  0.2500410E+04  0.7818609E-02  0.8402840E-01
       -1   -1    0    0    0  501  0.00000000000E+00  0.00000000000E+00  0.10743989354E+04  0.10743989354E+04  0.50400001928E-02 0.  1.
        1   -1    0    0  501    0  0.00000000000E+00  0.00000000000E+00 -0.14547781118E+04  0.14547781118E+04  0.50400001928E-02 0. -1.
    10030    2    1    2    0    0  0.00000000000E+00  0.00000000000E+00 -0.38037917632E+03  0.25291770472E+04  0.25004096101E+04 0.  0.
        2    1    3    3  502    0  0.76198083413E+03  0.90327069648E+03 -0.60292743470E+03  0.13266628186E+04  0.25500000920E-02 0. -1.
       -2    1    3    3    0  502 -0.76198083413E+03 -0.90327069648E+03  0.22254825838E+03  0.12025142286E+04  0.25500000920E-02 0.  1.
</event>
<event>
 5   0  0.9768582E-07  0.2500830E+04  0.7818609E-02  0.8402690E-01
       -2   -1    0    0    0  501  0.00000000000E+00  0.00000000000E+00  0.97663996556E+03  0.97663996557E+03  0.25500000920E-02 0. -1.
        2   -1    0    0  501    0  0.00000000000E+00  0.00000000000E+00 -0.16009352972E+04  0.16009352972E+04  0.25500000920E-02 0.  1.
    10030    2    1    2    0    0  0.00000000000E+00  0.00000000000E+00 -0.62429533163E+03  0.25775752628E+04  0.25008297771E+04 0.  0.
        3    1    3    3  502    0  0.98863582771E+03 -0.49374106456E+03  0.29092051354E+03  0.11427229735E+04  0.10100000352E+00 0. -1.
       -3    1    3    3    0  502 -0.98863582771E+03  0.49374106456E+03 -0.91521584517E+03  0.14348522893E+04  0.10100000352E+00 0.  1.
</event>
<event>
 5   0  0.8997210E-07  0.2499988E+04  0.7818609E-02  0.8402990E-01
        2   -1    0    0  501    0  0.00000000000E+00  0.00000000000E+00  0.15143327881E+04  0.15143327881E+04  0.25500000920E-02 0.  1.
       -2   -1    0    0    0  501  0.00000000000E+00  0.00000000000E+00 -0.10317977517E+04  0.10317977517E+04  0.25500000920E-02 0. -1.
    10030    2    1    2    0    0  0.00000000000E+00  0.00000000000E+00  0.48253503637E+03  0.25461305398E+04  0.24999881328E+04 0.  0.
        1    1    3    3  502    0 -0.13973285033E+03  0.33945079413E+03  0.14581992797E+04  0.15036945337E+04  0.50400001928E-02 0.  1.
       -1    1    3    3    0  502  0.13973285033E+03 -0.33945079413E+03 -0.97566424336E+03  0.10424360061E+04  0.50400001928E-02 0. -1.
</event>
<event>
 5   0  0.3873231E-07  0.2501268E+04  0.7818609E-02  0.8402534E-01
       -1   -1    0    0    0  501  0.00000000000E+00  0.00000000000E+00  0.99968994764E+03  0.99968994765E+03  0.50400001928E-02 0. -1.
        1   -1    0    0  501    0  0.00000000000E+00  0.00000000000E+00 -0.15645700558E+04  0.15645700558E+04  0.50400001928E-02 0.  1.
    10030    2    1    2    0    0  0.00000000000E+00  0.00000000000E+00 -0.56488010816E+03  0.25642600035E+04  0.25012676444E+04 0.  0.
        2    1    3    3  502    0  0.72704358268E+03 -0.95027037629E+03 -0.65558286838E+03  0.13643295264E+04  0.25500000920E-02 0.  1.
       -2    1    3    3    0  502 -0.72704358268E+03  0.95027037629E+03  0.90702760227E+02  0.11999304771E+04  0.25500000920E-02 0. -1.
</event>
<event>
 5   0  0.3805418E-07  0.2499746E+04  0.7818609E-02  0.8403076E-01
       -1   -1    0    0    0  501  0.00000000000E+00  0.00000000000E+00  0.27158048570E+04  0.27158048570E+04  0.50400001928E-02 0.  1.
        1   -1    0    0  501    0  0.00000000000E+00  0.00000000000E+00 -0.57521918662E+03  0.57521918664E+03  0.50400001928E-02 0. -1.
    10030    2    1    2    0    0  0.00000000000E+00  0.00000000000E+00  0.21405856704E+04  0.32910240436E+04  0.24997464359E+04 0.  0.
        4    1    3    3  502    0 -0.65989463099E+03 -0.99181404102E+03  0.57239328777E+03  0.13216624776E+04  0.12699999809E+01 0. -1.
       -4    1    3    3    0  502  0.65989463099E+03  0.99181404102E+03  0.15681923826E+04  0.19693615660E+04  0.12699999809E+01 0.  1.
</event>
<event>
 5   0  0.3972587E-07  0.2500046E+04  0.7818609E-02  0.8402969E-01
        1   -1    0    0  501    0  0.00000000000E+00  0.00000000000E+00  0.15201324162E+04  0.15201324162E+04  0.50400001928E-02 0. -1.
       -1   -1    0    0    0  501  0.00000000000E+00  0.00000000000E+00 -0.10279084982E+04  0.10279084982E+04  0.50400001928E-02 0.  1.
    10030    2    1    2    0    0  0.00000000000E+00  0.00000000000E+00  0.49222391804E+03  0.25480409144E+04  0.25000456228E+04 0.  0.
        3    1    3    3  502    0  0.81248217747E+03 -0.59567740085E+03 -0.50809312383E+03  0.11283250805E+04  0.10100000352E+00 0.  1.
       -3    1    3    3    0  502 -0.81248217747E+03  0.59567740085E+03  0.10003170419E+04  0.14197158339E+04  0.10100000352E+00 0. -1.
</event>
<event>
 5   0  0.3805418E-07  0.2499714E+04  0.7818609E-02  0.8403088E-01
       -1   -1    0    0    0  501  0.00000000000E+00  0.00000000000E+00  0.13058047682E+04  0.13058047682E+04  0.50400001928E-02 0. -1.
        1   -1    0    0  501    0  0.00000000000E+00  0.00000000000E+00 -0.11963059244E+04  0.11963059244E+04  0.50400001928E-02 0.  1.
    10030    2    1    2    0    0  0.00000000000E+00  0.00000000000E+00  0.10949884378E+03  0.25021106926E+04  0.24997135678E+04 0.  0.
        4    1    3    3  502    0 -0.90878420755E+03  0.38279276530E+03  0.82341899374E+03  0.12846943174E+04  0.12699999809E+01 0. -1.
       -4    1    3    3    0  502  0.90878420755E+03 -0.38279276530E+03 -0.71392014996E+03  0.12174163751E+04  0.12699999809E+01 0.  1.
</event>
<event>
 5   0  0.9508784E-07  0.2500965E+04  0.7818609E-02  0.8402642E-01
       -2   -1    0    0    0  501  0.00000000000E+00  0.00000000000E+00  0.17406906400E+04  0.17406906400E+04  0.25500000920E-02 0. -1.
        2   -1    0    0  501    0  0.00000000000E+00  0.00000000000E+00 -0.89832555834E+03  0.89832555834E+03  0.25500000920E-02 0.  1.
    10030    2    1    2    0    0  0.00000000000E+00  0.00000000000E+00  0.84236508168E+03  0.26390161984E+04  0.25009653265E+04 0.  0.
        2    1    3    3  502    0  0.31166485474E+03  0.83098310303E+03 -0.50837473956E+03  0.10227965463E+04  0.25500000920E-02 0.  1.
       -2    1    3    3    0  502 -0.31166485474E+03 -0.83098310303E+03  0.13507398212E+04  0.16162196521E+04  0.25500000920E-02 0. -1.
</event>
<event>
 5   0  0.8997210E-07  0.2496956E+04  0.7818609E-02  0.8404071E-01
       -2   -1    0    0    0  501  0.00000000000E+00  0.00000000000E+00  0.75109844211E+03  0.75109844212E+03  0.25500000920E-02 0. -1.
        2   -1    0    0  501    0  0.00000000000E+00  0.00000000000E+00 -0.20752232810E+04  0.20752232810E+04  0.25500000920E-02 0.  1.
    10030    2    1    2    0    0  0.00000000000E+00  0.00000000000E+00 -0.13241248389E+04  0.28263217231E+04  0.24969557252E+04 0.  0.
        1    1    3    3  502    0  0.64687383182E+03 -0.12771708417E+03 -0.18620651511E+04  0.19753592166E+04  0.50400001928E-02 0.  1.
       -1    1    3    3    0  502 -0.64687383182E+03  0.12771708417E+03  0.53794031220E+03  0.85096250646E+03  0.50400001928E-02 0. -1.
</event>
<event>
 5   0  0.3991066E-07  0.2500414E+04  0.7818609E-02  0.8402838E-01
       -1   -1    0    0    0  501  0.00000000000E+00  0.00000000000E+00  0.74594000603E+03  0.74594000605E+03  0.50400001928E-02 0.  1.
        1   -1    0    0  501    0  0.00000000000E+00  0.00000000000E+00 -0.20953656589E+04  0.20953656589E+04  0.50400001928E-02 0. -1.
    10030    2    1    2    0    0  0.00000000000E+00  0.00000000000E+00 -0.13494256529E+04  0.28413056650E+04  0.25004136236E+04 0.  0.
        1    1    3    3  502    0 -0.92879486410E+03  0.67845760044E+03 -0.12314614840E+04  0.16850703254E+04  0.50400001928E-02 0. -1.
       -1    1    3    3    0  502  0.92879486410E+03 -0.67845760044E+03 -0.11796416890E+03  0.11562353395E+04  0.50400001928E-02 0.  1.
</event>
<event>
 5   0  0.9508784E-07  0.2499308E+04  0.7818609E-02  0.8403232E-01
       -2   -1    0    0    0  501  0.00000000000E+00  0.00000000000E+00  0.81291410403E+03  0.81291410404E+03  0.25500000920E-02 0.  1.
        2   -1    0    0  501    0  0.00000000000E+00  0.00000000000E+00 -0.19210329322E+04  0.19210329322E+04  0.25500000920E-02 0. -1.
    10030    2    1    2    0    0  0.00000000000E+00  0.00000000000E+00 -0.11081188282E+04  0.27339470363E+04  0.24993077161E+04 0.  0.
        2    1    3    3  502    0  0.27129646363E+02 -0.82228969926E+03  0.47485157333E+03  0.94993704209E+03  0.25500000920E-02 0.  1.
       -2    1    3    3    0  502 -0.27129646363E+02  0.82228969926E+03 -0.15829704015E+04  0.17840099942E+04  0.25500000920E-02 0. -1.
</event>
<event>
 5   0  0.3972587E-07  0.2500296E+04  0.7818609E-02  0.8402880E-01
        1   -1    0    0  501    0  0.00000000000E+00  0.00000000000E+00  0.13804408180E+04  0.13804408180E+04  0.50400001928E-02 0. -1.
       -1   -1    0    0    0  501  0.00000000000E+00  0.00000000000E+00 -0.11321527136E+04  0.11321527136E+04  0.50400001928E-02 0.  1.
    10030    2    1    2    0    0  0.00000000000E+00  0.00000000000E+00  0.24828810442E+03  0.25125935316E+04  0.25002958370E+04 0.  0.
        3    1    3    3  502    0  0.29328587817E+03  0.87907976803E+03 -0.71907296948E+03  0.11729722036E+04  0.10100000352E+00 0.  1.
       -3    1    3    3    0  502 -0.29328587817E+03 -0.87907976803E+03  0.96736107390E+03  0.13396213280E+04  0.10100000352E+00 0. -1.
</event>
<event>
 5   0  0.8997210E-07  0.2499592E+04  0.7818609E-02  0.8403131E-01
        2   -1    0    0  501    0  0.00000000000E+00  0.00000000000E+00  0.20722070250E+04  0.20722070250E+04  0.25500000920E-02 0.  1.
       -2   -1    0    0    0  501  0.00000000000E+00  0.00000000000E+00 -0.75378109766E+03  0.75378109766E+03  0.25500000920E-02 0. -1.
    10030    2    1    2    0    0  0.00000000000E+00  0.00000000000E+00  0.13184259273E+04  0.28259881226E+04  0.24995923555E+04 0.  0.
        1    1    3    3  502    0 -0.17099025888E+03  0.36657067478E+03 -0.67773207358E+03  0.78926072487E+03  0.50400001928E-02 0. -1.
       -1    1    3    3    0  502  0.17099025888E+03 -0.36657067478E+03  0.19961580009E+04  0.20367273978E+04  0.50400001928E-02 0.  1.
</event>
<event>
 5   0  0.3972587E-07  0.2500701E+04  0.7818609E-02  0.8402736E-01
       -1   -1    0    0    0  501  0.00000000000E+00  0.00000000000E+00  0.89427870031E+03  0.89427870033E+03  0.50400001928E-02 0.  1.
        1   -1    0    0  501    0  0.00000000000E+00  0.00000000000E+00 -0.17481979052E+04  0.17481979052E+04  0.50400001928E-02 0. -1.
    10030    2    1    2    0    0  0.00000000000E+00  0.00000000000E+00 -0.85391920488E+03  0.26424766055E+04  0.25007008222E+04 0.  0.
        3    1    3    3  502    0  0.57541707571E+03 -0.36364684496E+03 -0.15352463323E+04  0.16793823715E+04  0.10100000352E+00 0. -1.
       -3    1    3    3    0  502 -0.57541707571E+03  0.36364684496E+03  0.68132712738E+03  0.96309423400E+03  0.10100000352E+00 0.  1.
</event>
<event>
 5   0  0.9251138E-07  0.2501327E+04  0.7818609E-02  0.8402513E-01
       -2   -1    0    0    0  501  0.00000000000E+00  0.00000000000E+00  0.88230024992E+03  0.88230024992E+03  0.25500000920E-02 0. -1.
        2   -1    0    0  501    0  0.00000000000E+00  0.00000000000E+00 -0.17728201684E+04  0.17728201685E+04  0.25500000920E-02 0.  1.
    10030    2    1    2    0    0  0.00000000000E+00  0.00000000000E+00 -0.89051991853E+03  0.26551204184E+04  0.25013273898E+04 0.  0.
        5    1    3    3  502    0  0.34485058849E+03 -0.29033683258E+03  0.79305184044E+03  0.91223391537E+03  0.46999998093E+01 0. -1.
       -5    1    3    3    0  502 -0.34485058849E+03  0.29033683258E+03 -0.16835717590E+04  0.17428865030E+04  0.46999998093E+01 0.  1.
</event>
<event>
 5   0  0.8997210E-07  0.2500804E+04  0.7818609E-02  0.8402699E-01
        2   -1    0    0  501    0  0.00000000000E+00  0.00000000000E+00  0.12754988178E+04  0.12754988178E+04  0.25500000920E-02 0. -1.
       -2   -1    0    0    0  501  0.00000000000E+00  0.00000000000E+00 -0.12257990902E+04  0.12257990902E+04  0.25500000920E-02 0.  1.
    10030    2    1    2    0    0  0.00000000000E+00  0.00000000000E+00  0.49699727593E+02  0.25012979080E+04  0.25008041030E+04 0.  0.
        1    1    3    3  502    0  0.56626570768E+01  0.94239755727E+02  0.12719288864E+04  0.12754278848E+04  0.50400001928E-02 0. -1.
       -1    1    3    3    0  502 -0.56626570768E+01 -0.94239755727E+02 -0.12222291588E+04  0.12258700232E+04  0.50400001928E-02 0.  1.
</event>
<event>
 5   0  0.3873231E-07  0.2499889E+04  0.7818609E-02  0.8403025E-01
        1   -1    0    0  501    0  0.00000000000E+00  0.00000000000E+00  0.24804011079E+04  0.24804011079E+04  0.50400001928E-02 0. -1.
       -1   -1    0    0    0  501  0.00000000000E+00  0.00000000000E+00 -0.62988270241E+03  0.62988270243E+03  0.50400001928E-02 0.  1.
    10030    2    1    2    0    0  0.00000000000E+00  0.00000000000E+00  0.18505184055E+04  0.31102838103E+04  0.24998893999E+04 0.  0.
        2    1    3    3  502    0 -0.87407580990E+03  0.15381763816E+03 -0.16981650016E+03  0.90360723271E+03  0.25500000920E-02 0.  1.
       -2    1    3    3    0  502  0.87407580990E+03 -0.15381763816E+03  0.20203349056E+04  0.22066765776E+04  0.25500000920E-02 0. -1.
</event>
<event>
 5   0  0.9508784E-07  0.2500636E+04  0.7818609E-02  0.8402759E-01
       -2   -1    0    0    0  501  0.00000000000E+00  0.00000000000E+00  0.14110005606E+04  0.14110005606E+04  0.25500000920E-02 0. -1.
        2   -1    0    0  501    0  0.00000000000E+00  0.00000000000E+00 -0.11079341281E+04  0.11079341281E+04  0.25500000920E-02 0.  1.
    10030    2    1    2    0    0  0.00000000000E+00  0.00000000000E+00  0.30306643248E+03  0.25189346887E+04  0.25006364597E+04 0.  0.
        2    1    3    3  502    0  0.67469193140E+03 -0.10093863517E+04 -0.14935920499E+03  0.12232653765E+04  0.25500000920E-02 0.  1.
       -2    1    3    3    0  502 -0.67469193140E+03  0.10093863517E+04  0.45242563747E+03  0.12956693122E+04  0.25500000920E-02 0. -1.
</event>
<event>
 5   0  0.8997210E-07  0.2499626E+04  0.7818609E-02  0.8403119E-01
       -2   -1    0    0    0  501  0.00000000000E+00  0.00000000000E+00  0.73563541202E+03  0.73563541203E+03  0.25500000920E-02 0. -1.
        2   -1    0    0  501    0  0.00000000000E+00  0.00000000000E+00 -0.21233789074E+04  0.21233789074E+04  0.25500000920E-02 0.  1.
    10030    2    1    2    0    0  0.00000000000E+00  0.00000000000E+00 -0.13877434954E+04  0.28590143194E+04  0.24996261460E+04 0.  0.
        1    1    3    3  502    0  0.14534788849E+03 -0.12047964113E+04 -0.35193736060E+03  0.12635348460E+04  0.50400001928E-02 0.  1.
       -1    1    3    3    0  502 -0.14534788849E+03  0.12047964113E+04 -0.10358061348E+04  0.15954794734E+04  0.50400001928E-02 0. -1.
</event>
<event>
 5   0  0.3873231E-07  0.2499272E+04  0.7818609E-02  0.8403245E-01
       -1   -1    0    0    0  501  0.00000000000E+00  0.00000000000E+00  0.18958224666E+04  0.18958224666E+04  0.50400001928E-02 0. -1.
        1   -1    0    0  501    0  0.00000000000E+00  0.00000000000E+00 -0.82370056232E+03  0.82370056233E+03  0.50400001928E-02 0.  1.
    10030    2    1    2    0    0  0.00000000000E+00  0.00000000000E+00  0.10721219043E+04  0.27195230289E+04  0.24992719194E+04 0.  0.
        2    1    3    3  502    0 -0.12925868468E+03 -0.66182511269E+02 -0.81448814940E+03  0.82733238658E+03  0.25500000920E-02 0.  1.
       -2    1    3    3    0  502  0.12925868468E+03  0.66182511269E+02  0.18866100537E+04  0.18921906424E+04  0.25500000920E-02 0. -1.
</event>
<event>
 5   0  0.3805418E-07  0.2499709E+04  0.7818609E-02  0.8403089E-01
        1   -1    0    0  501    0  0.00000000000E+00  0.00000000000E+00  0.19964116382E+04  0.19964116382E+04  0.50400001928E-02 0. -1.
       -1   -1    0    0    0  501  0.00000000000E+00  0.00000000000E+00 -0.78247180853E+03  0.78247180855E+03  0.50400001928E-02 0.  1.
    10030    2    1    2    0    0  0.00000000000E+00  0.00000000000E+00  0.12139398296E+04  0.27788834467E+04  0.24997086431E+04 0.  0.
        4    1    3    3  502    0 -0.10617259240E+04  0.39864113810E+03  0.22984427350E+02  0.11343309003E+04  0.12699999809E+01 0.  1.
       -4    1    3    3    0  502  0.10617259240E+04 -0.39864113810E+03  0.11909554023E+04  0.16445525464E+04  0.12699999809E+01 0. -1.
</event>
<event>
 5   0  0.9251138E-07  0.2500828E+04  0.7818609E-02  0.8402691E-01
       -2   -1    0    0    0  501  0.00000000000E+00  0.00000000000E+00  0.77911822779E+03  0.77911822779E+03  0.25500000920E-02 0. -1.
        2   -1    0    0  501    0  0.00000000000E+00  0.00000000000E+00 -0.20068013346E+04  0.20068013346E+04  0.25500000920E-02 0.  1.
    10030    2    1    2    0    0  0.00000000000E+00  0.00000000000E+00 -0.12276831068E+04  0.27859195624E+04  0.25008282623E+04 0.  0.
        5    1    3    3  502    0 -0.99859795932E+02  0.10170395877E+04  0.18883448127E+03  0.10392410948E+04  0.46999998093E+01 0. -1.
       -5    1    3    3    0  502  0.99859795932E+02 -0.10170395877E+04 -0.14165175881E+04  0.17466784676E+04  0.46999998093E+01 0.  1.
</event>
<event>
 5   0  0.3972587E-07  0.2502630E+04  0.7818609E-02  0.8402049E-01
       -1   -1    0    0    0  501  0.00000000000E+00  0.00000000000E+00  0.78937334150E+03  0.78937334152E+03  0.50400001928E-02 0.  1.
        1   -1    0    0  501    0  0.00000000000E+00  0.00000000000E+00 -0.19835849403E+04  0.19835849403E+04  0.50400001928E-02 0. -1.
    10030    2    1    2    0    0  0.00000000000E+00  0.00000000000E+00 -0.11942115988E+04  0.27729582818E+04  0.25026298747E+04 0.  0.
        3    1    3    3  502    0 -0.12008768577E+04  0.30220574100E+03 -0.79641205809E+03  0.14723130488E+04  0.10100000352E+00 0.  1.
       -3    1    3    3    0  502  0.12008768577E+04 -0.30220574100E+03 -0.39779954070E+03  0.13006452330E+04  0.10100000352E+00 0. -1.
</event>
<event>
 5   0  0.3972587E-07  0.2497848E+04  0.7818609E-02  0.8403753E-01
        1   -1    0    0  501    0  0.00000000000E+00  0.00000000000E+00  0.16445071666E+04  0.16445071666E+04  0.50400001928E-02 0. -1.
       -1   -1    0    0    0  501  0.00000000000E+00  0.00000000000E+00 -0.94849769424E+03  0.94849769425E+03  0.50400001928E-02 0.  1.
    10030    2    1    2    0    0  0.00000000000E+00  0.00000000000E+00  0.69600947237E+03  0.25930048609E+04  0.24978480784E+04 0.  0.
        3    1    3    3  502    0 -0.38456882025E+03  0.66809730693E+03  0.13680697575E+04  0.15703063588E+04  0.10100000352E+00 0. -1.
       -3    1    3    3    0  502  0.38456882025E+03 -0.66809730693E+03 -0.67206028512E+03  0.10226985020E+04  0.10100000352E+00 0.  1.
</event>
<event>
 5   0  0.9768582E-07  0.2500606E+04  0.7818609E-02  0.8402770E-01
       -2   -1    0    0    0  501  0.00000000000E+00  0.00000000000E+00  0.70594147695E+03  0.70594147696E+03  0.25500000920E-02 0.  1.
        2   -1    0    0  501    0  0.00000000000E+00  0.00000000000E+00 -0.22144294456E+04  0.22144294456E+04  0.25500000920E-02 0. -1.
    10030    2    1    2    0    0  0.00000000000E+00  0.00000000000E+00 -0.15084879687E+04  0.29203709226E+04  0.25006060013E+04 0.  0.
        3    1    3    3  502    0  0.16514951020E+03 -0.56654478000E+03  0.53306474618E+03  0.79523919815E+03  0.10100000352E+00 0.  1.
       -3    1    3    3    0  502 -0.16514951020E+03  0.56654478000E+03 -0.20415527149E+04  0.21251317244E+04  0.10100000352E+00 0. -1.
</event>
<event>
 5   0  0.9251138E-07  0.2502277E+04  0.7818609E-02  0.8402175E-01
        2   -1    0    0  501    0  0.00000000000E+00  0.00000000000E+00  0.17916235186E+04  0.17916235186E+04  0.25500000920E-02 0. -1.
       -2   -1    0    0    0  501  0.00000000000E+00  0.00000000000E+00 -0.87370360273E+03  0.87370360274E+03  0.25500000920E-02 0.  1.
    10030    2    1    2    0    0  0.00000000000E+00  0.00000000000E+00  0.91791991582E+03  0.26653271213E+04  0.25022773011E+04 0.  0.
        5    1    3    3  502    0 -0.86713324664E+03  0.84182743049E+03  0.80367123498E+03  0.14513797002E+04  0.46999998093E+01 0. -1.
       -5    1    3    3    0  502  0.86713324664E+03 -0.84182743049E+03  0.11424868084E+03  0.12139474211E+04  0.46999998093E+01 0.  1.
</event>
<event>
 5   0  0.3837524E-07  0.2500194E+04  0.7818609E-02  0.8402916E-01
       -1   -1    0    0    0  501  0.00000000000E+00  0.00000000000E+00  0.14106729248E+04  0.14106729248E+04  0.50400001928E-02 0. -1.
        1   -1    0    0  501    0  0.00000000000E+00  0.00000000000E+00 -0.11077996807E+04  0.11077996807E+04  0.50400001928E-02 0.  1.
    10030    2    1    2    0    0  0.00000000000E+00  0.00000000000E+00  0.30287324411E+03  0.25184726055E+04  0.25001944050E+04 0.  0.
        5    1    3    3  502    0 -0.38425608168E+03  0.11676329471E+04 -0.77605301797E+02  0.12316915638E+04  0.46999998093E+01 0.  1.
       -5    1    3    3    0  502  0.38425608168E+03 -0.11676329471E+04  0.38047854591E+03  0.12867810417E+04  0.46999998093E+01 0. -1.
</event>
<event>
 5   0  0.3873231E-07  0.2501515E+04  0.7818609E-02  0.8402446E-01
       -1   -1    0    0    0  501  0.00000000000E+00  0.00000000000E+00  0.75073320093E+03  0.75073320095E+03  0.50400001928E-02 0.  1.
        1   -1    0    0  501    0  0.00000000000E+00  0.00000000000E+00 -0.20838226920E+04  0.20838226920E+04  0.50400001928E-02 0. -1.
    10030    2    1    2    0    0  0.00000000000E+00  0.00000000000E+00 -0.13330894911E+04  0.28345558929E+04  0.25015154445E+04 0.  0.
        2    1    3    3  502    0  0.50595666006E+03 -0.74561987351E+02 -0.19599300427E+04  0.20255560728E+04  0.25500000920E-02 0. -1.
       -2    1    3    3    0  502 -0.50595666006E+03  0.74561987351E+02  0.62684055163E+03  0.80899982014E+03  0.25500000920E-02 0.  1.
</event>
<event>
 5   0  0.9261602E-07  0.2500809E+04  0.7818609E-02  0.8402697E-01
        2   -1    0    0  501    0  0.00000000000E+00  0.00000000000E+00  0.15292038247E+04  0.15292038247E+04  0.25500000920E-02 0. -1.
       -2   -1    0    0    0  501  0.00000000000E+00  0.00000000000E+00 -0.10224351412E+04  0.10224351412E+04  0.25500000920E-02 0.  1.
    10030    2    1    2    0    0  0.00000000000E+00  0.00000000000E+00  0.50676868344E+03  0.25516389659E+04  0.25008092518E+04 0.  0.
        4    1    3    3  502    0 -0.30461195832E+03  0.63127005697E+03 -0.80314257706E+03  0.10659877776E+04  0.12699999809E+01 0.  1.
       -4    1    3    3    0  502  0.30461195832E+03 -0.63127005697E+03  0.13099112605E+04  0.14856511883E+04  0.12699999809E+01 0. -1.
</event>
<event>
 5   0  0.9251138E-07  0.2501232E+04  0.7818609E-02  0.8402547E-01
       -2   -1    0    0    0  501  0.00000000000E+00  0.00000000000E+00  0.10436851905E+04  0.10436851905E+04  0.25500000920E-02 0. -1.
        2   -1    0    0  501    0  0.00000000000E+00  0.00000000000E+00 -0.14985749772E+04  0.14985749772E+04  0.25500000920E-02 0.  1.
    10030    2    1    2    0    0  0.00000000000E+00  0.00000000000E+00 -0.45488978672E+03  0.25422601677E+04  0.25012321048E+04 0.  0.
        5    1    3    3  502    0 -0.67061596922E+03  0.64879568723E+03  0.61889417221E+03  0.11196935779E+04  0.46999998093E+01 0. -1.
       -5    1    3    3    0  502  0.67061596922E+03 -0.64879568723E+03 -0.10737839589E+04  0.14225665898E+04  0.46999998093E+01 0.  1.
</event>
<event>
 5   0  0.3991066E-07  0.2500811E+04  0.7818609E-02  0.8402697E-01
        1   -1    0    0  501    0  0.00000000000E+00  0.00000000000E+00  0.16843976412E+04  0.16843976412E+04  0.50400001928E-02 0. -1.
       -1   -1    0    0    0  501  0.00000000000E+00  0.00000000000E+00 -0.92823320434E+03  0.92823320436E+03  0.50400001928E-02 0.  1.
    10030    2    1    2    0    0  0.00000000000E+00  0.00000000000E+00  0.75616443685E+03  0.26126308456E+04  0.25008109244E+04 0.  0.
        1    1    3    3  502    0  0.15337317896E+03  0.55441504116E+03 -0.78179179807E+03  0.97061721881E+03  0.50400001928E-02 0.  1.
       -1    1    3    3    0  502 -0.15337317896E+03 -0.55441504116E+03  0.15379562349E+04  0.16420136267E+04  0.50400001928E-02 0. -1.
</event>
<event>
 5   0  0.9508784E-07  0.2500023E+04  0.7818609E-02  0.8402977E-01
       -2   -1    0    0    0  501  0.00000000000E+00  0.00000000000E+00  0.70269370545E+03  0.70269370546E+03  0.25500000920E-02 0. -1.
        2   -1    0    0  501    0  0.00000000000E+00  0.00000000000E+00 -0.22236265640E+04  0.22236265640E+04  0.25500000920E-02 0.  1.
    10030    2    1    2    0    0  0.00000000000E+00  0.00000000000E+00 -0.15209328586E+04  0.29263202695E+04  0.25000227118E+04 0.  0.
        2    1    3    3  502    0  0.74049625949E+03 -0.94304125070E+03 -0.34684642976E+03  0.12481842639E+04  0.25500000920E-02 0. -1.
       -2    1    3    3    0  502 -0.74049625949E+03  0.94304125070E+03 -0.11740864288E+04  0.16781360056E+04  0.25500000920E-02 0.  1.
</event>
<event>
 5   0  0.3873231E-07  0.2499300E+04  0.7818609E-02  0.8403235E-01
        1   -1    0    0  501    0  0.00000000000E+00  0.00000000000E+00  0.14607101851E+04  0.14607101851E+04  0.50400001928E-02 0. -1.
       -1   -1    0    0    0  501  0.00000000000E+00  0.00000000000E+00 -0.10690863027E+04  0.10690863027E+04  0.50400001928E-02 0.  1.
    10030    2    1    2    0    0  0.00000000000E+00  0.00000000000E+00  0.39162388242E+03  0.25297964878E+04  0.24993001029E+04 0.  0.
        2    1    3    3  502    0  0.10275607839E+04 -0.36147165169E+03 -0.42410068450E+03  0.11689329793E+04  0.25500000920E-02 0.  1.
       -2    1    3    3    0  502 -0.10275607839E+04  0.36147165169E+03  0.81572456692E+03  0.13608635085E+04  0.25500000920E-02 0. -1.
</event>
<event>
 5   0  0.8997210E-07  0.2499660E+04  0.7818609E-02  0.8403107E-01
       -2   -1    0    0    0  501  0.00000000000E+00  0.00000000000E+00  0.82735136766E+03  0.82735136766E+03  0.25500000920E-02 0. -1.
        2   -1    0    0  501    0  0.00000000000E+00  0.00000000000E+00 -0.18880424725E+04  0.18880424725E+04  0.25500000920E-02 0.  1.
    10030    2    1    2    0    0  0.00000000000E+00  0.00000000000E+00 -0.10606911048E+04  0.27153938401E+04  0.24996595943E+04 0.  0.
        1    1    3    3  502    0 -0.52482507978E+02  0.53544060051E+03 -0.17558134044E+04  0.18363909609E+04  0.50400001928E-02 0.  1.
       -1    1    3    3    0  502  0.52482507978E+02 -0.53544060051E+03  0.69512229956E+03  0.87900287922E+03  0.50400001928E-02 0. -1.
</event>
<event>
 5   0  0.3972587E-07  0.2491950E+04  0.7818609E-02  0.8405859E-01
        1   -1    0    0  501    0  0.00000000000E+00  0.00000000000E+00  0.12852343040E+04  0.12852343040E+04  0.50400001928E-02 0. -1.
       -1   -1    0    0    0  501  0.00000000000E+00  0.00000000000E+00 -0.12079149947E+04  0.12079149947E+04  0.50400001928E-02 0.  1.
    10030    2    1    2    0    0  0.00000000000E+00  0.00000000000E+00  0.77319309274E+02  0.24931492988E+04  0.24919500698E+04 0.  0.
        3    1    3    3  502    0 -0.78667824536E+03  0.30556948770E+03  0.95573505711E+03  0.12750156403E+04  0.10100000352E+00 0. -1.
       -3    1    3    3    0  502  0.78667824536E+03 -0.30556948770E+03 -0.87841574784E+03  0.12181336584E+04  0.10100000352E+00 0.  1.
</event>
<event>
 5   0  0.3972587E-07  0.2501620E+04  0.7818609E-02  0.8402409E-01
        1   -1    0    0  501    0  0.00000000000E+00  0.00000000000E+00  0.18477765310E+04  0.18477765310E+04  0.50400001928E-02 0.  1.
       -1   -1    0    0    0  501  0.00000000000E+00  0.00000000000E+00 -0.84670739350E+03  0.84670739351E+03  0.50400001928E-02 0. -1.
    10030    2    1    2    0    0  0.00000000000E+00  0.00000000000E+00  0.10010691375E+04  0.26944839245E+04  0.25016203152E+04 0.  0.
        3    1    3    3  502    0 -0.70770927735E+03 -0.52460172522E+03  0.14569484390E+04  0.17025739795E+04  0.10100000352E+00 0.  1.
       -3    1    3    3    0  502  0.70770927735E+03  0.52460172522E+03 -0.45587930152E+03  0.99190994506E+03  0.10100000352E+00 0. -1.
</event>
<event>
 5   0  0.9261602E-07  0.2500217E+04  0.7818609E-02  0.8402908E-01
        2   -1    0    0  501    0  0.00000000000E+00  0.00000000000E+00  0.11296512600E+04  0.11296512600E+04  0.25500000920E-02 0. -1.
       -2   -1    0    0    0  501  0.00000000000E+00  0.00000000000E+00 -0.13834101548E+04  0.13834101548E+04  0.25500000920E-02 0.  1.
    10030    2    1    2    0    0  0.00000000000E+00  0.00000000000E+00 -0.25375889481E+03  0.25130614149E+04  0.25002168102E+04 0.  0.
        4    1    3    3  502    0 -0.73213175630E+02 -0.11865954743E+04 -0.51538868083E+03  0.12957608166E+04  0.12699999809E+01 0.  1.
       -4    1    3    3    0  502  0.73213175630E+02  0.11865954743E+04  0.26162978601E+03  0.12173005982E+04  0.12699999809E+01 0. -1.
</event>
<event>
 5   0  0.8997210E-07  0.2498328E+04  0.7818609E-02  0.8403581E-01
       -2   -1    0    0    0  501  0.00000000000E+00  0.00000000000E+00  0.16941474530E+04  0.16941474530E+04  0.25500000920E-02 0. -1.
        2   -1    0    0  501    0  0.00000000000E+00  0.00000000000E+00 -0.92105989018E+03  0.92105989019E+03  0.25500000920E-02 0.  1.
    10030    2    1    2    0    0  0.00000000000E+00  0.00000000000E+00  0.77308756282E+03  0.26152073432E+04  0.24983284548E+04 0.  0.
        1    1    3    3  502    0 -0.18110583178E+03 -0.10656494078E+04 -0.26884868569E+03  0.11138615706E+04  0.50400001928E-02 0.  1.
       -1    1    3    3    0  502  0.18110583178E+03  0.10656494078E+04  0.10419362485E+04  0.15013457725E+04  0.50400001928E-02 0. -1.
</event>
<event>
 5   0  0.3214375E-07  0.2500049E+04  0.7818609E-02  0.8402968E-01
        4   -1    0    0  501    0  0.00000000000E+00  0.00000000000E+00  0.12933537513E+04  0.12933543748E+04  0.12699999809E+01 0.  1.
       -4   -1    0    0    0  501  0.00000000000E+00  0.00000000000E+00 -0.12081452219E+04  0.12081458894E+04  0.12699999809E+01 0. -1.
    10030    2    1    2    0    0  0.00000000000E+00  0.00000000000E+00  0.85208529368E+02  0.25015002642E+04  0.25000486152E+04 0.  0.
        4    1    3    3  502    0  0.44108834725E+03 -0.79885545422E+03 -0.81219277866E+03  0.12216332058E+04  0.12699999809E+01 0. -1.
       -4    1    3    3    0  502 -0.44108834725E+03  0.79885545422E+03  0.89740130803E+03  0.12798670585E+04  0.12699999809E+01 0.  1.
</event>
<event>
 5   0  0.3805418E-07  0.2501047E+04  0.7818609E-02  0.8402613E-01
       -1   -1    0    0    0  501  0.00000000000E+00  0.00000000000E+00  0.10500443626E+04  0.10500443626E+04  0.50400001928E-02 0.  1.
        1   -1    0    0  501    0  0.00000000000E+00  0.00000000000E+00 -0.14892785682E+04  0.14892785682E+04  0.50400001928E-02 0. -1.
    10030    2    1    2    0    0  0.00000000000E+00  0.00000000000E+00 -0.43923420554E+03  0.25393229308E+04  0.25010466329E+04 0.  0.
        4    1    3    3  502    0 -0.39738754604E+03 -0.17174487311E+03  0.97153575547E+03  0.10636242289E+04  0.12699999809E+01 0.  1.
       -4    1    3    3    0  502  0.39738754604E+03  0.17174487311E+03 -0.14107699610E+04  0.14756987020E+04  0.12699999809E+01 0. -1.
</event>
<event>
 5   0  0.3837524E-07  0.2499891E+04  0.7818609E-02  0.8403024E-01
       -1   -1    0    0    0  501  0.00000000000E+00  0.00000000000E+00  0.13489914507E+04  0.13489914508E+04  0.50400001928E-02 0.  1.
        1   -1    0    0  501    0  0.00000000000E+00  0.00000000000E+00 -0.11581719149E+04  0.11581719149E+04  0.50400001928E-02 0. -1.
    10030    2    1    2    0    0  0.00000000000E+00  0.00000000000E+00  0.19081953588E+03  0.25071633656E+04  0.24998912070E+04 0.  0.
        5    1    3    3  502    0  0.26861765639E+03  0.21154760515E+03  0.13011692072E+04  0.13453517125E+04  0.46999998093E+01 0.  1.
       -5    1    3    3    0  502 -0.26861765639E+03 -0.21154760515E+03 -0.11103496714E+04  0.11618116531E+04  0.46999998093E+01 0. -1.
</event>
<event>
 5   0  0.9508784E-07  0.2499332E+04  0.7818609E-02  0.8403224E-01
        2   -1    0    0  501    0  0.00000000000E+00  0.00000000000E+00  0.16142078511E+04  0.16142078511E+04  0.25500000920E-02 0.  1.
       -2   -1    0    0    0  501  0.00000000000E+00  0.00000000000E+00 -0.96744972117E+03  0.96744972117E+03  0.25500000920E-02 0. -1.
    10030    2    1    2    0    0  0.00000000000E+00  0.00000000000E+00  0.64675812997E+03  0.25816575723E+04  0.24993318591E+04 0.  0.
        2    1    3    3  502    0  0.10880391576E+04 -0.48389563254E+03  0.71491713533E+03  0.13889170969E+04  0.25500000920E-02 0.  1.
       -2    1    3    3    0  502 -0.10880391576E+04  0.48389563254E+03 -0.68159005365E+02  0.11927404754E+04  0.25500000920E-02 0. -1.
</event>
<event>
 5   0  0.3805418E-07  0.2499191E+04  0.7818609E-02  0.8403274E-01
        1   -1    0    0  501    0  0.00000000000E+00  0.00000000000E+00  0.18405123799E+04  0.18405123799E+04  0.50400001928E-02 0. -1.
       -1   -1    0    0    0  501  0.00000000000E+00  0.00000000000E+00 -0.84839879070E+03  0.84839879071E+03  0.50400001928E-02 0.  1.
    10030    2    1    2    0    0  0.00000000000E+00  0.00000000000E+00  0.99211358916E+03  0.26889111706E+04  0.24991906509E+04 0.  0.
        4    1    3    3  502    0  0.11223533195E+04 -0.32160784511E+03  0.16848713427E+02  0.11676446685E+04  0.12699999809E+01 0.  1.
       -4    1    3    3    0  502 -0.11223533195E+04  0.32160784511E+03  0.97526487573E+03  0.15212665021E+04  0.12699999809E+01 0. -1.
</event>
<event>
 5   0  0.9251138E-07  0.2499813E+04  0.7818609E-02  0.8403052E-01
        2   -1    0    0  501    0  0.00000000000E+00  0.00000000000E+00  0.12531722545E+04  0.12531722545E+04  0.25500000920E-02 0. -1.
       -2   -1    0    0    0  501  0.00000000000E+00  0.00000000000E+00 -0.12466496250E+04  0.12466496250E+04  0.25500000920E-02 0.  1.
    10030    2    1    2    0    0  0.00000000000E+00  0.00000000000E+00  0.65226295141E+01  0.24998218795E+04  0.24998133699E+04 0.  0.
        5    1    3    3  502    0 -0.19298627182E+03 -0.55908915755E+03 -0.10978419948E+04  0.12470378995E+04  0.46999998093E+01 0.  1.
       -5    1    3    3    0  502  0.19298627182E+03  0.55908915755E+03  0.11043646243E+04  0.12527839800E+04  0.46999998093E+01 0. -1.
</event>
<event>
 5   0  0.3837524E-07  0.2500234E+04  0.7818609E-02  0.8402902E-01
        1   -1    0    0  501    0  0.00000000000E+00  0.00000000000E+00  0.16730924224E+04  0.16730924224E+04  0.50400001928E-02 0.  1.
       -1   -1    0    0    0  501  0.00000000000E+00  0.00000000000E+00 -0.93407447375E+03  0.93407447376E+03  0.50400001928E-02 0. -1.
    10030    2    1    2    0    0  0.00000000000E+00  0.00000000000E+00  0.73901794866E+03  0.26071668962E+04  0.25002343282E+04 0.  0.
        5    1    3    3  502    0 -0.45424130256E+03 -0.11352299212E+04  0.64080673111E+03  0.13804845134E+04  0.46999998093E+01 0.  1.
       -5    1    3    3    0  502  0.45424130256E+03  0.11352299212E+04  0.98211217551E+02  0.12266823828E+04  0.46999998093E+01 0. -1.
</event>
<event>
 5   0  0.3991066E-07  0.2498822E+04  0.7818609E-02  0.8403405E-01
       -1   -1    0    0    0  501  0.00000000000E+00  0.00000000000E+00  0.12976819600E+04  0.12976819600E+04  0.50400001928E-02 0. -1.
        1   -1    0    0  501    0  0.00000000000E+00  0.00000000000E+00 -0.12029358637E+04  0.12029358637E+04  0.50400001928E-02 0.  1.
    10030    2    1    2    0    0  0.00000000000E+00  0.00000000000E+00  0.94746096321E+02  0.25006178238E+04  0.24988222581E+04 0.  0.
        1    1    3    3  502    0 -0.51054604321E+03  0.19897870351E+03 -0.10762776696E+04  0.12077348255E+04  0.50400001928E-02 0.  1.
       -1    1    3    3    0  502  0.51054604321E+03 -0.19897870351E+03  0.11710237659E+04  0.12928829982E+04  0.50400001928E-02 0. -1.
</event>
<event>
 5   0  0.9508784E-07  0.2498758E+04  0.7818609E-02  0.8403428E-01
       -2   -1    0    0    0  501  0.00000000000E+00  0.00000000000E+00  0.18712869376E+04  0.18712869376E+04  0.25500000920E-02 0. -1.
        2   -1    0    0  501    0  0.00000000000E+00  0.00000000000E+00 -0.83415767351E+03  0.83415767351E+03  0.25500000920E-02 0.  1.
    10030    2    1    2    0    0  0.00000000000E+00  0.00000000000E+00  0.10371292641E+04  0.27054446112E+04  0.24987583784E+04 0.  0.
        2    1    3    3  502    0 -0.10723565750E+04 -0.60191560572E+03  0.75749260256E+03  0.14443150845E+04  0.25500000920E-02 0.  1.
       -2    1    3    3    0  502  0.10723565750E+04  0.60191560572E+03  0.27963666157E+03  0.12611295266E+04  0.25500000920E-02 0. -1.
</event>
<event>
 5   0  0.3837524E-07  0.2501429E+04  0.7818609E-02  0.8402477E-01
        1   -1    0    0  501    0  0.00000000000E+00  0.00000000000E+00  0.16197670242E+04  0.16197670242E+04  0.50400001928E-02 0. -1.
       -1   -1    0    0    0  501  0.00000000000E+00  0.00000000000E+00 -0.96574785933E+03  0.96574785934E+03  0.50400001928E-02 0.  1.
    10030    2    1    2    0    0  0.00000000000E+00  0.00000000000E+00  0.65401916488E+03  0.25855148836E+04  0.25014288207E+04 0.  0.
        5    1    3    3  502    0  0.31657623896E+03  0.95246011894E+03  0.10983273379E+04  0.14878661985E+04  0.46999998093E+01 0. -1.
       -5    1    3    3    0  502 -0.31657623896E+03 -0.95246011894E+03 -0.44430817307E+03  0.10976486851E+04  0.46999998093E+01 0.  1.
</event>
<event>
 5   0  0.8997210E-07  0.2500330E+04  0.7818609E-02  0.8402868E-01
        2   -1    0    0  501    0  0.00000000000E+00  0.00000000000E+00  0.17645263856E+04  0.17645263856E+04  0.25500000920E-02 0.  1.
       -2   -1    0    0    0  501  0.00000000000E+00  0.00000000000E+00 -0.88574046662E+03  0.88574046663E+03  0.25500000920E-02 0. -1.
    10030    2    1    2    0    0  0.00000000000E+00  0.00000000000E+00  0.87878591899E+03  0.26502668522E+04  0.25003299176E+04 0.  0.
        1    1    3    3  502    0 -0.18944815878E+03  0.57269261516E+03  0.16000663456E+04  0.17099940779E+04  0.50400001928E-02 0.  1.
       -1    1    3    3    0  502  0.18944815878E+03 -0.57269261516E+03 -0.72128042657E+03  0.94027277431E+03  0.50400001928E-02 0. -1.
</event>
<event>
 5   0  0.3991066E-07  0.2499827E+04  0.7818609E-02  0.8403047E-01
       -1   -1    0    0    0  501  0.00000000000E+00  0.00000000000E+00  0.10018214391E+04  0.10018214391E+04  0.50400001928E-02 0. -1.
        1   -1    0    0  501    0  0.00000000000E+00  0.00000000000E+00 -0.15594437137E+04  0.15594437137E+04  0.50400001928E-02 0.  1.
    10030    2    1    2    0    0  0.00000000000E+00  0.00000000000E+00 -0.55762227462E+03  0.25612651529E+04  0.24998273105E+04 0.  0.
        1    1    3    3  502    0 -0.88586526152E+02  0.19084919147E+03 -0.15411684509E+04  0.15554649404E+04  0.50400001928E-02 0.  1.
       -1    1    3    3    0  502  0.88586526152E+02 -0.19084919147E+03  0.98354617633E+03  0.10058002125E+04  0.50400001928E-02 0. -1.
</event>
<event>
 5   0  0.3873231E-07  0.2498113E+04  0.7818609E-02  0.8403658E-01
       -1   -1    0    0    0  501  0.00000000000E+00  0.00000000000E+00  0.14288975366E+04  0.14288975366E+04  0.50400001928E-02 0.  1.
        1   -1    0    0  501    0  0.00000000000E+00  0.00000000000E+00 -0.10918505704E+04  0.10918505705E+04  0.50400001928E-02 0. -1.
    10030    2    1    2    0    0  0.00000000000E+00  0.00000000000E+00  0.33704696613E+03  0.25207481070E+04  0.24981133605E+04 0.  0.
        2    1    3    3  502    0  0.49826451214E+02 -0.32520716444E+03 -0.10473424561E+04  0.10978017105E+04  0.25500000920E-02 0. -1.
       -2    1    3    3    0  502 -0.49826451214E+02  0.32520716444E+03  0.13843894223E+04  0.14229463966E+04  0.25500000920E-02 0.  1.
</event>
<event>
 5   0  0.9261602E-07  0.2499793E+04  0.7818609E-02  0.8403059E-01
        2   -1    0    0  501    0  0.00000000000E+00  0.00000000000E+00  0.17806790662E+04  0.17806790662E+04  0.25500000920E-02 0.  1.
       -2   -1    0    0    0  501  0.00000000000E+00  0.00000000000E+00 -0.87732901175E+03  0.87732901176E+03  0.25500000920E-02 0. -1.
    10030    2    1    2    0    0  0.00000000000E+00  0.00000000000E+00  0.90335005448E+03  0.26580080780E+04  0.24997931158E+04 0.  0.
        4    1    3    3  502    0  0.11839705625E+04 -0.40043158153E+03  0.44062251844E+03  0.13252477357E+04  0.12699999809E+01 0.  1.
       -4    1    3    3    0  502 -0.11839705625E+04  0.40043158153E+03  0.46272753604E+03  0.13327603423E+04  0.12699999809E+01 0. -1.
</event>
<event>
 5   0  0.9508784E-07  0.2501199E+04  0.7818609E-02  0.8402559E-01
        2   -1    0    0  501    0  0.00000000000E+00  0.00000000000E+00  0.15340770090E+04  0.15340770090E+04  0.25500000920E-02 0. -1.
       -2   -1    0    0    0  501  0.00000000000E+00  0.00000000000E+00 -0.10195046060E+04  0.10195046060E+04  0.25500000920E-02 0.  1.
    10030    2    1    2    0    0  0.00000000000E+00  0.00000000000E+00  0.51457240299E+03  0.25535816149E+04  0.25011985739E+04 0.  0.
        2    1    3    3  502    0 -0.57272426060E+03  0.62556443773E+03  0.11955849877E+04  0.14658674590E+04  0.25500000920E-02 0. -1.
       -2    1    3    3    0  502  0.57272426060E+03 -0.62556443773E+03 -0.68101258475E+03  0.10877141559E+04  0.25500000920E-02 0.  1.
</event>
<event>
 5   0  0.9261602E-07  0.2499391E+04  0.7818609E-02  0.8403202E-01
        2   -1    0    0  501    0  0.00000000000E+00  0.00000000000E+00  0.11190250106E+04  0.11190250106E+04  0.25500000920E-02 0.  1.
       -2   -1    0    0    0  501  0.00000000000E+00  0.00000000000E+00 -0.13956250045E+04  0.13956250045E+04  0.25500000920E-02 0. -1.
    10030    2    1    2    0    0  0.00000000000E+00  0.00000000000E+00 -0.27659999382E+03  0.25146500151E+04  0.24993913543E+04 0.  0.
        4    1    3    3  502    0 -0.16208726418E+03 -0.11948339430E+04 -0.46869058594E+03  0.12936664604E+04  0.12699999809E+01 0. -1.
       -4    1    3    3    0  502  0.16208726418E+03  0.11948339430E+04  0.19209059213E+03  0.12209835547E+04  0.12699999809E+01 0.  1.
</event>
<event>
 5   0  0.3873231E-07  0.2500045E+04  0.7818609E-02  0.8402969E-01
        1   -1    0    0  501    0  0.00000000000E+00  0.00000000000E+00  0.20473475615E+04  0.20473475615E+04  0.50400001928E-02 0. -1.
       -1   -1    0    0    0  501  0.00000000000E+00  0.00000000000E+00 -0.76321031542E+03  0.76321031544E+03  0.50400001928E-02 0.  1.
    10030    2    1    2    0    0  0.00000000000E+00  0.00000000000E+00  0.12841372461E+04  0.28105578769E+04  0.25000454222E+04 0.  0.
        2    1    3    3  502    0  0.54469271941E+03 -0.11070625139E+04  0.41644472143E+03  0.13021919115E+04  0.25500000920E-02 0. -1.
       -2    1    3    3    0  502 -0.54469271941E+03  0.11070625139E+04  0.86769252465E+03  0.15083659654E+04  0.25500000920E-02 0.  1.
</event>
<event>
 5   0  0.8997210E-07  0.2499306E+04  0.7818609E-02  0.8403233E-01
       -2   -1    0    0    0  501  0.00000000000E+00  0.00000000000E+00  0.89106139322E+03  0.89106139322E+03  0.25500000920E-02 0. -1.
        2   -1    0    0  501    0  0.00000000000E+00  0.00000000000E+00 -0.17525531001E+04  0.17525531001E+04  0.25500000920E-02 0.  1.
    10030    2    1    2    0    0  0.00000000000E+00  0.00000000000E+00 -0.86149170685E+03  0.26436144933E+04  0.24993058293E+04 0.  0.
        1    1    3    3  502    0 -0.10700745371E+04  0.41826948245E+03  0.89188288148E+02  0.11523729542E+04  0.50400001928E-02 0.  1.
       -1    1    3    3    0  502  0.10700745371E+04 -0.41826948245E+03 -0.95067999500E+03  0.14912415391E+04  0.50400001928E-02 0. -1.
</event>
<event>
 5   0  0.3805418E-07  0.2503935E+04  0.7818609E-02  0.8401585E-01
       -1   -1    0    0    0  501  0.00000000000E+00  0.00000000000E+00  0.99030670263E+03  0.99030670265E+03  0.50400001928E-02 0.  1.
        1   -1    0    0  501    0  0.00000000000E+00  0.00000000000E+00 -0.15827645937E+04  0.15827645937E+04  0.50400001928E-02 0. -1.
    10030    2    1    2    0    0  0.00000000000E+00  0.00000000000E+00 -0.59245789104E+03  0.25730712963E+04  0.25039348121E+04 0.  0.
        4    1    3    3  502    0  0.13226054599E+03  0.10325734500E+04 -0.10109322994E+04  0.14510983800E+04  0.12699999809E+01 0. -1.
       -4    1    3    3    0  502 -0.13226054599E+03 -0.10325734500E+04  0.41847440834E+03  0.11219729163E+04  0.12699999809E+01 0.  1.
</event>
<event>
 5   0  0.3873231E-07  0.2502268E+04  0.7818609E-02  0.8402178E-01
        1   -1    0    0  501    0  0.00000000000E+00  0.00000000000E+00  0.15085977815E+04  0.15085977815E+04  0.50400001928E-02 0. -1.
       -1   -1    0    0    0  501  0.00000000000E+00  0.00000000000E+00 -0.10376101430E+04  0.10376101430E+04  0.50400001928E-02 0.  1.
    10030    2    1    2    0    0  0.00000000000E+00  0.00000000000E+00  0.47098763847E+03  0.25462079245E+04  0.25022680590E+04 0.  0.
        2    1    3    3  502    0  0.51314990043E+03  0.10846688714E+04  0.59598444115E+03  0.13397861154E+04  0.25500000920E-02 0.  1.
       -2    1    3    3    0  502 -0.51314990043E+03 -0.10846688714E+04 -0.12499680269E+03  0.12064218091E+04  0.25500000920E-02 0. -1.
</event>
<event>
 5   0  0.3991066E-07  0.2499932E+04  0.7818609E-02  0.8403010E-01
       -1   -1    0    0    0  501  0.00000000000E+00  0.00000000000E+00  0.12161968714E+04  0.12161968714E+04  0.50400001928E-02 0.  1.
        1   -1    0    0  501    0  0.00000000000E+00  0.00000000000E+00 -0.12846725560E+04  0.12846725560E+04  0.50400001928E-02 0. -1.
    10030    2    1    2    0    0  0.00000000000E+00  0.00000000000E+00 -0.68475684632E+02  0.25008694274E+04  0.24999317938E+04 0.  0.
        1    1    3    3  502    0 -0.60127214184E+03  0.40913124555E+03  0.98275457625E+03  0.12225886969E+04  0.50400001928E-02 0.  1.
       -1    1    3    3    0  502  0.60127214184E+03 -0.40913124555E+03 -0.10512302609E+04  0.12782807305E+04  0.50400001928E-02 0. -1.
</event>
<event>
 5   0  0.8997210E-07  0.2496262E+04  0.7818609E-02  0.8404318E-01
        2   -1    0    0  501    0  0.00000000000E+00  0.00000000000E+00  0.13607536126E+04  0.13607536126E+04  0.25500000920E-02 0. -1.
       -2   -1    0    0    0  501  0.00000000000E+00  0.00000000000E+00 -0.11448295780E+04  0.11448295780E+04  0.25500000920E-02 0.  1.
    10030    2    1    2    0    0  0.00000000000E+00  0.00000000000E+00  0.21592403461E+03  0.25055831907E+04  0.24962619928E+04 0.  0.
        1    1    3    3  502    0 -0.24170307808E+03  0.62719392457E+03  0.11635726659E+04  0.13437611194E+04  0.50400001928E-02 0. -1.
       -1    1    3    3    0  502  0.24170307808E+03 -0.62719392457E+03 -0.94764863131E+03  0.11618220713E+04  0.50400001928E-02 0.  1.
</event>
<event>
 5   0  0.3972587E-07  0.2502623E+04  0.7818609E-02  0.8402052E-01
        1   -1    0    0  501    0  0.00000000000E+00  0.00000000000E+00  0.15554872546E+04  0.15554872546E+04  0.50400001928E-02 0.  1.
       -1   -1    0    0    0  501  0.00000000000E+00  0.00000000000E+00 -0.10066173187E+04  0.10066173187E+04  0.50400001928E-02 0. -1.
    10030    2    1    2    0    0  0.00000000000E+00  0.00000000000E+00  0.54886993582E+03  0.25621045733E+04  0.25026229516E+04 0.  0.
        3    1    3    3  502    0 -0.22455327542E+02  0.60677336221E+03 -0.84569147824E+03  0.10410918506E+04  0.10100000352E+00 0. -1.
       -3    1    3    3    0  502  0.22455327542E+02 -0.60677336221E+03  0.13945614141E+04  0.15210127227E+04  0.10100000352E+00 0.  1.
</event>
<event>
 5   0  0.3837524E-07  0.2499286E+04  0.7818609E-02  0.8403240E-01
        1   -1    0    0  501    0  0.00000000000E+00  0.00000000000E+00  0.18067213864E+04  0.18067213864E+04  0.50400001928E-02 0.  1.
       -1   -1    0    0    0  501  0.00000000000E+00  0.00000000000E+00 -0.86433247007E+03  0.86433247009E+03  0.50400001928E-02 0. -1.
    10030    2    1    2    0    0  0.00000000000E+00  0.00000000000E+00  0.94238891633E+03  0.26710538565E+04  0.24992862651E+04 0.  0.
        5    1    3    3  502    0  0.57875793671E+03  0.35721010281E+03 -0.64919918967E+03  0.94023480298E+03  0.46999998093E+01 0. -1.
       -5    1    3    3    0  502 -0.57875793671E+03 -0.35721010281E+03  0.15915881060E+04  0.17308190535E+04  0.46999998093E+01 0.  1.
</event>
<event>
 5   0  0.3972587E-07  0.2502619E+04  0.7818609E-02  0.8402053E-01
        1   -1    0    0  501    0  0.00000000000E+00  0.00000000000E+00  0.11507448079E+04  0.11507448079E+04  0.50400001928E-02 0.  1.
       -1   -1    0    0    0  501  0.00000000000E+00  0.00000000000E+00 -0.13606624609E+04  0.13606624609E+04  0.50400001928E-02 0. -1.
    10030    2    1    2    0    0  0.00000000000E+00  0.00000000000E+00 -0.20991765298E+03  0.25114072688E+04  0.25026188381E+04 0.  0.
        3    1    3    3  502    0  0.10877106434E+04  0.60337426445E+03 -0.24182069734E+03  0.12671433252E+04  0.10100000352E+00 0.  1.
       -3    1    3    3    0  502 -0.10877106434E+04 -0.60337426445E+03  0.31903044365E+02  0.12442639436E+04  0.10100000352E+00 0. -1.
</event>
<event>
 5   0  0.9508784E-07  0.2500511E+04  0.7818609E-02  0.8402803E-01
       -2   -1    0    0    0  501  0.00000000000E+00  0.00000000000E+00  0.61627667481E+03  0.61627667481E+03  0.25500000920E-02 0. -1.
        2   -1    0    0  501    0  0.00000000000E+00  0.00000000000E+00 -0.25364240728E+04  0.25364240728E+04  0.25500000920E-02 0.  1.
    10030    2    1    2    0    0  0.00000000000E+00  0.00000000000E+00 -0.19201473980E+04  0.31527007476E+04  0.25005111425E+04 0.  0.
        2    1    3    3  502    0  0.84187877043E+03  0.33930114123E+03 -0.20441273026E+04  0.22365915045E+04  0.25500000920E-02 0.  1.
       -2    1    3    3    0  502 -0.84187877043E+03 -0.33930114123E+03  0.12397990466E+03  0.91610924311E+03  0.25500000920E-02 0. -1.
</event>
<event>
 5   0  0.9508784E-07  0.2499643E+04  0.7818609E-02  0.8403113E-01
       -2   -1    0    0    0  501  0.00000000000E+00  0.00000000000E+00  0.12383067625E+04  0.12383067625E+04  0.25500000920E-02 0.  1.
        2   -1    0    0  501    0  0.00000000000E+00  0.00000000000E+00 -0.12614429689E+04  0.12614429689E+04  0.25500000920E-02 0. -1.
    10030    2    1    2    0    0  0.00000000000E+00  0.00000000000E+00 -0.23136206400E+02  0.24997497315E+04  0.24996426616E+04 0.  0.
        2    1    3    3  502    0 -0.24407143891E+03 -0.26891064768E+03  0.11843800887E+04  0.12388058760E+04  0.25500000920E-02 0.  1.
       -2    1    3    3    0  502  0.24407143891E+03  0.26891064768E+03 -0.12075162951E+04  0.12609438555E+04  0.25500000920E-02 0. -1.
</event>
<event>
 5   0  0.9261602E-07  0.2500040E+04  0.7818609E-02  0.8402971E-01
       -2   -1    0    0    0  501  0.00000000000E+00  0.00000000000E+00  0.10832430529E+04  0.10832430529E+04  0.25500000920E-02 0. -1.
        2   -1    0    0  501    0  0.00000000000E+00  0.00000000000E+00 -0.14424741410E+04  0.14424741410E+04  0.25500000920E-02 0.  1.
    10030    2    1    2    0    0  0.00000000000E+00  0.00000000000E+00 -0.35923108814E+03  0.25257171939E+04  0.25000400734E+04 0.  0.
        4    1    3    3  502    0 -0.92788812498E+03  0.81392397331E+03 -0.37938331384E+03  0.12912714349E+04  0.12699999809E+01 0.  1.
       -4    1    3    3    0  502  0.92788812498E+03 -0.81392397331E+03  0.20152225705E+02  0.12344457590E+04  0.12699999809E+01 0. -1.
</event>
<event>
 5   0  0.3214375E-07  0.2504540E+04  0.7818609E-02  0.8401370E-01
       -3   -1    0    0    0  501  0.00000000000E+00  0.00000000000E+00  0.69326534332E+03  0.69326535067E+03  0.10100000352E+00 0. -1.
        3   -1    0    0  501    0  0.00000000000E+00  0.00000000000E+00 -0.22620193145E+04  0.22620193167E+04  0.10100000352E+00 0.  1.
    10030    2    1    2    0    0  0.00000000000E+00  0.00000000000E+00 -0.15687539712E+04  0.29552846674E+04  0.25045395672E+04 0.  0.
        4    1    3    3  502    0 -0.22880462896E+03 -0.11705394125E+04 -0.12347241424E+04  0.17167001471E+04  0.12699999809E+01 0.  1.
       -4    1    3    3    0  502  0.22880462896E+03  0.11705394125E+04 -0.33402982881E+03  0.12385845203E+04  0.12699999809E+01 0. -1.
</event>
<event>
 5   0  0.3972587E-07  0.2499627E+04  0.7818609E-02  0.8403119E-01
       -1   -1    0    0    0  501  0.00000000000E+00  0.00000000000E+00  0.11605212869E+04  0.11605212869E+04  0.50400001928E-02 0. -1.
        1   -1    0    0  501    0  0.00000000000E+00  0.00000000000E+00 -0.13459757607E+04  0.13459757607E+04  0.50400001928E-02 0.  1.
    10030    2    1    2    0    0  0.00000000000E+00  0.00000000000E+00 -0.18545447379E+03  0.25064970476E+04  0.24996267897E+04 0.  0.
        3    1    3    3  502    0 -0.63306141072E+02  0.78012034030E+03 -0.10697965067E+04  0.13255413946E+04  0.10100000352E+00 0.  1.
       -3    1    3    3    0  502  0.63306141072E+02 -0.78012034030E+03  0.88434203292E+03  0.11809556530E+04  0.10100000352E+00 0. -1.
</event>
<event>
 5   0  0.3805418E-07  0.2499779E+04  0.7818609E-02  0.8403064E-01
       -1   -1    0    0    0  501  0.00000000000E+00  0.00000000000E+00  0.14022571322E+04  0.14022571322E+04  0.50400001928E-02 0. -1.
        1   -1    0    0  501    0  0.00000000000E+00  0.00000000000E+00 -0.11140783713E+04  0.11140783713E+04  0.50400001928E-02 0.  1.
    10030    2    1    2    0    0  0.00000000000E+00  0.00000000000E+00  0.28817876090E+03  0.25163355035E+04  0.24997794639E+04 0.  0.
        4    1    3    3  502    0  0.57141876288E+03  0.25963165507E+02  0.12627683387E+04  0.13862824311E+04  0.12699999809E+01 0. -1.
       -4    1    3    3    0  502 -0.57141876288E+03 -0.25963165507E+02 -0.97458957780E+03  0.11300530725E+04  0.12699999809E+01 0.  1.
</event>
<event>
 5   0  0.9251138E-07  0.2497975E+04  0.7818609E-02  0.8403707E-01
       -2   -1    0    0    0  501  0.00000000000E+00  0.00000000000E+00  0.93668861144E+03  0.93668861145E+03  0.25500000920E-02 0. -1.
        2   -1    0    0  501    0  0.00000000000E+00  0.00000000000E+00 -0.16654091671E+04  0.16654091671E+04  0.25500000920E-02 0.  1.
    10030    2    1    2    0    0  0.00000000000E+00  0.00000000000E+00 -0.72872055570E+03  0.26020977786E+04  0.24979750201E+04 0.  0.
        5    1    3    3  502    0 -0.32753342522E+03  0.11111770625E+04  0.12195626165E+03  0.11648553681E+04  0.46999998093E+01 0. -1.
       -5    1    3    3    0  502  0.32753342522E+03 -0.11111770625E+04 -0.85067681735E+03  0.14372424105E+04  0.46999998093E+01 0.  1.
</event>
<event>
 5   0  0.3972587E-07  0.2499391E+04  0.7818609E-02  0.8403203E-01
       -1   -1    0    0    0  501  0.00000000000E+00  0.00000000000E+00  0.14746571053E+04  0.14746571053E+04  0.50400001928E-02 0. -1.
        1   -1    0    0  501    0  0.00000000000E+00  0.00000000000E+00 -0.10590520264E+04  0.10590520264E+04  0.50400001928E-02 0.  1.
    10030    2    1    2    0    0  0.00000000000E+00  0.00000000000E+00  0.41560507887E+03  0.25337091317E+04  0.24993908022E+04 0.  0.
        3    1    3    3  502    0  0.10935982069E+04  0.60203313729E+03  0.26636818114E+03  0.12764611058E+04  0.10100000352E+00 0. -1.
       -3    1    3    3    0  502 -0.10935982069E+04 -0.60203313729E+03  0.14923689773E+03  0.12572480258E+04  0.10100000352E+00 0.  1.
</event>
<event>
 5   0  0.3873231E-07  0.2503772E+04  0.7818609E-02  0.8401643E-01
        1   -1    0    0  501    0  0.00000000000E+00  0.00000000000E+00  0.16901190288E+04  0.16901190288E+04  0.50400001928E-02 0.  1.
       -1   -1    0    0    0  501  0.00000000000E+00  0.00000000000E+00 -0.92728319769E+03  0.92728319770E+03  0.50400001928E-02 0. -1.
    10030    2    1    2    0    0  0.00000000000E+00  0.00000000000E+00  0.76283583112E+03  0.26174022265E+04  0.25037723359E+04 0.  0.
        2    1    3    3  502    0  0.17974163500E+03  0.12341273714E+04  0.26766043411E+03  0.12755467581E+04  0.25500000920E-02 0. -1.
       -2    1    3    3    0  502 -0.17974163500E+03 -0.12341273714E+04  0.49517539701E+03  0.13418554684E+04  0.25500000920E-02 0.  1.
</event>
<event>
 5   0  0.9768582E-07  0.2495988E+04  0.7818609E-02  0.8404416E-01
       -2   -1    0    0    0  501  0.00000000000E+00  0.00000000000E+00  0.10298936419E+04  0.10298936419E+04  0.25500000920E-02 0.  1.
        2   -1    0    0  501    0  0.00000000000E+00  0.00000000000E+00 -0.15122819545E+04  0.15122819545E+04  0.25500000920E-02 0. -1.
    10030    2    1    2    0    0  0.00000000000E+00  0.00000000000E+00 -0.48238831258E+03  0.25421755964E+04  0.24959884372E+04 0.  0.
        3    1    3    3  502    0  0.30038999645E+03 -0.76718564504E+02  0.99004670842E+03  0.10374547620E+04  0.10100000352E+00 0.  1.
       -3    1    3    3    0  502 -0.30038999645E+03  0.76718564504E+02 -0.14724350210E+04  0.15047208344E+04  0.10100000352E+00 0. -1.
</event>
<event>
 5   0  0.3972587E-07  0.2499803E+04  0.7818609E-02  0.8403056E-01
        1   -1    0    0  501    0  0.00000000000E+00  0.00000000000E+00  0.17323310631E+04  0.17323310631E+04  0.50400001928E-02 0. -1.
       -1   -1    0    0    0  501  0.00000000000E+00  0.00000000000E+00 -0.90182192747E+03  0.90182192748E+03  0.50400001928E-02 0.  1.
    10030    2    1    2    0    0  0.00000000000E+00  0.00000000000E+00  0.83050913564E+03  0.26341529906E+04  0.24998033030E+04 0.  0.
        3    1    3    3  502    0 -0.20640702274E+03  0.28065988793E+03 -0.84962480042E+03  0.91827890285E+03  0.10100000352E+00 0.  1.
       -3    1    3    3    0  502  0.20640702274E+03 -0.28065988793E+03  0.16801339361E+04  0.17158740878E+04  0.10100000352E+00 0. -1.
</event>
<event>
 5   0  0.3972587E-07  0.2499765E+04  0.7818609E-02  0.8403069E-01
        1   -1    0    0  501    0  0.00000000000E+00  0.00000000000E+00  0.10939725806E+04  0.10939725806E+04  0.50400001928E-02 0. -1.
       -1   -1    0    0    0  501  0.00000000000E+00  0.00000000000E+00 -0.14280121742E+04  0.14280121742E+04  0.50400001928E-02 0.  1.
    10030    2    1    2    0    0  0.00000000000E+00  0.00000000000E+00 -0.33403959364E+03  0.25219847548E+04  0.24997649197E+04 0.  0.
        3    1    3    3  502    0 -0.96015297465E+03 -0.70402136258E+03  0.21671133458E+03  0.12101667763E+04  0.10100000352E+00 0. -1.
       -3    1    3    3    0  502  0.96015297465E+03  0.70402136258E+03 -0.55075092822E+03  0.13118179785E+04  0.10100000352E+00 0.  1.
</event>
<event>
 5   0  0.3972587E-07  0.2499509E+04  0.7818609E-02  0.8403160E-01
        1   -1    0    0  501    0  0.00000000000E+00  0.00000000000E+00  0.27127407927E+04  0.27127407927E+04  0.50400001928E-02 0.  1.
       -1   -1    0    0    0  501  0.00000000000E+00  0.00000000000E+00 -0.57575964101E+03  0.57575964103E+03  0.50400001928E-02 0. -1.
    10030    2    1    2    0    0  0.00000000000E+00  0.00000000000E+00  0.21369811517E+04  0.32885004337E+04  0.24995092838E+04 0.  0.
        3    1    3    3  502    0  0.95520300767E+03  0.49824807603E+03  0.23512432213E+03  0.11027000445E+04  0.10100000352E+00 0. -1.
       -3    1    3    3    0  502 -0.95520300767E+03 -0.49824807603E+03  0.19018568296E+04  0.21858003892E+04  0.10100000352E+00 0.  1.
</event>
<event>
 5   0  0.3214375E-07  0.2500480E+04  0.7818609E-02  0.8402815E-01
       -4   -1    0    0    0  501  0.00000000000E+00  0.00000000000E+00  0.11042895153E+04  0.11042902455E+04  0.12699999809E+01 0.  1.
        4   -1    0    0  501    0  0.00000000000E+00  0.00000000000E+00 -0.14154789028E+04  0.14154794726E+04  0.12699999809E+01 0. -1.
    10030    2    1    2    0    0  0.00000000000E+00  0.00000000000E+00 -0.31118938759E+03  0.25197697181E+04  0.25004800734E+04 0.  0.
        1    1    3    3  502    0  0.77366694927E+03  0.60976603852E+03 -0.93142022864E+03  0.13556986437E+04  0.50400001928E-02 0. -1.
       -1    1    3    3    0  502 -0.77366694927E+03 -0.60976603852E+03  0.62023084105E+03  0.11640710744E+04  0.50400001928E-02 0.  1.
</event>
<event>
 5   0  0.3805418E-07  0.2500214E+04  0.7818609E-02  0.8402909E-01
       -1   -1    0    0    0  501  0.00000000000E+00  0.00000000000E+00  0.12619747167E+04  0.12619747167E+04  0.50400001928E-02 0.  1.
        1   -1    0    0  501    0  0.00000000000E+00  0.00000000000E+00 -0.12383504709E+04  0.12383504709E+04  0.50400001928E-02 0. -1.
    10030    2    1    2    0    0  0.00000000000E+00  0.00000000000E+00  0.23624245872E+02  0.25003251876E+04  0.25002135786E+04 0.  0.
        4    1    3    3  502    0 -0.36195262348E+03  0.10114413483E+04  0.65117005266E+03  0.12562035476E+04  0.12699999809E+01 0.  1.
       -4    1    3    3    0  502  0.36195262348E+03 -0.10114413483E+04 -0.62754580679E+03  0.12441216400E+04  0.12699999809E+01 0. -1.
</event>
<event>
 5   0  0.3805418E-07  0.2499504E+04  0.7818609E-02  0.8403162E-01
       -1   -1    0    0    0  501  0.00000000000E+00  0.00000000000E+00  0.10071431171E+04  0.10071431172E+04  0.50400001928E-02 0.  1.
        1   -1    0    0  501    0  0.00000000000E+00  0.00000000000E+00 -0.15508022929E+04  0.15508022929E+04  0.50400001928E-02 0. -1.
    10030    2    1    2    0    0  0.00000000000E+00  0.00000000000E+00 -0.54365917579E+03  0.25579454101E+04  0.24995038351E+04 0.  0.
        4    1    3    3  502    0  0.31424151635E+03  0.93344354405E+03  0.51545175153E+03  0.11116459426E+04  0.12699999809E+01 0.  1.
       -4    1    3    3    0  502 -0.31424151635E+03 -0.93344354405E+03 -0.10591109273E+04  0.14462994675E+04  0.12699999809E+01 0. -1.
</event>
<event>
 5   0  0.9768582E-07  0.2495053E+04  0.7818609E-02  0.8404750E-01
       -2   -1    0    0    0  501  0.00000000000E+00  0.00000000000E+00  0.98342087723E+03  0.98342087724E+03  0.25500000920E-02 0. -1.
        2   -1    0    0  501    0  0.00000000000E+00  0.00000000000E+00 -0.15825592744E+04  0.15825592744E+04  0.25500000920E-02 0.  1.
    10030    2    1    2    0    0  0.00000000000E+00  0.00000000000E+00 -0.59913839717E+03  0.25659801516E+04  0.24950525685E+04 0.  0.
        3    1    3    3  502    0  0.16548537676E+03 -0.75938616944E+03 -0.13031525044E+04  0.15173197502E+04  0.10100000352E+00 0.  1.
       -3    1    3    3    0  502 -0.16548537676E+03  0.75938616944E+03  0.70401410724E+03  0.10486604015E+04  0.10100000352E+00 0. -1.
</event>
<event>
 5   0  0.9261602E-07  0.2500135E+04  0.7818609E-02  0.8402937E-01
       -2   -1    0    0    0  501  0.00000000000E+00  0.00000000000E+00  0.94122700858E+03  0.94122700858E+03  0.25500000920E-02 0.  1.
        2   -1    0    0  501    0  0.00000000000E+00  0.00000000000E+00 -0.16602470294E+04  0.16602470294E+04  0.25500000920E-02 0. -1.
    10030    2    1    2    0    0  0.00000000000E+00  0.00000000000E+00 -0.71902002078E+03  0.26014740379E+04  0.25001354723E+04 0.  0.
        4    1    3    3  502    0  0.26592227171E+03 -0.11509889009E+04 -0.78495658657E+03  0.14183259711E+04  0.12699999809E+01 0. -1.
       -4    1    3    3    0  502 -0.26592227171E+03  0.11509889009E+04  0.65936565786E+02  0.11831480669E+04  0.12699999809E+01 0.  1.
</event>
<event>
 5   0  0.9261602E-07  0.2499790E+04  0.7818609E-02  0.8403060E-01
       -2   -1    0    0    0  501  0.00000000000E+00  0.00000000000E+00  0.13712257297E+04  0.13712257297E+04  0.25500000920E-02 0.  1.
        2   -1    0    0  501    0  0.00000000000E+00  0.00000000000E+00 -0.11392996543E+04  0.11392996543E+04  0.25500000920E-02 0. -1.
    10030    2    1    2    0    0  0.00000000000E+00  0.00000000000E+00  0.23192607539E+03  0.25105253840E+04  0.24997895910E+04 0.  0.
        4    1    3    3  502    0 -0.89780223511E+03 -0.84069381378E+03 -0.10729879611E+03  0.12346374312E+04  0.12699999809E+01 0.  1.
       -4    1    3    3    0  502  0.89780223511E+03  0.84069381378E+03  0.33922487150E+03  0.12758879528E+04  0.12699999809E+01 0. -1.
</event>
<event>
 5   0  0.3837524E-07  0.2499707E+04  0.7818609E-02  0.8403090E-01
       -1   -1    0    0    0  501  0.00000000000E+00  0.00000000000E+00  0.85227576178E+03  0.85227576180E+03  0.50400001928E-02 0. -1.
        1   -1    0    0  501    0  0.00000000000E+00  0.00000000000E+00 -0.18328968785E+04  0.18328968785E+04  0.50400001928E-02 0.  1.
    10030    2    1    2    0    0  0.00000000000E+00  0.00000000000E+00 -0.98062111674E+03  0.26851726403E+04  0.24997068496E+04 0.  0.
        5    1    3    3  502    0 -0.60214538439E+03  0.56016459248E+03 -0.15012804873E+04  0.17117910580E+04  0.46999998093E+01 0.  1.
       -5    1    3    3    0  502  0.60214538439E+03 -0.56016459248E+03  0.52065937059E+03  0.97338158232E+03  0.46999998093E+01 0. -1.
</event>
<event>
 5   0  0.3972587E-07  0.2510900E+04  0.7818609E-02  0.8399113E-01
       -1   -1    0    0    0  501  0.00000000000E+00  0.00000000000E+00  0.83985758442E+03  0.83985758443E+03  0.50400001928E-02 0.  1.
        1   -1    0    0  501    0  0.00000000000E+00  0.00000000000E+00 -0.18766927892E+04  0.18766927892E+04  0.50400001928E-02 0. -1.
    10030    2    1    2    0    0  0.00000000000E+00  0.00000000000E+00 -0.10368352048E+04  0.27165503737E+04  0.25108999762E+04 0.  0.
        3    1    3    3  502    0 -0.73464026286E+03 -0.57052090951E+03 -0.14306641495E+04  0.17064554910E+04  0.10100000352E+00 0. -1.
       -3    1    3    3    0  502  0.73464026286E+03  0.57052090951E+03  0.39382894471E+03  0.10100948826E+04  0.10100000352E+00 0.  1.
</event>
<event>
 5   0  0.9261602E-07  0.2499301E+04  0.7818609E-02  0.8403235E-01
       -2   -1    0    0    0  501  0.00000000000E+00  0.00000000000E+00  0.85270014673E+03  0.85270014674E+03  0.25500000920E-02 0. -1.
        2   -1    0    0  501    0  0.00000000000E+00  0.00000000000E+00 -0.18313892532E+04  0.18313892532E+04  0.25500000920E-02 0.  1.
    10030    2    1    2    0    0  0.00000000000E+00  0.00000000000E+00 -0.97868910650E+03  0.26840894000E+04  0.24993006101E+04 0.  0.
        4    1    3    3  502    0 -0.10938885075E+04  0.36940120043E+03  0.24099119622E+02  0.11548297252E+04  0.12699999809E+01 0. -1.
       -4    1    3    3    0  502  0.10938885075E+04 -0.36940120043E+03 -0.10027882261E+04  0.15292596748E+04  0.12699999809E+01 0.  1.
</event>
<event>
 5   0  0.9251138E-07  0.2498018E+04  0.7818609E-02  0.8403692E-01
       -2   -1    0    0    0  501  0.00000000000E+00  0.00000000000E+00  0.73696195417E+03  0.73696195417E+03  0.25500000920E-02 0.  1.
        2   -1    0    0  501    0  0.00000000000E+00  0.00000000000E+00 -0.21168303077E+04  0.21168303077E+04  0.25500000920E-02 0. -1.
    10030    2    1    2    0    0  0.00000000000E+00  0.00000000000E+00 -0.13798683535E+04  0.28537922619E+04  0.24980179345E+04 0.  0.
        5    1    3    3  502    0  0.60421454602E+03  0.10893226537E+04 -0.58584042263E+03  0.13765646198E+04  0.46999998093E+01 0. -1.
       -5    1    3    3    0  502 -0.60421454602E+03 -0.10893226537E+04 -0.79402793092E+03  0.14772276421E+04  0.46999998093E+01 0.  1.
</event>
<event>
 5   0  0.3837524E-07  0.2499693E+04  0.7818609E-02  0.8403095E-01
        1   -1    0    0  501    0  0.00000000000E+00  0.00000000000E+00  0.12932661853E+04  0.12932661853E+04  0.50400001928E-02 0.  1.
       -1   -1    0    0    0  501  0.00000000000E+00  0.00000000000E+00 -0.12078841914E+04  0.12078841914E+04  0.50400001928E-02 0. -1.
    10030    2    1    2    0    0  0.00000000000E+00  0.00000000000E+00  0.85381993895E+02  0.25011503768E+04  0.24996926056E+04 0.  0.
        5    1    3    3  502    0 -0.16753683363E+03  0.51164808149E+03  0.11712855500E+04  0.12891021215E+04  0.46999998093E+01 0.  1.
       -5    1    3    3    0  502  0.16753683363E+03 -0.51164808149E+03 -0.10859035561E+04  0.12120482553E+04  0.46999998093E+01 0. -1.
</event>
<event>
 5   0  0.3972587E-07  0.2500003E+04  0.7818609E-02  0.8402984E-01
        1   -1    0    0  501    0  0.00000000000E+00  0.00000000000E+00  0.14089697565E+04  0.14089697565E+04  0.50400001928E-02 0. -1.
       -1   -1    0    0    0  501  0.00000000000E+00  0.00000000000E+00 -0.11089692333E+04  0.11089692334E+04  0.50400001928E-02 0.  1.
    10030    2    1    2    0    0  0.00000000000E+00  0.00000000000E+00  0.30000052314E+03  0.25179389898E+04  0.25000032885E+04 0.  0.
        3    1    3    3  502    0 -0.28374112434E+03 -0.10086438142E+04  0.83653026674E+03  0.13407662984E+04  0.10100000352E+00 0. -1.
       -3    1    3    3    0  502  0.28374112434E+03  0.10086438142E+04 -0.53652974360E+03  0.11771726915E+04  0.10100000352E+00 0.  1.
</event>
<event>
 5   0  0.9508784E-07  0.2499619E+04  0.7818609E-02  0.8403121E-01
        2   -1    0    0  501    0  0.00000000000E+00  0.00000000000E+00  0.23229746414E+04  0.23229746414E+04  0.25500000920E-02 0. -1.
       -2   -1    0    0    0  501  0.00000000000E+00  0.00000000000E+00 -0.67242421017E+03  0.67242421017E+03  0.25500000920E-02 0.  1.
    10030    2    1    2    0    0  0.00000000000E+00  0.00000000000E+00  0.16505504312E+04  0.29953988515E+04  0.24996194818E+04 0.  0.
        2    1    3    3  502    0 -0.49522218016E+03 -0.30407493065E+03  0.21512273385E+04  0.22283369657E+04  0.25500000920E-02 0. -1.
       -2    1    3    3    0  502  0.49522218016E+03  0.30407493065E+03 -0.50067690726E+03  0.76706188579E+03  0.25500000920E-02 0.  1.
</event>
<event>
 5   0  0.9251138E-07  0.2497524E+04  0.7818609E-02  0.8403868E-01
       -2   -1    0    0    0  501  0.00000000000E+00  0.00000000000E+00  0.16679426962E+04  0.16679426962E+04  0.25500000920E-02 0.  1.
        2   -1    0    0  501    0  0.00000000000E+00  0.00000000000E+00 -0.93492781258E+03  0.93492781258E+03  0.25500000920E-02 0. -1.
    10030    2    1    2    0    0  0.00000000000E+00  0.00000000000E+00  0.73301488360E+03  0.26028705088E+04  0.24975235866E+04 0.  0.
        5    1    3    3  502    0  0.75197732462E+03 -0.49851706061E+03  0.12662870262E+04  0.15548292765E+04  0.46999998093E+01 0.  1.
       -5    1    3    3    0  502 -0.75197732462E+03  0.49851706061E+03 -0.53327214257E+03  0.10480412322E+04  0.46999998093E+01 0. -1.
</event>
<event>
 5   0  0.8997210E-07  0.2500986E+04  0.7818609E-02  0.8402634E-01
       -2   -1    0    0    0  501  0.00000000000E+00  0.00000000000E+00  0.13549438814E+04  0.13549438814E+04  0.25500000920E-02 0.  1.
        2   -1    0    0  501    0  0.00000000000E+00  0.00000000000E+00 -0.11540939022E+04  0.11540939022E+04  0.25500000920E-02 0. -1.
    10030    2    1    2    0    0  0.00000000000E+00  0.00000000000E+00  0.20084997922E+03  0.25090377836E+04  0.25009857828E+04 0.  0.
        1    1    3    3  502    0  0.10021452177E+04 -0.72649281923E+03  0.27888987062E+03  0.12688051126E+04  0.50400001928E-02 0.  1.
       -1    1    3    3    0  502 -0.10021452177E+04  0.72649281923E+03 -0.78039891391E+02  0.12402326711E+04  0.50400001928E-02 0. -1.
</event>
<event>
 5   0  0.9261602E-07  0.2496587E+04  0.7818609E-02  0.8404203E-01
       -2   -1    0    0    0  501  0.00000000000E+00  0.00000000000E+00  0.10458458822E+04  0.10458458822E+04  0.25500000920E-02 0. -1.
        2   -1    0    0  501    0  0.00000000000E+00  0.00000000000E+00 -0.14899292926E+04  0.14899292926E+04  0.25500000920E-02 0.  1.
    10030    2    1    2    0    0  0.00000000000E+00  0.00000000000E+00 -0.44408341038E+03  0.25357751748E+04  0.24965868024E+04 0.  0.
        4    1    3    3  502    0  0.65042665311E+03  0.14138978897E+03  0.85055953366E+03  0.10800458493E+04  0.12699999809E+01 0. -1.
       -4    1    3    3    0  502 -0.65042665311E+03 -0.14138978897E+03 -0.12946429440E+04  0.14557293254E+04  0.12699999809E+01 0.  1.
</event>
<event>
 5   0  0.9251138E-07  0.2500251E+04  0.7818609E-02  0.8402896E-01
       -2   -1    0    0    0  501  0.00000000000E+00  0.00000000000E+00  0.12292171920E+04  0.12292171920E+04  0.25500000920E-02 0. -1.
        2   -1    0    0  501    0  0.00000000000E+00  0.00000000000E+00 -0.12713892328E+04  0.12713892328E+04  0.25500000920E-02 0.  1.
    10030    2    1    2    0    0  0.00000000000E+00  0.00000000000E+00 -0.42172040779E+02  0.25006064249E+04  0.25002507896E+04 0.  0.
        5    1    3    3  502    0 -0.66788636773E+03 -0.87509427377E+03 -0.61356307810E+03  0.12602951753E+04  0.46999998093E+01 0.  1.
       -5    1    3    3    0  502  0.66788636773E+03  0.87509427377E+03  0.57139103732E+03  0.12403112495E+04  0.46999998093E+01 0. -1.
</event>
<event>
 5   0  0.9768582E-07  0.2501939E+04  0.7818609E-02  0.8402295E-01
       -2   -1    0    0    0  501  0.00000000000E+00  0.00000000000E+00  0.10384975563E+04  0.10384975563E+04  0.25500000920E-02 0. -1.
        2   -1    0    0  501    0  0.00000000000E+00  0.00000000000E+00 -0.15069123242E+04  0.15069123242E+04  0.25500000920E-02 0.  1.
    10030    2    1    2    0    0  0.00000000000E+00  0.00000000000E+00 -0.46841476785E+03  0.25454098805E+04  0.25019390610E+04 0.  0.
        3    1    3    3  502    0  0.96255598832E+03  0.10556012093E+03  0.57155593025E+03  0.11244257029E+04  0.10100000352E+00 0. -1.
       -3    1    3    3    0  502 -0.96255598832E+03 -0.10556012093E+03 -0.10399706981E+04  0.14209841776E+04  0.10100000352E+00 0.  1.
</event>
<event>
 5   0  0.3805418E-07  0.2499702E+04  0.7818609E-02  0.8403092E-01
       -1   -1    0    0    0  501  0.00000000000E+00  0.00000000000E+00  0.13500462837E+04  0.13500462837E+04  0.50400001928E-02 0. -1.
        1   -1    0    0  501    0  0.00000000000E+00  0.00000000000E+00 -0.11570914349E+04  0.11570914349E+04  0.50400001928E-02 0.  1.
    10030    2    1    2    0    0  0.00000000000E+00  0.00000000000E+00  0.19295484880E+03  0.25071377187E+04  0.24997015755E+04 0.  0.
        4    1    3    3  502    0  0.64988598466E+03 -0.53637595133E+03  0.10223021854E+04  0.13248223750E+04  0.12699999809E+01 0. -1.
       -4    1    3    3    0  502 -0.64988598466E+03  0.53637595133E+03 -0.82934733658E+03  0.11823153436E+04  0.12699999809E+01 0.  1.
</event>
<event>
 5   0  0.9251138E-07  0.2500737E+04  0.7818609E-02  0.8402723E-01
        2   -1    0    0  501    0  0.00000000000E+00  0.00000000000E+00  0.18828771000E+04  0.18828771000E+04  0.25500000920E-02 0.  1.
       -2   -1    0    0    0  501  0.00000000000E+00  0.00000000000E+00 -0.83033655686E+03  0.83033655686E+03  0.25500000920E-02 0. -1.
    10030    2    1    2    0    0  0.00000000000E+00  0.00000000000E+00  0.10525405431E+04  0.27132136568E+04  0.25007372418E+04 0.  0.
        5    1    3    3  502    0  0.12297118784E+04 -0.88541053657E+02  0.75221619759E+03  0.14442583287E+04  0.46999998093E+01 0.  1.
       -5    1    3    3    0  502 -0.12297118784E+04  0.88541053657E+02  0.30032434550E+03  0.12689553281E+04  0.46999998093E+01 0. -1.
</event>
<event>
 5   0  0.3837524E-07  0.2497900E+04  0.7818609E-02  0.8403734E-01
        1   -1    0    0  501    0  0.00000000000E+00  0.00000000000E+00  0.13004849051E+04  0.13004849051E+04  0.50400001928E-02 0.  1.
       -1   -1    0    0    0  501  0.00000000000E+00  0.00000000000E+00 -0.11994574468E+04  0.11994574468E+04  0.50400001928E-02 0. -1.
    10030    2    1    2    0    0  0.00000000000E+00  0.00000000000E+00  0.10102745829E+03  0.24999423518E+04  0.24979001612E+04 0.  0.
        5    1    3    3  502    0  0.10764945370E+04  0.47764191754E+03  0.46663235049E+03  0.12667873264E+04  0.46999998093E+01 0. -1.
       -5    1    3    3    0  502 -0.10764945370E+04 -0.47764191754E+03 -0.36560489220E+03  0.12331550255E+04  0.46999998093E+01 0.  1.
</event>
<event>
 5   0  0.3837524E-07  0.2498508E+04  0.7818609E-02  0.8403517E-01
        1   -1    0    0  501    0  0.00000000000E+00  0.00000000000E+00  0.17837709750E+04  0.17837709750E+04  0.50400001928E-02 0. -1.
       -1   -1    0    0    0  501  0.00000000000E+00  0.00000000000E+00 -0.87490783366E+03  0.87490783367E+03  0.50400001928E-02 0.  1.
    10030    2    1    2    0    0  0.00000000000E+00  0.00000000000E+00  0.90886314139E+03  0.26586788087E+04  0.24985077142E+04 0.  0.
        5    1    3    3  502    0  0.61539911276E+03 -0.38639352352E+03 -0.62687944415E+03  0.95969575935E+03  0.46999998093E+01 0.  1.
       -5    1    3    3    0  502 -0.61539911276E+03  0.38639352352E+03  0.15357425855E+04  0.16989830494E+04  0.46999998093E+01 0. -1.
</event>
<event>
 5   0  0.3837524E-07  0.2499722E+04  0.7818609E-02  0.8403085E-01
        1   -1    0    0  501    0  0.00000000000E+00  0.00000000000E+00  0.15091110436E+04  0.15091110436E+04  0.50400001928E-02 0.  1.
       -1   -1    0    0    0  501  0.00000000000E+00  0.00000000000E+00 -0.10351472930E+04  0.10351472930E+04  0.50400001928E-02 0. -1.
    10030    2    1    2    0    0  0.00000000000E+00  0.00000000000E+00  0.47396375061E+03  0.25442583367E+04  0.24997217539E+04 0.  0.
        5    1    3    3  502    0 -0.78488874759E+03  0.33984738413E+03  0.11645828458E+04  0.14449297164E+04  0.46999998093E+01 0.  1.
       -5    1    3    3    0  502  0.78488874759E+03 -0.33984738413E+03 -0.69061909523E+03  0.10993286202E+04  0.46999998093E+01 0. -1.
</event>
<event>
 5   0  0.3991066E-07  0.2499948E+04  0.7818609E-02  0.8403004E-01
        1   -1    0    0  501    0  0.00000000000E+00  0.00000000000E+00  0.25082853974E+04  0.25082853974E+04  0.50400001928E-02 0.  1.
       -1   -1    0    0    0  501  0.00000000000E+00  0.00000000000E+00 -0.62290971585E+03  0.62290971588E+03  0.50400001928E-02 0. -1.
    10030    2    1    2    0    0  0.00000000000E+00  0.00000000000E+00  0.18853756816E+04  0.31311951133E+04  0.24999482749E+04 0.  0.
        1    1    3    3  502    0  0.28289061279E+03 -0.62905333962E+02  0.24656271598E+04  0.24825997404E+04  0.50400001928E-02 0.  1.
       -1    1    3    3    0  502 -0.28289061279E+03  0.62905333962E+02 -0.58025147819E+03  0.64859537295E+03  0.50400001928E-02 0. -1.
</event>
<event>
 5   0  0.9768582E-07  0.2503526E+04  0.7818609E-02  0.8401731E-01
       -2   -1    0    0    0  501  0.00000000000E+00  0.00000000000E+00  0.16849893782E+04  0.16849893782E+04  0.25500000920E-02 0.  1.
        2   -1    0    0  501    0  0.00000000000E+00  0.00000000000E+00 -0.92992282662E+03  0.92992282662E+03  0.25500000920E-02 0. -1.
    10030    2    1    2    0    0  0.00000000000E+00  0.00000000000E+00  0.75506655156E+03  0.26149122048E+04  0.25035255824E+04 0.  0.
        3    1    3    3  502    0 -0.31192581741E+03  0.14053506775E+03  0.16352083400E+04  0.16706149006E+04  0.10100000352E+00 0.  1.
       -3    1    3    3    0  502  0.31192581741E+03 -0.14053506775E+03 -0.88014178840E+03  0.94429730420E+03  0.10100000352E+00 0. -1.
</event>
<event>
 5   0  0.9251138E-07  0.2500244E+04  0.7818609E-02  0.8402899E-01
        2   -1    0    0  501    0  0.00000000000E+00  0.00000000000E+00  0.10039621415E+04  0.10039621415E+04  0.25500000920E-02 0. -1.
       -2   -1    0    0    0  501  0.00000000000E+00  0.00000000000E+00 -0.15566372510E+04  0.15566372510E+04  0.25500000920E-02 0.  1.
    10030    2    1    2    0    0  0.00000000000E+00  0.00000000000E+00 -0.55267510948E+03  0.25605993924E+04  0.25002438825E+04 0.  0.
        5    1    3    3  502    0 -0.34834879075E+03 -0.11498918128E+04 -0.62990278442E+03  0.13566125715E+04  0.46999998093E+01 0. -1.
       -5    1    3    3    0  502  0.34834879075E+03  0.11498918128E+04  0.77227674943E+02  0.12039868210E+04  0.46999998093E+01 0.  1.
</event>
<event>
 5   0  0.3805418E-07  0.2495534E+04  0.7818609E-02  0.8404578E-01
       -1   -1    0    0    0  501  0.00000000000E+00  0.00000000000E+00  0.10770755782E+04  0.10770755783E+04  0.50400001928E-02 0. -1.
        1   -1    0    0  501    0  0.00000000000E+00  0.00000000000E+00 -0.14455092826E+04  0.14455092826E+04  0.50400001928E-02 0.  1.
    10030    2    1    2    0    0  0.00000000000E+00  0.00000000000E+00 -0.36843370436E+03  0.25225848609E+04  0.24955342085E+04 0.  0.
        4    1    3    3  502    0 -0.11013593004E+03  0.42347814189E+03 -0.13654111642E+04  0.14338106290E+04  0.12699999809E+01 0.  1.
       -4    1    3    3    0  502  0.11013593004E+03 -0.42347814189E+03  0.99697745979E+03  0.10887742319E+04  0.12699999809E+01 0. -1.
</event>
<event>
 5   0  0.9261602E-07  0.2500475E+04  0.7818609E-02  0.8402816E-01
        2   -1    0    0  501    0  0.00000000000E+00  0.00000000000E+00  0.12179563961E+04  0.12179563961E+04  0.25500000920E-02 0. -1.
       -2   -1    0    0    0  501  0.00000000000E+00  0.00000000000E+00 -0.12833742956E+04  0.12833742956E+04  0.25500000920E-02 0.  1.
    10030    2    1    2    0    0  0.00000000000E+00  0.00000000000E+00 -0.65417899460E+02  0.25013306917E+04  0.25004751004E+04 0.  0.
        4    1    3    3  502    0 -0.70912130741E+03 -0.60074279078E+01  0.99730506377E+03  0.12237271432E+04  0.12699999809E+01 0. -1.
       -4    1    3    3    0  502  0.70912130741E+03  0.60074279078E+01 -0.10627229632E+04  0.12776035486E+04  0.12699999809E+01 0.  1.
</event>
<event>
 5   0  0.9508784E-07  0.2500005E+04  0.7818609E-02  0.8402984E-01
       -2   -1    0    0    0  501  0.00000000000E+00  0.00000000000E+00  0.10349172281E+04  0.10349172281E+04  0.25500000920E-02 0.  1.
        2   -1    0    0  501    0  0.00000000000E+00  0.00000000000E+00 -0.15097890217E+04  0.15097890217E+04  0.25500000920E-02 0. -1.
    10030    2    1    2    0    0  0.00000000000E+00  0.00000000000E+00 -0.47487179359E+03  0.25447062498E+04  0.25000053355E+04 0.  0.
        2    1    3    3  502    0  0.32925309349E+03  0.24310809741E+03 -0.14396544864E+04  0.14967011014E+04  0.25500000920E-02 0. -1.
       -2    1    3    3    0  502 -0.32925309349E+03 -0.24310809741E+03  0.96478269285E+03  0.10480051484E+04  0.25500000920E-02 0.  1.
</event>
<event>
 5   0  0.3991066E-07  0.2499377E+04  0.7818609E-02  0.8403208E-01
       -1   -1    0    0    0  501  0.00000000000E+00  0.00000000000E+00  0.79449664160E+03  0.79449664162E+03  0.50400001928E-02 0. -1.
        1   -1    0    0  501    0  0.00000000000E+00  0.00000000000E+00 -0.19656732546E+04  0.19656732546E+04  0.50400001928E-02 0.  1.
    10030    2    1    2    0    0  0.00000000000E+00  0.00000000000E+00 -0.11711766130E+04  0.27601698962E+04  0.24993765617E+04 0.  0.
        1    1    3    3  502    0  0.11074208284E+04 -0.42777392743E+03 -0.10166351416E+04  0.15629838244E+04  0.50400001928E-02 0.  1.
       -1    1    3    3    0  502 -0.11074208284E+04  0.42777392743E+03 -0.15454147140E+03  0.11971860718E+04  0.50400001928E-02 0. -1.
</event>
<event>
 5   0  0.9251138E-07  0.2499569E+04  0.7818609E-02  0.8403139E-01
        2   -1    0    0  501    0  0.00000000000E+00  0.00000000000E+00  0.10504152865E+04  0.10504152865E+04  0.25500000920E-02 0.  1.
       -2   -1    0    0    0  501  0.00000000000E+00  0.00000000000E+00 -0.14869936218E+04  0.14869936218E+04  0.25500000920E-02 0. -1.
    10030    2    1    2    0    0  0.00000000000E+00  0.00000000000E+00 -0.43657833535E+03  0.25374089083E+04  0.24995686278E+04 0.  0.
        5    1    3    3  502    0 -0.89863485418E+02  0.55255585864E+03  0.91600983526E+03  0.10735406519E+04  0.46999998093E+01 0.  1.
       -5    1    3    3    0  502  0.89863485418E+02 -0.55255585864E+03 -0.13525881706E+04  0.14638682564E+04  0.46999998093E+01 0. -1.
</event>
<event>
 5   0  0.3972587E-07  0.2499711E+04  0.7818609E-02  0.8403089E-01
        1   -1    0    0  501    0  0.00000000000E+00  0.00000000000E+00  0.13295258493E+04  0.13295258493E+04  0.50400001928E-02 0. -1.
       -1   -1    0    0    0  501  0.00000000000E+00  0.00000000000E+00 -0.11749591884E+04  0.11749591884E+04  0.50400001928E-02 0.  1.
    10030    2    1    2    0    0  0.00000000000E+00  0.00000000000E+00  0.15456666090E+03  0.25044850377E+04  0.24997108735E+04 0.  0.
        3    1    3    3  502    0  0.29705537565E+03 -0.40225782431E+03 -0.10703673148E+04  0.11814141747E+04  0.10100000352E+00 0.  1.
       -3    1    3    3    0  502 -0.29705537565E+03  0.40225782431E+03  0.12249339757E+04  0.13230708630E+04  0.10100000352E+00 0. -1.
</event>
<event>
 5   0  0.9261602E-07  0.2500335E+04  0.7818609E-02  0.8402866E-01
        2   -1    0    0  501    0  0.00000000000E+00  0.00000000000E+00  0.12106866059E+04  0.12106866059E+04  0.25500000920E-02 0. -1.
       -2   -1    0    0    0  501  0.00000000000E+00  0.00000000000E+00 -0.12909362635E+04  0.12909362635E+04  0.25500000920E-02 0.  1.
    10030    2    1    2    0    0  0.00000000000E+00  0.00000000000E+00 -0.80249657666E+02  0.25016228694E+04  0.25003353721E+04 0.  0.
        4    1    3    3  502    0  0.10826982112E+04 -0.87416839634E+02  0.57909652856E+03  0.12309474086E+04  0.12699999809E+01 0. -1.
       -4    1    3    3    0  502 -0.10826982112E+04  0.87416839634E+02 -0.65934618623E+03  0.12706754608E+04  0.12699999809E+01 0.  1.
</event>
<event>
 5   0  0.9251138E-07  0.2507217E+04  0.7818609E-02  0.8400419E-01
        2   -1    0    0  501    0  0.00000000000E+00  0.00000000000E+00  0.26677517466E+04  0.26677517466E+04  0.25500000920E-02 0.  1.
       -2   -1    0    0    0  501  0.00000000000E+00  0.00000000000E+00 -0.58908562671E+03  0.58908562672E+03  0.25500000920E-02 0. -1.
    10030    2    1    2    0    0  0.00000000000E+00  0.00000000000E+00  0.20786661199E+04  0.32568373733E+04  0.25072169508E+04 0.  0.
        5    1    3    3  502    0 -0.49697312506E+03 -0.77548970416E+03  0.21439635264E+04  0.23334455770E+04  0.46999998093E+01 0.  1.
       -5    1    3    3    0  502  0.49697312506E+03  0.77548970416E+03 -0.65297406475E+02  0.92339179635E+03  0.46999998093E+01 0. -1.
</event>
<event>
 5   0  0.3991066E-07  0.2500632E+04  0.7818609E-02  0.8402760E-01
       -1   -1    0    0    0  501  0.00000000000E+00  0.00000000000E+00  0.11163605663E+04  0.11163605663E+04  0.50400001928E-02 0.  1.
        1   -1    0    0  501    0  0.00000000000E+00  0.00000000000E+00 -0.14003449145E+04  0.14003449145E+04  0.50400001928E-02 0. -1.
    10030    2    1    2    0    0  0.00000000000E+00  0.00000000000E+00 -0.28398434824E+03  0.25167054808E+04  0.25006317936E+04 0.  0.
        1    1    3    3  502    0  0.25325513530E+03  0.88029017952E+02 -0.13710719991E+04  0.13970417669E+04  0.50400001928E-02 0. -1.
       -1    1    3    3    0  502 -0.25325513530E+03 -0.88029017952E+02  0.10870876509E+04  0.11196637139E+04  0.50400001928E-02 0.  1.
</event>
<event>
 5   0  0.3991066E-07  0.2499221E+04  0.7818609E-02  0.8403263E-01
       -1   -1    0    0    0  501  0.00000000000E+00  0.00000000000E+00  0.10042071051E+04  0.10042071051E+04  0.50400001928E-02 0. -1.
        1   -1    0    0  501    0  0.00000000000E+00  0.00000000000E+00 -0.15549848907E+04  0.15549848907E+04  0.50400001928E-02 0.  1.
    10030    2    1    2    0    0  0.00000000000E+00  0.00000000000E+00 -0.55077778560E+03  0.25591919959E+04  0.24992213793E+04 0.  0.
        1    1    3    3  502    0  0.21368015059E+02  0.10368002350E+04 -0.98933906232E+03  0.14332491408E+04  0.50400001928E-02 0.  1.
       -1    1    3    3    0  502 -0.21368015059E+02 -0.10368002350E+04  0.43856127672E+03  0.11259428550E+04  0.50400001928E-02 0. -1.
</event>
<event>
 5   0  0.3972587E-07  0.2499433E+04  0.7818609E-02  0.8403187E-01
       -1   -1    0    0    0  501  0.00000000000E+00  0.00000000000E+00  0.13049099519E+04  0.13049099519E+04  0.50400001928E-02 0.  1.
        1   -1    0    0  501    0  0.00000000000E+00  0.00000000000E+00 -0.11968577325E+04  0.11968577326E+04  0.50400001928E-02 0. -1.
    10030    2    1    2    0    0  0.00000000000E+00  0.00000000000E+00  0.10805221933E+03  0.25017676844E+04  0.24994331887E+04 0.  0.
        3    1    3    3  502    0  0.11575427120E+04  0.54798227026E+02 -0.41426082163E+03  0.12306583662E+04  0.10100000352E+00 0. -1.
       -3    1    3    3    0  502 -0.11575427120E+04 -0.54798227026E+02  0.52231304096E+03  0.12711093182E+04  0.10100000352E+00 0.  1.
</event>
<event>
 5   0  0.9261602E-07  0.2498629E+04  0.7818609E-02  0.8403474E-01
        2   -1    0    0  501    0  0.00000000000E+00  0.00000000000E+00  0.20763235168E+04  0.20763235168E+04  0.25500000920E-02 0. -1.
       -2   -1    0    0    0  501  0.00000000000E+00  0.00000000000E+00 -0.75170676072E+03  0.75170676073E+03  0.25500000920E-02 0.  1.
    10030    2    1    2    0    0  0.00000000000E+00  0.00000000000E+00  0.13246167561E+04  0.28280302775E+04  0.24986287640E+04 0.  0.
        4    1    3    3  502    0 -0.30581835669E+03  0.83303263008E+03 -0.33300761148E+03  0.94782061186E+03  0.12699999809E+01 0.  1.
       -4    1    3    3    0  502  0.30581835669E+03 -0.83303263008E+03  0.16576243676E+04  0.18802096657E+04  0.12699999809E+01 0. -1.
</event>
<event>
 5   0  0.8997210E-07  0.2501076E+04  0.7818609E-02  0.8402602E-01
       -2   -1    0    0    0  501  0.00000000000E+00  0.00000000000E+00  0.95850948911E+03  0.95850948911E+03  0.25500000920E-02 0. -1.
        2   -1    0    0  501    0  0.00000000000E+00  0.00000000000E+00 -0.16315380290E+04  0.16315380290E+04  0.25500000920E-02 0.  1.
    10030    2    1    2    0    0  0.00000000000E+00  0.00000000000E+00 -0.67302853988E+03  0.25900475181E+04  0.25010755148E+04 0.  0.
        1    1    3    3  502    0  0.11866908528E+04  0.27386325373E+03 -0.42498155641E+02  0.12186231391E+04  0.50400001928E-02 0. -1.
       -1    1    3    3    0  502 -0.11866908528E+04 -0.27386325373E+03 -0.63053038423E+03  0.13714243790E+04  0.50400001928E-02 0.  1.
</event>
<event>
 5   0  0.3214375E-07  0.2500043E+04  0.7818609E-02  0.8402970E-01
        4   -1    0    0  501    0  0.00000000000E+00  0.00000000000E+00  0.97541875262E+03  0.97541957939E+03  0.12699999809E+01 0. -1.
       -4   -1    0    0    0  501  0.00000000000E+00  0.00000000000E+00 -0.16019293442E+04  0.16019298476E+04  0.12699999809E+01 0.  1.
    10030    2    1    2    0    0  0.00000000000E+00  0.00000000000E+00 -0.62651059157E+03  0.25773494270E+04  0.25000429091E+04 0.  0.
        2    1    3    3  502    0 -0.55908623097E+02 -0.27235812765E+03  0.94313756928E+03  0.98326659581E+03  0.25500000920E-02 0. -1.
       -2    1    3    3    0  502  0.55908623097E+02  0.27235812765E+03 -0.15696481609E+04  0.15940828312E+04  0.25500000920E-02 0.  1.
</event>
<event>
 5   0  0.3873231E-07  0.2498548E+04  0.7818609E-02  0.8403503E-01
        1   -1    0    0  501    0  0.00000000000E+00  0.00000000000E+00  0.15419562143E+04  0.15419562143E+04  0.50400001928E-02 0.  1.
       -1   -1    0    0    0  501  0.00000000000E+00  0.00000000000E+00 -0.10121464656E+04  0.10121464656E+04  0.50400001928E-02 0. -1.
    10030    2    1    2    0    0  0.00000000000E+00  0.00000000000E+00  0.52980974870E+03  0.25541026800E+04  0.24985480044E+04 0.  0.
        2    1    3    3  502    0  0.23456231365E+03  0.18153301914E+03  0.15054413562E+04  0.15343817625E+04  0.25500000920E-02 0.  1.
       -2    1    3    3    0  502 -0.23456231365E+03 -0.18153301914E+03 -0.97563160751E+03  0.10197209175E+04  0.25500000920E-02 0. -1.
</event>
<event>
 5   0  0.3837524E-07  0.2501131E+04  0.7818609E-02  0.8402583E-01
        1   -1    0    0  501    0  0.00000000000E+00  0.00000000000E+00  0.17431883760E+04  0.17431883760E+04  0.50400001928E-02 0. -1.
       -1   -1    0    0    0  501  0.00000000000E+00  0.00000000000E+00 -0.89715735263E+03  0.89715735265E+03  0.50400001928E-02 0.  1.
    10030    2    1    2    0    0  0.00000000000E+00  0.00000000000E+00  0.84603102336E+03  0.26403457286E+04  0.25011311590E+04 0.  0.
        5    1    3    3  502    0 -0.55829540494E+03 -0.11600345203E+03  0.15979528224E+04  0.16966513704E+04  0.46999998093E+01 0. -1.
       -5    1    3    3    0  502  0.55829540494E+03  0.11600345203E+03 -0.75192179900E+03  0.94369435829E+03  0.46999998093E+01 0.  1.
</event>
<event>
 5   0  0.9261602E-07  0.2500810E+04  0.7818609E-02  0.8402697E-01
       -2   -1    0    0    0  501  0.00000000000E+00  0.00000000000E+00  0.11744011658E+04  0.11744011658E+04  0.25500000920E-02 0.  1.
        2   -1    0    0  501    0  0.00000000000E+00  0.00000000000E+00 -0.13313272915E+04  0.13313272915E+04  0.25500000920E-02 0. -1.
    10030    2    1    2    0    0  0.00000000000E+00  0.00000000000E+00 -0.15692612574E+03  0.25057284573E+04  0.25008097274E+04 0.  0.
        4    1    3    3  502    0  0.64658433530E+03  0.78334534184E+03  0.65222395940E+03  0.12071035305E+04  0.12699999809E+01 0.  1.
       -4    1    3    3    0  502 -0.64658433530E+03 -0.78334534184E+03 -0.80915008514E+03  0.12986249268E+04  0.12699999809E+01 0. -1.
</event>
<event>
 5   0  0.3972587E-07  0.2498369E+04  0.7818609E-02  0.8403567E-01
        1   -1    0    0  501    0  0.00000000000E+00  0.00000000000E+00  0.93615763776E+03  0.93615763778E+03  0.50400001928E-02 0. -1.
       -1   -1    0    0    0  501  0.00000000000E+00  0.00000000000E+00 -0.16668791564E+04  0.16668791564E+04  0.50400001928E-02 0.  1.
    10030    2    1    2    0    0  0.00000000000E+00  0.00000000000E+00 -0.73072151867E+03  0.26030367942E+04  0.24983687907E+04 0.  0.
        3    1    3    3  502    0 -0.10785291493E+04  0.62137702823E+03 -0.47526510799E+03  0.13323706205E+04  0.10100000352E+00 0. -1.
       -3    1    3    3    0  502  0.10785291493E+04 -0.62137702823E+03 -0.25545641068E+03  0.12706661738E+04  0.10100000352E+00 0.  1.
</event>
<event>
 5   0  0.9261602E-07  0.2500944E+04  0.7818609E-02  0.8402649E-01
        2   -1    0    0  501    0  0.00000000000E+00  0.00000000000E+00  0.16529890228E+04  0.16529890228E+04  0.25500000920E-02 0. -1.
       -2   -1    0    0    0  501  0.00000000000E+00  0.00000000000E+00 -0.94597113611E+03  0.94597113612E+03  0.25500000920E-02 0.  1.
    10030    2    1    2    0    0  0.00000000000E+00  0.00000000000E+00  0.70701788669E+03  0.25989601589E+04  0.25009437450E+04 0.  0.
        4    1    3    3  502    0  0.75391522180E+03  0.90540604889E+03  0.78889187073E+03  0.14179211091E+04  0.12699999809E+01 0.  1.
       -4    1    3    3    0  502 -0.75391522180E+03 -0.90540604889E+03 -0.81873984040E+02  0.11810390498E+04  0.12699999809E+01 0. -1.
</event>
<event>
 5   0  0.3972587E-07  0.2500489E+04  0.7818609E-02  0.8402811E-01
        1   -1    0    0  501    0  0.00000000000E+00  0.00000000000E+00  0.11543446393E+04  0.11543446393E+04  0.50400001928E-02 0.  1.
       -1   -1    0    0    0  501  0.00000000000E+00  0.00000000000E+00 -0.13541112596E+04  0.13541112596E+04  0.50400001928E-02 0. -1.
    10030    2    1    2    0    0  0.00000000000E+00  0.00000000000E+00 -0.19976662026E+03  0.25084558989E+04  0.25004888110E+04 0.  0.
        3    1    3    3  502    0  0.89238743345E+03  0.56212632780E+03 -0.77341637962E+03  0.13078662952E+04  0.10100000352E+00 0. -1.
       -3    1    3    3    0  502 -0.89238743345E+03 -0.56212632780E+03  0.57364975936E+03  0.12005896036E+04  0.10100000352E+00 0.  1.
</event>
<event>
 5   0  0.3991066E-07  0.2499647E+04  0.7818609E-02  0.8403111E-01
       -1   -1    0    0    0  501  0.00000000000E+00  0.00000000000E+00  0.17359228604E+04  0.17359228604E+04  0.50400001928E-02 0. -1.
        1   -1    0    0  501    0  0.00000000000E+00  0.00000000000E+00 -0.89984327286E+03  0.89984327287E+03  0.50400001928E-02 0.  1.
    10030    2    1    2    0    0  0.00000000000E+00  0.00000000000E+00  0.83607958751E+03  0.26357661332E+04  0.24996467815E+04 0.  0.
        1    1    3    3  502    0 -0.12326715335E+04  0.70259953776E+02  0.62262300128E+03  0.13827779909E+04  0.50400001928E-02 0. -1.
       -1    1    3    3    0  502  0.12326715335E+04 -0.70259953776E+02  0.21345658623E+03  0.12529881423E+04  0.50400001928E-02 0.  1.
</event>
<event>
 5   0  0.9261602E-07  0.2499694E+04  0.7818609E-02  0.8403094E-01
        2   -1    0    0  501    0  0.00000000000E+00  0.00000000000E+00  0.23667589045E+04  0.23667589045E+04  0.25500000920E-02 0.  1.
       -2   -1    0    0    0  501  0.00000000000E+00  0.00000000000E+00 -0.66002405181E+03  0.66002405182E+03  0.25500000920E-02 0. -1.
    10030    2    1    2    0    0  0.00000000000E+00  0.00000000000E+00  0.17067348526E+04  0.30267829563E+04  0.24996942227E+04 0.  0.
        4    1    3    3  502    0  0.51338529116E+03 -0.51274040052E+03  0.20856227163E+04  0.22082325292E+04  0.12699999809E+01 0.  1.
       -4    1    3    3    0  502 -0.51338529116E+03  0.51274040052E+03 -0.37888786364E+03  0.81855042705E+03  0.12699999809E+01 0. -1.
</event>
<event>
 5   0  0.8997210E-07  0.2495345E+04  0.7818609E-02  0.8404646E-01
        2   -1    0    0  501    0  0.00000000000E+00  0.00000000000E+00  0.20229809696E+04  0.20229809696E+04  0.25500000920E-02 0. -1.
       -2   -1    0    0    0  501  0.00000000000E+00  0.00000000000E+00 -0.76950134436E+03  0.76950134436E+03  0.25500000920E-02 0.  1.
    10030    2    1    2    0    0  0.00000000000E+00  0.00000000000E+00  0.12534796253E+04  0.27924823140E+04  0.24953449267E+04 0.  0.
        1    1    3    3  502    0 -0.42508822004E+03 -0.22530752100E+03 -0.66152262617E+03  0.81797045105E+03  0.50400001928E-02 0.  1.
       -1    1    3    3    0  502  0.42508822004E+03  0.22530752100E+03  0.19150022514E+04  0.19745118629E+04  0.50400001928E-02 0. -1.
</event>
<event>
 5   0  0.9261602E-07  0.2498517E+04  0.7818609E-02  0.8403514E-01
       -2   -1    0    0    0  501  0.00000000000E+00  0.00000000000E+00  0.14847554525E+04  0.14847554525E+04  0.25500000920E-02 0.  1.
        2   -1    0    0  501    0  0.00000000000E+00  0.00000000000E+00 -0.10511137110E+04  0.10511137110E+04  0.25500000920E-02 0. -1.
    10030    2    1    2    0    0  0.00000000000E+00  0.00000000000E+00  0.43364174148E+03  0.25358691636E+04  0.24985170111E+04 0.  0.
        4    1    3    3  502    0  0.12271612338E+04 -0.26904029123E+02  0.45266662500E+03  0.13082649604E+04  0.12699999809E+01 0.  1.
       -4    1    3    3    0  502 -0.12271612338E+04  0.26904029123E+02 -0.19024883517E+02  0.12276042031E+04  0.12699999809E+01 0. -1.
</event>
<event>
 5   0  0.9261602E-07  0.2501794E+04  0.7818609E-02  0.8402347E-01
        2   -1    0    0  501    0  0.00000000000E+00  0.00000000000E+00  0.21274037489E+04  0.21274037489E+04  0.25500000920E-02 0.  1.
       -2   -1    0    0    0  501  0.00000000000E+00  0.00000000000E+00 -0.73551763336E+03  0.73551763336E+03  0.25500000920E-02 0. -1.
    10030    2    1    2    0    0  0.00000000000E+00  0.00000000000E+00  0.13918861156E+04  0.28629213823E+04  0.25017937330E+04 0.  0.
        4    1    3    3  502    0 -0.50550692920E+03 -0.46895363987E+03 -0.49839975284E+03  0.85079885893E+03  0.12699999809E+01 0. -1.
       -4    1    3    3    0  502  0.50550692920E+03  0.46895363987E+03  0.18902858684E+04  0.20121225234E+04  0.12699999809E+01 0.  1.
</event>
<event>
 5   0  0.3991066E-07  0.2499431E+04  0.7818609E-02  0.8403188E-01
       -1   -1    0    0    0  501  0.00000000000E+00  0.00000000000E+00  0.18883049647E+04  0.18883049647E+04  0.50400001928E-02 0.  1.
        1   -1    0    0  501    0  0.00000000000E+00  0.00000000000E+00 -0.82708496192E+03  0.82708496193E+03  0.50400001928E-02 0. -1.
    10030    2    1    2    0    0  0.00000000000E+00  0.00000000000E+00  0.10612200028E+04  0.27153899267E+04  0.24994308471E+04 0.  0.
        1    1    3    3  502    0  0.10653459793E+04  0.45476386977E+03  0.21022683527E+02  0.11585396783E+04  0.50400001928E-02 0. -1.
       -1    1    3    3    0  502 -0.10653459793E+04 -0.45476386977E+03  0.10401973193E+04  0.15568502484E+04  0.50400001928E-02 0.  1.
</event>
<event>
 5   0  0.3972587E-07  0.2500009E+04  0.7818609E-02  0.8402982E-01
       -1   -1    0    0    0  501  0.00000000000E+00  0.00000000000E+00  0.63781343424E+03  0.63781343426E+03  0.50400001928E-02 0. -1.
        1   -1    0    0  501    0  0.00000000000E+00  0.00000000000E+00 -0.24497938878E+04  0.24497938878E+04  0.50400001928E-02 0.  1.
    10030    2    1    2    0    0  0.00000000000E+00  0.00000000000E+00 -0.18119804535E+04  0.30876073220E+04  0.25000091622E+04 0.  0.
        3    1    3    3  502    0  0.98647533540E+03 -0.42439875678E+03 -0.16960901064E+04  0.20074784062E+04  0.10100000352E+00 0.  1.
       -3    1    3    3    0  502 -0.98647533540E+03  0.42439875678E+03 -0.11589034716E+03  0.10801289159E+04  0.10100000352E+00 0. -1.
</event>
<event>
 5   0  0.9508784E-07  0.2499855E+04  0.7818609E-02  0.8403037E-01
       -2   -1    0    0    0  501  0.00000000000E+00  0.00000000000E+00  0.12654623100E+04  0.12654623100E+04  0.25500000920E-02 0.  1.
        2   -1    0    0  501    0  0.00000000000E+00  0.00000000000E+00 -0.12345830001E+04  0.12345830001E+04  0.25500000920E-02 0. -1.
    10030    2    1    2    0    0  0.00000000000E+00  0.00000000000E+00  0.30879309848E+02  0.25000453101E+04  0.24998545999E+04 0.  0.
        2    1    3    3  502    0  0.20633924262E+03 -0.12320152497E+04  0.58811114931E+02  0.12505583576E+04  0.25500000920E-02 0. -1.
       -2    1    3    3    0  502 -0.20633924262E+03  0.12320152497E+04 -0.27931805083E+02  0.12494869524E+04  0.25500000920E-02 0.  1.
</event>
<event>
 5   0  0.3873231E-07  0.2499976E+04  0.7818609E-02  0.8402994E-01
       -1   -1    0    0    0  501  0.00000000000E+00  0.00000000000E+00  0.15079213894E+04  0.15079213894E+04  0.50400001928E-02 0.  1.
        1   -1    0    0  501    0  0.00000000000E+00  0.00000000000E+00 -0.10361744011E+04  0.10361744011E+04  0.50400001928E-02 0. -1.
    10030    2    1    2    0    0  0.00000000000E+00  0.00000000000E+00  0.47174698829E+03  0.25440957906E+04  0.24999756340E+04 0.  0.
        2    1    3    3  502    0  0.34550707339E+03  0.11815319929E+04  0.15073011403E+02  0.12311052692E+04  0.25500000920E-02 0. -1.
       -2    1    3    3    0  502 -0.34550707339E+03 -0.11815319929E+04  0.45667397689E+03  0.13129905214E+04  0.25500000920E-02 0.  1.
</event>
<event>
 5   0  0.3805418E-07  0.2500011E+04  0.7818609E-02  0.8402982E-01
       -1   -1    0    0    0  501  0.00000000000E+00  0.00000000000E+00  0.12689849587E+04  0.12689849587E+04  0.50400001928E-02 0. -1.
        1   -1    0    0  501    0  0.00000000000E+00  0.00000000000E+00 -0.12313094232E+04  0.12313094232E+04  0.50400001928E-02 0.  1.
    10030    2    1    2    0    0  0.00000000000E+00  0.00000000000E+00  0.37675535535E+02  0.25002943819E+04  0.25000105100E+04 0.  0.
        4    1    3    3  502    0 -0.12061226151E+04  0.10424550683E+03 -0.29250552516E+03  0.12454557333E+04  0.12699999809E+01 0.  1.
       -4    1    3    3    0  502  0.12061226151E+04 -0.10424550683E+03  0.33018106070E+03  0.12548386487E+04  0.12699999809E+01 0. -1.
</event>
<event>
 5   0  0.3805418E-07  0.2499689E+04  0.7818609E-02  0.8403096E-01
        1   -1    0    0  501    0  0.00000000000E+00  0.00000000000E+00  0.11965575255E+04  0.11965575255E+04  0.50400001928E-02 0.  1.
       -1   -1    0    0    0  501  0.00000000000E+00  0.00000000000E+00 -0.13055046555E+04  0.13055046555E+04  0.50400001928E-02 0. -1.
    10030    2    1    2    0    0  0.00000000000E+00  0.00000000000E+00 -0.10894713004E+03  0.25020621810E+04  0.24996891168E+04 0.  0.
        4    1    3    3  502    0 -0.97642439753E+03 -0.70194716079E+03 -0.39534845723E+03  0.12658737837E+04  0.12699999809E+01 0. -1.
       -4    1    3    3    0  502  0.97642439753E+03  0.70194716079E+03  0.28640132719E+03  0.12361883974E+04  0.12699999809E+01 0.  1.
</event>
<event>
 5   0  0.9508784E-07  0.2497696E+04  0.7818609E-02  0.8403807E-01
        2   -1    0    0  501    0  0.00000000000E+00  0.00000000000E+00  0.19989488106E+04  0.19989488106E+04  0.25500000920E-02 0. -1.
       -2   -1    0    0    0  501  0.00000000000E+00  0.00000000000E+00 -0.78022059668E+03  0.78022059668E+03  0.25500000920E-02 0.  1.
    10030    2    1    2    0    0  0.00000000000E+00  0.00000000000E+00  0.12187282139E+04  0.27791694072E+04  0.24976957651E+04 0.  0.
        2    1    3    3  502    0  0.49157731837E+03 -0.96031237190E+03  0.13093648834E+04  0.16965507683E+04  0.25500000920E-02 0. -1.
       -2    1    3    3    0  502 -0.49157731837E+03  0.96031237190E+03 -0.90636669480E+02  0.10826186390E+04  0.25500000920E-02 0.  1.
</event>
<event>
 5   0  0.3991066E-07  0.2499849E+04  0.7818609E-02  0.8403039E-01
       -1   -1    0    0    0  501  0.00000000000E+00  0.00000000000E+00  0.74494746653E+03  0.74494746655E+03  0.50400001928E-02 0.  1.
        1   -1    0    0  501    0  0.00000000000E+00  0.00000000000E+00 -0.20972097118E+04  0.20972097118E+04  0.50400001928E-02 0. -1.
    10030    2    1    2    0    0  0.00000000000E+00  0.00000000000E+00 -0.13522622453E+04  0.28421571783E+04  0.24998488447E+04 0.  0.
        1    1    3    3  502    0 -0.91280597251E+02 -0.11752925923E+04 -0.20370048529E+03  0.11963020992E+04  0.50400001928E-02 0.  1.
       -1    1    3    3    0  502  0.91280597251E+02  0.11752925923E+04 -0.11485617600E+04  0.16458550791E+04  0.50400001928E-02 0. -1.
</event>
<event>
 5   0  0.9508784E-07  0.2500030E+04  0.7818609E-02  0.8402975E-01
        2   -1    0    0  501    0  0.00000000000E+00  0.00000000000E+00  0.19433233996E+04  0.19433233996E+04  0.25500000920E-02 0.  1.
       -2   -1    0    0    0  501  0.00000000000E+00  0.00000000000E+00 -0.80405420871E+03  0.80405420872E+03  0.25500000920E-02 0. -1.
    10030    2    1    2    0    0  0.00000000000E+00  0.00000000000E+00  0.11392691909E+04  0.27473776083E+04  0.25000298865E+04 0.  0.
        2    1    3    3  502    0  0.60924989929E+02  0.57164194160E+03 -0.65016222140E+03  0.86786938991E+03  0.25500000920E-02 0. -1.
       -2    1    3    3    0  502 -0.60924989929E+02 -0.57164194160E+03  0.17894314123E+04  0.18795082184E+04  0.25500000920E-02 0.  1.
</event>
<event>
 5   0  0.9508784E-07  0.2500365E+04  0.7818609E-02  0.8402855E-01
       -2   -1    0    0    0  501  0.00000000000E+00  0.00000000000E+00  0.88753636633E+03  0.88753636634E+03  0.25500000920E-02 0.  1.
        2   -1    0    0  501    0  0.00000000000E+00  0.00000000000E+00 -0.17610058648E+04  0.17610058648E+04  0.25500000920E-02 0. -1.
    10030    2    1    2    0    0  0.00000000000E+00  0.00000000000E+00 -0.87346949849E+03  0.26485422312E+04  0.25003653704E+04 0.  0.
        2    1    3    3  502    0 -0.31364330305E+03  0.99010399349E+03 -0.11738766767E+04  0.15673750322E+04  0.25500000920E-02 0. -1.
       -2    1    3    3    0  502  0.31364330305E+03 -0.99010399349E+03  0.30040717817E+03  0.10811671990E+04  0.25500000920E-02 0.  1.
</event>
<event>
 5   0  0.9508784E-07  0.2499950E+04  0.7818609E-02  0.8403003E-01
       -2   -1    0    0    0  501  0.00000000000E+00  0.00000000000E+00  0.18649429616E+04  0.18649429616E+04  0.25500000920E-02 0.  1.
        2   -1    0    0  501    0  0.00000000000E+00  0.00000000000E+00 -0.83779369955E+03  0.83779369955E+03  0.25500000920E-02 0. -1.
    10030    2    1    2    0    0  0.00000000000E+00  0.00000000000E+00  0.10271492621E+04  0.27027366612E+04  0.24999499701E+04 0.  0.
        2    1    3    3  502    0 -0.10865056650E+04  0.22874663411E+03  0.11342689871E+04  0.15872572941E+04  0.25500000920E-02 0.  1.
       -2    1    3    3    0  502  0.10865056650E+04 -0.22874663411E+03 -0.10711972501E+03  0.11154793670E+04  0.25500000920E-02 0. -1.
</event>
<event>
 5   0  0.8997210E-07  0.2498507E+04  0.7818609E-02  0.8403517E-01
       -2   -1    0    0    0  501  0.00000000000E+00  0.00000000000E+00  0.13624843921E+04  0.13624843921E+04  0.25500000920E-02 0. -1.
        2   -1    0    0  501    0  0.00000000000E+00  0.00000000000E+00 -0.11454331975E+04  0.11454331975E+04  0.25500000920E-02 0.  1.
    10030    2    1    2    0    0  0.00000000000E+00  0.00000000000E+00  0.21705119455E+03  0.25079175896E+04  0.24985074375E+04 0.  0.
        1    1    3    3  502    0  0.56114211574E+01 -0.70243182657E+03 -0.92841547643E+03  0.11642152962E+04  0.50400001928E-02 0.  1.
       -1    1    3    3    0  502 -0.56114211574E+01  0.70243182657E+03  0.11454666710E+04  0.13437022934E+04  0.50400001928E-02 0. -1.
</event>
<event>
 5   0  0.3873231E-07  0.2497988E+04  0.7818609E-02  0.8403703E-01
       -1   -1    0    0    0  501  0.00000000000E+00  0.00000000000E+00  0.12191536717E+04  0.12191536717E+04  0.50400001928E-02 0.  1.
        1   -1    0    0  501    0  0.00000000000E+00  0.00000000000E+00 -0.12795644017E+04  0.12795644017E+04  0.50400001928E-02 0. -1.
    10030    2    1    2    0    0  0.00000000000E+00  0.00000000000E+00 -0.60410729963E+02  0.24987180734E+04  0.24979877009E+04 0.  0.
        2    1    3    3  502    0  0.45626532838E+03 -0.16565239000E+03 -0.11813532424E+04  0.12771899810E+04  0.25500000920E-02 0. -1.
       -2    1    3    3    0  502 -0.45626532838E+03  0.16565239000E+03  0.11209425125E+04  0.12215280924E+04  0.25500000920E-02 0.  1.
</event>
<event>
 5   0  0.9261602E-07  0.2500125E+04  0.7818609E-02  0.8402941E-01
       -2   -1    0    0    0  501  0.00000000000E+00  0.00000000000E+00  0.87282521417E+03  0.87282521417E+03  0.25500000920E-02 0.  1.
        2   -1    0    0  501    0  0.00000000000E+00  0.00000000000E+00 -0.17903421369E+04  0.17903421369E+04  0.25500000920E-02 0. -1.
    10030    2    1    2    0    0  0.00000000000E+00  0.00000000000E+00 -0.91751692273E+03  0.26631673511E+04  0.25001246042E+04 0.  0.
        4    1    3    3  502    0 -0.75554516883E+03  0.85709258917E+03 -0.99897831984E+03  0.15177007297E+04  0.12699999809E+01 0. -1.
       -4    1    3    3    0  502  0.75554516883E+03 -0.85709258917E+03  0.81461397101E+02  0.11454666214E+04  0.12699999809E+01 0.  1.
</event>
<event>
 5   0  0.9251138E-07  0.2499027E+04  0.7818609E-02  0.8403332E-01
        2   -1    0    0  501    0  0.00000000000E+00  0.00000000000E+00  0.13590081705E+04  0.13590081705E+04  0.25500000920E-02 0.  1.
       -2   -1    0    0    0  501  0.00000000000E+00  0.00000000000E+00 -0.11488403196E+04  0.11488403196E+04  0.25500000920E-02 0. -1.
    10030    2    1    2    0    0  0.00000000000E+00  0.00000000000E+00  0.21016785086E+03  0.25078484901E+04  0.24990265152E+04 0.  0.
        5    1    3    3  502    0 -0.82478600431E+03 -0.35290593846E+03  0.97789371367E+03  0.13270692369E+04  0.46999998093E+01 0.  1.
       -5    1    3    3    0  502  0.82478600431E+03  0.35290593846E+03 -0.76772586281E+03  0.11807792532E+04  0.46999998093E+01 0. -1.
</event>
<event>
 5   0  0.3972587E-07  0.2499889E+04  0.7818609E-02  0.8403025E-01
        1   -1    0    0  501    0  0.00000000000E+00  0.00000000000E+00  0.18527952750E+04  0.18527952750E+04  0.50400001928E-02 0.  1.
       -1   -1    0    0    0  501  0.00000000000E+00  0.00000000000E+00 -0.84324574062E+03  0.84324574063E+03  0.50400001928E-02 0. -1.
    10030    2    1    2    0    0  0.00000000000E+00  0.00000000000E+00  0.10095495344E+04  0.26960410157E+04  0.24998893767E+04 0.  0.
        3    1    3    3  502    0  0.70972613660E+02  0.97181118679E+03  0.13490872574E+04  0.16641786362E+04  0.10100000352E+00 0.  1.
       -3    1    3    3    0  502 -0.70972613660E+02 -0.97181118679E+03 -0.33953772304E+03  0.10318623795E+04  0.10100000352E+00 0. -1.
</event>
<event>
 5   0  0.9251138E-07  0.2500392E+04  0.7818609E-02  0.8402846E-01
       -2   -1    0    0    0  501  0.00000000000E+00  0.00000000000E+00  0.16047995362E+04  0.16047995362E+04  0.25500000920E-02 0. -1.
        2   -1    0    0  501    0  0.00000000000E+00  0.00000000000E+00 -0.97394730376E+03  0.97394730377E+03  0.25500000920E-02 0.  1.
    10030    2    1    2    0    0  0.00000000000E+00  0.00000000000E+00  0.63085223245E+03  0.25787468400E+04  0.25003921144E+04 0.  0.
        5    1    3    3  502    0  0.10733164859E+04 -0.23812227447E+03 -0.29842093392E+03  0.11392048280E+04  0.46999998093E+01 0.  1.
       -5    1    3    3    0  502 -0.10733164859E+04  0.23812227447E+03  0.92927316638E+03  0.14395420119E+04  0.46999998093E+01 0. -1.
</event>
<event>
 5   0  0.3837524E-07  0.2503703E+04  0.7818609E-02  0.8401667E-01
       -1   -1    0    0    0  501  0.00000000000E+00  0.00000000000E+00  0.83729090030E+03  0.83729090032E+03  0.50400001928E-02 0.  1.
        1   -1    0    0  501    0  0.00000000000E+00  0.00000000000E+00 -0.18716701480E+04  0.18716701480E+04  0.50400001928E-02 0. -1.
    10030    2    1    2    0    0  0.00000000000E+00  0.00000000000E+00 -0.10343792477E+04  0.27089610483E+04  0.25037031639E+04 0.  0.
        5    1    3    3  502    0 -0.50331263772E+03  0.84014634275E+03  0.32643756762E+03  0.10323531683E+04  0.46999998093E+01 0.  1.
       -5    1    3    3    0  502  0.50331263772E+03 -0.84014634275E+03 -0.13608168153E+04  0.16766078800E+04  0.46999998093E+01 0. -1.
</event>
<event>
 5   0  0.9251138E-07  0.2499120E+04  0.7818609E-02  0.8403299E-01
       -2   -1    0    0    0  501  0.00000000000E+00  0.00000000000E+00  0.10524683002E+04  0.10524683002E+04  0.25500000920E-02 0.  1.
        2   -1    0    0  501    0  0.00000000000E+00  0.00000000000E+00 -0.14835608469E+04  0.14835608469E+04  0.25500000920E-02 0. -1.
    10030    2    1    2    0    0  0.00000000000E+00  0.00000000000E+00 -0.43109254663E+03  0.25360291471E+04  0.24991204555E+04 0.  0.
        5    1    3    3  502    0 -0.10224160425E+04  0.46951162750E+03  0.33617715519E+03  0.11742286413E+04  0.46999998093E+01 0.  1.
       -5    1    3    3    0  502  0.10224160425E+04 -0.46951162750E+03 -0.76726970182E+03  0.13618005058E+04  0.46999998093E+01 0. -1.
</event>
<event>
 5   0  0.9508784E-07  0.2498474E+04  0.7818609E-02  0.8403529E-01
        2   -1    0    0  501    0  0.00000000000E+00  0.00000000000E+00  0.19173614800E+04  0.19173614800E+04  0.25500000920E-02 0. -1.
       -2   -1    0    0    0  501  0.00000000000E+00  0.00000000000E+00 -0.81392745748E+03  0.81392745748E+03  0.25500000920E-02 0.  1.
    10030    2    1    2    0    0  0.00000000000E+00  0.00000000000E+00  0.11034340226E+04  0.27312889375E+04  0.24984740579E+04 0.  0.
        2    1    3    3  502    0 -0.15304466684E+03  0.75349399614E+03  0.16280537892E+04  0.18004818835E+04  0.25500000920E-02 0. -1.
       -2    1    3    3    0  502  0.15304466684E+03 -0.75349399614E+03 -0.52461976664E+03  0.93080705402E+03  0.25500000920E-02 0.  1.
</event>
<event>
 5   0  0.3991066E-07  0.2499699E+04  0.7818609E-02  0.8403093E-01
        1   -1    0    0  501    0  0.00000000000E+00  0.00000000000E+00  0.16551671261E+04  0.16551671261E+04  0.50400001928E-02 0.  1.
       -1   -1    0    0    0  501  0.00000000000E+00  0.00000000000E+00 -0.94378581557E+03  0.94378581559E+03  0.50400001928E-02 0. -1.
    10030    2    1    2    0    0  0.00000000000E+00  0.00000000000E+00  0.71138131051E+03  0.25989529417E+04  0.24996985867E+04 0.  0.
        1    1    3    3  502    0  0.31763231823E+03  0.49925724736E+03  0.15003009088E+04  0.16127773887E+04  0.50400001928E-02 0.  1.
       -1    1    3    3    0  502 -0.31763231823E+03 -0.49925724736E+03 -0.78891959829E+03  0.98617555294E+03  0.50400001928E-02 0. -1.
</event>
<event>
 5   0  0.3972587E-07  0.2499838E+04  0.7818609E-02  0.8403043E-01
       -1   -1    0    0    0  501  0.00000000000E+00  0.00000000000E+00  0.14427894471E+04  0.14427894471E+04  0.50400001928E-02 0. -1.
        1   -1    0    0  501    0  0.00000000000E+00  0.00000000000E+00 -0.10828316203E+04  0.10828316203E+04  0.50400001928E-02 0.  1.
    10030    2    1    2    0    0  0.00000000000E+00  0.00000000000E+00  0.35995782682E+03  0.25256210674E+04  0.24998384226E+04 0.  0.
        3    1    3    3  502    0  0.99025066321E+03  0.15994650876E+02  0.95036934288E+03  0.13726085032E+04  0.10100000352E+00 0. -1.
       -3    1    3    3    0  502 -0.99025066321E+03 -0.15994650876E+02 -0.59041151605E+03  0.11530125643E+04  0.10100000352E+00 0.  1.
</event>
<event>
 5   0  0.9261602E-07  0.2499317E+04  0.7818609E-02  0.8403229E-01
       -2   -1    0    0    0  501  0.00000000000E+00  0.00000000000E+00  0.13263193191E+04  0.13263193191E+04  0.25500000920E-02 0.  1.
        2   -1    0    0  501    0  0.00000000000E+00  0.00000000000E+00 -0.11774289791E+04  0.11774289791E+04  0.25500000920E-02 0. -1.
    10030    2    1    2    0    0  0.00000000000E+00  0.00000000000E+00  0.14889034002E+03  0.25037482982E+04  0.24993173483E+04 0.  0.
        4    1    3    3  502    0  0.87633739605E+03 -0.47387124758E+03  0.83018569805E+03  0.12968157530E+04  0.12699999809E+01 0.  1.
       -4    1    3    3    0  502 -0.87633739605E+03  0.47387124758E+03 -0.68129535803E+03  0.12069325452E+04  0.12699999809E+01 0. -1.
</event>
<event>
 5   0  0.9261602E-07  0.2498452E+04  0.7818609E-02  0.8403537E-01
       -2   -1    0    0    0  501  0.00000000000E+00  0.00000000000E+00  0.84921517464E+03  0.84921517465E+03  0.25500000920E-02 0.  1.
        2   -1    0    0  501    0  0.00000000000E+00  0.00000000000E+00 -0.18376568942E+04  0.18376568942E+04  0.25500000920E-02 0. -1.
    10030    2    1    2    0    0  0.00000000000E+00  0.00000000000E+00 -0.98844171954E+03  0.26868720688E+04  0.24984524173E+04 0.  0.
        4    1    3    3  502    0  0.62578710205E+03 -0.88066693967E+03 -0.11687216438E+04  0.15915701836E+04  0.12699999809E+01 0. -1.
       -4    1    3    3    0  502 -0.62578710205E+03  0.88066693967E+03  0.18027992431E+03  0.10953018852E+04  0.12699999809E+01 0.  1.
</event>
<event>
 5   0  0.8997210E-07  0.2500317E+04  0.7818609E-02  0.8402873E-01
        2   -1    0    0  501    0  0.00000000000E+00  0.00000000000E+00  0.15480374589E+04  0.15480374589E+04  0.25500000920E-02 0. -1.
       -2   -1    0    0    0  501  0.00000000000E+00  0.00000000000E+00 -0.10095981226E+04  0.10095981226E+04  0.25500000920E-02 0.  1.
    10030    2    1    2    0    0  0.00000000000E+00  0.00000000000E+00  0.53843933626E+03  0.25576355815E+04  0.25003165498E+04 0.  0.
        1    1    3    3  502    0  0.26067078658E+03  0.18854953747E+03 -0.96652906750E+03  0.10186651194E+04  0.50400001928E-02 0.  1.
       -1    1    3    3    0  502 -0.26067078658E+03 -0.18854953747E+03  0.15049684038E+04  0.15389704622E+04  0.50400001928E-02 0. -1.
</event>
<event>
 5   0  0.9251138E-07  0.2497895E+04  0.7818609E-02  0.8403736E-01
       -2   -1    0    0    0  501  0.00000000000E+00  0.00000000000E+00  0.17454491341E+04  0.17454491341E+04  0.25500000920E-02 0. -1.
        2   -1    0    0  501    0  0.00000000000E+00  0.00000000000E+00 -0.89367819069E+03  0.89367819069E+03  0.25500000920E-02 0.  1.
    10030    2    1    2    0    0  0.00000000000E+00  0.00000000000E+00  0.85177094339E+03  0.26391273248E+04  0.24978949730E+04 0.  0.
        5    1    3    3  502    0  0.85736510509E+03  0.77108276361E+03 -0.81038436048E+02  0.11559553927E+04  0.46999998093E+01 0. -1.
       -5    1    3    3    0  502 -0.85736510509E+03 -0.77108276361E+03  0.93280937943E+03  0.14831719321E+04  0.46999998093E+01 0.  1.
</event>
<event>
 5   0  0.3972587E-07  0.2498889E+04  0.7818609E-02  0.8403382E-01
       -1   -1    0    0    0  501  0.00000000000E+00  0.00000000000E+00  0.88291619963E+03  0.88291619964E+03  0.50400001928E-02 0.  1.
        1   -1    0    0  501    0  0.00000000000E+00  0.00000000000E+00 -0.17681305941E+04  0.17681305941E+04  0.50400001928E-02 0. -1.
    10030    2    1    2    0    0  0.00000000000E+00  0.00000000000E+00 -0.88521439444E+03  0.26510467937E+04  0.24988886687E+04 0.  0.
        3    1    3    3  502    0 -0.10866652439E+04  0.37453728097E+03  0.77111705713E+02  0.11519833994E+04  0.10100000352E+00 0.  1.
       -3    1    3    3    0  502  0.10866652439E+04 -0.37453728097E+03 -0.96232610016E+03  0.14990633944E+04  0.10100000352E+00 0. -1.
</event>
<event>
 5   0  0.3991066E-07  0.2499182E+04  0.7818609E-02  0.8403277E-01
        1   -1    0    0  501    0  0.00000000000E+00  0.00000000000E+00  0.98985905740E+03  0.98985905741E+03  0.50400001928E-02 0. -1.
       -1   -1    0    0    0  501  0.00000000000E+00  0.00000000000E+00 -0.15774741647E+04  0.15774741647E+04  0.50400001928E-02 0.  1.
    10030    2    1    2    0    0  0.00000000000E+00  0.00000000000E+00 -0.58761510733E+03  0.25673332221E+04  0.24991815379E+04 0.  0.
        1    1    3    3  502    0 -0.68033311008E+03 -0.94595771873E+03  0.16993150928E+03  0.11775253136E+04  0.50400001928E-02 0. -1.
       -1    1    3    3    0  502  0.68033311008E+03  0.94595771873E+03 -0.75754661661E+03  0.13898079085E+04  0.50400001928E-02 0.  1.
</event>
<event>
 5   0  0.9508784E-07  0.2500370E+04  0.7818609E-02  0.8402854E-01
       -2   -1    0    0    0  501  0.00000000000E+00  0.00000000000E+00  0.13841212170E+04  0.13841212170E+04  0.25500000920E-02 0. -1.
        2   -1    0    0  501    0  0.00000000000E+00  0.00000000000E+00 -0.11292097002E+04  0.11292097002E+04  0.25500000920E-02 0.  1.
    10030    2    1    2    0    0  0.00000000000E+00  0.00000000000E+00  0.25491151676E+03  0.25133309171E+04  0.25003704561E+04 0.  0.
        2    1    3    3  502    0  0.98296400974E+03 -0.77247864109E+03  0.12278311065E+03  0.12561915410E+04  0.25500000920E-02 0. -1.
       -2    1    3    3    0  502 -0.98296400974E+03  0.77247864109E+03  0.13212840611E+03  0.12571393762E+04  0.25500000920E-02 0.  1.
</event>
<event>
 5   0  0.3837524E-07  0.2502191E+04  0.7818609E-02  0.8402205E-01
       -1   -1    0    0    0  501  0.00000000000E+00  0.00000000000E+00  0.79885743195E+03  0.79885743197E+03  0.50400001928E-02 0.  1.
        1   -1    0    0  501    0  0.00000000000E+00  0.00000000000E+00 -0.19593487194E+04  0.19593487194E+04  0.50400001928E-02 0. -1.
    10030    2    1    2    0    0  0.00000000000E+00  0.00000000000E+00 -0.11604912874E+04  0.27582061513E+04  0.25021912687E+04 0.  0.
        5    1    3    3  502    0 -0.10862146998E+04  0.47260297778E+03 -0.13656882490E+03  0.11924299068E+04  0.46999998093E+01 0.  1.
       -5    1    3    3    0  502  0.10862146998E+04 -0.47260297778E+03 -0.10239224625E+04  0.15657762445E+04  0.46999998093E+01 0. -1.
</event>
<event>
 5   0  0.3972587E-07  0.2505559E+04  0.7818609E-02  0.8401008E-01
        1   -1    0    0  501    0  0.00000000000E+00  0.00000000000E+00  0.16235663461E+04  0.16235663461E+04  0.50400001928E-02 0.  1.
       -1   -1    0    0    0  501  0.00000000000E+00  0.00000000000E+00 -0.96667252392E+03  0.96667252393E+03  0.50400001928E-02 0. -1.
    10030    2    1    2    0    0  0.00000000000E+00  0.00000000000E+00  0.65689382216E+03  0.25902388700E+04  0.25055594007E+04 0.  0.
        3    1    3    3  502    0 -0.11393101843E+04 -0.43655170530E+03  0.62240145232E+03  0.13696673558E+04  0.10100000352E+00 0.  1.
       -3    1    3    3    0  502  0.11393101843E+04  0.43655170530E+03  0.34492369842E+02  0.12205715142E+04  0.10100000352E+00 0. -1.
</event>
<event>
 5   0  0.3873231E-07  0.2493561E+04  0.7818609E-02  0.8405283E-01
        1   -1    0    0  501    0  0.00000000000E+00  0.00000000000E+00  0.16581674493E+04  0.16581674493E+04  0.50400001928E-02 0. -1.
       -1   -1    0    0    0  501  0.00000000000E+00  0.00000000000E+00 -0.93745721306E+03  0.93745721308E+03  0.50400001928E-02 0.  1.
    10030    2    1    2    0    0  0.00000000000E+00  0.00000000000E+00  0.72071023623E+03  0.25956246624E+04  0.24935605353E+04 0.  0.
        2    1    3    3  502    0 -0.43617805333E+03  0.11603626030E+04  0.22160103072E+03  0.12592853852E+04  0.25500000920E-02 0. -1.
       -2    1    3    3    0  502  0.43617805333E+03 -0.11603626030E+04  0.49910920551E+03  0.13363392772E+04  0.25500000920E-02 0.  1.
</event>
<event>
 5   0  0.9508784E-07  0.2500705E+04  0.7818609E-02  0.8402735E-01
        2   -1    0    0  501    0  0.00000000000E+00  0.00000000000E+00  0.19821304175E+04  0.19821304176E+04  0.25500000920E-02 0.  1.
       -2   -1    0    0    0  501  0.00000000000E+00  0.00000000000E+00 -0.78873771207E+03  0.78873771207E+03  0.25500000920E-02 0. -1.
    10030    2    1    2    0    0  0.00000000000E+00  0.00000000000E+00  0.11933927055E+04  0.27708681296E+04  0.25007047091E+04 0.  0.
        2    1    3    3  502    0 -0.85065703857E+03 -0.17972582463E+02 -0.41849621717E+03  0.94819802509E+03  0.25500000920E-02 0. -1.
       -2    1    3    3    0  502  0.85065703857E+03  0.17972582463E+02  0.16118889226E+04  0.18226701045E+04  0.25500000920E-02 0.  1.
</event>
<event>
 5   0  0.9768582E-07  0.2500252E+04  0.7818609E-02  0.8402896E-01
       -2   -1    0    0    0  501  0.00000000000E+00  0.00000000000E+00  0.66627847754E+03  0.66627847754E+03  0.25500000920E-02 0.  1.
        2   -1    0    0  501    0  0.00000000000E+00  0.00000000000E+00 -0.23455880620E+04  0.23455880620E+04  0.25500000920E-02 0. -1.
    10030    2    1    2    0    0  0.00000000000E+00  0.00000000000E+00 -0.16793095845E+04  0.30118665396E+04  0.25002518616E+04 0.  0.
        3    1    3    3  502    0 -0.65056838506E+03 -0.49207983005E+03 -0.19808317502E+04  0.21422129249E+04  0.10100000352E+00 0. -1.
       -3    1    3    3    0  502  0.65056838506E+03  0.49207983005E+03  0.30152216577E+03  0.86965361463E+03  0.10100000352E+00 0.  1.
</event>
<event>
 5   0  0.3837524E-07  0.2500018E+04  0.7818609E-02  0.8402979E-01
       -1   -1    0    0    0  501  0.00000000000E+00  0.00000000000E+00  0.15313778241E+04  0.15313778241E+04  0.50400001928E-02 0. -1.
        1   -1    0    0  501    0  0.00000000000E+00  0.00000000000E+00 -0.10203375471E+04  0.10203375471E+04  0.50400001928E-02 0.  1.
    10030    2    1    2    0    0  0.00000000000E+00  0.00000000000E+00  0.51104027697E+03  0.25517153712E+04  0.25000178341E+04 0.  0.
        5    1    3    3  502    0  0.79082447264E+03  0.77138491201E+03 -0.34143493640E+03  0.11563035652E+04  0.46999998093E+01 0.  1.
       -5    1    3    3    0  502 -0.79082447264E+03 -0.77138491201E+03  0.85247521337E+03  0.13954118060E+04  0.46999998093E+01 0. -1.
</event>
<event>
 5   0  0.3991066E-07  0.2500421E+04  0.7818609E-02  0.8402835E-01
        1   -1    0    0  501    0  0.00000000000E+00  0.00000000000E+00  0.19519187037E+04  0.19519187037E+04  0.50400001928E-02 0. -1.
       -1   -1    0    0    0  501  0.00000000000E+00  0.00000000000E+00 -0.80076418460E+03  0.80076418462E+03  0.50400001928E-02 0.  1.
    10030    2    1    2    0    0  0.00000000000E+00  0.00000000000E+00  0.11511545191E+04  0.27526828883E+04  0.25004212359E+04 0.  0.
        1    1    3    3  502    0  0.56097159765E+03 -0.10857952967E+04  0.28558992984E+03  0.12550705827E+04  0.50400001928E-02 0.  1.
       -1    1    3    3    0  502 -0.56097159765E+03  0.10857952967E+04  0.86556458924E+03  0.14976123056E+04  0.50400001928E-02 0. -1.
</event>
<event>
 5   0  0.3972587E-07  0.2500233E+04  0.7818609E-02  0.8402903E-01
       -1   -1    0    0    0  501  0.00000000000E+00  0.00000000000E+00  0.52812879806E+03  0.52812879808E+03  0.50400001928E-02 0.  1.
        1   -1    0    0  501    0  0.00000000000E+00  0.00000000000E+00 -0.29591093811E+04  0.29591093811E+04  0.50400001928E-02 0. -1.
    10030    2    1    2    0    0  0.00000000000E+00  0.00000000000E+00 -0.24309805830E+04  0.34872381792E+04  0.25002326938E+04 0.  0.
        3    1    3    3  502    0  0.12026488155E+04  0.31902731369E+03 -0.10466817746E+04  0.16259413728E+04  0.10100000352E+00 0.  1.
       -3    1    3    3    0  502 -0.12026488155E+04 -0.31902731369E+03 -0.13842988084E+04  0.18612968063E+04  0.10100000352E+00 0. -1.
</event>
<event>
 5   0  0.9251138E-07  0.2515306E+04  0.7818609E-02  0.8397553E-01
        2   -1    0    0  501    0  0.00000000000E+00  0.00000000000E+00  0.18860879651E+04  0.18860879651E+04  0.25500000920E-02 0. -1.
       -2   -1    0    0    0  501  0.00000000000E+00  0.00000000000E+00 -0.83860942543E+03  0.83860942543E+03  0.25500000920E-02 0.  1.
    10030    2    1    2    0    0  0.00000000000E+00  0.00000000000E+00  0.10474785397E+04  0.27246973906E+04  0.25153060607E+04 0.  0.
        5    1    3    3  502    0 -0.21449355869E+03 -0.33801093246E+03  0.18152176756E+04  0.18588426983E+04  0.46999998093E+01 0. -1.
       -5    1    3    3    0  502  0.21449355869E+03  0.33801093246E+03 -0.76773913595E+03  0.86585469222E+03  0.46999998093E+01 0.  1.
</event>
<event>
 5   0  0.3214375E-07  0.2499673E+04  0.7818609E-02  0.8403102E-01
       -3   -1    0    0    0  501  0.00000000000E+00  0.00000000000E+00  0.12894635767E+04  0.12894635806E+04  0.10100000352E+00 0. -1.
        3   -1    0    0  501    0  0.00000000000E+00  0.00000000000E+00 -0.12114272692E+04  0.12114272734E+04  0.10100000352E+00 0.  1.
    10030    2    1    2    0    0  0.00000000000E+00  0.00000000000E+00  0.78036307516E+02  0.25008908540E+04  0.24996730583E+04 0.  0.
        1    1    3    3  502    0  0.38890894649E+03  0.10411415137E+04  0.61101823504E+03  0.12682937766E+04  0.50400001928E-02 0. -1.
       -1    1    3    3    0  502 -0.38890894649E+03 -0.10411415137E+04 -0.53298192752E+03  0.12325970774E+04  0.50400001928E-02 0.  1.
</event>
<event>
 5   0  0.9508784E-07  0.2499519E+04  0.7818609E-02  0.8403157E-01
        2   -1    0    0  501    0  0.00000000000E+00  0.00000000000E+00  0.13339441131E+04  0.13339441131E+04  0.25500000920E-02 0. -1.
       -2   -1    0    0    0  501  0.00000000000E+00  0.00000000000E+00 -0.11708873692E+04  0.11708873692E+04  0.25500000920E-02 0.  1.
    10030    2    1    2    0    0  0.00000000000E+00  0.00000000000E+00  0.16305674390E+03  0.25048314823E+04  0.24995186042E+04 0.  0.
        2    1    3    3  502    0 -0.92657099976E+03  0.58412420311E+03  0.68460767660E+03  0.12916743294E+04  0.25500000920E-02 0.  1.
       -2    1    3    3    0  502  0.92657099976E+03 -0.58412420311E+03 -0.52155093270E+03  0.12131571529E+04  0.25500000920E-02 0. -1.
</event>
<event>
 5   0  0.9508784E-07  0.2499977E+04  0.7818609E-02  0.8402994E-01
       -2   -1    0    0    0  501  0.00000000000E+00  0.00000000000E+00  0.63426202065E+03  0.63426202066E+03  0.25500000920E-02 0. -1.
        2   -1    0    0  501    0  0.00000000000E+00  0.00000000000E+00 -0.24634471537E+04  0.24634471537E+04  0.25500000920E-02 0.  1.
    10030    2    1    2    0    0  0.00000000000E+00  0.00000000000E+00 -0.18291851330E+04  0.30977091743E+04  0.24999767755E+04 0.  0.
        2    1    3    3  502    0  0.10142476498E+04  0.67774265519E+03 -0.12526579904E+04  0.17484808957E+04  0.25500000920E-02 0.  1.
       -2    1    3    3    0  502 -0.10142476498E+04 -0.67774265519E+03 -0.57652714267E+03  0.13492282787E+04  0.25500000920E-02 0. -1.
</event>
<event>
 5   0  0.9251138E-07  0.2500460E+04  0.7818609E-02  0.8402822E-01
       -2   -1    0    0    0  501  0.00000000000E+00  0.00000000000E+00  0.90742598748E+03  0.90742598748E+03  0.25500000920E-02 0.  1.
        2   -1    0    0  501    0  0.00000000000E+00  0.00000000000E+00 -0.17225371633E+04  0.17225371633E+04  0.25500000920E-02 0. -1.
    10030    2    1    2    0    0  0.00000000000E+00  0.00000000000E+00 -0.81511117582E+03  0.26299631508E+04  0.25004599468E+04 0.  0.
        5    1    3    3  502    0  0.51773744325E+03 -0.91906467894E+03  0.29825933805E+03  0.10962265582E+04  0.46999998093E+01 0.  1.
       -5    1    3    3    0  502 -0.51773744325E+03  0.91906467894E+03 -0.11133705139E+04  0.15337365926E+04  0.46999998093E+01 0. -1.
</event>
<event>
 5   0  0.8997210E-07  0.2500454E+04  0.7818609E-02  0.8402824E-01
        2   -1    0    0  501    0  0.00000000000E+00  0.00000000000E+00  0.77270109211E+03  0.77270109211E+03  0.25500000920E-02 0.  1.
       -2   -1    0    0    0  501  0.00000000000E+00  0.00000000000E+00 -0.20228617988E+04  0.20228617988E+04  0.25500000920E-02 0. -1.
    10030    2    1    2    0    0  0.00000000000E+00  0.00000000000E+00 -0.12501607067E+04  0.27955628909E+04  0.25004539757E+04 0.  0.
        1    1    3    3  502    0  0.78039869204E+03 -0.37497059063E+03 -0.16334361990E+04  0.18487127626E+04  0.50400001928E-02 0. -1.
       -1    1    3    3    0  502 -0.78039869204E+03  0.37497059063E+03  0.38327549234E+03  0.94685012828E+03  0.50400001928E-02 0.  1.
</event>
<event>
 5   0  0.9508784E-07  0.2499149E+04  0.7818609E-02  0.8403289E-01
        2   -1    0    0  501    0  0.00000000000E+00  0.00000000000E+00  0.10778373066E+04  0.10778373066E+04  0.25500000920E-02 0.  1.
       -2   -1    0    0    0  501  0.00000000000E+00  0.00000000000E+00 -0.14486752776E+04  0.14486752776E+04  0.25500000920E-02 0. -1.
    10030    2    1    2    0    0  0.00000000000E+00  0.00000000000E+00 -0.37083797099E+03  0.25265125843E+04  0.24991488627E+04 0.  0.
        2    1    3    3  502    0 -0.48413108513E+03  0.11296605247E+04 -0.41354533980E+03  0.12967403582E+04  0.25500000920E-02 0. -1.
       -2    1    3    3    0  502  0.48413108513E+03 -0.11296605247E+04  0.42707368816E+02  0.12297722260E+04  0.25500000920E-02 0.  1.
</event>
<event>
 5   0  0.8997210E-07  0.2498451E+04  0.7818609E-02  0.8403537E-01
        2   -1    0    0  501    0  0.00000000000E+00  0.00000000000E+00  0.11579062531E+04  0.11579062531E+04  0.25500000920E-02 0.  1.
       -2   -1    0    0    0  501  0.00000000000E+00  0.00000000000E+00 -0.13477471703E+04  0.13477471703E+04  0.25500000920E-02 0. -1.
    10030    2    1    2    0    0  0.00000000000E+00  0.00000000000E+00 -0.18984091718E+03  0.25056534234E+04  0.24984514212E+04 0.  0.
        1    1    3    3  502    0  0.34512875542E+03  0.83979652982E+03 -0.95541055310E+03  0.13180217731E+04  0.50400001928E-02 0. -1.
       -1    1    3    3    0  502 -0.34512875542E+03 -0.83979652982E+03  0.76556963593E+03  0.11876316503E+04  0.50400001928E-02 0.  1.
</event>
<event>
 5   0  0.3805418E-07  0.2500227E+04  0.7818609E-02  0.8402905E-01
       -1   -1    0    0    0  501  0.00000000000E+00  0.00000000000E+00  0.91410437778E+03  0.91410437780E+03  0.50400001928E-02 0.  1.
        1   -1    0    0  501    0  0.00000000000E+00  0.00000000000E+00 -0.17096341518E+04  0.17096341518E+04  0.50400001928E-02 0. -1.
    10030    2    1    2    0    0  0.00000000000E+00  0.00000000000E+00 -0.79552977399E+03  0.26237385296E+04  0.25002272397E+04 0.  0.
        4    1    3    3  502    0  0.60081904807E+02 -0.12236767200E+04 -0.65861605470E+03  0.13909605569E+04  0.12699999809E+01 0. -1.
       -4    1    3    3    0  502 -0.60081904807E+02  0.12236767200E+04 -0.13691371929E+03  0.12327779727E+04  0.12699999809E+01 0.  1.
</event>
<event>
 5   0  0.3805418E-07  0.2500759E+04  0.7818609E-02  0.8402715E-01
       -1   -1    0    0    0  501  0.00000000000E+00  0.00000000000E+00  0.16497706620E+04  0.16497706620E+04  0.50400001928E-02 0.  1.
        1   -1    0    0  501    0  0.00000000000E+00  0.00000000000E+00 -0.94767661680E+03  0.94767661682E+03  0.50400001928E-02 0. -1.
    10030    2    1    2    0    0  0.00000000000E+00  0.00000000000E+00  0.70209404515E+03  0.25974472788E+04  0.25007591483E+04 0.  0.
        4    1    3    3  502    0  0.38161895631E+03  0.15099893119E+03 -0.87572572875E+03  0.96712505392E+03  0.12699999809E+01 0. -1.
       -4    1    3    3    0  502 -0.38161895631E+03 -0.15099893119E+03  0.15778197739E+04  0.16303222248E+04  0.12699999809E+01 0.  1.
</event>
<event>
 5   0  0.3805418E-07  0.2499502E+04  0.7818609E-02  0.8403163E-01
       -1   -1    0    0    0  501  0.00000000000E+00  0.00000000000E+00  0.81146348442E+03  0.81146348443E+03  0.50400001928E-02 0. -1.
        1   -1    0    0  501    0  0.00000000000E+00  0.00000000000E+00 -0.19247667592E+04  0.19247667592E+04  0.50400001928E-02 0.  1.
    10030    2    1    2    0    0  0.00000000000E+00  0.00000000000E+00 -0.11133032748E+04  0.27362302437E+04  0.24995023034E+04 0.  0.
        4    1    3    3  502    0  0.87172608230E+03 -0.53773412344E+03  0.22727997506E+03  0.10491530632E+04  0.12699999809E+01 0. -1.
       -4    1    3    3    0  502 -0.87172608230E+03  0.53773412344E+03 -0.13405832499E+04  0.16870771804E+04  0.12699999809E+01 0.  1.
</event>
<event>
 5   0  0.9261602E-07  0.2500607E+04  0.7818609E-02  0.8402769E-01
        2   -1    0    0  501    0  0.00000000000E+00  0.00000000000E+00  0.18115033742E+04  0.18115033742E+04  0.25500000920E-02 0. -1.
       -2   -1    0    0    0  501  0.00000000000E+00  0.00000000000E+00 -0.86296239329E+03  0.86296239329E+03  0.25500000920E-02 0.  1.
    10030    2    1    2    0    0  0.00000000000E+00  0.00000000000E+00  0.94854098092E+03  0.26744657675E+04  0.25006073560E+04 0.  0.
        4    1    3    3  502    0  0.13735412099E+03  0.12427130110E+04  0.48226637364E+03  0.13400687484E+04  0.12699999809E+01 0. -1.
       -4    1    3    3    0  502 -0.13735412099E+03 -0.12427130110E+04  0.46627460728E+03  0.13343970191E+04  0.12699999809E+01 0.  1.
</event>
<event>
 5   0  0.3837524E-07  0.2496571E+04  0.7818609E-02  0.8404208E-01
       -1   -1    0    0    0  501  0.00000000000E+00  0.00000000000E+00  0.12984495591E+04  0.12984495591E+04  0.50400001928E-02 0. -1.
        1   -1    0    0  501    0  0.00000000000E+00  0.00000000000E+00 -0.12000594707E+04  0.12000594707E+04  0.50400001928E-02 0.  1.
    10030    2    1    2    0    0  0.00000000000E+00  0.00000000000E+00  0.98390088349E+02  0.24985090298E+04  0.24965710009E+04 0.  0.
        5    1    3    3  502    0 -0.91754574848E+03 -0.24911115729E+03  0.85867894159E+03  0.12811316029E+04  0.46999998093E+01 0. -1.
       -5    1    3    3    0  502  0.91754574848E+03  0.24911115729E+03 -0.76028885324E+03  0.12173774269E+04  0.46999998093E+01 0.  1.
</event>
<event>
 5   0  0.3873231E-07  0.2499632E+04  0.7818609E-02  0.8403117E-01
       -1   -1    0    0    0  501  0.00000000000E+00  0.00000000000E+00  0.61116491077E+03  0.61116491079E+03  0.50400001928E-02 0.  1.
        1   -1    0    0  501    0  0.00000000000E+00  0.00000000000E+00 -0.25558407198E+04  0.25558407198E+04  0.50400001928E-02 0. -1.
    10030    2    1    2    0    0  0.00000000000E+00  0.00000000000E+00 -0.19446758090E+04  0.31670056306E+04  0.24996321053E+04 0.  0.
        2    1    3    3  502    0  0.46495500226E+03  0.63818670758E+03  0.25512159616E+03  0.82979061015E+03  0.25500000920E-02 0.  1.
       -2    1    3    3    0  502 -0.46495500226E+03 -0.63818670758E+03 -0.21997974052E+04  0.23372150204E+04  0.25500000920E-02 0. -1.
</event>
<event>
 5   0  0.3805418E-07  0.2501437E+04  0.7818609E-02  0.8402474E-01
       -1   -1    0    0    0  501  0.00000000000E+00  0.00000000000E+00  0.10942358886E+04  0.10942358886E+04  0.50400001928E-02 0. -1.
        1   -1    0    0  501    0  0.00000000000E+00  0.00000000000E+00 -0.14295792183E+04  0.14295792183E+04  0.50400001928E-02 0.  1.
    10030    2    1    2    0    0  0.00000000000E+00  0.00000000000E+00 -0.33534332972E+03  0.25238151069E+04  0.25014370960E+04 0.  0.
        4    1    3    3  502    0  0.92688387158E+03  0.74684480788E+03 -0.55503915150E+03  0.13133776879E+04  0.12699999809E+01 0.  1.
       -4    1    3    3    0  502 -0.92688387158E+03 -0.74684480788E+03  0.21969582179E+03  0.12104374191E+04  0.12699999809E+01 0. -1.
</event>
<event>
 5   0  0.3805418E-07  0.2501614E+04  0.7818609E-02  0.8402411E-01
       -1   -1    0    0    0  501  0.00000000000E+00  0.00000000000E+00  0.11186196949E+04  0.11186196949E+04  0.50400001928E-02 0. -1.
        1   -1    0    0  501    0  0.00000000000E+00  0.00000000000E+00 -0.13986148923E+04  0.13986148923E+04  0.50400001928E-02 0.  1.
    10030    2    1    2    0    0  0.00000000000E+00  0.00000000000E+00 -0.27999519746E+03  0.25172345872E+04  0.25016140103E+04 0.  0.
        4    1    3    3  502    0  0.10827539228E+04 -0.62622615458E+03 -0.13885152913E+03  0.12584898148E+04  0.12699999809E+01 0. -1.
       -4    1    3    3    0  502 -0.10827539228E+04  0.62622615458E+03 -0.14114366833E+03  0.12587447724E+04  0.12699999809E+01 0.  1.
</event>
<event>
 5   0  0.9768582E-07  0.2500146E+04  0.7818609E-02  0.8402934E-01
        2   -1    0    0  501    0  0.00000000000E+00  0.00000000000E+00  0.12640222733E+04  0.12640222733E+04  0.25500000920E-02 0.  1.
       -2   -1    0    0    0  501  0.00000000000E+00  0.00000000000E+00 -0.12362771715E+04  0.12362771715E+04  0.25500000920E-02 0. -1.
    10030    2    1    2    0    0  0.00000000000E+00  0.00000000000E+00  0.27745101862E+02  0.25002994448E+04  0.25001455003E+04 0.  0.
        3    1    3    3  502    0  0.99143613017E+03  0.76095541732E+03 -0.12265683293E+02  0.12498596739E+04  0.10100000352E+00 0.  1.
       -3    1    3    3    0  502 -0.99143613017E+03 -0.76095541732E+03  0.40010785155E+02  0.12504397708E+04  0.10100000352E+00 0. -1.
</event>
<event>
 5   0  0.3873231E-07  0.2500224E+04  0.7818609E-02  0.8402906E-01
       -1   -1    0    0    0  501  0.00000000000E+00  0.00000000000E+00  0.10179600044E+04  0.10179600044E+04  0.50400001928E-02 0. -1.
        1   -1    0    0  501    0  0.00000000000E+00  0.00000000000E+00 -0.15352071713E+04  0.15352071713E+04  0.50400001928E-02 0.  1.
    10030    2    1    2    0    0  0.00000000000E+00  0.00000000000E+00 -0.51724716695E+03  0.25531671757E+04  0.25002235891E+04 0.  0.
        2    1    3    3  502    0 -0.93981840872E+03 -0.50290019752E+02 -0.10988418115E+04  0.14468037372E+04  0.25500000920E-02 0.  1.
       -2    1    3    3    0  502  0.93981840872E+03  0.50290019752E+02  0.58159464452E+03  0.11063634385E+04  0.25500000920E-02 0. -1.
</event>
<event>
 5   0  0.9768582E-07  0.2499999E+04  0.7818609E-02  0.8402986E-01
        2   -1    0    0  501    0  0.00000000000E+00  0.00000000000E+00  0.16566276063E+04  0.16566276064E+04  0.25500000920E-02 0.  1.
       -2   -1    0    0    0  501  0.00000000000E+00  0.00000000000E+00 -0.94318057929E+03  0.94318057930E+03  0.25500000920E-02 0. -1.
    10030    2    1    2    0    0  0.00000000000E+00  0.00000000000E+00  0.71344702706E+03  0.25998081856E+04  0.24999991883E+04 0.  0.
        3    1    3    3  502    0  0.66858475106E+02 -0.72525707619E+03  0.14131707955E+04  0.15898174706E+04  0.10100000352E+00 0.  1.
       -3    1    3    3    0  502 -0.66858475106E+02  0.72525707619E+03 -0.69972376843E+03  0.10099907151E+04  0.10100000352E+00 0. -1.
</event>
<event>
 5   0  0.3837524E-07  0.2500586E+04  0.7818609E-02  0.8402777E-01
        1   -1    0    0  501    0  0.00000000000E+00  0.00000000000E+00  0.23558669245E+04  0.23558669245E+04  0.50400001928E-02 0. -1.
       -1   -1    0    0    0  501  0.00000000000E+00  0.00000000000E+00 -0.66354890307E+03  0.66354890309E+03  0.50400001928E-02 0.  1.
    10030    2    1    2    0    0  0.00000000000E+00  0.00000000000E+00  0.16923180214E+04  0.30194158276E+04  0.25005862621E+04 0.  0.
        5    1    3    3  502    0 -0.11445684510E+04 -0.50138599532E+03  0.89718811478E+03  0.15383086357E+04  0.46999998093E+01 0. -1.
       -5    1    3    3    0  502  0.11445684510E+04  0.50138599532E+03  0.79512990661E+03  0.14811071919E+04  0.46999998093E+01 0.  1.
</event>
<event>
 5   0  0.9768582E-07  0.2502133E+04  0.7818609E-02  0.8402226E-01
       -2   -1    0    0    0  501  0.00000000000E+00  0.00000000000E+00  0.14656493084E+04  0.14656493084E+04  0.25500000920E-02 0. -1.
        2   -1    0    0  501    0  0.00000000000E+00  0.00000000000E+00 -0.10679003255E+04  0.10679003255E+04  0.25500000920E-02 0.  1.
    10030    2    1    2    0    0  0.00000000000E+00  0.00000000000E+00  0.39774898287E+03  0.25335496338E+04  0.25021329888E+04 0.  0.
        3    1    3    3  502    0  0.58736946461E+02 -0.90209928763E+03 -0.67681618732E+03  0.11292977089E+04  0.10100000352E+00 0.  1.
       -3    1    3    3    0  502 -0.58736946461E+02  0.90209928763E+03  0.10745651702E+04  0.14042519250E+04  0.10100000352E+00 0. -1.
</event>
<event>
 5   0  0.3972587E-07  0.2501786E+04  0.7818609E-02  0.8402349E-01
       -1   -1    0    0    0  501  0.00000000000E+00  0.00000000000E+00  0.88916895878E+03  0.88916895879E+03  0.50400001928E-02 0. -1.
        1   -1    0    0  501    0  0.00000000000E+00  0.00000000000E+00 -0.17597706857E+04  0.17597706857E+04  0.50400001928E-02 0.  1.
    10030    2    1    2    0    0  0.00000000000E+00  0.00000000000E+00 -0.87060172693E+03  0.26489396445E+04  0.25017861366E+04 0.  0.
        3    1    3    3  502    0  0.34862016126E+03  0.66800544820E+03 -0.14925128798E+04  0.16719336118E+04  0.10100000352E+00 0.  1.
       -3    1    3    3    0  502 -0.34862016126E+03 -0.66800544820E+03  0.62191115289E+03  0.97700603271E+03  0.10100000352E+00 0. -1.
</event>
<event>
 5   0  0.3837524E-07  0.2499753E+04  0.7818609E-02  0.8403074E-01
        1   -1    0    0  501    0  0.00000000000E+00  0.00000000000E+00  0.21086996169E+04  0.21086996169E+04  0.50400001928E-02 0. -1.
       -1   -1    0    0    0  501  0.00000000000E+00  0.00000000000E+00 -0.74083134835E+03  0.74083134837E+03  0.50400001928E-02 0.  1.
    10030    2    1    2    0    0  0.00000000000E+00  0.00000000000E+00  0.13678682686E+04  0.28495309653E+04  0.24997526122E+04 0.  0.
        5    1    3    3  502    0 -0.20703377395E+03 -0.48080421136E+03  0.19777030304E+04  0.20458169614E+04  0.46999998093E+01 0. -1.
       -5    1    3    3    0  502  0.20703377395E+03  0.48080421136E+03 -0.60983476185E+03  0.80371400384E+03  0.46999998093E+01 0.  1.
</event>
<event>
 5   0  0.9251138E-07  0.2503991E+04  0.7818609E-02  0.8401565E-01
        2   -1    0    0  501    0  0.00000000000E+00  0.00000000000E+00  0.18811901497E+04  0.18811901497E+04  0.25500000920E-02 0. -1.
       -2   -1    0    0    0  501  0.00000000000E+00  0.00000000000E+00 -0.83324517789E+03  0.83324517790E+03  0.25500000920E-02 0.  1.
    10030    2    1    2    0    0  0.00000000000E+00  0.00000000000E+00  0.10479449718E+04  0.27144353276E+04  0.25039909113E+04 0.  0.
        5    1    3    3  502    0  0.46408741829E+03  0.11541129692E+04  0.37021912480E+03  0.12978590709E+04  0.46999998093E+01 0. -1.
       -5    1    3    3    0  502 -0.46408741829E+03 -0.11541129692E+04  0.67772584702E+03  0.14165762567E+04  0.46999998093E+01 0.  1.
</event>
<event>
 5   0  0.3972587E-07  0.2500685E+04  0.7818609E-02  0.8402741E-01
       -1   -1    0    0    0  501  0.00000000000E+00  0.00000000000E+00  0.11043839487E+04  0.11043839487E+04  0.50400001928E-02 0.  1.
        1   -1    0    0  501    0  0.00000000000E+00  0.00000000000E+00 -0.14155917781E+04  0.14155917781E+04  0.50400001928E-02 0. -1.
    10030    2    1    2    0    0  0.00000000000E+00  0.00000000000E+00 -0.31120782934E+03  0.25199757268E+04  0.25006853762E+04 0.  0.
        3    1    3    3  502    0 -0.19876425500E+02 -0.12383698085E+03 -0.14092366782E+04  0.14148069464E+04  0.10100000352E+00 0. -1.
       -3    1    3    3    0  502  0.19876425500E+02  0.12383698085E+03  0.10980288488E+04  0.11051687804E+04  0.10100000352E+00 0.  1.
</event>
<event>
 5   0  0.3873231E-07  0.2502664E+04  0.7818609E-02  0.8402037E-01
       -1   -1    0    0    0  501  0.00000000000E+00  0.00000000000E+00  0.12040470371E+04  0.12040470371E+04  0.50400001928E-02 0.  1.
        1   -1    0    0  501    0  0.00000000000E+00  0.00000000000E+00 -0.13004734333E+04  0.13004734333E+04  0.50400001928E-02 0. -1.
    10030    2    1    2    0    0  0.00000000000E+00  0.00000000000E+00 -0.96426396185E+02  0.25045204704E+04  0.25026635285E+04 0.  0.
        2    1    3    3  502    0  0.12149298561E+03 -0.23875942118E+03  0.11750130896E+04  0.12051648714E+04  0.25500000920E-02 0.  1.
       -2    1    3    3    0  502 -0.12149298561E+03  0.23875942118E+03 -0.12714394857E+04  0.12993555990E+04  0.25500000920E-02 0. -1.
</event>
<event>
 5   0  0.9508784E-07  0.2500121E+04  0.7818609E-02  0.8402942E-01
       -2   -1    0    0    0  501  0.00000000000E+00  0.00000000000E+00  0.11128745091E+04  0.11128745091E+04  0.25500000920E-02 0.  1.
        2   -1    0    0  501    0  0.00000000000E+00  0.00000000000E+00 -0.14041580225E+04  0.14041580225E+04  0.25500000920E-02 0. -1.
    10030    2    1    2    0    0  0.00000000000E+00  0.00000000000E+00 -0.29128351346E+03  0.25170325316E+04  0.25001213330E+04 0.  0.
        2    1    3    3  502    0 -0.11129974389E+04 -0.56703501078E+03 -0.19454674340E+03  0.12641757939E+04  0.25500000920E-02 0. -1.
       -2    1    3    3    0  502  0.11129974389E+04  0.56703501078E+03 -0.96736770059E+02  0.12528567377E+04  0.25500000920E-02 0.  1.
</event>
<event>
 5   0  0.9508784E-07  0.2499593E+04  0.7818609E-02  0.8403131E-01
        2   -1    0    0  501    0  0.00000000000E+00  0.00000000000E+00  0.30555331021E+04  0.30555331021E+04  0.25500000920E-02 0. -1.
       -2   -1    0    0    0  501  0.00000000000E+00  0.00000000000E+00 -0.51120077481E+03  0.51120077482E+03  0.25500000920E-02 0.  1.
    10030    2    1    2    0    0  0.00000000000E+00  0.00000000000E+00  0.25443323273E+04  0.35667338769E+04  0.24995926782E+04 0.  0.
        2    1    3    3  502    0 -0.80644703548E+03  0.92572224946E+03  0.93852050903E+03  0.15453605567E+04  0.25500000920E-02 0.  1.
       -2    1    3    3    0  502  0.80644703548E+03 -0.92572224946E+03  0.16058118182E+04  0.20213733202E+04  0.25500000920E-02 0. -1.
</event>
<event>
 5   0  0.9261602E-07  0.2499601E+04  0.7818609E-02  0.8403128E-01
       -2   -1    0    0    0  501  0.00000000000E+00  0.00000000000E+00  0.10138732409E+04  0.10138732409E+04  0.25500000920E-02 0.  1.
        2   -1    0    0  501    0  0.00000000000E+00  0.00000000000E+00 -0.15406272878E+04  0.15406272878E+04  0.25500000920E-02 0. -1.
    10030    2    1    2    0    0  0.00000000000E+00  0.00000000000E+00 -0.52675404685E+03  0.25545005287E+04  0.24996005932E+04 0.  0.
        4    1    3    3  502    0  0.10740237975E+03  0.96021138468E+03  0.54678802881E+03  0.11101891442E+04  0.12699999809E+01 0.  1.
       -4    1    3    3    0  502 -0.10740237975E+03 -0.96021138468E+03 -0.10735420757E+04  0.14443113846E+04  0.12699999809E+01 0. -1.
</event>
<event>
 5   0  0.8997210E-07  0.2499390E+04  0.7818609E-02  0.8403203E-01
        2   -1    0    0  501    0  0.00000000000E+00  0.00000000000E+00  0.94484801959E+03  0.94484801959E+03  0.25500000920E-02 0.  1.
       -2   -1    0    0    0  501  0.00000000000E+00  0.00000000000E+00 -0.16528985799E+04  0.16528985799E+04  0.25500000920E-02 0. -1.
    10030    2    1    2    0    0  0.00000000000E+00  0.00000000000E+00 -0.70805056031E+03  0.25977465995E+04  0.24993902855E+04 0.  0.
        1    1    3    3  502    0  0.73957802979E+03 -0.52194584132E+03  0.54146860658E+03  0.10547944707E+04  0.50400001928E-02 0.  1.
       -1    1    3    3    0  502 -0.73957802979E+03  0.52194584132E+03 -0.12495191669E+04  0.15429521288E+04  0.50400001928E-02 0. -1.
</event>
<event>
 5   0  0.3214375E-07  0.2499974E+04  0.7818609E-02  0.8402995E-01
        4   -1    0    0  501    0  0.00000000000E+00  0.00000000000E+00  0.11668190044E+04  0.11668196955E+04  0.12699999809E+01 0.  1.
       -4   -1    0    0    0  501  0.00000000000E+00  0.00000000000E+00 -0.13390812625E+04  0.13390818648E+04  0.12699999809E+01 0. -1.
    10030    2    1    2    0    0  0.00000000000E+00  0.00000000000E+00 -0.17226225816E+03  0.25059015603E+04  0.24999736687E+04 0.  0.
        4    1    3    3  502    0 -0.71993969230E+03  0.82804716180E+03 -0.68629137175E+03  0.12942073723E+04  0.12699999809E+01 0. -1.
       -4    1    3    3    0  502  0.71993969230E+03 -0.82804716180E+03  0.51402911359E+03  0.12116941880E+04  0.12699999809E+01 0.  1.
</event>
<event>
 5   0  0.9261602E-07  0.2499953E+04  0.7818609E-02  0.8403002E-01
       -2   -1    0    0    0  501  0.00000000000E+00  0.00000000000E+00  0.91945032167E+03  0.91945032168E+03  0.25500000920E-02 0.  1.
        2   -1    0    0  501    0  0.00000000000E+00  0.00000000000E+00 -0.16993215567E+04  0.16993215567E+04  0.25500000920E-02 0. -1.
    10030    2    1    2    0    0  0.00000000000E+00  0.00000000000E+00 -0.77987123504E+03  0.26187718784E+04  0.24999534011E+04 0.  0.
        4    1    3    3  502    0 -0.63702419645E+02  0.10912597580E+04  0.24512426970E+03  0.11202648696E+04  0.12699999809E+01 0.  1.
       -4    1    3    3    0  502  0.63702419645E+02 -0.10912597580E+04 -0.10249955047E+04  0.14985070088E+04  0.12699999809E+01 0. -1.
</event>
<event>
 5   0  0.8997210E-07  0.2493454E+04  0.7818609E-02  0.8405321E-01
        2   -1    0    0  501    0  0.00000000000E+00  0.00000000000E+00  0.17392354278E+04  0.17392354278E+04  0.25500000920E-02 0.  1.
       -2   -1    0    0    0  501  0.00000000000E+00  0.00000000000E+00 -0.89368446322E+03  0.89368446323E+03  0.25500000920E-02 0. -1.
    10030    2    1    2    0    0  0.00000000000E+00  0.00000000000E+00  0.84555096457E+03  0.26329198910E+04  0.24934535726E+04 0.  0.
        1    1    3    3  502    0 -0.33813722185E+03  0.10502357616E+04 -0.19020771118E+03  0.11196030141E+04  0.50400001928E-02 0. -1.
       -1    1    3    3    0  502  0.33813722185E+03 -0.10502357616E+04  0.10357586757E+04  0.15133168770E+04  0.50400001928E-02 0.  1.
</event>
<event>
 5   0  0.3214375E-07  0.2497752E+04  0.7818609E-02  0.8403787E-01
        3   -1    0    0  501    0  0.00000000000E+00  0.00000000000E+00  0.13563267723E+04  0.13563267761E+04  0.10100000352E+00 0.  1.
       -3   -1    0    0    0  501  0.00000000000E+00  0.00000000000E+00 -0.11499376382E+04  0.11499376427E+04  0.10100000352E+00 0. -1.
    10030    2    1    2    0    0  0.00000000000E+00  0.00000000000E+00  0.20638913407E+03  0.25062644187E+04  0.24977519616E+04 0.  0.
        3    1    3    3  502    0 -0.10582074250E+04 -0.18969589624E+03 -0.53450556240E+03  0.12006180466E+04  0.10100000352E+00 0. -1.
       -3    1    3    3    0  502  0.10582074250E+04  0.18969589624E+03  0.74089469647E+03  0.13056463721E+04  0.10100000352E+00 0.  1.
</event>
<event>
 5   0  0.3214375E-07  0.2500282E+04  0.7818609E-02  0.8402885E-01
        3   -1    0    0  501    0  0.00000000000E+00  0.00000000000E+00  0.12665521102E+04  0.12665521142E+04  0.10100000352E+00 0.  1.
       -3   -1    0    0    0  501  0.00000000000E+00  0.00000000000E+00 -0.12339421816E+04  0.12339421858E+04  0.10100000352E+00 0. -1.
    10030    2    1    2    0    0  0.00000000000E+00  0.00000000000E+00  0.32609928545E+02  0.25004942999E+04  0.25002816515E+04 0.  0.
        3    1    3    3  502    0 -0.57403832797E+03 -0.28689395918E+03  0.10892540429E+04  0.12642399004E+04  0.10100000352E+00 0.  1.
       -3    1    3    3    0  502  0.57403832797E+03  0.28689395918E+03 -0.10566441143E+04  0.12362543995E+04  0.10100000352E+00 0. -1.
</event>
<event>
 5   0  0.3972587E-07  0.2500683E+04  0.7818609E-02  0.8402742E-01
       -1   -1    0    0    0  501  0.00000000000E+00  0.00000000000E+00  0.61511293598E+03  0.61511293600E+03  0.50400001928E-02 0.  1.
        1   -1    0    0  501    0  0.00000000000E+00  0.00000000000E+00 -0.25415724850E+04  0.25415724850E+04  0.50400001928E-02 0. -1.
    10030    2    1    2    0    0  0.00000000000E+00  0.00000000000E+00 -0.19264595490E+04  0.31566854210E+04  0.25006831973E+04 0.  0.
        3    1    3    3  502    0  0.11084710241E+04  0.19594180163E+03 -0.16503044403E+04  0.19976501087E+04  0.10100000352E+00 0. -1.
       -3    1    3    3    0  502 -0.11084710241E+04 -0.19594180163E+03 -0.27615510877E+03  0.11590353123E+04  0.10100000352E+00 0.  1.
</event>
<event>
 5   0  0.9251138E-07  0.2503796E+04  0.7818609E-02  0.8401634E-01
       -2   -1    0    0    0  501  0.00000000000E+00  0.00000000000E+00  0.71681328108E+03  0.71681328109E+03  0.25500000920E-02 0. -1.
        2   -1    0    0  501    0  0.00000000000E+00  0.00000000000E+00 -0.21864118902E+04  0.21864118902E+04  0.25500000920E-02 0.  1.
    10030    2    1    2    0    0  0.00000000000E+00  0.00000000000E+00 -0.14695986091E+04  0.29032251712E+04  0.25037963821E+04 0.  0.
        5    1    3    3  502    0 -0.33975552117E+03 -0.37883090255E+03 -0.20610698293E+04  0.21229643422E+04  0.46999998093E+01 0.  1.
       -5    1    3    3    0  502  0.33975552117E+03  0.37883090255E+03  0.59147122028E+03  0.78026082902E+03  0.46999998093E+01 0. -1.
</event>
<event>
 5   0  0.3805418E-07  0.2499912E+04  0.7818609E-02  0.8403017E-01
        1   -1    0    0  501    0  0.00000000000E+00  0.00000000000E+00  0.12572571469E+04  0.12572571469E+04  0.50400001928E-02 0. -1.
       -1   -1    0    0    0  501  0.00000000000E+00  0.00000000000E+00 -0.12426973362E+04  0.12426973362E+04  0.50400001928E-02 0.  1.
    10030    2    1    2    0    0  0.00000000000E+00  0.00000000000E+00  0.14559810690E+02  0.24999544831E+04  0.24999120843E+04 0.  0.
        4    1    3    3  502    0 -0.26053668353E+02 -0.51865841674E+03  0.11442702293E+04  0.12565991077E+04  0.12699999809E+01 0. -1.
       -4    1    3    3    0  502  0.26053668353E+02  0.51865841674E+03 -0.11297104186E+04  0.12433553754E+04  0.12699999809E+01 0.  1.
</event>
<event>
 5   0  0.8997210E-07  0.2500629E+04  0.7818609E-02  0.8402761E-01
        2   -1    0    0  501    0  0.00000000000E+00  0.00000000000E+00  0.71881432253E+03  0.71881432254E+03  0.25500000920E-02 0.  1.
       -2   -1    0    0    0  501  0.00000000000E+00  0.00000000000E+00 -0.21748132551E+04  0.21748132551E+04  0.25500000920E-02 0. -1.
    10030    2    1    2    0    0  0.00000000000E+00  0.00000000000E+00 -0.14559989326E+04  0.28936275777E+04  0.25006294541E+04 0.  0.
        1    1    3    3  502    0  0.44462364146E+03 -0.71618812328E+03  0.34052412901E+03  0.90916021302E+03  0.50400001928E-02 0.  1.
       -1    1    3    3    0  502 -0.44462364146E+03  0.71618812328E+03 -0.17965230616E+04  0.19844673647E+04  0.50400001928E-02 0. -1.
</event>
<event>
 5   0  0.9508784E-07  0.2494675E+04  0.7818609E-02  0.8404885E-01
        2   -1    0    0  501    0  0.00000000000E+00  0.00000000000E+00  0.17015675242E+04  0.17015675242E+04  0.25500000920E-02 0.  1.
       -2   -1    0    0    0  501  0.00000000000E+00  0.00000000000E+00 -0.91436352635E+03  0.91436352635E+03  0.25500000920E-02 0. -1.
    10030    2    1    2    0    0  0.00000000000E+00  0.00000000000E+00  0.78720399788E+03  0.26159310506E+04  0.24946753551E+04 0.  0.
        2    1    3    3  502    0  0.38304810210E+03  0.22895702517E+02  0.16381346250E+04  0.16824788591E+04  0.25500000920E-02 0.  1.
       -2    1    3    3    0  502 -0.38304810210E+03 -0.22895702517E+02 -0.85093062709E+03  0.93345219151E+03  0.25500000920E-02 0. -1.
</event>
<event>
 5   0  0.3837524E-07  0.2500203E+04  0.7818609E-02  0.8402913E-01
       -1   -1    0    0    0  501  0.00000000000E+00  0.00000000000E+00  0.20530526553E+04  0.20530526553E+04  0.50400001928E-02 0.  1.
        1   -1    0    0  501    0  0.00000000000E+00  0.00000000000E+00 -0.76118536645E+03  0.76118536647E+03  0.50400001928E-02 0. -1.
    10030    2    1    2    0    0  0.00000000000E+00  0.00000000000E+00  0.12918672889E+04  0.28142380218E+04  0.25002029020E+04 0.  0.
        5    1    3    3  502    0 -0.70645681130E+03 -0.38888141262E+03 -0.42925171685E+03  0.91355848512E+03  0.46999998093E+01 0. -1.
       -5    1    3    3    0  502  0.70645681130E+03  0.38888141262E+03  0.17211190057E+04  0.19006795367E+04  0.46999998093E+01 0.  1.
</event>
<event>
 5   0  0.9261602E-07  0.2500321E+04  0.7818609E-02  0.8402871E-01
        2   -1    0    0  501    0  0.00000000000E+00  0.00000000000E+00  0.13294209084E+04  0.13294209084E+04  0.25500000920E-02 0. -1.
       -2   -1    0    0    0  501  0.00000000000E+00  0.00000000000E+00 -0.11756258740E+04  0.11756258740E+04  0.25500000920E-02 0.  1.
    10030    2    1    2    0    0  0.00000000000E+00  0.00000000000E+00  0.15379503443E+03  0.25050467824E+04  0.25003212732E+04 0.  0.
        4    1    3    3  502    0  0.51736765661E+03  0.61199545652E+03 -0.88444306070E+03  0.11935027740E+04  0.12699999809E+01 0.  1.
       -4    1    3    3    0  502 -0.51736765661E+03 -0.61199545652E+03  0.10382380951E+04  0.13115440084E+04  0.12699999809E+01 0. -1.
</event>
<event>
 5   0  0.9251138E-07  0.2500028E+04  0.7818609E-02  0.8402976E-01
       -2   -1    0    0    0  501  0.00000000000E+00  0.00000000000E+00  0.52602773033E+03  0.52602773034E+03  0.25500000920E-02 0. -1.
        2   -1    0    0  501    0  0.00000000000E+00  0.00000000000E+00 -0.29704423185E+04  0.29704423186E+04  0.25500000920E-02 0.  1.
    10030    2    1    2    0    0  0.00000000000E+00  0.00000000000E+00 -0.24444145882E+04  0.34964700489E+04  0.25000280246E+04 0.  0.
        5    1    3    3  502    0  0.26038656690E+03 -0.49348743997E+03 -0.27865977797E+04  0.28419148991E+04  0.46999998093E+01 0.  1.
       -5    1    3    3    0  502 -0.26038656690E+03  0.49348743997E+03  0.34218319149E+03  0.65455514983E+03  0.46999998093E+01 0. -1.
</event>
<event>
 5   0  0.3805418E-07  0.2499933E+04  0.7818609E-02  0.8403009E-01
        1   -1    0    0  501    0  0.00000000000E+00  0.00000000000E+00  0.15525687602E+04  0.15525687602E+04  0.50400001928E-02 0.  1.
       -1   -1    0    0    0  501  0.00000000000E+00  0.00000000000E+00 -0.10063425008E+04  0.10063425008E+04  0.50400001928E-02 0. -1.
    10030    2    1    2    0    0  0.00000000000E+00  0.00000000000E+00  0.54622625941E+03  0.25589112610E+04  0.24999327421E+04 0.  0.
        4    1    3    3  502    0 -0.11978365043E+04  0.90586770209E+02 -0.80576154513E+02  0.12039569691E+04  0.12699999809E+01 0. -1.
       -4    1    3    3    0  502  0.11978365043E+04 -0.90586770209E+02  0.62680241393E+03  0.13549542918E+04  0.12699999809E+01 0.  1.
</event>
<event>
 5   0  0.8997210E-07  0.2499855E+04  0.7818609E-02  0.8403037E-01
        2   -1    0    0  501    0  0.00000000000E+00  0.00000000000E+00  0.11382229042E+04  0.11382229042E+04  0.25500000920E-02 0. -1.
       -2   -1    0    0    0  501  0.00000000000E+00  0.00000000000E+00 -0.13725951171E+04  0.13725951171E+04  0.25500000920E-02 0.  1.
    10030    2    1    2    0    0  0.00000000000E+00  0.00000000000E+00 -0.23437221286E+03  0.25108180214E+04  0.24998553563E+04 0.  0.
        1    1    3    3  502    0  0.76439137704E+03  0.88282587097E+03 -0.56483502631E+03  0.12971947821E+04  0.50400001928E-02 0.  1.
       -1    1    3    3    0  502 -0.76439137704E+03 -0.88282587097E+03  0.33046281345E+03  0.12136232392E+04  0.50400001928E-02 0. -1.
</event>
<event>
 5   0  0.3837524E-07  0.2498507E+04  0.7818609E-02  0.8403517E-01
       -1   -1    0    0    0  501  0.00000000000E+00  0.00000000000E+00  0.12703723402E+04  0.12703723402E+04  0.50400001928E-02 0.  1.
        1   -1    0    0  501    0  0.00000000000E+00  0.00000000000E+00 -0.12284861491E+04  0.12284861491E+04  0.50400001928E-02 0. -1.
    10030    2    1    2    0    0  0.00000000000E+00  0.00000000000E+00  0.41886191108E+02  0.24988584893E+04  0.24985074138E+04 0.  0.
        5    1    3    3  502    0 -0.70994137122E+01  0.34918612041E+03  0.12205412409E+04  0.12695370648E+04  0.46999998093E+01 0.  1.
       -5    1    3    3    0  502  0.70994137122E+01 -0.34918612041E+03 -0.11786550498E+04  0.12293214245E+04  0.46999998093E+01 0. -1.
</event>
<event>
 5   0  0.3972587E-07  0.2498627E+04  0.7818609E-02  0.8403475E-01
        1   -1    0    0  501    0  0.00000000000E+00  0.00000000000E+00  0.12344575068E+04  0.12344575068E+04  0.50400001928E-02 0.  1.
       -1   -1    0    0    0  501  0.00000000000E+00  0.00000000000E+00 -0.12643480186E+04  0.12643480186E+04  0.50400001928E-02 0. -1.
    10030    2    1    2    0    0  0.00000000000E+00  0.00000000000E+00 -0.29890511828E+02  0.24988055254E+04  0.24986267451E+04 0.  0.
        3    1    3    3  502    0  0.76801028581E+03 -0.98342671355E+03 -0.76723396802E+02  0.12501417479E+04  0.10100000352E+00 0.  1.
       -3    1    3    3    0  502 -0.76801028581E+03  0.98342671355E+03  0.46832884974E+02  0.12486637775E+04  0.10100000352E+00 0. -1.
</event>
<event>
 5   0  0.3972587E-07  0.2498770E+04  0.7818609E-02  0.8403424E-01
        1   -1    0    0  501    0  0.00000000000E+00  0.00000000000E+00  0.10501707270E+04  0.10501707270E+04  0.50400001928E-02 0. -1.
       -1   -1    0    0    0  501  0.00000000000E+00  0.00000000000E+00 -0.14863902039E+04  0.14863902039E+04  0.50400001928E-02 0.  1.
    10030    2    1    2    0    0  0.00000000000E+00  0.00000000000E+00 -0.43621947689E+03  0.25365609308E+04  0.24987704824E+04 0.  0.
        3    1    3    3  502    0  0.24546395500E+03  0.10816001640E+04  0.36578668617E+03  0.11678661644E+04  0.10100000352E+00 0. -1.
       -3    1    3    3    0  502 -0.24546395500E+03 -0.10816001640E+04 -0.80200616305E+03  0.13686947665E+04  0.10100000352E+00 0.  1.
</event>
<event>
 5   0  0.3991066E-07  0.2498350E+04  0.7818609E-02  0.8403574E-01
       -1   -1    0    0    0  501  0.00000000000E+00  0.00000000000E+00  0.11529392161E+04  0.11529392161E+04  0.50400001928E-02 0.  1.
        1   -1    0    0  501    0  0.00000000000E+00  0.00000000000E+00 -0.13534437072E+04  0.13534437072E+04  0.50400001928E-02 0. -1.
    10030    2    1    2    0    0  0.00000000000E+00  0.00000000000E+00 -0.20050449108E+03  0.25063829234E+04  0.24983501171E+04 0.  0.
        1    1    3    3  502    0  0.37957934505E+03 -0.10447527729E+04 -0.67204048474E+03  0.12989331194E+04  0.50400001928E-02 0. -1.
       -1    1    3    3    0  502 -0.37957934505E+03  0.10447527729E+04  0.47153599366E+03  0.12074498039E+04  0.50400001928E-02 0.  1.
</event>
<event>
 5   0  0.9768582E-07  0.2499547E+04  0.7818609E-02  0.8403147E-01
        2   -1    0    0  501    0  0.00000000000E+00  0.00000000000E+00  0.10519957686E+04  0.10519957686E+04  0.25500000920E-02 0. -1.
       -2   -1    0    0    0  501  0.00000000000E+00  0.00000000000E+00 -0.14847333977E+04  0.14847333977E+04  0.25500000920E-02 0.  1.
    10030    2    1    2    0    0  0.00000000000E+00  0.00000000000E+00 -0.43273762910E+03  0.25367291663E+04  0.24995465603E+04 0.  0.
        3    1    3    3  502    0 -0.61006473667E+03  0.42178761680E+03  0.80450208564E+03  0.10942154233E+04  0.10100000352E+00 0. -1.
       -3    1    3    3    0  502  0.61006473667E+03 -0.42178761680E+03 -0.12372397147E+04  0.14425137429E+04  0.10100000352E+00 0.  1.
</event>
<event>
 5   0  0.3214375E-07  0.2487679E+04  0.7818609E-02  0.8407388E-01
        3   -1    0    0  501    0  0.00000000000E+00  0.00000000000E+00  0.13698343584E+04  0.13698343621E+04  0.10100000352E+00 0. -1.
       -3   -1    0    0    0  501  0.00000000000E+00  0.00000000000E+00 -0.11294331227E+04  0.11294331272E+04  0.10100000352E+00 0.  1.
    10030    2    1    2    0    0  0.00000000000E+00  0.00000000000E+00  0.24040123568E+03  0.24992674894E+04  0.24876786829E+04 0.  0.
        4    1    3    3  502    0 -0.74006833806E+03 -0.99964017388E+03  0.10777074742E+03  0.12484381319E+04  0.12699999809E+01 0.  1.
       -4    1    3    3    0  502  0.74006833806E+03  0.99964017388E+03  0.13263048826E+03  0.12508293575E+04  0.12699999809E+01 0. -1.
</event>
<event>
 5   0  0.9768582E-07  0.2500528E+04  0.7818609E-02  0.8402798E-01
        2   -1    0    0  501    0  0.00000000000E+00  0.00000000000E+00  0.97519056537E+03  0.97519056537E+03  0.25500000920E-02 0.  1.
       -2   -1    0    0    0  501  0.00000000000E+00  0.00000000000E+00 -0.16029274994E+04  0.16029274994E+04  0.25500000920E-02 0. -1.
    10030    2    1    2    0    0  0.00000000000E+00  0.00000000000E+00 -0.62773693407E+03  0.25781180648E+04  0.25005277638E+04 0.  0.
        3    1    3    3  502    0 -0.11460651957E+04  0.78442255121E+02 -0.82268040438E+03  0.14129478682E+04  0.10100000352E+00 0. -1.
       -3    1    3    3    0  502  0.11460651957E+04 -0.78442255121E+02  0.19494347030E+03  0.11651701966E+04  0.10100000352E+00 0.  1.
</event>
<event>
 5   0  0.9251138E-07  0.2500100E+04  0.7818609E-02  0.8402950E-01
       -2   -1    0    0    0  501  0.00000000000E+00  0.00000000000E+00  0.91347269800E+03  0.91347269800E+03  0.25500000920E-02 0. -1.
        2   -1    0    0  501    0  0.00000000000E+00  0.00000000000E+00 -0.17106421760E+04  0.17106421760E+04  0.25500000920E-02 0.  1.
    10030    2    1    2    0    0  0.00000000000E+00  0.00000000000E+00 -0.79716947803E+03  0.26241148740E+04  0.25000999371E+04 0.  0.
        5    1    3    3  502    0  0.72544417126E+03 -0.35413451723E+03  0.60318093980E+03  0.10077350039E+04  0.46999998093E+01 0. -1.
       -5    1    3    3    0  502 -0.72544417126E+03  0.35413451723E+03 -0.14003504178E+04  0.16163798701E+04  0.46999998093E+01 0.  1.
</event>
<event>
 5   0  0.3873231E-07  0.2497088E+04  0.7818609E-02  0.8404024E-01
        1   -1    0    0  501    0  0.00000000000E+00  0.00000000000E+00  0.15745941399E+04  0.15745941399E+04  0.50400001928E-02 0.  1.
       -1   -1    0    0    0  501  0.00000000000E+00  0.00000000000E+00 -0.99000885885E+03  0.99000885886E+03  0.50400001928E-02 0. -1.
    10030    2    1    2    0    0  0.00000000000E+00  0.00000000000E+00  0.58458528106E+03  0.25646029988E+04  0.24970880222E+04 0.  0.
        2    1    3    3  502    0 -0.79835826109E+03 -0.95817267262E+03  0.23248268253E+03  0.12686681920E+04  0.25500000920E-02 0. -1.
       -2    1    3    3    0  502  0.79835826109E+03  0.95817267262E+03  0.35210259853E+03  0.12959348068E+04  0.25500000920E-02 0.  1.
</event>
<event>
 5   0  0.3805418E-07  0.2502475E+04  0.7818609E-02  0.8402104E-01
        1   -1    0    0  501    0  0.00000000000E+00  0.00000000000E+00  0.14223140234E+04  0.14223140234E+04  0.50400001928E-02 0.  1.
       -1   -1    0    0    0  501  0.00000000000E+00  0.00000000000E+00 -0.11007380616E+04  0.11007380617E+04  0.50400001928E-02 0. -1.
    10030    2    1    2    0    0  0.00000000000E+00  0.00000000000E+00  0.32157596179E+03  0.25230520851E+04  0.25024749199E+04 0.  0.
        4    1    3    3  502    0 -0.95887223335E+02 -0.50084907631E+03  0.13127897316E+04  0.14083545893E+04  0.12699999809E+01 0.  1.
       -4    1    3    3    0  502  0.95887223335E+02  0.50084907631E+03 -0.99121376981E+03  0.11146974958E+04  0.12699999809E+01 0. -1.
</event>
<event>
 5   0  0.9508784E-07  0.2500159E+04  0.7818609E-02  0.8402929E-01
        2   -1    0    0  501    0  0.00000000000E+00  0.00000000000E+00  0.13609030236E+04  0.13609030236E+04  0.25500000920E-02 0. -1.
       -2   -1    0    0    0  501  0.00000000000E+00  0.00000000000E+00 -0.11482811123E+04  0.11482811123E+04  0.25500000920E-02 0.  1.
    10030    2    1    2    0    0  0.00000000000E+00  0.00000000000E+00  0.21262191128E+03  0.25091841359E+04  0.25001593850E+04 0.  0.
        2    1    3    3  502    0 -0.88993743596E+03  0.72646447603E+02 -0.77173744096E+03  0.11801884697E+04  0.25500000920E-02 0.  1.
       -2    1    3    3    0  502  0.88993743596E+03 -0.72646447603E+02  0.98435935225E+03  0.13289956661E+04  0.25500000920E-02 0. -1.
</event>
<event>
 5   0  0.9768582E-07  0.2499264E+04  0.7818609E-02  0.8403248E-01
       -2   -1    0    0    0  501  0.00000000000E+00  0.00000000000E+00  0.12787173463E+04  0.12787173463E+04  0.25500000920E-02 0.  1.
        2   -1    0    0  501    0  0.00000000000E+00  0.00000000000E+00 -0.12212078541E+04  0.12212078541E+04  0.25500000920E-02 0. -1.
    10030    2    1    2    0    0  0.00000000000E+00  0.00000000000E+00  0.57509492240E+02  0.24999252004E+04  0.24992636248E+04 0.  0.
        3    1    3    3  502    0  0.32094186645E+03 -0.12066529578E+04  0.79410170744E+02  0.12511279022E+04  0.10100000352E+00 0. -1.
       -3    1    3    3    0  502 -0.32094186645E+03  0.12066529578E+04 -0.21900678504E+02  0.12487972983E+04  0.10100000352E+00 0.  1.
</event>
<event>
 5   0  0.3991066E-07  0.2500000E+04  0.7818609E-02  0.8402985E-01
       -1   -1    0    0    0  501  0.00000000000E+00  0.00000000000E+00  0.11357002806E+04  0.11357002806E+04  0.50400001928E-02 0.  1.
        1   -1    0    0  501    0  0.00000000000E+00  0.00000000000E+00 -0.13758034754E+04  0.13758034755E+04  0.50400001928E-02 0. -1.
    10030    2    1    2    0    0  0.00000000000E+00  0.00000000000E+00 -0.24010319483E+03  0.25115037561E+04  0.25000003145E+04 0.  0.
        1    1    3    3  502    0 -0.18079903916E+03  0.67259176055E+03  0.92271902924E+03  0.11560615796E+04  0.50400001928E-02 0.  1.
       -1    1    3    3    0  502  0.18079903916E+03 -0.67259176055E+03 -0.11628222241E+04  0.13554421765E+04  0.50400001928E-02 0. -1.
</event>
<event>
 5   0  0.9251138E-07  0.2501098E+04  0.7818609E-02  0.8402594E-01
       -2   -1    0    0    0  501  0.00000000000E+00  0.00000000000E+00  0.13664023112E+04  0.13664023112E+04  0.25500000920E-02 0. -1.
        2   -1    0    0  501    0  0.00000000000E+00  0.00000000000E+00 -0.11445187841E+04  0.11445187841E+04  0.25500000920E-02 0.  1.
    10030    2    1    2    0    0  0.00000000000E+00  0.00000000000E+00  0.22188352711E+03  0.25109210953E+04  0.25010982482E+04 0.  0.
        5    1    3    3  502    0 -0.85403029718E+03  0.38565615942E+03  0.94229586709E+03  0.13289251344E+04  0.46999998093E+01 0. -1.
       -5    1    3    3    0  502  0.85403029718E+03 -0.38565615942E+03 -0.72041233998E+03  0.11819959608E+04  0.46999998093E+01 0.  1.
</event>
<event>
 5   0  0.3805418E-07  0.2499006E+04  0.7818609E-02  0.8403340E-01
        1   -1    0    0  501    0  0.00000000000E+00  0.00000000000E+00  0.16582144497E+04  0.16582144497E+04  0.50400001928E-02 0.  1.
       -1   -1    0    0    0  501  0.00000000000E+00  0.00000000000E+00 -0.94152943133E+03  0.94152943134E+03  0.50400001928E-02 0. -1.
    10030    2    1    2    0    0  0.00000000000E+00  0.00000000000E+00  0.71668501836E+03  0.25997438810E+04  0.24990059687E+04 0.  0.
        4    1    3    3  502    0 -0.80479472459E+03  0.58546115616E+03  0.11443089969E+04  0.15165434407E+04  0.12699999809E+01 0.  1.
       -4    1    3    3    0  502  0.80479472459E+03 -0.58546115616E+03 -0.42762397856E+03  0.10832004404E+04  0.12699999809E+01 0. -1.
</event>
<event>
 5   0  0.3837524E-07  0.2500203E+04  0.7818609E-02  0.8402913E-01
       -1   -1    0    0    0  501  0.00000000000E+00  0.00000000000E+00  0.16579315483E+04  0.16579315483E+04  0.50400001928E-02 0. -1.
        1   -1    0    0  501    0  0.00000000000E+00  0.00000000000E+00 -0.94259278455E+03  0.94259278456E+03  0.50400001928E-02 0.  1.
    10030    2    1    2    0    0  0.00000000000E+00  0.00000000000E+00  0.71533876379E+03  0.26005243329E+04  0.25002034435E+04 0.  0.
        5    1    3    3  502    0 -0.23030141714E+03 -0.12228607762E+04  0.23326675124E+03  0.12660421352E+04  0.46999998093E+01 0.  1.
       -5    1    3    3    0  502  0.23030141714E+03  0.12228607762E+04  0.48207201255E+03  0.13344821977E+04  0.46999998093E+01 0. -1.
</event>
<event>
 5   0  0.9508784E-07  0.2499625E+04  0.7818609E-02  0.8403119E-01
       -2   -1    0    0    0  501  0.00000000000E+00  0.00000000000E+00  0.99114741097E+03  0.99114741097E+03  0.25500000920E-02 0. -1.
        2   -1    0    0  501    0  0.00000000000E+00  0.00000000000E+00 -0.15759830222E+04  0.15759830222E+04  0.25500000920E-02 0.  1.
    10030    2    1    2    0    0  0.00000000000E+00  0.00000000000E+00 -0.58483561127E+03  0.25671304332E+04  0.24996251657E+04 0.  0.
        2    1    3    3  502    0  0.17445639872E+03 -0.12257778958E+04 -0.11732904642E+03  0.12436770441E+04  0.25500000920E-02 0.  1.
       -2    1    3    3    0  502 -0.17445639872E+03  0.12257778958E+04 -0.46750656485E+03  0.13234533891E+04  0.25500000920E-02 0. -1.
</event>
<event>
 5   0  0.3991066E-07  0.2495088E+04  0.7818609E-02  0.8404737E-01
       -1   -1    0    0    0  501  0.00000000000E+00  0.00000000000E+00  0.86216607575E+03  0.86216607576E+03  0.50400001928E-02 0.  1.
        1   -1    0    0  501    0  0.00000000000E+00  0.00000000000E+00 -0.18051814652E+04  0.18051814652E+04  0.50400001928E-02 0. -1.
    10030    2    1    2    0    0  0.00000000000E+00  0.00000000000E+00 -0.94301538942E+03  0.26673475409E+04  0.24950881506E+04 0.  0.
        1    1    3    3  502    0  0.12201675703E+04  0.19809758579E+03 -0.65139455360E+03  0.13972710609E+04  0.50400001928E-02 0. -1.
       -1    1    3    3    0  502 -0.12201675703E+04 -0.19809758579E+03 -0.29162083582E+03  0.12700764800E+04  0.50400001928E-02 0.  1.
</event>
<event>
 5   0  0.3873231E-07  0.2500168E+04  0.7818609E-02  0.8402926E-01
       -1   -1    0    0    0  501  0.00000000000E+00  0.00000000000E+00  0.10426062517E+04  0.10426062517E+04  0.50400001928E-02 0. -1.
        1   -1    0    0  501    0  0.00000000000E+00  0.00000000000E+00 -0.14988495063E+04  0.14988495063E+04  0.50400001928E-02 0.  1.
    10030    2    1    2    0    0  0.00000000000E+00  0.00000000000E+00 -0.45624325461E+03  0.25414557581E+04  0.25001678869E+04 0.  0.
        2    1    3    3  502    0 -0.34022850632E+03  0.27663343101E+03  0.96186355111E+03  0.10571012168E+04  0.25500000920E-02 0. -1.
       -2    1    3    3    0  502  0.34022850632E+03 -0.27663343101E+03 -0.14181068057E+04  0.14843545412E+04  0.25500000920E-02 0.  1.
</event>
<event>
 5   0  0.9251138E-07  0.2503325E+04  0.7818609E-02  0.8401802E-01
       -2   -1    0    0    0  501  0.00000000000E+00  0.00000000000E+00  0.16498782252E+04  0.16498782252E+04  0.25500000920E-02 0.  1.
        2   -1    0    0  501    0  0.00000000000E+00  0.00000000000E+00 -0.94956072031E+03  0.94956072031E+03  0.25500000920E-02 0. -1.
    10030    2    1    2    0    0  0.00000000000E+00  0.00000000000E+00  0.70031750488E+03  0.25994389455E+04  0.25033254331E+04 0.  0.
        5    1    3    3  502    0  0.10661430325E+04  0.62400758396E+03  0.55936631216E+03  0.13560822954E+04  0.46999998093E+01 0.  1.
       -5    1    3    3    0  502 -0.10661430325E+04 -0.62400758396E+03  0.14095119272E+03  0.12433566501E+04  0.46999998093E+01 0. -1.
</event>
<event>
 5   0  0.9261602E-07  0.2497971E+04  0.7818609E-02  0.8403709E-01
        2   -1    0    0  501    0  0.00000000000E+00  0.00000000000E+00  0.23849820552E+04  0.23849820552E+04  0.25500000920E-02 0. -1.
       -2   -1    0    0    0  501  0.00000000000E+00  0.00000000000E+00 -0.65407842764E+03  0.65407842765E+03  0.25500000920E-02 0.  1.
    10030    2    1    2    0    0  0.00000000000E+00  0.00000000000E+00  0.17309036275E+04  0.30390604828E+04  0.24979714271E+04 0.  0.
        4    1    3    3  502    0 -0.11519107538E+04 -0.28042028349E+03  0.13435503377E+04  0.17918323144E+04  0.12699999809E+01 0. -1.
       -4    1    3    3    0  502  0.11519107538E+04  0.28042028349E+03  0.38735328978E+03  0.12472281684E+04  0.12699999809E+01 0.  1.
</event>
<event>
 5   0  0.3873231E-07  0.2497634E+04  0.7818609E-02  0.8403829E-01
        1   -1    0    0  501    0  0.00000000000E+00  0.00000000000E+00  0.12917199924E+04  0.12917199925E+04  0.50400001928E-02 0. -1.
       -1   -1    0    0    0  501  0.00000000000E+00  0.00000000000E+00 -0.12073390205E+04  0.12073390205E+04  0.50400001928E-02 0.  1.
    10030    2    1    2    0    0  0.00000000000E+00  0.00000000000E+00  0.84380971920E+02  0.24990590130E+04  0.24976340408E+04 0.  0.
        2    1    3    3  502    0 -0.89131782254E+03 -0.31342143727E+02  0.91682544223E+03  0.12790616413E+04  0.25500000920E-02 0. -1.
       -2    1    3    3    0  502  0.89131782254E+03  0.31342143727E+02 -0.83244447031E+03  0.12199973717E+04  0.25500000920E-02 0.  1.
</event>
<event>
 5   0  0.3972587E-07  0.2497988E+04  0.7818609E-02  0.8403703E-01
        1   -1    0    0  501    0  0.00000000000E+00  0.00000000000E+00  0.14975021859E+04  0.14975021859E+04  0.50400001928E-02 0.  1.
       -1   -1    0    0    0  501  0.00000000000E+00  0.00000000000E+00 -0.10417252312E+04  0.10417252312E+04  0.50400001928E-02 0. -1.
    10030    2    1    2    0    0  0.00000000000E+00  0.00000000000E+00  0.45577695466E+03  0.25392274171E+04  0.24979878389E+04 0.  0.
        3    1    3    3  502    0  0.75752181295E+03 -0.97154336888E+03  0.43682990761E+03  0.13071175131E+04  0.10100000352E+00 0.  1.
       -3    1    3    3    0  502 -0.75752181295E+03  0.97154336888E+03  0.18947047058E+02  0.12321099040E+04  0.10100000352E+00 0. -1.
</event>
<event>
 5   0  0.3873231E-07  0.2499776E+04  0.7818609E-02  0.8403065E-01
       -1   -1    0    0    0  501  0.00000000000E+00  0.00000000000E+00  0.10377281057E+04  0.10377281057E+04  0.50400001928E-02 0. -1.
        1   -1    0    0  501    0  0.00000000000E+00  0.00000000000E+00 -0.15054232567E+04  0.15054232567E+04  0.50400001928E-02 0.  1.
    10030    2    1    2    0    0  0.00000000000E+00  0.00000000000E+00 -0.46769515096E+03  0.25431513624E+04  0.24997760095E+04 0.  0.
        2    1    3    3  502    0 -0.79741163601E+03  0.30673729900E+03  0.69426879764E+03  0.11008915711E+04  0.25500000920E-02 0. -1.
       -2    1    3    3    0  502  0.79741163601E+03 -0.30673729900E+03 -0.11619639486E+04  0.14422597913E+04  0.25500000920E-02 0.  1.
</event>
<event>
 5   0  0.9768582E-07  0.2500654E+04  0.7818609E-02  0.8402753E-01
       -2   -1    0    0    0  501  0.00000000000E+00  0.00000000000E+00  0.85784607183E+03  0.85784607183E+03  0.25500000920E-02 0. -1.
        2   -1    0    0  501    0  0.00000000000E+00  0.00000000000E+00 -0.18223748037E+04  0.18223748037E+04  0.25500000920E-02 0.  1.
    10030    2    1    2    0    0  0.00000000000E+00  0.00000000000E+00 -0.96452873185E+03  0.26802208755E+04  0.25006535680E+04 0.  0.
        3    1    3    3  502    0 -0.85620489576E+02 -0.17958916669E+03 -0.18053002483E+04  0.18162301984E+04  0.10100000352E+00 0.  1.
       -3    1    3    3    0  502  0.85620489576E+02  0.17958916669E+03  0.84077151644E+03  0.86399067708E+03  0.10100000352E+00 0. -1.
</event>
<event>
 5   0  0.3837524E-07  0.2500368E+04  0.7818609E-02  0.8402854E-01
        1   -1    0    0  501    0  0.00000000000E+00  0.00000000000E+00  0.17293879355E+04  0.17293879355E+04  0.50400001928E-02 0. -1.
       -1   -1    0    0    0  501  0.00000000000E+00  0.00000000000E+00 -0.90376510998E+03  0.90376510999E+03  0.50400001928E-02 0.  1.
    10030    2    1    2    0    0  0.00000000000E+00  0.00000000000E+00  0.82562282549E+03  0.26331530455E+04  0.25003683550E+04 0.  0.
        5    1    3    3  502    0  0.16211752721E+03  0.74420318019E+02  0.17159074583E+04  0.17251611437E+04  0.46999998093E+01 0. -1.
       -5    1    3    3    0  502 -0.16211752721E+03 -0.74420318019E+02 -0.89028463277E+03  0.90799190178E+03  0.46999998093E+01 0.  1.
</event>
<event>
 5   0  0.3805418E-07  0.2498089E+04  0.7818609E-02  0.8403666E-01
        1   -1    0    0  501    0  0.00000000000E+00  0.00000000000E+00  0.10946291533E+04  0.10946291533E+04  0.50400001928E-02 0. -1.
       -1   -1    0    0    0  501  0.00000000000E+00  0.00000000000E+00 -0.14252431399E+04  0.14252431399E+04  0.50400001928E-02 0.  1.
    10030    2    1    2    0    0  0.00000000000E+00  0.00000000000E+00 -0.33061398661E+03  0.25198722931E+04  0.24980894231E+04 0.  0.
        4    1    3    3  502    0  0.38862834102E+03  0.11783669216E+04 -0.20772934428E+02  0.12409728914E+04  0.12699999809E+01 0. -1.
       -4    1    3    3    0  502 -0.38862834102E+03 -0.11783669216E+04 -0.30984105219E+03  0.12788994018E+04  0.12699999809E+01 0.  1.
</event>
<event>
 5   0  0.3972587E-07  0.2501538E+04  0.7818609E-02  0.8402438E-01
        1   -1    0    0  501    0  0.00000000000E+00  0.00000000000E+00  0.23217672168E+04  0.23217672169E+04  0.50400001928E-02 0.  1.
       -1   -1    0    0    0  501  0.00000000000E+00  0.00000000000E+00 -0.67380697371E+03  0.67380697373E+03  0.50400001928E-02 0. -1.
    10030    2    1    2    0    0  0.00000000000E+00  0.00000000000E+00  0.16479602431E+04  0.29955741906E+04  0.25015378807E+04 0.  0.
        3    1    3    3  502    0 -0.10834721654E+04  0.59408236332E+03  0.59184819138E+03  0.13700839680E+04  0.10100000352E+00 0.  1.
       -3    1    3    3    0  502  0.10834721654E+04 -0.59408236332E+03  0.10561120518E+04  0.16254902226E+04  0.10100000352E+00 0. -1.
</event>
<event>
 5   0  0.8997210E-07  0.2500467E+04  0.7818609E-02  0.8402819E-01
       -2   -1    0    0    0  501  0.00000000000E+00  0.00000000000E+00  0.12147925224E+04  0.12147925224E+04  0.25500000920E-02 0.  1.
        2   -1    0    0  501    0  0.00000000000E+00  0.00000000000E+00 -0.12867082106E+04  0.12867082106E+04  0.25500000920E-02 0. -1.
    10030    2    1    2    0    0  0.00000000000E+00  0.00000000000E+00 -0.71915688172E+02  0.25015007330E+04  0.25004667667E+04 0.  0.
        1    1    3    3  502    0  0.12363722904E+04  0.21744635235E+02 -0.22040936308E+03  0.12560531665E+04  0.50400001928E-02 0. -1.
       -1    1    3    3    0  502 -0.12363722904E+04 -0.21744635235E+02  0.14849367490E+03  0.12454475666E+04  0.50400001928E-02 0.  1.
</event>
<event>
 5   0  0.3991066E-07  0.2500079E+04  0.7818609E-02  0.8402957E-01
       -1   -1    0    0    0  501  0.00000000000E+00  0.00000000000E+00  0.11189766578E+04  0.11189766578E+04  0.50400001928E-02 0. -1.
        1   -1    0    0  501    0  0.00000000000E+00  0.00000000000E+00 -0.13964537728E+04  0.13964537728E+04  0.50400001928E-02 0.  1.
    10030    2    1    2    0    0  0.00000000000E+00  0.00000000000E+00 -0.27747711505E+03  0.25154304306E+04  0.25000793391E+04 0.  0.
        1    1    3    3  502    0 -0.42701205214E+03 -0.81510445374E+03 -0.99002156904E+03  0.13516202390E+04  0.50400001928E-02 0.  1.
       -1    1    3    3    0  502  0.42701205214E+03  0.81510445374E+03  0.71254445399E+03  0.11638101916E+04  0.50400001928E-02 0. -1.
</event>
<event>
 5   0  0.9768582E-07  0.2499782E+04  0.7818609E-02  0.8403063E-01
       -2   -1    0    0    0  501  0.00000000000E+00  0.00000000000E+00  0.97831869987E+03  0.97831869987E+03  0.25500000920E-02 0.  1.
        2   -1    0    0  501    0  0.00000000000E+00  0.00000000000E+00 -0.15968492979E+04  0.15968492979E+04  0.25500000920E-02 0. -1.
    10030    2    1    2    0    0  0.00000000000E+00  0.00000000000E+00 -0.61853059799E+03  0.25751679977E+04  0.24997820137E+04 0.  0.
        3    1    3    3  502    0  0.84524246432E+03  0.43420612198E+03 -0.11456980817E+04  0.14884871127E+04  0.10100000352E+00 0. -1.
       -3    1    3    3    0  502 -0.84524246432E+03 -0.43420612198E+03  0.52716748374E+03  0.10866808851E+04  0.10100000352E+00 0.  1.
</event>
<event>
 5   0  0.9768582E-07  0.2500286E+04  0.7818609E-02  0.8402884E-01
        2   -1    0    0  501    0  0.00000000000E+00  0.00000000000E+00  0.20421106857E+04  0.20421106857E+04  0.25500000920E-02 0.  1.
       -2   -1    0    0    0  501  0.00000000000E+00  0.00000000000E+00 -0.76531490619E+03  0.76531490620E+03  0.25500000920E-02 0. -1.
    10030    2    1    2    0    0  0.00000000000E+00  0.00000000000E+00  0.12767957795E+04  0.28074255919E+04  0.25002861819E+04 0.  0.
        3    1    3    3  502    0  0.54154737927E+03 -0.45293929918E+03  0.17968474274E+04  0.19305668236E+04  0.10100000352E+00 0.  1.
       -3    1    3    3    0  502 -0.54154737927E+03  0.45293929918E+03 -0.52005164795E+03  0.87685876826E+03  0.10100000352E+00 0. -1.
</event>
<event>
 5   0  0.9261602E-07  0.2497838E+04  0.7818609E-02  0.8403756E-01
        2   -1    0    0  501    0  0.00000000000E+00  0.00000000000E+00  0.25459215464E+04  0.25459215464E+04  0.25500000920E-02 0.  1.
       -2   -1    0    0    0  501  0.00000000000E+00  0.00000000000E+00 -0.61266545765E+03  0.61266545765E+03  0.25500000920E-02 0. -1.
    10030    2    1    2    0    0  0.00000000000E+00  0.00000000000E+00  0.19332560888E+04  0.31585870041E+04  0.24978376163E+04 0.  0.
        4    1    3    3  502    0  0.77784754199E+03 -0.43624077677E+03 -0.13898056845E+03  0.90259072962E+03  0.12699999809E+01 0. -1.
       -4    1    3    3    0  502 -0.77784754199E+03  0.43624077677E+03  0.20722366572E+04  0.22559962744E+04  0.12699999809E+01 0.  1.
</event>
<event>
 5   0  0.3972587E-07  0.2486443E+04  0.7818609E-02  0.8407831E-01
        1   -1    0    0  501    0  0.00000000000E+00  0.00000000000E+00  0.17758300779E+04  0.17758300779E+04  0.50400001928E-02 0. -1.
       -1   -1    0    0    0  501  0.00000000000E+00  0.00000000000E+00 -0.87035313140E+03  0.87035313142E+03  0.50400001928E-02 0.  1.
    10030    2    1    2    0    0  0.00000000000E+00  0.00000000000E+00  0.90547694648E+03  0.26461832093E+04  0.24864426550E+04 0.  0.
        3    1    3    3  502    0  0.85826639290E+02  0.49649637500E+03  0.16622956230E+04  0.17369806017E+04  0.10100000352E+00 0. -1.
       -3    1    3    3    0  502 -0.85826639290E+02 -0.49649637500E+03 -0.75681867647E+03  0.90920260760E+03  0.10100000352E+00 0.  1.
</event>
<event>
 5   0  0.9261602E-07  0.2499211E+04  0.7818609E-02  0.8403267E-01
        2   -1    0    0  501    0  0.00000000000E+00  0.00000000000E+00  0.14765178233E+04  0.14765178233E+04  0.25500000920E-02 0. -1.
       -2   -1    0    0    0  501  0.00000000000E+00  0.00000000000E+00 -0.10575653011E+04  0.10575653011E+04  0.25500000920E-02 0.  1.
    10030    2    1    2    0    0  0.00000000000E+00  0.00000000000E+00  0.41895252216E+03  0.25340831244E+04  0.24992110887E+04 0.  0.
        4    1    3    3  502    0  0.50333295926E+02 -0.11386185112E+04  0.72899926259E+03  0.13529327746E+04  0.12699999809E+01 0. -1.
       -4    1    3    3    0  502 -0.50333295926E+02  0.11386185112E+04 -0.31004674043E+03  0.11811503499E+04  0.12699999809E+01 0.  1.
</event>
<event>
 5   0  0.3837524E-07  0.2499845E+04  0.7818609E-02  0.8403041E-01
       -1   -1    0    0    0  501  0.00000000000E+00  0.00000000000E+00  0.12506291775E+04  0.12506291775E+04  0.50400001928E-02 0. -1.
        1   -1    0    0  501    0  0.00000000000E+00  0.00000000000E+00 -0.12492162501E+04  0.12492162501E+04  0.50400001928E-02 0.  1.
    10030    2    1    2    0    0  0.00000000000E+00  0.00000000000E+00  0.14129273984E+01  0.24998454277E+04  0.24998450284E+04 0.  0.
        5    1    3    3  502    0  0.12094159378E+04 -0.30420282327E+03  0.84717983345E+02  0.12499701977E+04  0.46999998093E+01 0. -1.
       -5    1    3    3    0  502 -0.12094159378E+04  0.30420282327E+03 -0.83305055946E+02  0.12498752300E+04  0.46999998093E+01 0.  1.
</event>
<event>
 5   0  0.8997210E-07  0.2500276E+04  0.7818609E-02  0.8402887E-01
        2   -1    0    0  501    0  0.00000000000E+00  0.00000000000E+00  0.15034331694E+04  0.15034331694E+04  0.25500000920E-02 0.  1.
       -2   -1    0    0    0  501  0.00000000000E+00  0.00000000000E+00 -0.10395173028E+04  0.10395173028E+04  0.25500000920E-02 0. -1.
    10030    2    1    2    0    0  0.00000000000E+00  0.00000000000E+00  0.46391586654E+03  0.25429504722E+04  0.25002758194E+04 0.  0.
        1    1    3    3  502    0 -0.48540698704E+03 -0.71260009454E+03  0.11526297291E+04  0.14394353512E+04  0.50400001928E-02 0.  1.
       -1    1    3    3    0  502  0.48540698704E+03  0.71260009454E+03 -0.68871386258E+03  0.11035151210E+04  0.50400001928E-02 0. -1.
</event>
<event>
 5   0  0.3873231E-07  0.2498580E+04  0.7818609E-02  0.8403492E-01
       -1   -1    0    0    0  501  0.00000000000E+00  0.00000000000E+00  0.14921160850E+04  0.14921160850E+04  0.50400001928E-02 0. -1.
        1   -1    0    0  501    0  0.00000000000E+00  0.00000000000E+00 -0.10459813346E+04  0.10459813346E+04  0.50400001928E-02 0.  1.
    10030    2    1    2    0    0  0.00000000000E+00  0.00000000000E+00  0.44613475035E+03  0.25380974196E+04  0.24985800560E+04 0.  0.
        2    1    3    3  502    0 -0.32706800858E+03  0.50025344933E+03  0.13374589225E+04  0.14649311810E+04  0.25500000920E-02 0. -1.
       -2    1    3    3    0  502  0.32706800858E+03 -0.50025344933E+03 -0.89132417214E+03  0.10731662386E+04  0.25500000920E-02 0.  1.
</event>
<event>
 5   0  0.9251138E-07  0.2499654E+04  0.7818609E-02  0.8403109E-01
       -2   -1    0    0    0  501  0.00000000000E+00  0.00000000000E+00  0.12638148112E+04  0.12638148112E+04  0.25500000920E-02 0.  1.
        2   -1    0    0  501    0  0.00000000000E+00  0.00000000000E+00 -0.12359938078E+04  0.12359938078E+04  0.25500000920E-02 0. -1.
    10030    2    1    2    0    0  0.00000000000E+00  0.00000000000E+00  0.27821003404E+02  0.24998086190E+04  0.24996538007E+04 0.  0.
        5    1    3    3  502    0 -0.36591777945E+03 -0.85303629750E+02  0.12059879622E+04  0.12631712415E+04  0.46999998093E+01 0.  1.
       -5    1    3    3    0  502  0.36591777945E+03  0.85303629750E+02 -0.11781669588E+04  0.12366373774E+04  0.46999998093E+01 0. -1.
</event>
<event>
 5   0  0.3972587E-07  0.2499346E+04  0.7818609E-02  0.8403218E-01
       -1   -1    0    0    0  501  0.00000000000E+00  0.00000000000E+00  0.89856386037E+03  0.89856386038E+03  0.50400001928E-02 0.  1.
        1   -1    0    0  501    0  0.00000000000E+00  0.00000000000E+00 -0.17379764527E+04  0.17379764527E+04  0.50400001928E-02 0. -1.
    10030    2    1    2    0    0  0.00000000000E+00  0.00000000000E+00 -0.83941259235E+03  0.26365403131E+04  0.24993461790E+04 0.  0.
        3    1    3    3  502    0  0.65528431359E+03 -0.95556473181E+03  0.74160449060E+02  0.11610345691E+04  0.10100000352E+00 0.  1.
       -3    1    3    3    0  502 -0.65528431359E+03  0.95556473181E+03 -0.91357304141E+03  0.14755057440E+04  0.10100000352E+00 0. -1.
</event>
<event>
 5   0  0.3972587E-07  0.2498251E+04  0.7818609E-02  0.8403609E-01
       -1   -1    0    0    0  501  0.00000000000E+00  0.00000000000E+00  0.13701968549E+04  0.13701968549E+04  0.50400001928E-02 0.  1.
        1   -1    0    0  501    0  0.00000000000E+00  0.00000000000E+00 -0.11387521749E+04  0.11387521749E+04  0.50400001928E-02 0. -1.
    10030    2    1    2    0    0  0.00000000000E+00  0.00000000000E+00  0.23144468001E+03  0.25089490298E+04  0.24982511072E+04 0.  0.
        3    1    3    3  502    0  0.33342723882E+03  0.71628453796E+03  0.10873762986E+04  0.13441073201E+04  0.10100000352E+00 0.  1.
       -3    1    3    3    0  502 -0.33342723882E+03 -0.71628453796E+03 -0.85593161860E+03  0.11648417098E+04  0.10100000352E+00 0. -1.
</event>
<event>
 5   0  0.3214375E-07  0.2503462E+04  0.7818609E-02  0.8401753E-01
        3   -1    0    0  501    0  0.00000000000E+00  0.00000000000E+00  0.16464605021E+04  0.16464605052E+04  0.10100000352E+00 0. -1.
       -3   -1    0    0    0  501  0.00000000000E+00  0.00000000000E+00 -0.95163561566E+03  0.95163562102E+03  0.10100000352E+00 0.  1.
    10030    2    1    2    0    0  0.00000000000E+00  0.00000000000E+00  0.69482488646E+03  0.25980961262E+04  0.25034619746E+04 0.  0.
        1    1    3    3  502    0 -0.34370085044E+03  0.12016431478E+04  0.27585730105E+03  0.12799116297E+04  0.50400001928E-02 0. -1.
       -1    1    3    3    0  502  0.34370085044E+03 -0.12016431478E+04  0.41896758542E+03  0.13181844965E+04  0.50400001928E-02 0.  1.
</event>
<event>
 5   0  0.3991066E-07  0.2500751E+04  0.7818609E-02  0.8402718E-01
       -1   -1    0    0    0  501  0.00000000000E+00  0.00000000000E+00  0.97792375871E+03  0.97792375872E+03  0.50400001928E-02 0. -1.
        1   -1    0    0  501    0  0.00000000000E+00  0.00000000000E+00 -0.15987325343E+04  0.15987325343E+04  0.50400001928E-02 0.  1.
    10030    2    1    2    0    0  0.00000000000E+00  0.00000000000E+00 -0.62080877556E+03  0.25766562930E+04  0.25007507106E+04 0.  0.
        1    1    3    3  502    0 -0.21271273472E+03  0.95320085688E+03 -0.11148719747E+04  0.14821531976E+04  0.50400001928E-02 0.  1.
       -1    1    3    3    0  502  0.21271273472E+03 -0.95320085688E+03  0.49406319917E+03  0.10945030954E+04  0.50400001928E-02 0. -1.
</event>
<event>
 5   0  0.3873231E-07  0.2496029E+04  0.7818609E-02  0.8404402E-01
        1   -1    0    0  501    0  0.00000000000E+00  0.00000000000E+00  0.18213211724E+04  0.18213211724E+04  0.50400001928E-02 0.  1.
       -1   -1    0    0    0  501  0.00000000000E+00  0.00000000000E+00 -0.85517040502E+03  0.85517040503E+03  0.50400001928E-02 0. -1.
    10030    2    1    2    0    0  0.00000000000E+00  0.00000000000E+00  0.96615076738E+03  0.26764915774E+04  0.24960288177E+04 0.  0.
        2    1    3    3  502    0 -0.27845485244E+03  0.57435275770E+03  0.16330498509E+04  0.17533596353E+04  0.25500000920E-02 0.  1.
       -2    1    3    3    0  502  0.27845485244E+03 -0.57435275770E+03 -0.66689908348E+03  0.92313194219E+03  0.25500000920E-02 0. -1.
</event>
<event>
 5   0  0.3837524E-07  0.2500698E+04  0.7818609E-02  0.8402737E-01
       -1   -1    0    0    0  501  0.00000000000E+00  0.00000000000E+00  0.11271116930E+04  0.11271116930E+04  0.50400001928E-02 0.  1.
        1   -1    0    0  501    0  0.00000000000E+00  0.00000000000E+00 -0.13870604040E+04  0.13870604040E+04  0.50400001928E-02 0. -1.
    10030    2    1    2    0    0  0.00000000000E+00  0.00000000000E+00 -0.25994871095E+03  0.25141720970E+04  0.25006975029E+04 0.  0.
        5    1    3    3  502    0 -0.93279409699E+03 -0.74401507174E+03  0.24578629762E+03  0.12182348905E+04  0.46999998093E+01 0.  1.
       -5    1    3    3    0  502  0.93279409699E+03  0.74401507174E+03 -0.50573500857E+03  0.12959372065E+04  0.46999998093E+01 0. -1.
</event>
<event>
 5   0  0.9251138E-07  0.2500341E+04  0.7818609E-02  0.8402864E-01
       -2   -1    0    0    0  501  0.00000000000E+00  0.00000000000E+00  0.17682110803E+04  0.17682110803E+04  0.25500000920E-02 0. -1.
        2   -1    0    0  501    0  0.00000000000E+00  0.00000000000E+00 -0.88390239763E+03  0.88390239764E+03  0.25500000920E-02 0.  1.
    10030    2    1    2    0    0  0.00000000000E+00  0.00000000000E+00  0.88430868269E+03  0.26521134780E+04  0.25003407875E+04 0.  0.
        5    1    3    3  502    0 -0.74342738695E+03 -0.35277617981E+03 -0.55612719819E+03  0.99319427268E+03  0.46999998093E+01 0.  1.
       -5    1    3    3    0  502  0.74342738695E+03  0.35277617981E+03  0.14404358809E+04  0.16589192053E+04  0.46999998093E+01 0. -1.
</event>
<event>
 5   0  0.3837524E-07  0.2499013E+04  0.7818609E-02  0.8403337E-01
        1   -1    0    0  501    0  0.00000000000E+00  0.00000000000E+00  0.15782107475E+04  0.15782107475E+04  0.50400001928E-02 0. -1.
       -1   -1    0    0    0  501  0.00000000000E+00  0.00000000000E+00 -0.98926330406E+03  0.98926330407E+03  0.50400001928E-02 0.  1.
    10030    2    1    2    0    0  0.00000000000E+00  0.00000000000E+00  0.58894744344E+03  0.25674740516E+04  0.24990125879E+04 0.  0.
        5    1    3    3  502    0 -0.12769111861E+03 -0.98693011044E+03  0.10707576890E+04  0.14618071635E+04  0.46999998093E+01 0. -1.
       -5    1    3    3    0  502  0.12769111861E+03  0.98693011044E+03 -0.48181024557E+03  0.11056668881E+04  0.46999998093E+01 0.  1.
</event>
<event>
 5   0  0.8997210E-07  0.2495091E+04  0.7818609E-02  0.8404736E-01
       -2   -1    0    0    0  501  0.00000000000E+00  0.00000000000E+00  0.10589455682E+04  0.10589455682E+04  0.25500000920E-02 0.  1.
        2   -1    0    0  501    0  0.00000000000E+00  0.00000000000E+00 -0.14697358965E+04  0.14697358965E+04  0.25500000920E-02 0. -1.
    10030    2    1    2    0    0  0.00000000000E+00  0.00000000000E+00 -0.41079032834E+03  0.25286814647E+04  0.24950914325E+04 0.  0.
        1    1    3    3  502    0  0.64216104309E+02  0.22610957080E+02 -0.14678518518E+04  0.14694298290E+04  0.50400001928E-02 0. -1.
       -1    1    3    3    0  502 -0.64216104309E+02 -0.22610957080E+02  0.10570615235E+04  0.10592516358E+04  0.50400001928E-02 0.  1.
</event>
<event>
 5   0  0.3991066E-07  0.2500518E+04  0.7818609E-02  0.8402801E-01
        1   -1    0    0  501    0  0.00000000000E+00  0.00000000000E+00  0.93241266130E+03  0.93241266131E+03  0.50400001928E-02 0. -1.
       -1   -1    0    0    0  501  0.00000000000E+00  0.00000000000E+00 -0.16764540638E+04  0.16764540638E+04  0.50400001928E-02 0.  1.
    10030    2    1    2    0    0  0.00000000000E+00  0.00000000000E+00 -0.74404140249E+03  0.26088667251E+04  0.25005175426E+04 0.  0.
        1    1    3    3  502    0  0.16274860599E+03 -0.94412888661E+03  0.46608012571E+03  0.10654093800E+04  0.50400001928E-02 0.  1.
       -1    1    3    3    0  502 -0.16274860599E+03  0.94412888661E+03 -0.12101215282E+04  0.15434573452E+04  0.50400001928E-02 0. -1.
</event>
<event>
 5   0  0.9261602E-07  0.2498761E+04  0.7818609E-02  0.8403427E-01
       -2   -1    0    0    0  501  0.00000000000E+00  0.00000000000E+00  0.18423548021E+04  0.18423548021E+04  0.25500000920E-02 0.  1.
        2   -1    0    0  501    0  0.00000000000E+00  0.00000000000E+00 -0.84725887589E+03  0.84725887589E+03  0.25500000920E-02 0. -1.
    10030    2    1    2    0    0  0.00000000000E+00  0.00000000000E+00  0.99509592620E+03  0.26896136780E+04  0.24987608598E+04 0.  0.
        4    1    3    3  502    0  0.49570260035E+03  0.56299242297E+03 -0.57789864037E+03  0.94691604050E+03  0.12699999809E+01 0. -1.
       -4    1    3    3    0  502 -0.49570260035E+03 -0.56299242297E+03  0.15729945666E+04  0.17426976375E+04  0.12699999809E+01 0.  1.
</event>
<event>
 5   0  0.9768582E-07  0.2499742E+04  0.7818609E-02  0.8403077E-01
       -2   -1    0    0    0  501  0.00000000000E+00  0.00000000000E+00  0.10341863046E+04  0.10341863046E+04  0.25500000920E-02 0. -1.
        2   -1    0    0  501    0  0.00000000000E+00  0.00000000000E+00 -0.15105379938E+04  0.15105379938E+04  0.25500000920E-02 0.  1.
    10030    2    1    2    0    0  0.00000000000E+00  0.00000000000E+00 -0.47635168925E+03  0.25447242984E+04  0.24997421513E+04 0.  0.
        3    1    3    3  502    0 -0.30988573922E+02  0.20045953294E+03  0.10173188900E+04  0.10373437474E+04  0.10100000352E+00 0. -1.
       -3    1    3    3    0  502  0.30988573922E+02 -0.20045953294E+03 -0.14936705793E+04  0.15073805510E+04  0.10100000352E+00 0.  1.
</event>
<event>
 5   0  0.3972587E-07  0.2497041E+04  0.7818609E-02  0.8404040E-01
       -1   -1    0    0    0  501  0.00000000000E+00  0.00000000000E+00  0.78109106158E+03  0.78109106159E+03  0.50400001928E-02 0.  1.
        1   -1    0    0  501    0  0.00000000000E+00  0.00000000000E+00 -0.19956745697E+04  0.19956745697E+04  0.50400001928E-02 0. -1.
    10030    2    1    2    0    0  0.00000000000E+00  0.00000000000E+00 -0.12145835081E+04  0.27767656313E+04  0.24970411036E+04 0.  0.
        3    1    3    3  502    0 -0.48454975835E+03 -0.88196025695E+03 -0.14291065462E+04  0.17478523662E+04  0.10100000352E+00 0. -1.
       -3    1    3    3    0  502  0.48454975835E+03  0.88196025695E+03  0.21452303810E+03  0.10289132652E+04  0.10100000352E+00 0.  1.
</event>
<event>
 5   0  0.3837524E-07  0.2500110E+04  0.7818609E-02  0.8402946E-01
        1   -1    0    0  501    0  0.00000000000E+00  0.00000000000E+00  0.11095823300E+04  0.11095823300E+04  0.50400001928E-02 0.  1.
       -1   -1    0    0    0  501  0.00000000000E+00  0.00000000000E+00 -0.14083111224E+04  0.14083111224E+04  0.50400001928E-02 0. -1.
    10030    2    1    2    0    0  0.00000000000E+00  0.00000000000E+00 -0.29872879239E+03  0.25178934524E+04  0.25001097068E+04 0.  0.
        5    1    3    3  502    0  0.36597814533E+03  0.11840184408E+04 -0.31416016894E+03  0.12784984837E+04  0.46999998093E+01 0. -1.
       -5    1    3    3    0  502 -0.36597814533E+03 -0.11840184408E+04  0.15431376546E+02  0.12393949687E+04  0.46999998093E+01 0.  1.
</event>
<event>
 5   0  0.3214375E-07  0.2500079E+04  0.7818609E-02  0.8402957E-01
        3   -1    0    0  501    0  0.00000000000E+00  0.00000000000E+00  0.80249475848E+03  0.80249476484E+03  0.10100000352E+00 0.  1.
       -3   -1    0    0    0  501  0.00000000000E+00  0.00000000000E+00 -0.19471767748E+04  0.19471767774E+04  0.10100000352E+00 0. -1.
    10030    2    1    2    0    0  0.00000000000E+00  0.00000000000E+00 -0.11446820163E+04  0.27496715423E+04  0.25000793331E+04 0.  0.
        5    1    3    3  502    0 -0.11297950359E+04  0.44936180912E+03 -0.89150930251E+03  0.15077048070E+04  0.46999998093E+01 0.  1.
       -5    1    3    3    0  502  0.11297950359E+04 -0.44936180912E+03 -0.25317271383E+03  0.12419667353E+04  0.46999998093E+01 0. -1.
</event>
<event>
 5   0  0.3805418E-07  0.2499302E+04  0.7818609E-02  0.8403234E-01
        1   -1    0    0  501    0  0.00000000000E+00  0.00000000000E+00  0.11855304770E+04  0.11855304770E+04  0.50400001928E-02 0.  1.
       -1   -1    0    0    0  501  0.00000000000E+00  0.00000000000E+00 -0.13172391911E+04  0.13172391911E+04  0.50400001928E-02 0. -1.
    10030    2    1    2    0    0  0.00000000000E+00  0.00000000000E+00 -0.13170871403E+03  0.25027696681E+04  0.24993016677E+04 0.  0.
        4    1    3    3  502    0  0.34660890120E+03  0.14246526923E+03  0.11279372088E+04  0.11885613334E+04  0.12699999809E+01 0.  1.
       -4    1    3    3    0  502 -0.34660890120E+03 -0.14246526923E+03 -0.12596459228E+04  0.13142083348E+04  0.12699999809E+01 0. -1.
</event>
<event>
 5   0  0.9768582E-07  0.2500622E+04  0.7818609E-02  0.8402764E-01
       -2   -1    0    0    0  501  0.00000000000E+00  0.00000000000E+00  0.12715265271E+04  0.12715265271E+04  0.25500000920E-02 0. -1.
        2   -1    0    0  501    0  0.00000000000E+00  0.00000000000E+00 -0.12294492596E+04  0.12294492596E+04  0.25500000920E-02 0.  1.
    10030    2    1    2    0    0  0.00000000000E+00  0.00000000000E+00  0.42077267542E+02  0.25009757867E+04  0.25006218005E+04 0.  0.
        3    1    3    3  502    0 -0.70060169981E+03 -0.80835069797E+02  0.10536092533E+04  0.12678602128E+04  0.10100000352E+00 0. -1.
       -3    1    3    3    0  502  0.70060169981E+03  0.80835069797E+02 -0.10115319858E+04  0.12331155739E+04  0.10100000352E+00 0.  1.
</event>
<event>
 5   0  0.9508784E-07  0.2500307E+04  0.7818609E-02  0.8402876E-01
        2   -1    0    0  501    0  0.00000000000E+00  0.00000000000E+00  0.14403256019E+04  0.14403256019E+04  0.25500000920E-02 0.  1.
       -2   -1    0    0    0  501  0.00000000000E+00  0.00000000000E+00 -0.10850908573E+04  0.10850908573E+04  0.25500000920E-02 0. -1.
    10030    2    1    2    0    0  0.00000000000E+00  0.00000000000E+00  0.35523474466E+03  0.25254164592E+04  0.25003072948E+04 0.  0.
        2    1    3    3  502    0 -0.83203681148E+03  0.85381904153E+03  0.55768324143E+03  0.13161697494E+04  0.25500000920E-02 0. -1.
       -2    1    3    3    0  502  0.83203681148E+03 -0.85381904153E+03 -0.20244849676E+03  0.12092467098E+04  0.25500000920E-02 0.  1.
</event>
<event>
 5   0  0.9768582E-07  0.2499931E+04  0.7818609E-02  0.8403010E-01
        2   -1    0    0  501    0  0.00000000000E+00  0.00000000000E+00  0.19971069431E+04  0.19971069431E+04  0.25500000920E-02 0. -1.
       -2   -1    0    0    0  501  0.00000000000E+00  0.00000000000E+00 -0.78233883382E+03  0.78233883382E+03  0.25500000920E-02 0.  1.
    10030    2    1    2    0    0  0.00000000000E+00  0.00000000000E+00  0.12147681093E+04  0.27794457770E+04  0.24999314526E+04 0.  0.
        3    1    3    3  502    0 -0.36219903305E+03  0.60723898962E+03  0.17534033058E+04  0.18905952748E+04  0.10100000352E+00 0. -1.
       -3    1    3    3    0  502  0.36219903305E+03 -0.60723898962E+03 -0.53863519650E+03  0.88885050215E+03  0.10100000352E+00 0.  1.
</event>
<event>
 5   0  0.9508784E-07  0.2488665E+04  0.7818609E-02  0.8407035E-01
       -2   -1    0    0    0  501  0.00000000000E+00  0.00000000000E+00  0.11678549122E+04  0.11678549122E+04  0.25500000920E-02 0. -1.
        2   -1    0    0  501    0  0.00000000000E+00  0.00000000000E+00 -0.13258179703E+04  0.13258179703E+04  0.25500000920E-02 0.  1.
    10030    2    1    2    0    0  0.00000000000E+00  0.00000000000E+00 -0.15796305805E+03  0.24936728825E+04  0.24886647258E+04 0.  0.
        2    1    3    3  502    0  0.52712470001E+03 -0.10279378826E+04 -0.54234730079E+03  0.12761885968E+04  0.25500000920E-02 0.  1.
       -2    1    3    3    0  502 -0.52712470001E+03  0.10279378826E+04  0.38438424275E+03  0.12174842857E+04  0.25500000920E-02 0. -1.
</event>
<event>
 5   0  0.9768582E-07  0.2500609E+04  0.7818609E-02  0.8402769E-01
        2   -1    0    0  501    0  0.00000000000E+00  0.00000000000E+00  0.14053678668E+04  0.14053678668E+04  0.25500000920E-02 0. -1.
       -2   -1    0    0    0  501  0.00000000000E+00  0.00000000000E+00 -0.11123504962E+04  0.11123504962E+04  0.25500000920E-02 0.  1.
    10030    2    1    2    0    0  0.00000000000E+00  0.00000000000E+00  0.29301737068E+03  0.25177183630E+04  0.25006092409E+04 0.  0.
        3    1    3    3  502    0  0.45601628157E+03 -0.93904856103E+03  0.83932907155E+03  0.13394910786E+04  0.10100000352E+00 0. -1.
       -3    1    3    3    0  502 -0.45601628157E+03  0.93904856103E+03 -0.54631170087E+03  0.11782272844E+04  0.10100000352E+00 0.  1.
</event>
<event>
 5   0  0.9251138E-07  0.2499950E+04  0.7818609E-02  0.8403003E-01
        2   -1    0    0  501    0  0.00000000000E+00  0.00000000000E+00  0.16275377286E+04  0.16275377286E+04  0.25500000920E-02 0.  1.
       -2   -1    0    0    0  501  0.00000000000E+00  0.00000000000E+00 -0.96000114643E+03  0.96000114643E+03  0.25500000920E-02 0. -1.
    10030    2    1    2    0    0  0.00000000000E+00  0.00000000000E+00  0.66753658215E+03  0.25875388750E+04  0.24999504678E+04 0.  0.
        5    1    3    3  502    0  0.10538888849E+04  0.43962073192E+03 -0.19244125684E+03  0.11580172266E+04  0.46999998093E+01 0. -1.
       -5    1    3    3    0  502 -0.10538888849E+04 -0.43962073192E+03  0.85997783900E+03  0.14295216484E+04  0.46999998093E+01 0.  1.
</event>
<event>
 5   0  0.9261602E-07  0.2499188E+04  0.7818609E-02  0.8403275E-01
        2   -1    0    0  501    0  0.00000000000E+00  0.00000000000E+00  0.87880670484E+03  0.87880670484E+03  0.25500000920E-02 0.  1.
       -2   -1    0    0    0  501  0.00000000000E+00  0.00000000000E+00 -0.17768237937E+04  0.17768237937E+04  0.25500000920E-02 0. -1.
    10030    2    1    2    0    0  0.00000000000E+00  0.00000000000E+00 -0.89801708890E+03  0.26556304986E+04  0.24991875986E+04 0.  0.
        4    1    3    3  502    0  0.72524312917E+03  0.31990216727E+03 -0.14754843626E+04  0.16749240909E+04  0.12699999809E+01 0. -1.
       -4    1    3    3    0  502 -0.72524312917E+03 -0.31990216727E+03  0.57746727369E+03  0.98070640771E+03  0.12699999809E+01 0.  1.
</event>
<event>
 5   0  0.9261602E-07  0.2500256E+04  0.7818609E-02  0.8402894E-01
        2   -1    0    0  501    0  0.00000000000E+00  0.00000000000E+00  0.10676635231E+04  0.10676635231E+04  0.25500000920E-02 0.  1.
       -2   -1    0    0    0  501  0.00000000000E+00  0.00000000000E+00 -0.14637756481E+04  0.14637756481E+04  0.25500000920E-02 0. -1.
    10030    2    1    2    0    0  0.00000000000E+00  0.00000000000E+00 -0.39611212498E+03  0.25314391712E+04  0.25002558793E+04 0.  0.
        4    1    3    3  502    0 -0.92784509586E+03  0.79022437269E+03 -0.47985664632E+03  0.13098149087E+04  0.12699999809E+01 0. -1.
       -4    1    3    3    0  502  0.92784509586E+03 -0.79022437269E+03  0.83744521343E+02  0.12216242626E+04  0.12699999809E+01 0.  1.
</event>
<event>
 5   0  0.3991066E-07  0.2511614E+04  0.7818609E-02  0.8398860E-01
        1   -1    0    0  501    0  0.00000000000E+00  0.00000000000E+00  0.74177478548E+03  0.74177478550E+03  0.50400001928E-02 0.  1.
       -1   -1    0    0    0  501  0.00000000000E+00  0.00000000000E+00 -0.21260513286E+04  0.21260513286E+04  0.50400001928E-02 0. -1.
    10030    2    1    2    0    0  0.00000000000E+00  0.00000000000E+00 -0.13842765431E+04  0.28678261141E+04  0.25116140374E+04 0.  0.
        1    1    3    3  502    0  0.31540014588E+03  0.78929368515E+03  0.36341143251E+03  0.92440772538E+03  0.50400001928E-02 0.  1.
       -1    1    3    3    0  502 -0.31540014588E+03 -0.78929368515E+03 -0.17476879757E+04  0.19434183888E+04  0.50400001928E-02 0. -1.
</event>
<event>
 5   0  0.9508784E-07  0.2500287E+04  0.7818609E-02  0.8402883E-01
       -2   -1    0    0    0  501  0.00000000000E+00  0.00000000000E+00  0.10432814790E+04  0.10432814791E+04  0.25500000920E-02 0. -1.
        2   -1    0    0  501    0  0.00000000000E+00  0.00000000000E+00 -0.14980223058E+04  0.14980223058E+04  0.25500000920E-02 0.  1.
    10030    2    1    2    0    0  0.00000000000E+00  0.00000000000E+00 -0.45474082675E+03  0.25413037849E+04  0.25002871250E+04 0.  0.
        2    1    3    3  502    0  0.67849155562E+02 -0.11488797724E+04 -0.72357032381E+03  0.13594418902E+04  0.25500000920E-02 0.  1.
       -2    1    3    3    0  502 -0.67849155562E+02  0.11488797724E+04  0.26882949707E+03  0.11818618946E+04  0.25500000920E-02 0. -1.
</event>
<event>
 5   0  0.3837524E-07  0.2499991E+04  0.7818609E-02  0.8402989E-01
       -1   -1    0    0    0  501  0.00000000000E+00  0.00000000000E+00  0.12095563821E+04  0.12095563821E+04  0.50400001928E-02 0. -1.
        1   -1    0    0  501    0  0.00000000000E+00  0.00000000000E+00 -0.12917861352E+04  0.12917861352E+04  0.50400001928E-02 0.  1.
    10030    2    1    2    0    0  0.00000000000E+00  0.00000000000E+00 -0.82229753070E+02  0.25013425173E+04  0.24999905313E+04 0.  0.
        5    1    3    3  502    0  0.11883129847E+04 -0.24123243632E+03  0.26266953724E+03  0.12406845746E+04  0.46999998093E+01 0. -1.
       -5    1    3    3    0  502 -0.11883129847E+04  0.24123243632E+03 -0.34489929031E+03  0.12606579427E+04  0.46999998093E+01 0.  1.
</event>
<event>
 5   0  0.3805418E-07  0.2500469E+04  0.7818609E-02  0.8402818E-01
        1   -1    0    0  501    0  0.00000000000E+00  0.00000000000E+00  0.15320126635E+04  0.15320126635E+04  0.50400001928E-02 0. -1.
       -1   -1    0    0    0  501  0.00000000000E+00  0.00000000000E+00 -0.10202831045E+04  0.10202831045E+04  0.50400001928E-02 0.  1.
    10030    2    1    2    0    0  0.00000000000E+00  0.00000000000E+00  0.51172955903E+03  0.25522957680E+04  0.25004692651E+04 0.  0.
        4    1    3    3  502    0  0.31425497190E+03 -0.65762893376E+03  0.12927206712E+04  0.14840351574E+04  0.12699999809E+01 0. -1.
       -4    1    3    3    0  502 -0.31425497190E+03  0.65762893376E+03 -0.78099111215E+03  0.10682606105E+04  0.12699999809E+01 0.  1.
</event>
<event>
 5   0  0.3837524E-07  0.2500144E+04  0.7818609E-02  0.8402934E-01
       -1   -1    0    0    0  501  0.00000000000E+00  0.00000000000E+00  0.11183913760E+04  0.11183913760E+04  0.50400001928E-02 0. -1.
        1   -1    0    0  501    0  0.00000000000E+00  0.00000000000E+00 -0.13972572007E+04  0.13972572007E+04  0.50400001928E-02 0.  1.
    10030    2    1    2    0    0  0.00000000000E+00  0.00000000000E+00 -0.27886582466E+03  0.25156485767E+04  0.25001443185E+04 0.  0.
        5    1    3    3  502    0  0.52842929542E+03  0.17648180852E+03 -0.12654234548E+04  0.13826431061E+04  0.46999998093E+01 0.  1.
       -5    1    3    3    0  502 -0.52842929542E+03 -0.17648180852E+03  0.98655763010E+03  0.11330054706E+04  0.46999998093E+01 0. -1.
</event>
<event>
 5   0  0.8997210E-07  0.2497911E+04  0.7818609E-02  0.8403730E-01
        2   -1    0    0  501    0  0.00000000000E+00  0.00000000000E+00  0.17679188642E+04  0.17679188642E+04  0.25500000920E-02 0.  1.
       -2   -1    0    0    0  501  0.00000000000E+00  0.00000000000E+00 -0.88233130786E+03  0.88233130786E+03  0.25500000920E-02 0. -1.
    10030    2    1    2    0    0  0.00000000000E+00  0.00000000000E+00  0.88558755635E+03  0.26502501721E+04  0.24979112584E+04 0.  0.
        1    1    3    3  502    0  0.10400870848E+04 -0.36923949316E+02  0.11753706976E+04  0.15699174497E+04  0.50400001928E-02 0.  1.
       -1    1    3    3    0  502 -0.10400870848E+04  0.36923949316E+02 -0.28978314128E+03  0.10803327224E+04  0.50400001928E-02 0. -1.
</event>
<event>
 5   0  0.9768582E-07  0.2499123E+04  0.7818609E-02  0.8403298E-01
       -2   -1    0    0    0  501  0.00000000000E+00  0.00000000000E+00  0.10454357715E+04  0.10454357715E+04  0.25500000920E-02 0.  1.
        2   -1    0    0  501    0  0.00000000000E+00  0.00000000000E+00 -0.14935437075E+04  0.14935437075E+04  0.25500000920E-02 0. -1.
    10030    2    1    2    0    0  0.00000000000E+00  0.00000000000E+00 -0.44810793598E+03  0.25389794790E+04  0.24991230607E+04 0.  0.
        3    1    3    3  502    0 -0.53521209725E+03 -0.30840951513E+03 -0.13275792694E+04  0.14642524184E+04  0.10100000352E+00 0. -1.
       -3    1    3    3    0  502  0.53521209725E+03  0.30840951513E+03  0.87947133345E+03  0.10747270605E+04  0.10100000352E+00 0.  1.
</event>
<event>
 5   0  0.9251138E-07  0.2499694E+04  0.7818609E-02  0.8403095E-01
       -2   -1    0    0    0  501  0.00000000000E+00  0.00000000000E+00  0.48297370201E+03  0.48297370202E+03  0.25500000920E-02 0. -1.
        2   -1    0    0  501    0  0.00000000000E+00  0.00000000000E+00 -0.32343740083E+04  0.32343740083E+04  0.25500000920E-02 0.  1.
    10030    2    1    2    0    0  0.00000000000E+00  0.00000000000E+00 -0.27514003063E+04  0.37173477103E+04  0.24996940521E+04 0.  0.
        5    1    3    3  502    0 -0.88333201614E+03  0.61729834256E+03 -0.23171344855E+04  0.25554778434E+04  0.46999998093E+01 0.  1.
       -5    1    3    3    0  502  0.88333201614E+03 -0.61729834256E+03 -0.43426582083E+03  0.11618698669E+04  0.46999998093E+01 0. -1.
</event>
<event>
 5   0  0.3837524E-07  0.2499119E+04  0.7818609E-02  0.8403300E-01
        1   -1    0    0  501    0  0.00000000000E+00  0.00000000000E+00  0.11925941792E+04  0.11925941792E+04  0.50400001928E-02 0.  1.
       -1   -1    0    0    0  501  0.00000000000E+00  0.00000000000E+00 -0.13092453056E+04  0.13092453057E+04  0.50400001928E-02 0. -1.
    10030    2    1    2    0    0  0.00000000000E+00  0.00000000000E+00 -0.11665112645E+03  0.25018394849E+04  0.24991185091E+04 0.  0.
        5    1    3    3  502    0  0.12476236359E+04 -0.39524826637E+02 -0.12609394411E+01  0.12482590391E+04  0.46999998093E+01 0. -1.
       -5    1    3    3    0  502 -0.12476236359E+04  0.39524826637E+02 -0.11539018701E+03  0.12535804458E+04  0.46999998093E+01 0.  1.
</event>
<event>
 5   0  0.9768582E-07  0.2498807E+04  0.7818609E-02  0.8403411E-01
        2   -1    0    0  501    0  0.00000000000E+00  0.00000000000E+00  0.17148939488E+04  0.17148939488E+04  0.25500000920E-02 0. -1.
       -2   -1    0    0    0  501  0.00000000000E+00  0.00000000000E+00 -0.91026594892E+03  0.91026594892E+03  0.25500000920E-02 0.  1.
    10030    2    1    2    0    0  0.00000000000E+00  0.00000000000E+00  0.80462799984E+03  0.26251598977E+04  0.24988073696E+04 0.  0.
        3    1    3    3  502    0  0.81276826093E+03  0.90868853388E+03  0.68945184342E+03  0.14005895017E+04  0.10100000352E+00 0. -1.
       -3    1    3    3    0  502 -0.81276826093E+03 -0.90868853388E+03  0.11517615642E+03  0.12245703960E+04  0.10100000352E+00 0.  1.
</event>
<event>
 5   0  0.9261602E-07  0.2500514E+04  0.7818609E-02  0.8402802E-01
       -2   -1    0    0    0  501  0.00000000000E+00  0.00000000000E+00  0.13750101431E+04  0.13750101431E+04  0.25500000920E-02 0.  1.
        2   -1    0    0  501    0  0.00000000000E+00  0.00000000000E+00 -0.11368227315E+04  0.11368227315E+04  0.25500000920E-02 0. -1.
    10030    2    1    2    0    0  0.00000000000E+00  0.00000000000E+00  0.23818741154E+03  0.25118328746E+04  0.25005141765E+04 0.  0.
        4    1    3    3  502    0  0.23750474021E+03  0.11860021312E+04  0.43696187019E+03  0.12860586478E+04  0.12699999809E+01 0.  1.
       -4    1    3    3    0  502 -0.23750474021E+03 -0.11860021312E+04 -0.19877445864E+03  0.12257742268E+04  0.12699999809E+01 0. -1.
</event>
<event>
 5   0  0.9251138E-07  0.2500855E+04  0.7818609E-02  0.8402681E-01
       -2   -1    0    0    0  501  0.00000000000E+00  0.00000000000E+00  0.77515645659E+03  0.77515645659E+03  0.25500000920E-02 0. -1.
        2   -1    0    0  501    0  0.00000000000E+00  0.00000000000E+00 -0.20171015219E+04  0.20171015219E+04  0.25500000920E-02 0.  1.
    10030    2    1    2    0    0  0.00000000000E+00  0.00000000000E+00 -0.12419450653E+04  0.27922579785E+04  0.25008552683E+04 0.  0.
        5    1    3    3  502    0 -0.18039138340E+03 -0.16700834692E+03  0.74789994232E+03  0.78727965354E+03  0.46999998093E+01 0. -1.
       -5    1    3    3    0  502  0.18039138340E+03  0.16700834692E+03 -0.19898450076E+04  0.20049783250E+04  0.46999998093E+01 0.  1.
</event>
<event>
 5   0  0.3837524E-07  0.2499790E+04  0.7818609E-02  0.8403060E-01
        1   -1    0    0  501    0  0.00000000000E+00  0.00000000000E+00  0.21697240409E+04  0.21697240409E+04  0.50400001928E-02 0. -1.
       -1   -1    0    0    0  501  0.00000000000E+00  0.00000000000E+00 -0.72001674920E+03  0.72001674922E+03  0.50400001928E-02 0.  1.
    10030    2    1    2    0    0  0.00000000000E+00  0.00000000000E+00  0.14497072917E+04  0.28897407901E+04  0.24997901117E+04 0.  0.
        5    1    3    3  502    0 -0.11931283579E+03  0.52577326270E+03 -0.57867560193E+03  0.79092390204E+03  0.46999998093E+01 0.  1.
       -5    1    3    3    0  502  0.11931283579E+03 -0.52577326270E+03  0.20283828936E+04  0.20988168881E+04  0.46999998093E+01 0. -1.
</event>
<event>
 5   0  0.9768582E-07  0.2494761E+04  0.7818609E-02  0.8404854E-01
       -2   -1    0    0    0  501  0.00000000000E+00  0.00000000000E+00  0.17546623320E+04  0.17546623320E+04  0.25500000920E-02 0.  1.
        2   -1    0    0  501    0  0.00000000000E+00  0.00000000000E+00 -0.88675661601E+03  0.88675661601E+03  0.25500000920E-02 0. -1.
    10030    2    1    2    0    0  0.00000000000E+00  0.00000000000E+00  0.86790571603E+03  0.26414189480E+04  0.24947612566E+04 0.  0.
        3    1    3    3  502    0 -0.35425004897E+03 -0.52386552173E+02  0.16990677494E+04  0.17363953108E+04  0.10100000352E+00 0.  1.
       -3    1    3    3    0  502  0.35425004897E+03  0.52386552173E+02 -0.83116203339E+03  0.90502363726E+03  0.10100000352E+00 0. -1.
</event>
<event>
 5   0  0.8997210E-07  0.2500329E+04  0.7818609E-02  0.8402868E-01
        2   -1    0    0  501    0  0.00000000000E+00  0.00000000000E+00  0.13737031271E+04  0.13737031271E+04  0.25500000920E-02 0. -1.
       -2   -1    0    0    0  501  0.00000000000E+00  0.00000000000E+00 -0.11377359269E+04  0.11377359269E+04  0.25500000920E-02 0.  1.
    10030    2    1    2    0    0  0.00000000000E+00  0.00000000000E+00  0.23596720019E+03  0.25114390540E+04  0.25003290989E+04 0.  0.
        1    1    3    3  502    0 -0.67242820706E+03 -0.82372570955E+03  0.77834510301E+03  0.13177650920E+04  0.50400001928E-02 0. -1.
       -1    1    3    3    0  502  0.67242820706E+03  0.82372570955E+03 -0.54237790282E+03  0.11936739621E+04  0.50400001928E-02 0.  1.
</event>
<event>
 5   0  0.9261602E-07  0.2498250E+04  0.7818609E-02  0.8403609E-01
        2   -1    0    0  501    0  0.00000000000E+00  0.00000000000E+00  0.17589289708E+04  0.17589289708E+04  0.25500000920E-02 0. -1.
       -2   -1    0    0    0  501  0.00000000000E+00  0.00000000000E+00 -0.88708110753E+03  0.88708110753E+03  0.25500000920E-02 0.  1.
    10030    2    1    2    0    0  0.00000000000E+00  0.00000000000E+00  0.87184786322E+03  0.26460100783E+04  0.24982495147E+04 0.  0.
        4    1    3    3  502    0 -0.10378873730E+04 -0.68431557635E+03  0.30701655392E+03  0.12805306651E+04  0.12699999809E+01 0.  1.
       -4    1    3    3    0  502  0.10378873730E+04  0.68431557635E+03  0.56483130930E+03  0.13654794132E+04  0.12699999809E+01 0. -1.
</event>
<event>
 5   0  0.8997210E-07  0.2500366E+04  0.7818609E-02  0.8402855E-01
        2   -1    0    0  501    0  0.00000000000E+00  0.00000000000E+00  0.11852522307E+04  0.11852522307E+04  0.25500000920E-02 0. -1.
       -2   -1    0    0    0  501  0.00000000000E+00  0.00000000000E+00 -0.13186703661E+04  0.13186703661E+04  0.25500000920E-02 0.  1.
    10030    2    1    2    0    0  0.00000000000E+00  0.00000000000E+00 -0.13341813541E+03  0.25039225967E+04  0.25003655676E+04 0.  0.
        1    1    3    3  502    0 -0.20042554063E+03 -0.13630403534E+03  0.11614971986E+04  0.11865179855E+04  0.50400001928E-02 0. -1.
       -1    1    3    3    0  502  0.20042554063E+03  0.13630403534E+03 -0.12949153340E+04  0.13174046113E+04  0.50400001928E-02 0.  1.
</event>
<event>
 5   0  0.9768582E-07  0.2499947E+04  0.7818609E-02  0.8403004E-01
       -2   -1    0    0    0  501  0.00000000000E+00  0.00000000000E+00  0.73494305614E+03  0.73494305614E+03  0.25500000920E-02 0. -1.
        2   -1    0    0  501    0  0.00000000000E+00  0.00000000000E+00 -0.21259256817E+04  0.21259256817E+04  0.25500000920E-02 0.  1.
    10030    2    1    2    0    0  0.00000000000E+00  0.00000000000E+00 -0.13909826256E+04  0.28608687378E+04  0.24999474536E+04 0.  0.
        3    1    3    3  502    0 -0.96697575763E+03 -0.76959663342E+03 -0.48105302064E+03  0.13261723541E+04  0.10100000352E+00 0. -1.
       -3    1    3    3    0  502  0.96697575763E+03  0.76959663342E+03 -0.90992960491E+03  0.15346963837E+04  0.10100000352E+00 0.  1.
</event>
<event>
 5   0  0.9508784E-07  0.2499671E+04  0.7818609E-02  0.8403103E-01
       -2   -1    0    0    0  501  0.00000000000E+00  0.00000000000E+00  0.18924688153E+04  0.18924688153E+04  0.25500000920E-02 0.  1.
        2   -1    0    0  501    0  0.00000000000E+00  0.00000000000E+00 -0.82542370687E+03  0.82542370687E+03  0.25500000920E-02 0. -1.
    10030    2    1    2    0    0  0.00000000000E+00  0.00000000000E+00  0.10670451085E+04  0.27178925222E+04  0.24996708781E+04 0.  0.
        2    1    3    3  502    0 -0.67042063150E+03  0.96787512046E+03  0.77578624434E+02  0.11799425897E+04  0.25500000920E-02 0. -1.
       -2    1    3    3    0  502  0.67042063150E+03 -0.96787512046E+03  0.98946648403E+03  0.15379499325E+04  0.25500000920E-02 0.  1.
</event>
<event>
 5   0  0.8997210E-07  0.2499690E+04  0.7818609E-02  0.8403096E-01
       -2   -1    0    0    0  501  0.00000000000E+00  0.00000000000E+00  0.12021265886E+04  0.12021265886E+04  0.25500000920E-02 0.  1.
        2   -1    0    0  501    0  0.00000000000E+00  0.00000000000E+00 -0.12994573139E+04  0.12994573139E+04  0.25500000920E-02 0. -1.
    10030    2    1    2    0    0  0.00000000000E+00  0.00000000000E+00 -0.97330725339E+02  0.25015839026E+04  0.24996897310E+04 0.  0.
        1    1    3    3  502    0  0.65684619566E+03 -0.61379185673E+02  0.10136934976E+04  0.12094580754E+04  0.50400001928E-02 0.  1.
       -1    1    3    3    0  502 -0.65684619566E+03  0.61379185673E+02 -0.11110242229E+04  0.12921258271E+04  0.50400001928E-02 0. -1.
</event>
<event>
 5   0  0.9508784E-07  0.2500140E+04  0.7818609E-02  0.8402936E-01
       -2   -1    0    0    0  501  0.00000000000E+00  0.00000000000E+00  0.13534802681E+04  0.13534802681E+04  0.25500000920E-02 0.  1.
        2   -1    0    0  501    0  0.00000000000E+00  0.00000000000E+00 -0.11545604230E+04  0.11545604230E+04  0.25500000920E-02 0. -1.
    10030    2    1    2    0    0  0.00000000000E+00  0.00000000000E+00  0.19891984516E+03  0.25080406911E+04  0.25001397968E+04 0.  0.
        2    1    3    3  502    0 -0.30811055778E+03  0.44626688672E+03 -0.10304157823E+04  0.11644066877E+04  0.25500000920E-02 0. -1.
       -2    1    3    3    0  502  0.30811055778E+03 -0.44626688672E+03  0.12293356275E+04  0.13436340034E+04  0.25500000920E-02 0.  1.
</event>
<event>
 5   0  0.3991066E-07  0.2509789E+04  0.7818609E-02  0.8399506E-01
       -1   -1    0    0    0  501  0.00000000000E+00  0.00000000000E+00  0.10240897785E+04  0.10240897785E+04  0.50400001928E-02 0.  1.
        1   -1    0    0  501    0  0.00000000000E+00  0.00000000000E+00 -0.15377168872E+04  0.15377168872E+04  0.50400001928E-02 0. -1.
    10030    2    1    2    0    0  0.00000000000E+00  0.00000000000E+00 -0.51362710865E+03  0.25618066657E+04  0.25097889524E+04 0.  0.
        1    1    3    3  502    0 -0.20258240079E+03  0.76311275221E+02 -0.15185138425E+04  0.15338667901E+04  0.50400001928E-02 0. -1.
       -1    1    3    3    0  502  0.20258240079E+03 -0.76311275221E+02  0.10048867339E+04  0.10279398756E+04  0.50400001928E-02 0.  1.
</event>
<event>
 5   0  0.3873231E-07  0.2504533E+04  0.7818609E-02  0.8401372E-01
       -1   -1    0    0    0  501  0.00000000000E+00  0.00000000000E+00  0.75420279465E+03  0.75420279467E+03  0.50400001928E-02 0. -1.
        1   -1    0    0  501    0  0.00000000000E+00  0.00000000000E+00 -0.20792441427E+04  0.20792441427E+04  0.50400001928E-02 0.  1.
    10030    2    1    2    0    0  0.00000000000E+00  0.00000000000E+00 -0.13250413481E+04  0.28334469374E+04  0.25045332845E+04 0.  0.
        2    1    3    3  502    0 -0.19283967185E+03 -0.61712506082E+03 -0.18758085802E+04  0.19841089459E+04  0.25500000920E-02 0.  1.
       -2    1    3    3    0  502  0.19283967185E+03  0.61712506082E+03  0.55076723215E+03  0.84933799146E+03  0.25500000920E-02 0. -1.
</event>
<event>
 5   0  0.3805418E-07  0.2500155E+04  0.7818609E-02  0.8402930E-01
       -1   -1    0    0    0  501  0.00000000000E+00  0.00000000000E+00  0.11774804438E+04  0.11774804439E+04  0.50400001928E-02 0. -1.
        1   -1    0    0  501    0  0.00000000000E+00  0.00000000000E+00 -0.13271501701E+04  0.13271501701E+04  0.50400001928E-02 0.  1.
    10030    2    1    2    0    0  0.00000000000E+00  0.00000000000E+00 -0.14966972626E+03  0.25046306140E+04  0.25001546923E+04 0.  0.
        4    1    3    3  502    0  0.87159761849E+00  0.81861361837E+03 -0.10212816066E+04  0.13088723195E+04  0.12699999809E+01 0.  1.
       -4    1    3    3    0  502 -0.87159761849E+00 -0.81861361837E+03  0.87161188037E+03  0.11957582945E+04  0.12699999809E+01 0. -1.
</event>
<event>
 5   0  0.3837524E-07  0.2500934E+04  0.7818609E-02  0.8402653E-01
       -1   -1    0    0    0  501  0.00000000000E+00  0.00000000000E+00  0.80335488713E+03  0.80335488714E+03  0.50400001928E-02 0. -1.
        1   -1    0    0  501    0  0.00000000000E+00  0.00000000000E+00 -0.19464213568E+04  0.19464213568E+04  0.50400001928E-02 0.  1.
    10030    2    1    2    0    0  0.00000000000E+00  0.00000000000E+00 -0.11430664697E+04  0.27497762439E+04  0.25009335132E+04 0.  0.
        5    1    3    3  502    0 -0.18508618653E+03 -0.20771418410E+03  0.76888433499E+03  0.81768410117E+03  0.46999998093E+01 0. -1.
       -5    1    3    3    0  502  0.18508618653E+03  0.20771418410E+03 -0.19119508047E+04  0.19320921428E+04  0.46999998093E+01 0.  1.
</event>
<event>
 5   0  0.9768582E-07  0.2497880E+04  0.7818609E-02  0.8403741E-01
       -2   -1    0    0    0  501  0.00000000000E+00  0.00000000000E+00  0.97395852362E+03  0.97395852362E+03  0.25500000920E-02 0. -1.
        2   -1    0    0  501    0  0.00000000000E+00  0.00000000000E+00 -0.16015584405E+04  0.16015584405E+04  0.25500000920E-02 0.  1.
    10030    2    1    2    0    0  0.00000000000E+00  0.00000000000E+00 -0.62759991683E+03  0.25755169641E+04  0.24978802967E+04 0.  0.
        3    1    3    3  502    0 -0.29405090612E+03  0.11880550835E+04 -0.57035203506E+03  0.13502748872E+04  0.10100000352E+00 0.  1.
       -3    1    3    3    0  502  0.29405090612E+03 -0.11880550835E+04 -0.57247881771E+02  0.12252420769E+04  0.10100000352E+00 0. -1.
</event>
<event>
 5   0  0.9768582E-07  0.2499545E+04  0.7818609E-02  0.8403147E-01
       -2   -1    0    0    0  501  0.00000000000E+00  0.00000000000E+00  0.91129478890E+03  0.91129478891E+03  0.25500000920E-02 0. -1.
        2   -1    0    0  501    0  0.00000000000E+00  0.00000000000E+00 -0.17139699025E+04  0.17139699025E+04  0.25500000920E-02 0.  1.
    10030    2    1    2    0    0  0.00000000000E+00  0.00000000000E+00 -0.80267511362E+03  0.26252646914E+04  0.24995454311E+04 0.  0.
        3    1    3    3  502    0 -0.10113614274E+04  0.41690471232E+02  0.36856785942E+03  0.10772336374E+04  0.10100000352E+00 0. -1.
       -3    1    3    3    0  502  0.10113614274E+04 -0.41690471232E+02 -0.11712429730E+04  0.15480310541E+04  0.10100000352E+00 0.  1.
</event>
<event>
 5   0  0.3972587E-07  0.2501229E+04  0.7818609E-02  0.8402548E-01
        1   -1    0    0  501    0  0.00000000000E+00  0.00000000000E+00  0.22778217310E+04  0.22778217310E+04  0.50400001928E-02 0. -1.
       -1   -1    0    0    0  501  0.00000000000E+00  0.00000000000E+00 -0.68663697668E+03  0.68663697669E+03  0.50400001928E-02 0.  1.
    10030    2    1    2    0    0  0.00000000000E+00  0.00000000000E+00  0.15911847544E+04  0.29644587077E+04  0.25012289994E+04 0.  0.
        3    1    3    3  502    0 -0.36575641397E+01 -0.79314675289E+03 -0.35040641867E+03  0.86711003791E+03  0.10100000352E+00 0.  1.
       -3    1    3    3    0  502  0.36575641397E+01  0.79314675289E+03  0.19415911730E+04  0.20973486698E+04  0.10100000352E+00 0. -1.
</event>
<event>
 5   0  0.3805418E-07  0.2495327E+04  0.7818609E-02  0.8404652E-01
        1   -1    0    0  501    0  0.00000000000E+00  0.00000000000E+00  0.14649690780E+04  0.14649690780E+04  0.50400001928E-02 0.  1.
       -1   -1    0    0    0  501  0.00000000000E+00  0.00000000000E+00 -0.10625915519E+04  0.10625915519E+04  0.50400001928E-02 0. -1.
    10030    2    1    2    0    0  0.00000000000E+00  0.00000000000E+00  0.40237752612E+03  0.25275606299E+04  0.24953266448E+04 0.  0.
        4    1    3    3  502    0  0.28798037449E+03  0.24625346062E+03  0.14052785932E+04  0.14554665920E+04  0.12699999809E+01 0.  1.
       -4    1    3    3    0  502 -0.28798037449E+03 -0.24625346062E+03 -0.10029010671E+04  0.10720940379E+04  0.12699999809E+01 0. -1.
</event>
<event>
 5   0  0.3837524E-07  0.2504704E+04  0.7818609E-02  0.8401311E-01
       -1   -1    0    0    0  501  0.00000000000E+00  0.00000000000E+00  0.78178672731E+03  0.78178672733E+03  0.50400001928E-02 0. -1.
        1   -1    0    0  501    0  0.00000000000E+00  0.00000000000E+00 -0.20061558991E+04  0.20061558991E+04  0.50400001928E-02 0.  1.
    10030    2    1    2    0    0  0.00000000000E+00  0.00000000000E+00 -0.12243691718E+04  0.27879426264E+04  0.25047044176E+04 0.  0.
        5    1    3    3  502    0  0.63569608312E+03  0.89146342140E+03  0.64462848473E+02  0.10968108728E+04  0.46999998093E+01 0. -1.
       -5    1    3    3    0  502 -0.63569608312E+03 -0.89146342140E+03 -0.12888320202E+04  0.16911317536E+04  0.46999998093E+01 0.  1.
</event>
<event>
 5   0  0.9261602E-07  0.2499894E+04  0.7818609E-02  0.8403023E-01
       -2   -1    0    0    0  501  0.00000000000E+00  0.00000000000E+00  0.61979282041E+03  0.61979282041E+03  0.25500000920E-02 0. -1.
        2   -1    0    0  501    0  0.00000000000E+00  0.00000000000E+00 -0.25207893062E+04  0.25207893062E+04  0.25500000920E-02 0.  1.
    10030    2    1    2    0    0  0.00000000000E+00  0.00000000000E+00 -0.19009964858E+04  0.31405821266E+04  0.24998936887E+04 0.  0.
        4    1    3    3  502    0 -0.10443456745E+04  0.12341324191E+03 -0.10171272245E+03  0.10565206136E+04  0.12699999809E+01 0. -1.
       -4    1    3    3    0  502  0.10443456745E+04 -0.12341324191E+03 -0.17992837634E+04  0.20840615130E+04  0.12699999809E+01 0.  1.
</event>
<event>
 5   0  0.9261602E-07  0.2501717E+04  0.7818609E-02  0.8402374E-01
        2   -1    0    0  501    0  0.00000000000E+00  0.00000000000E+00  0.16460287403E+04  0.16460287403E+04  0.25500000920E-02 0.  1.
       -2   -1    0    0    0  501  0.00000000000E+00  0.00000000000E+00 -0.95055891725E+03  0.95055891725E+03  0.25500000920E-02 0. -1.
    10030    2    1    2    0    0  0.00000000000E+00  0.00000000000E+00  0.69546982306E+03  0.25965876576E+04  0.25017172479E+04 0.  0.
        4    1    3    3  502    0 -0.67537000073E+03  0.10060544522E+04  0.25518204222E+02  0.12119913326E+04  0.12699999809E+01 0.  1.
       -4    1    3    3    0  502  0.67537000073E+03 -0.10060544522E+04  0.66995161884E+03  0.13845963250E+04  0.12699999809E+01 0. -1.
</event>
<event>
 5   0  0.9768582E-07  0.2500457E+04  0.7818609E-02  0.8402823E-01
        2   -1    0    0  501    0  0.00000000000E+00  0.00000000000E+00  0.25088598503E+04  0.25088598503E+04  0.25500000920E-02 0.  1.
       -2   -1    0    0    0  501  0.00000000000E+00  0.00000000000E+00 -0.62302064070E+03  0.62302064070E+03  0.25500000920E-02 0. -1.
    10030    2    1    2    0    0  0.00000000000E+00  0.00000000000E+00  0.18858392096E+04  0.31318804910E+04  0.25004571353E+04 0.  0.
        3    1    3    3  502    0 -0.45686739510E+03 -0.65706478694E+03  0.21460002251E+04  0.22903665487E+04  0.10100000352E+00 0.  1.
       -3    1    3    3    0  502  0.45686739510E+03  0.65706478694E+03 -0.26016101550E+03  0.84151394233E+03  0.10100000352E+00 0. -1.
</event>
<event>
 5   0  0.3991066E-07  0.2500657E+04  0.7818609E-02  0.8402751E-01
        1   -1    0    0  501    0  0.00000000000E+00  0.00000000000E+00  0.11967292618E+04  0.11967292618E+04  0.50400001928E-02 0.  1.
       -1   -1    0    0    0  501  0.00000000000E+00  0.00000000000E+00 -0.13063287523E+04  0.13063287523E+04  0.50400001928E-02 0. -1.
    10030    2    1    2    0    0  0.00000000000E+00  0.00000000000E+00 -0.10959949050E+03  0.25030580141E+04  0.25006573883E+04 0.  0.
        1    1    3    3  502    0 -0.53282280640E+03 -0.17233243620E+03 -0.11737831441E+04  0.13005250789E+04  0.50400001928E-02 0. -1.
       -1    1    3    3    0  502  0.53282280640E+03  0.17233243620E+03  0.10641836536E+04  0.12025329352E+04  0.50400001928E-02 0.  1.
</event>
<event>
 5   0  0.9261602E-07  0.2491967E+04  0.7818609E-02  0.8405853E-01
        2   -1    0    0  501    0  0.00000000000E+00  0.00000000000E+00  0.17787667342E+04  0.17787667342E+04  0.25500000920E-02 0.  1.
       -2   -1    0    0    0  501  0.00000000000E+00  0.00000000000E+00 -0.87278167152E+03  0.87278167152E+03  0.25500000920E-02 0. -1.
    10030    2    1    2    0    0  0.00000000000E+00  0.00000000000E+00  0.90598506265E+03  0.26515484057E+04  0.24919670973E+04 0.  0.
        4    1    3    3  502    0 -0.58096379647E+03 -0.62064993960E+03  0.14222304404E+04  0.16569448750E+04  0.12699999809E+01 0.  1.
       -4    1    3    3    0  502  0.58096379647E+03  0.62064993960E+03 -0.51624537774E+03  0.99460353069E+03  0.12699999809E+01 0. -1.
</event>
<event>
 5   0  0.3805418E-07  0.2500063E+04  0.7818609E-02  0.8402963E-01
        1   -1    0    0  501    0  0.00000000000E+00  0.00000000000E+00  0.13092616787E+04  0.13092616787E+04  0.50400001928E-02 0. -1.
       -1   -1    0    0    0  501  0.00000000000E+00  0.00000000000E+00 -0.11934805055E+04  0.11934805055E+04  0.50400001928E-02 0.  1.
    10030    2    1    2    0    0  0.00000000000E+00  0.00000000000E+00  0.11578117315E+03  0.25027421842E+04  0.25000626313E+04 0.  0.
        4    1    3    3  502    0  0.90193144691E+03  0.80908537849E+03 -0.24981027695E+03  0.12371363191E+04  0.12699999809E+01 0.  1.
       -4    1    3    3    0  502 -0.90193144691E+03 -0.80908537849E+03  0.36559145010E+03  0.12656058652E+04  0.12699999809E+01 0. -1.
</event>
<event>
 5   0  0.8997210E-07  0.2499618E+04  0.7818609E-02  0.8403122E-01
       -2   -1    0    0    0  501  0.00000000000E+00  0.00000000000E+00  0.85913460199E+03  0.85913460200E+03  0.25500000920E-02 0. -1.
        2   -1    0    0  501    0  0.00000000000E+00  0.00000000000E+00 -0.18181341591E+04  0.18181341591E+04  0.25500000920E-02 0.  1.
    10030    2    1    2    0    0  0.00000000000E+00  0.00000000000E+00 -0.95899955713E+03  0.26772687611E+04  0.24996175445E+04 0.  0.
        1    1    3    3  502    0  0.14320097251E+03  0.69283394933E+03  0.62401385566E+03  0.94335501904E+03  0.50400001928E-02 0. -1.
       -1    1    3    3    0  502 -0.14320097251E+03 -0.69283394933E+03 -0.15830134128E+04  0.17339137421E+04  0.50400001928E-02 0.  1.
</event>
<event>
 5   0  0.9251138E-07  0.2499319E+04  0.7818609E-02  0.8403228E-01
        2   -1    0    0  501    0  0.00000000000E+00  0.00000000000E+00  0.13733252152E+04  0.13733252152E+04  0.25500000920E-02 0.  1.
       -2   -1    0    0    0  501  0.00000000000E+00  0.00000000000E+00 -0.11371299585E+04  0.11371299585E+04  0.25500000920E-02 0. -1.
    10030    2    1    2    0    0  0.00000000000E+00  0.00000000000E+00  0.23619525668E+03  0.25104551737E+04  0.24993193033E+04 0.  0.
        5    1    3    3  502    0 -0.17303163043E+03  0.46677271005E+03 -0.10332251130E+04  0.11469058079E+04  0.46999998093E+01 0. -1.
       -5    1    3    3    0  502  0.17303163043E+03 -0.46677271005E+03  0.12694203697E+04  0.13635493658E+04  0.46999998093E+01 0.  1.
</event>
<event>
 5   0  0.3991066E-07  0.2499966E+04  0.7818609E-02  0.8402998E-01
       -1   -1    0    0    0  501  0.00000000000E+00  0.00000000000E+00  0.10085465761E+04  0.10085465762E+04  0.50400001928E-02 0. -1.
        1   -1    0    0  501    0  0.00000000000E+00  0.00000000000E+00 -0.15492173579E+04  0.15492173579E+04  0.50400001928E-02 0.  1.
    10030    2    1    2    0    0  0.00000000000E+00  0.00000000000E+00 -0.54067078175E+03  0.25577639341E+04  0.24999662894E+04 0.  0.
        1    1    3    3  502    0 -0.88585009173E+03  0.55995884768E+03 -0.96738952763E+03  0.14262281705E+04  0.50400001928E-02 0.  1.
       -1    1    3    3    0  502  0.88585009173E+03 -0.55995884768E+03  0.42671874588E+03  0.11315357636E+04  0.50400001928E-02 0. -1.
</event>
<event>
 5   0  0.3991066E-07  0.2501128E+04  0.7818609E-02  0.8402584E-01
        1   -1    0    0  501    0  0.00000000000E+00  0.00000000000E+00  0.14158078188E+04  0.14158078188E+04  0.50400001928E-02 0.  1.
       -1   -1    0    0    0  501  0.00000000000E+00  0.00000000000E+00 -0.11046061503E+04  0.11046061503E+04  0.50400001928E-02 0. -1.
    10030    2    1    2    0    0  0.00000000000E+00  0.00000000000E+00  0.31120166858E+03  0.25204139691E+04  0.25011277651E+04 0.  0.
        1    1    3    3  502    0 -0.10713903418E+04  0.32708118991E+03 -0.40460913726E+03  0.11910364911E+04  0.50400001928E-02 0. -1.
       -1    1    3    3    0  502  0.10713903418E+04 -0.32708118991E+03  0.71581080584E+03  0.13293774780E+04  0.50400001928E-02 0.  1.
</event>
<event>
 5   0  0.3805418E-07  0.2504116E+04  0.7818609E-02  0.8401521E-01
        1   -1    0    0  501    0  0.00000000000E+00  0.00000000000E+00  0.26687274784E+04  0.26687274784E+04  0.50400001928E-02 0. -1.
       -1   -1    0    0    0  501  0.00000000000E+00  0.00000000000E+00 -0.58741436088E+03  0.58741436090E+03  0.50400001928E-02 0.  1.
    10030    2    1    2    0    0  0.00000000000E+00  0.00000000000E+00  0.20813131175E+04  0.32561418393E+04  0.25041156891E+04 0.  0.
        4    1    3    3  502    0  0.68078336163E+03  0.23220122866E+02  0.24066954055E+04  0.25012376031E+04  0.12699999809E+01 0. -1.
       -4    1    3    3    0  502 -0.68078336163E+03 -0.23220122866E+02 -0.32538228797E+03  0.75490423618E+03  0.12699999809E+01 0.  1.
</event>
<event>
 5   0  0.9261602E-07  0.2499213E+04  0.7818609E-02  0.8403266E-01
        2   -1    0    0  501    0  0.00000000000E+00  0.00000000000E+00  0.13452646715E+04  0.13452646715E+04  0.25500000920E-02 0. -1.
       -2   -1    0    0    0  501  0.00000000000E+00  0.00000000000E+00 -0.11607505609E+04  0.11607505609E+04  0.25500000920E-02 0.  1.
    10030    2    1    2    0    0  0.00000000000E+00  0.00000000000E+00  0.18451411060E+03  0.25060152324E+04  0.24992132539E+04 0.  0.
        4    1    3    3  502    0  0.13024234192E+02 -0.51443945085E+03  0.12340825425E+04  0.13370784996E+04  0.12699999809E+01 0. -1.
       -4    1    3    3    0  502 -0.13024234192E+02  0.51443945085E+03 -0.10495684319E+04  0.11689367329E+04  0.12699999809E+01 0.  1.
</event>
<event>
 5   0  0.3991066E-07  0.2499471E+04  0.7818609E-02  0.8403174E-01
        1   -1    0    0  501    0  0.00000000000E+00  0.00000000000E+00  0.15941863343E+04  0.15941863343E+04  0.50400001928E-02 0. -1.
       -1   -1    0    0    0  501  0.00000000000E+00  0.00000000000E+00 -0.97970915504E+03  0.97970915505E+03  0.50400001928E-02 0.  1.
    10030    2    1    2    0    0  0.00000000000E+00  0.00000000000E+00  0.61447717927E+03  0.25738954894E+04  0.24994711013E+04 0.  0.
        1    1    3    3  502    0  0.70515428574E+03  0.56835136517E+03 -0.57954934265E+03  0.10752410342E+04  0.50400001928E-02 0.  1.
       -1    1    3    3    0  502 -0.70515428574E+03 -0.56835136517E+03  0.11940265219E+04  0.14986544552E+04  0.50400001928E-02 0. -1.
</event>
<event>
 5   0  0.8997210E-07  0.2500171E+04  0.7818609E-02  0.8402925E-01
        2   -1    0    0  501    0  0.00000000000E+00  0.00000000000E+00  0.15687919224E+04  0.15687919224E+04  0.25500000920E-02 0.  1.
       -2   -1    0    0    0  501  0.00000000000E+00  0.00000000000E+00 -0.99612549702E+03  0.99612549702E+03  0.25500000920E-02 0. -1.
    10030    2    1    2    0    0  0.00000000000E+00  0.00000000000E+00  0.57266642533E+03  0.25649174194E+04  0.25001709009E+04 0.  0.
        1    1    3    3  502    0 -0.53472040843E+03 -0.90596808638E+03  0.97910574059E+03  0.14371333063E+04  0.50400001928E-02 0.  1.
       -1    1    3    3    0  502  0.53472040843E+03  0.90596808638E+03 -0.40643931526E+03  0.11277841131E+04  0.50400001928E-02 0. -1.
</event>
<event>
 5   0  0.3214375E-07  0.2499758E+04  0.7818609E-02  0.8403072E-01
       -3   -1    0    0    0  501  0.00000000000E+00  0.00000000000E+00  0.16070257072E+04  0.16070257104E+04  0.10100000352E+00 0.  1.
        3   -1    0    0  501    0  0.00000000000E+00  0.00000000000E+00 -0.97210464942E+03  0.97210465467E+03  0.10100000352E+00 0. -1.
    10030    2    1    2    0    0  0.00000000000E+00  0.00000000000E+00  0.63492105776E+03  0.25791303650E+04  0.24997577263E+04 0.  0.
        3    1    3    3  502    0 -0.10105643095E+03 -0.10697719720E+04 -0.34122468128E+03  0.11274124212E+04  0.10100000352E+00 0. -1.
       -3    1    3    3    0  502  0.10105643095E+03  0.10697719720E+04  0.97614573904E+03  0.14517179438E+04  0.10100000352E+00 0.  1.
</event>
<event>
 5   0  0.3837524E-07  0.2497977E+04  0.7818609E-02  0.8403707E-01
       -1   -1    0    0    0  501  0.00000000000E+00  0.00000000000E+00  0.96404937340E+03  0.96404937341E+03  0.50400001928E-02 0. -1.
        1   -1    0    0  501    0  0.00000000000E+00  0.00000000000E+00 -0.16181451183E+04  0.16181451183E+04  0.50400001928E-02 0.  1.
    10030    2    1    2    0    0  0.00000000000E+00  0.00000000000E+00 -0.65409574488E+03  0.25821944917E+04  0.24979766111E+04 0.  0.
        5    1    3    3  502    0  0.57942237229E+03  0.42804382668E+03 -0.13817395236E+04  0.15582612118E+04  0.46999998093E+01 0.  1.
       -5    1    3    3    0  502 -0.57942237229E+03 -0.42804382668E+03  0.72764377870E+03  0.10239332799E+04  0.46999998093E+01 0. -1.
</event>
<event>
 5   0  0.9768582E-07  0.2500845E+04  0.7818609E-02  0.8402685E-01
        2   -1    0    0  501    0  0.00000000000E+00  0.00000000000E+00  0.14682607983E+04  0.14682607983E+04  0.25500000920E-02 0.  1.
       -2   -1    0    0    0  501  0.00000000000E+00  0.00000000000E+00 -0.10649038279E+04  0.10649038279E+04  0.25500000920E-02 0. -1.
    10030    2    1    2    0    0  0.00000000000E+00  0.00000000000E+00  0.40335697044E+03  0.25331646262E+04  0.25008450927E+04 0.  0.
        3    1    3    3  502    0 -0.58370653445E+02 -0.36655342512E+03  0.14111735455E+04  0.14591707688E+04  0.10100000352E+00 0.  1.
       -3    1    3    3    0  502  0.58370653445E+02  0.36655342512E+03 -0.10078165751E+04  0.10739938575E+04  0.10100000352E+00 0. -1.
</event>
<event>
 5   0  0.3991066E-07  0.2500488E+04  0.7818609E-02  0.8402812E-01
       -1   -1    0    0    0  501  0.00000000000E+00  0.00000000000E+00  0.12442579900E+04  0.12442579901E+04  0.50400001928E-02 0.  1.
        1   -1    0    0  501    0  0.00000000000E+00  0.00000000000E+00 -0.12562591585E+04  0.12562591585E+04  0.50400001928E-02 0. -1.
    10030    2    1    2    0    0  0.00000000000E+00  0.00000000000E+00 -0.12001168484E+02  0.25005171486E+04  0.25004883488E+04 0.  0.
        1    1    3    3  502    0 -0.52520584599E+03 -0.34638408286E+03  0.10744226065E+04  0.12450731107E+04  0.50400001928E-02 0.  1.
       -1    1    3    3    0  502  0.52520584599E+03  0.34638408286E+03 -0.10864237750E+04  0.12554440379E+04  0.50400001928E-02 0. -1.
</event>
<event>
 5   0  0.3837524E-07  0.2499995E+04  0.7818609E-02  0.8402987E-01
        1   -1    0    0  501    0  0.00000000000E+00  0.00000000000E+00  0.14903568255E+04  0.14903568255E+04  0.50400001928E-02 0.  1.
       -1   -1    0    0    0  501  0.00000000000E+00  0.00000000000E+00 -0.10484024724E+04  0.10484024724E+04  0.50400001928E-02 0. -1.
    10030    2    1    2    0    0  0.00000000000E+00  0.00000000000E+00  0.44195435305E+03  0.25387592979E+04  0.24999950245E+04 0.  0.
        5    1    3    3  502    0 -0.22415621117E+03 -0.10195744596E+04  0.91916496082E+03  0.13909221405E+04  0.46999998093E+01 0.  1.
       -5    1    3    3    0  502  0.22415621117E+03  0.10195744596E+04 -0.47721060777E+03  0.11478371574E+04  0.46999998093E+01 0. -1.
</event>
<event>
 5   0  0.9251138E-07  0.2499482E+04  0.7818609E-02  0.8403170E-01
       -2   -1    0    0    0  501  0.00000000000E+00  0.00000000000E+00  0.17730931303E+04  0.17730931303E+04  0.25500000920E-02 0. -1.
        2   -1    0    0  501    0  0.00000000000E+00  0.00000000000E+00 -0.88086315418E+03  0.88086315418E+03  0.25500000920E-02 0.  1.
    10030    2    1    2    0    0  0.00000000000E+00  0.00000000000E+00  0.89222997611E+03  0.26539562845E+04  0.24994818722E+04 0.  0.
        5    1    3    3  502    0 -0.87901891689E+03  0.88678416558E+03  0.39023244023E+03  0.13081910640E+04  0.46999998093E+01 0.  1.
       -5    1    3    3    0  502  0.87901891689E+03 -0.88678416558E+03  0.50199753588E+03  0.13457652205E+04  0.46999998093E+01 0. -1.
</event>
<event>
 5   0  0.3991066E-07  0.2499995E+04  0.7818609E-02  0.8402987E-01
        1   -1    0    0  501    0  0.00000000000E+00  0.00000000000E+00  0.14090900529E+04  0.14090900529E+04  0.50400001928E-02 0. -1.
       -1   -1    0    0    0  501  0.00000000000E+00  0.00000000000E+00 -0.11088670395E+04  0.11088670395E+04  0.50400001928E-02 0.  1.
    10030    2    1    2    0    0  0.00000000000E+00  0.00000000000E+00  0.30022301339E+03  0.25179570924E+04  0.24999948123E+04 0.  0.
        1    1    3    3  502    0  0.11335341609E+04  0.80441495173E+02  0.67454737612E+03  0.13215084906E+04  0.50400001928E-02 0. -1.
       -1    1    3    3    0  502 -0.11335341609E+04 -0.80441495173E+02 -0.37432436273E+03  0.11964486018E+04  0.50400001928E-02 0.  1.
</event>
<event>
 5   0  0.3837524E-07  0.2500400E+04  0.7818609E-02  0.8402843E-01
       -1   -1    0    0    0  501  0.00000000000E+00  0.00000000000E+00  0.14746760325E+04  0.14746760325E+04  0.50400001928E-02 0. -1.
        1   -1    0    0  501    0  0.00000000000E+00  0.00000000000E+00 -0.10598936386E+04  0.10598936386E+04  0.50400001928E-02 0.  1.
    10030    2    1    2    0    0  0.00000000000E+00  0.00000000000E+00  0.41478239388E+03  0.25345696711E+04  0.25003997647E+04 0.  0.
        5    1    3    3  502    0 -0.23201208041E+03  0.12118294428E+04  0.41168308491E+03  0.13007172084E+04  0.46999998093E+01 0. -1.
       -5    1    3    3    0  502  0.23201208041E+03 -0.12118294428E+04  0.30993089763E+01  0.12338524627E+04  0.46999998093E+01 0.  1.
</event>
<event>
 5   0  0.3972587E-07  0.2496453E+04  0.7818609E-02  0.8404250E-01
       -1   -1    0    0    0  501  0.00000000000E+00  0.00000000000E+00  0.11894567369E+04  0.11894567369E+04  0.50400001928E-02 0. -1.
        1   -1    0    0  501    0  0.00000000000E+00  0.00000000000E+00 -0.13099001084E+04  0.13099001084E+04  0.50400001928E-02 0.  1.
    10030    2    1    2    0    0  0.00000000000E+00  0.00000000000E+00 -0.12044337148E+03  0.24993568453E+04  0.24964530908E+04 0.  0.
        3    1    3    3  502    0  0.24517147682E+03 -0.89525695804E+03  0.77530005565E+03  0.12094148422E+04  0.10100000352E+00 0. -1.
       -3    1    3    3    0  502 -0.24517147682E+03  0.89525695804E+03 -0.89574342713E+03  0.12899420031E+04  0.10100000352E+00 0.  1.
</event>
<event>
 5   0  0.9261602E-07  0.2506773E+04  0.7818609E-02  0.8400577E-01
        2   -1    0    0  501    0  0.00000000000E+00  0.00000000000E+00  0.11765884399E+04  0.11765884399E+04  0.25500000920E-02 0.  1.
       -2   -1    0    0    0  501  0.00000000000E+00  0.00000000000E+00 -0.13351970642E+04  0.13351970642E+04  0.25500000920E-02 0. -1.
    10030    2    1    2    0    0  0.00000000000E+00  0.00000000000E+00 -0.15860862430E+03  0.25117855041E+04  0.25067727705E+04 0.  0.
        4    1    3    3  502    0  0.66356928289E+03  0.97947554019E+03 -0.49399091900E+03  0.12820784563E+04  0.12699999809E+01 0. -1.
       -4    1    3    3    0  502 -0.66356928289E+03 -0.97947554019E+03  0.33538229470E+03  0.12297070478E+04  0.12699999809E+01 0.  1.
</event>
<event>
 5   0  0.3873231E-07  0.2500569E+04  0.7818609E-02  0.8402783E-01
       -1   -1    0    0    0  501  0.00000000000E+00  0.00000000000E+00  0.14514869900E+04  0.14514869900E+04  0.50400001928E-02 0. -1.
        1   -1    0    0  501    0  0.00000000000E+00  0.00000000000E+00 -0.10769727422E+04  0.10769727422E+04  0.50400001928E-02 0.  1.
    10030    2    1    2    0    0  0.00000000000E+00  0.00000000000E+00  0.37451424780E+03  0.25284597322E+04  0.25005694742E+04 0.  0.
        2    1    3    3  502    0  0.86093739862E+03  0.39768850148E+03 -0.63659576222E+03  0.11422011701E+04  0.25500000920E-02 0.  1.
       -2    1    3    3    0  502 -0.86093739862E+03 -0.39768850148E+03  0.10111100100E+04  0.13862585621E+04  0.25500000920E-02 0. -1.
</event>
<event>
 5   0  0.3214375E-07  0.2499611E+04  0.7818609E-02  0.8403124E-01
        3   -1    0    0  501    0  0.00000000000E+00  0.00000000000E+00  0.16216541690E+04  0.16216541722E+04  0.10100000352E+00 0. -1.
       -3   -1    0    0    0  501  0.00000000000E+00  0.00000000000E+00 -0.96322284598E+03  0.96322285128E+03  0.10100000352E+00 0.  1.
    10030    2    1    2    0    0  0.00000000000E+00  0.00000000000E+00  0.65843132304E+03  0.25848770234E+04  0.24996114536E+04 0.  0.
        1    1    3    3  502    0 -0.12042756465E+04 -0.22798394844E+03  0.76422785884E+02  0.12280459909E+04  0.50400001928E-02 0.  1.
       -1    1    3    3    0  502  0.12042756465E+04  0.22798394844E+03  0.58200853716E+03  0.13568310325E+04  0.50400001928E-02 0. -1.
</event>
<event>
 5   0  0.8997210E-07  0.2501225E+04  0.7818609E-02  0.8402549E-01
        2   -1    0    0  501    0  0.00000000000E+00  0.00000000000E+00  0.10286877018E+04  0.10286877018E+04  0.25500000920E-02 0. -1.
       -2   -1    0    0    0  501  0.00000000000E+00  0.00000000000E+00 -0.15204140352E+04  0.15204140352E+04  0.25500000920E-02 0.  1.
    10030    2    1    2    0    0  0.00000000000E+00  0.00000000000E+00 -0.49172633343E+03  0.25491017370E+04  0.25012246757E+04 0.  0.
        1    1    3    3  502    0 -0.54758343620E+03 -0.73924501763E+03  0.61752493559E+03  0.11080017427E+04  0.50400001928E-02 0.  1.
       -1    1    3    3    0  502  0.54758343620E+03  0.73924501763E+03 -0.11092512690E+04  0.14410999943E+04  0.50400001928E-02 0. -1.
</event>
<event>
 5   0  0.9261602E-07  0.2500485E+04  0.7818609E-02  0.8402813E-01
       -2   -1    0    0    0  501  0.00000000000E+00  0.00000000000E+00  0.16048334271E+04  0.16048334271E+04  0.25500000920E-02 0. -1.
        2   -1    0    0  501    0  0.00000000000E+00  0.00000000000E+00 -0.97399917465E+03  0.97399917465E+03  0.25500000920E-02 0.  1.
    10030    2    1    2    0    0  0.00000000000E+00  0.00000000000E+00  0.63083425246E+03  0.25788326018E+04  0.25004850997E+04 0.  0.
        4    1    3    3  502    0 -0.10614237284E+04 -0.37383601354E+03 -0.24638118844E+03  0.11519891489E+04  0.12699999809E+01 0.  1.
       -4    1    3    3    0  502  0.10614237284E+04  0.37383601354E+03  0.87721544090E+03  0.14268434529E+04  0.12699999809E+01 0. -1.
</event>
<event>
 5   0  0.9261602E-07  0.2499776E+04  0.7818609E-02  0.8403065E-01
        2   -1    0    0  501    0  0.00000000000E+00  0.00000000000E+00  0.15884490723E+04  0.15884490723E+04  0.25500000920E-02 0.  1.
       -2   -1    0    0    0  501  0.00000000000E+00  0.00000000000E+00 -0.98348758141E+03  0.98348758142E+03  0.25500000920E-02 0. -1.
    10030    2    1    2    0    0  0.00000000000E+00  0.00000000000E+00  0.60496149090E+03  0.25719366537E+04  0.24997759390E+04 0.  0.
        4    1    3    3  502    0 -0.48501694752E+03  0.31304435689E+03 -0.83811464524E+03  0.10176816694E+04  0.12699999809E+01 0. -1.
       -4    1    3    3    0  502  0.48501694752E+03 -0.31304435689E+03  0.14430761361E+04  0.15542549843E+04  0.12699999809E+01 0.  1.
</event>
<event>
 5   0  0.9508784E-07  0.2498968E+04  0.7818609E-02  0.8403353E-01
        2   -1    0    0  501    0  0.00000000000E+00  0.00000000000E+00  0.15774372501E+04  0.15774372501E+04  0.25500000920E-02 0. -1.
       -2   -1    0    0    0  501  0.00000000000E+00  0.00000000000E+00 -0.98971282152E+03  0.98971282152E+03  0.25500000920E-02 0.  1.
    10030    2    1    2    0    0  0.00000000000E+00  0.00000000000E+00  0.58772442860E+03  0.25671500716E+04  0.24989676841E+04 0.  0.
        2    1    3    3  502    0 -0.93785188800E+03 -0.43040400046E+03 -0.42991482185E+03  0.11178732135E+04  0.25500000920E-02 0.  1.
       -2    1    3    3    0  502  0.93785188800E+03  0.43040400046E+03  0.10176392505E+04  0.14492768581E+04  0.25500000920E-02 0. -1.
</event>
<event>
 5   0  0.9768582E-07  0.2499935E+04  0.7818609E-02  0.8403009E-01
        2   -1    0    0  501    0  0.00000000000E+00  0.00000000000E+00  0.21821507188E+04  0.21821507188E+04  0.25500000920E-02 0.  1.
       -2   -1    0    0    0  501  0.00000000000E+00  0.00000000000E+00 -0.71599964453E+03  0.71599964453E+03  0.25500000920E-02 0. -1.
    10030    2    1    2    0    0  0.00000000000E+00  0.00000000000E+00  0.14661510743E+04  0.28981503633E+04  0.24999353103E+04 0.  0.
        3    1    3    3  502    0  0.36890298626E+03  0.51739133863E+03  0.19809348860E+04  0.20803572394E+04  0.10100000352E+00 0.  1.
       -3    1    3    3    0  502 -0.36890298626E+03 -0.51739133863E+03 -0.51478381175E+03  0.81779312396E+03  0.10100000352E+00 0. -1.
</event>
<event>
 5   0  0.3972587E-07  0.2495285E+04  0.7818609E-02  0.8404667E-01
       -1   -1    0    0    0  501  0.00000000000E+00  0.00000000000E+00  0.59994097230E+03  0.59994097232E+03  0.50400001928E-02 0. -1.
        1   -1    0    0  501    0  0.00000000000E+00  0.00000000000E+00 -0.25946077415E+04  0.25946077415E+04  0.50400001928E-02 0.  1.
    10030    2    1    2    0    0  0.00000000000E+00  0.00000000000E+00 -0.19946667692E+04  0.31945487139E+04  0.24952847463E+04 0.  0.
        3    1    3    3  502    0  0.11841141572E+04  0.37917272921E+03 -0.11298434016E+04  0.16800132196E+04  0.10100000352E+00 0.  1.
       -3    1    3    3    0  502 -0.11841141572E+04 -0.37917272921E+03 -0.86482336764E+03  0.15145354942E+04  0.10100000352E+00 0. -1.
</event>
<event>
 5   0  0.3805418E-07  0.2499860E+04  0.7818609E-02  0.8403036E-01
       -1   -1    0    0    0  501  0.00000000000E+00  0.00000000000E+00  0.14178204046E+04  0.14178204046E+04  0.50400001928E-02 0. -1.
        1   -1    0    0  501    0  0.00000000000E+00  0.00000000000E+00 -0.11019198657E+04  0.11019198657E+04  0.50400001928E-02 0.  1.
    10030    2    1    2    0    0  0.00000000000E+00  0.00000000000E+00  0.31590053891E+03  0.25197402704E+04  0.24998595720E+04 0.  0.
        4    1    3    3  502    0  0.88596218009E+03  0.47876337409E+03 -0.58832931424E+03  0.11663088561E+04  0.12699999809E+01 0.  1.
       -4    1    3    3    0  502 -0.88596218009E+03 -0.47876337409E+03  0.90422985315E+03  0.13534314143E+04  0.12699999809E+01 0. -1.
</event>
<event>
 5   0  0.9768582E-07  0.2498589E+04  0.7818609E-02  0.8403489E-01
        2   -1    0    0  501    0  0.00000000000E+00  0.00000000000E+00  0.12958061095E+04  0.12958061095E+04  0.25500000920E-02 0. -1.
       -2   -1    0    0    0  501  0.00000000000E+00  0.00000000000E+00 -0.12044519852E+04  0.12044519852E+04  0.25500000920E-02 0.  1.
    10030    2    1    2    0    0  0.00000000000E+00  0.00000000000E+00  0.91354124327E+02  0.25002580947E+04  0.24985885944E+04 0.  0.
        3    1    3    3  502    0  0.58263613680E+03  0.33676859840E+03 -0.10075746932E+04  0.12116454636E+04  0.10100000352E+00 0.  1.
       -3    1    3    3    0  502 -0.58263613680E+03 -0.33676859840E+03  0.10989288176E+04  0.12886126311E+04  0.10100000352E+00 0. -1.
</event>
<event>
 5   0  0.9508784E-07  0.2500428E+04  0.7818609E-02  0.8402833E-01
       -2   -1    0    0    0  501  0.00000000000E+00  0.00000000000E+00  0.93610164302E+03  0.93610164302E+03  0.25500000920E-02 0. -1.
        2   -1    0    0  501    0  0.00000000000E+00  0.00000000000E+00 -0.16697285291E+04  0.16697285291E+04  0.25500000920E-02 0.  1.
    10030    2    1    2    0    0  0.00000000000E+00  0.00000000000E+00 -0.73362688604E+03  0.26058301721E+04  0.25004284588E+04 0.  0.
        2    1    3    3  502    0 -0.80350153343E+03  0.93251844027E+03 -0.13889311401E+03  0.12387480183E+04  0.25500000920E-02 0. -1.
       -2    1    3    3    0  502  0.80350153343E+03 -0.93251844027E+03 -0.59473377202E+03  0.13670821538E+04  0.25500000920E-02 0.  1.
</event>
<event>
 5   0  0.3991066E-07  0.2499845E+04  0.7818609E-02  0.8403041E-01
        1   -1    0    0  501    0  0.00000000000E+00  0.00000000000E+00  0.96234622214E+03  0.96234622215E+03  0.50400001928E-02 0. -1.
       -1   -1    0    0    0  501  0.00000000000E+00  0.00000000000E+00 -0.16234344478E+04  0.16234344478E+04  0.50400001928E-02 0.  1.
    10030    2    1    2    0    0  0.00000000000E+00  0.00000000000E+00 -0.66108822567E+03  0.25857806700E+04  0.24998448014E+04 0.  0.
        1    1    3    3  502    0  0.72175549054E+03 -0.77232052546E+03 -0.10204786736E+04  0.14692810165E+04  0.50400001928E-02 0.  1.
       -1    1    3    3    0  502 -0.72175549054E+03  0.77232052546E+03  0.35939044789E+03  0.11164996535E+04  0.50400001928E-02 0. -1.
</event>
<event>
 5   0  0.8997210E-07  0.2501689E+04  0.7818609E-02  0.8402384E-01
       -2   -1    0    0    0  501  0.00000000000E+00  0.00000000000E+00  0.11495676611E+04  0.11495676611E+04  0.25500000920E-02 0.  1.
        2   -1    0    0  501    0  0.00000000000E+00  0.00000000000E+00 -0.13610435764E+04  0.13610435764E+04  0.25500000920E-02 0. -1.
    10030    2    1    2    0    0  0.00000000000E+00  0.00000000000E+00 -0.21147591529E+03  0.25106112375E+04  0.25016887742E+04 0.  0.
        1    1    3    3  502    0 -0.11022251215E+04  0.42405026524E+03 -0.51938861632E+03  0.12901485886E+04  0.50400001928E-02 0.  1.
       -1    1    3    3    0  502  0.11022251215E+04 -0.42405026524E+03  0.30791270103E+03  0.12204626489E+04  0.50400001928E-02 0. -1.
</event>
<event>
 5   0  0.3873231E-07  0.2513005E+04  0.7818609E-02  0.8398367E-01
        1   -1    0    0  501    0  0.00000000000E+00  0.00000000000E+00  0.17473612943E+04  0.17473612943E+04  0.50400001928E-02 0.  1.
       -1   -1    0    0    0  501  0.00000000000E+00  0.00000000000E+00 -0.90353305507E+03  0.90353305508E+03  0.50400001928E-02 0. -1.
    10030    2    1    2    0    0  0.00000000000E+00  0.00000000000E+00  0.84382823927E+03  0.26508943494E+04  0.25130051242E+04 0.  0.
        2    1    3    3  502    0 -0.16389205889E+02 -0.12554907003E+04  0.47220813959E+03  0.13414566827E+04  0.25500000920E-02 0. -1.
       -2    1    3    3    0  502  0.16389205889E+02  0.12554907003E+04  0.37162009969E+03  0.13094376667E+04  0.25500000920E-02 0.  1.
</event>
<event>
 5   0  0.9251138E-07  0.2500447E+04  0.7818609E-02  0.8402826E-01
       -2   -1    0    0    0  501  0.00000000000E+00  0.00000000000E+00  0.98438543671E+03  0.98438543672E+03  0.25500000920E-02 0. -1.
        2   -1    0    0  501    0  0.00000000000E+00  0.00000000000E+00 -0.15878519437E+04  0.15878519437E+04  0.25500000920E-02 0.  1.
    10030    2    1    2    0    0  0.00000000000E+00  0.00000000000E+00 -0.60346650694E+03  0.25722373804E+04  0.25004466233E+04 0.  0.
        5    1    3    3  502    0  0.73236015963E+03 -0.19069829442E+03  0.72198633140E+03  0.10459462680E+04  0.46999998093E+01 0. -1.
       -5    1    3    3    0  502 -0.73236015963E+03  0.19069829442E+03 -0.13254528383E+04  0.15262911123E+04  0.46999998093E+01 0.  1.
</event>
<event>
 5   0  0.3873231E-07  0.2499360E+04  0.7818609E-02  0.8403214E-01
       -1   -1    0    0    0  501  0.00000000000E+00  0.00000000000E+00  0.10816453554E+04  0.10816453554E+04  0.50400001928E-02 0. -1.
        1   -1    0    0  501    0  0.00000000000E+00  0.00000000000E+00 -0.14438189394E+04  0.14438189394E+04  0.50400001928E-02 0.  1.
    10030    2    1    2    0    0  0.00000000000E+00  0.00000000000E+00 -0.36217358397E+03  0.25254642948E+04  0.24993599580E+04 0.  0.
        2    1    3    3  502    0  0.34722612580E+03  0.97319057143E+03  0.52912997838E+03  0.11608808745E+04  0.25500000920E-02 0. -1.
       -2    1    3    3    0  502 -0.34722612580E+03 -0.97319057143E+03 -0.89130356235E+03  0.13645834203E+04  0.25500000920E-02 0.  1.
</event>
<event>
 5   0  0.3972587E-07  0.2503651E+04  0.7818609E-02  0.8401686E-01
        1   -1    0    0  501    0  0.00000000000E+00  0.00000000000E+00  0.12738959458E+04  0.12738959458E+04  0.50400001928E-02 0. -1.
       -1   -1    0    0    0  501  0.00000000000E+00  0.00000000000E+00 -0.12301377791E+04  0.12301377791E+04  0.50400001928E-02 0.  1.
    10030    2    1    2    0    0  0.00000000000E+00  0.00000000000E+00  0.43758166736E+02  0.25040337250E+04  0.25036513572E+04 0.  0.
        3    1    3    3  502    0  0.74553315867E+03  0.25337323372E+03  0.99519256310E+03  0.12690255845E+04  0.10100000352E+00 0. -1.
       -3    1    3    3    0  502 -0.74553315867E+03 -0.25337323372E+03 -0.95143439636E+03  0.12350081405E+04  0.10100000352E+00 0.  1.
</event>
<event>
 5   0  0.3837524E-07  0.2499390E+04  0.7818609E-02  0.8403203E-01
        1   -1    0    0  501    0  0.00000000000E+00  0.00000000000E+00  0.16902761296E+04  0.16902761296E+04  0.50400001928E-02 0.  1.
       -1   -1    0    0    0  501  0.00000000000E+00  0.00000000000E+00 -0.92395420439E+03  0.92395420440E+03  0.50400001928E-02 0. -1.
    10030    2    1    2    0    0  0.00000000000E+00  0.00000000000E+00  0.76632192525E+03  0.26142303341E+04  0.24993901149E+04 0.  0.
        5    1    3    3  502    0 -0.59846269187E+03 -0.64477445607E+03 -0.54521608011E+03  0.10349755344E+04  0.46999998093E+01 0. -1.
       -5    1    3    3    0  502  0.59846269187E+03  0.64477445607E+03  0.13115380054E+04  0.15792547997E+04  0.46999998093E+01 0.  1.
</event>
<event>
 5   0  0.8997210E-07  0.2500266E+04  0.7818609E-02  0.8402891E-01
        2   -1    0    0  501    0  0.00000000000E+00  0.00000000000E+00  0.15871413881E+04  0.15871413881E+04  0.25500000920E-02 0. -1.
       -2   -1    0    0    0  501  0.00000000000E+00  0.00000000000E+00 -0.98468351847E+03  0.98468351848E+03  0.25500000920E-02 0.  1.
    10030    2    1    2    0    0  0.00000000000E+00  0.00000000000E+00  0.60245786963E+03  0.25718249066E+04  0.25002655590E+04 0.  0.
        1    1    3    3  502    0 -0.54411373589E+03 -0.57859710181E+02  0.14574207752E+04  0.15567539368E+04  0.50400001928E-02 0. -1.
       -1    1    3    3    0  502  0.54411373589E+03  0.57859710181E+02 -0.85496290562E+03  0.10150709698E+04  0.50400001928E-02 0.  1.
</event>
<event>
 5   0  0.3972587E-07  0.2500768E+04  0.7818609E-02  0.8402712E-01
       -1   -1    0    0    0  501  0.00000000000E+00  0.00000000000E+00  0.14475745109E+04  0.14475745110E+04  0.50400001928E-02 0.  1.
        1   -1    0    0  501    0  0.00000000000E+00  0.00000000000E+00 -0.10800548336E+04  0.10800548336E+04  0.50400001928E-02 0. -1.
    10030    2    1    2    0    0  0.00000000000E+00  0.00000000000E+00  0.36751967733E+03  0.25276293446E+04  0.25007677602E+04 0.  0.
        3    1    3    3  502    0 -0.72653231679E+03 -0.81050250058E+03  0.80575294751E+03  0.13542530537E+04  0.10100000352E+00 0.  1.
       -3    1    3    3    0  502  0.72653231679E+03  0.81050250058E+03 -0.43823327018E+03  0.11733762909E+04  0.10100000352E+00 0. -1.
</event>
<event>
 5   0  0.9508784E-07  0.2500230E+04  0.7818609E-02  0.8402903E-01
       -2   -1    0    0    0  501  0.00000000000E+00  0.00000000000E+00  0.66598820342E+03  0.66598820343E+03  0.25500000920E-02 0. -1.
        2   -1    0    0  501    0  0.00000000000E+00  0.00000000000E+00 -0.23465701002E+04  0.23465701002E+04  0.25500000920E-02 0.  1.
    10030    2    1    2    0    0  0.00000000000E+00  0.00000000000E+00 -0.16805818968E+04  0.30125583036E+04  0.25002303936E+04 0.  0.
        2    1    3    3  502    0  0.74392661285E+03  0.76393631983E+03 -0.54079915938E+02  0.10676844774E+04  0.25500000920E-02 0. -1.
       -2    1    3    3    0  502 -0.74392661285E+03 -0.76393631983E+03 -0.16265019808E+04  0.19448738262E+04  0.25500000920E-02 0.  1.
</event>
<event>
 5   0  0.3805418E-07  0.2496874E+04  0.7818609E-02  0.8404100E-01
       -1   -1    0    0    0  501  0.00000000000E+00  0.00000000000E+00  0.89342191076E+03  0.89342191077E+03  0.50400001928E-02 0.  1.
        1   -1    0    0  501    0  0.00000000000E+00  0.00000000000E+00 -0.17445223905E+04  0.17445223905E+04  0.50400001928E-02 0. -1.
    10030    2    1    2    0    0  0.00000000000E+00  0.00000000000E+00 -0.85110047973E+03  0.26379443013E+04  0.24968736672E+04 0.  0.
        4    1    3    3  502    0 -0.70059876111E+02  0.26843662482E+02  0.89103729459E+03  0.89419127803E+03  0.12699999809E+01 0.  1.
       -4    1    3    3    0  502  0.70059876111E+02 -0.26843662482E+02 -0.17421377743E+04  0.17437530232E+04  0.12699999809E+01 0. -1.
</event>
<event>
 5   0  0.3837524E-07  0.2498461E+04  0.7818609E-02  0.8403534E-01
        1   -1    0    0  501    0  0.00000000000E+00  0.00000000000E+00  0.15058650150E+04  0.15058650150E+04  0.50400001928E-02 0.  1.
       -1   -1    0    0    0  501  0.00000000000E+00  0.00000000000E+00 -0.10363325635E+04  0.10363325635E+04  0.50400001928E-02 0. -1.
    10030    2    1    2    0    0  0.00000000000E+00  0.00000000000E+00  0.46953245158E+03  0.25421975785E+04  0.24984610874E+04 0.  0.
        5    1    3    3  502    0 -0.42180282057E+02  0.62839491580E+03  0.13324916127E+04  0.14738437279E+04  0.46999998093E+01 0.  1.
       -5    1    3    3    0  502  0.42180282057E+02 -0.62839491580E+03 -0.86295916110E+03  0.10683538506E+04  0.46999998093E+01 0. -1.
</event>
<event>
 5   0  0.9251138E-07  0.2499870E+04  0.7818609E-02  0.8403032E-01
        2   -1    0    0  501    0  0.00000000000E+00  0.00000000000E+00  0.16607056734E+04  0.16607056734E+04  0.25500000920E-02 0.  1.
       -2   -1    0    0    0  501  0.00000000000E+00  0.00000000000E+00 -0.94076754330E+03  0.94076754331E+03  0.25500000920E-02 0. -1.
    10030    2    1    2    0    0  0.00000000000E+00  0.00000000000E+00  0.71993813008E+03  0.26014732167E+04  0.24998703938E+04 0.  0.
        5    1    3    3  502    0 -0.99103697796E+03  0.62946037350E+03  0.80628401674E+03  0.14242509116E+04  0.46999998093E+01 0.  1.
       -5    1    3    3    0  502  0.99103697796E+03 -0.62946037350E+03 -0.86345886661E+02  0.11772223051E+04  0.46999998093E+01 0. -1.
</event>
<event>
 5   0  0.3837524E-07  0.2496520E+04  0.7818609E-02  0.8404226E-01
       -1   -1    0    0    0  501  0.00000000000E+00  0.00000000000E+00  0.79313098658E+03  0.79313098659E+03  0.50400001928E-02 0.  1.
        1   -1    0    0  501    0  0.00000000000E+00  0.00000000000E+00 -0.19645599441E+04  0.19645599441E+04  0.50400001928E-02 0. -1.
    10030    2    1    2    0    0  0.00000000000E+00  0.00000000000E+00 -0.11714289575E+04  0.27576909307E+04  0.24965202716E+04 0.  0.
        5    1    3    3  502    0  0.41118147251E+03 -0.10354648340E+04 -0.12075185451E+04  0.16429792307E+04  0.46999998093E+01 0. -1.
       -5    1    3    3    0  502 -0.41118147251E+03  0.10354648340E+04  0.36089587631E+02  0.11147117000E+04  0.46999998093E+01 0.  1.
</event>
<event>
 5   0  0.3873231E-07  0.2498344E+04  0.7818609E-02  0.8403576E-01
        1   -1    0    0  501    0  0.00000000000E+00  0.00000000000E+00  0.87242267522E+03  0.87242267523E+03  0.50400001928E-02 0.  1.
       -1   -1    0    0    0  501  0.00000000000E+00  0.00000000000E+00 -0.17886183556E+04  0.17886183556E+04  0.50400001928E-02 0. -1.
    10030    2    1    2    0    0  0.00000000000E+00  0.00000000000E+00 -0.91619568035E+03  0.26610410308E+04  0.24983444204E+04 0.  0.
        2    1    3    3  502    0  0.91024126932E+02 -0.27919348106E+03  0.83513580896E+03  0.88526053282E+03  0.25500000920E-02 0.  1.
       -2    1    3    3    0  502 -0.91024126932E+02  0.27919348106E+03 -0.17513314893E+04  0.17757804980E+04  0.25500000920E-02 0. -1.
</event>
<event>
 5   0  0.8997210E-07  0.2499916E+04  0.7818609E-02  0.8403015E-01
       -2   -1    0    0    0  501  0.00000000000E+00  0.00000000000E+00  0.10559101389E+04  0.10559101389E+04  0.25500000920E-02 0. -1.
        2   -1    0    0  501    0  0.00000000000E+00  0.00000000000E+00 -0.14796670233E+04  0.14796670233E+04  0.25500000920E-02 0.  1.
    10030    2    1    2    0    0  0.00000000000E+00  0.00000000000E+00 -0.42375688439E+03  0.25355771622E+04  0.24999163283E+04 0.  0.
        1    1    3    3  502    0 -0.10505273827E+04  0.54877107908E+03 -0.61457852992E+03  0.13350896031E+04  0.50400001928E-02 0. -1.
       -1    1    3    3    0  502  0.10505273827E+04 -0.54877107908E+03  0.19082164553E+03  0.12004875590E+04  0.50400001928E-02 0.  1.
</event>
<event>
 5   0  0.3805418E-07  0.2500502E+04  0.7818609E-02  0.8402807E-01
       -1   -1    0    0    0  501  0.00000000000E+00  0.00000000000E+00  0.62691979003E+03  0.62691979005E+03  0.50400001928E-02 0.  1.
        1   -1    0    0  501    0  0.00000000000E+00  0.00000000000E+00 -0.24933455454E+04  0.24933455454E+04  0.50400001928E-02 0. -1.
    10030    2    1    2    0    0  0.00000000000E+00  0.00000000000E+00 -0.18664257554E+04  0.31202653354E+04  0.25005020822E+04 0.  0.
        4    1    3    3  502    0 -0.49785795032E+02 -0.65193773729E+03 -0.22629987184E+04  0.23555607084E+04  0.12699999809E+01 0. -1.
       -4    1    3    3    0  502  0.49785795032E+02  0.65193773729E+03  0.39657296303E+03  0.76470462703E+03  0.12699999809E+01 0.  1.
</event>
<event>
 5   0  0.8997210E-07  0.2495519E+04  0.7818609E-02  0.8404584E-01
       -2   -1    0    0    0  501  0.00000000000E+00  0.00000000000E+00  0.92216565881E+03  0.92216565882E+03  0.25500000920E-02 0. -1.
        2   -1    0    0  501    0  0.00000000000E+00  0.00000000000E+00 -0.16883121426E+04  0.16883121426E+04  0.25500000920E-02 0.  1.
    10030    2    1    2    0    0  0.00000000000E+00  0.00000000000E+00 -0.76614648382E+03  0.26104778015E+04  0.24955187672E+04 0.  0.
        1    1    3    3  502    0  0.10739637754E+04 -0.56001069980E+03 -0.69670702541E+03  0.13972869619E+04  0.50400001928E-02 0.  1.
       -1    1    3    3    0  502 -0.10739637754E+04  0.56001069980E+03 -0.69439458409E+02  0.12131908395E+04  0.50400001928E-02 0. -1.
</event>
<event>
 5   0  0.8997210E-07  0.2498654E+04  0.7818609E-02  0.8403465E-01
       -2   -1    0    0    0  501  0.00000000000E+00  0.00000000000E+00  0.10779083336E+04  0.10779083336E+04  0.25500000920E-02 0. -1.
        2   -1    0    0  501    0  0.00000000000E+00  0.00000000000E+00 -0.14480062398E+04  0.14480062398E+04  0.25500000920E-02 0.  1.
    10030    2    1    2    0    0  0.00000000000E+00  0.00000000000E+00 -0.37009790616E+03  0.25259145734E+04  0.24986540321E+04 0.  0.
        1    1    3    3  502    0 -0.11973878509E+04  0.13906839555E+03  0.14677034428E+03  0.12143390046E+04  0.50400001928E-02 0. -1.
       -1    1    3    3    0  502  0.11973878509E+04 -0.13906839555E+03 -0.51686825044E+03  0.13115755688E+04  0.50400001928E-02 0.  1.
</event>
<event>
 5   0  0.3805418E-07  0.2500211E+04  0.7818609E-02  0.8402910E-01
        1   -1    0    0  501    0  0.00000000000E+00  0.00000000000E+00  0.15855674286E+04  0.15855674287E+04  0.50400001928E-02 0.  1.
       -1   -1    0    0    0  501  0.00000000000E+00  0.00000000000E+00 -0.98561831829E+03  0.98561831831E+03  0.50400001928E-02 0. -1.
    10030    2    1    2    0    0  0.00000000000E+00  0.00000000000E+00  0.59994911036E+03  0.25711857470E+04  0.25002114331E+04 0.  0.
        4    1    3    3  502    0 -0.88163616203E+02 -0.12380578095E+04  0.14673888450E+03  0.12498375398E+04  0.12699999809E+01 0.  1.
       -4    1    3    3    0  502  0.88163616203E+02  0.12380578095E+04  0.45321022585E+03  0.13213482071E+04  0.12699999809E+01 0. -1.
</event>
<event>
 5   0  0.3972587E-07  0.2500211E+04  0.7818609E-02  0.8402910E-01
        1   -1    0    0  501    0  0.00000000000E+00  0.00000000000E+00  0.24041500846E+04  0.24041500846E+04  0.50400001928E-02 0.  1.
       -1   -1    0    0    0  501  0.00000000000E+00  0.00000000000E+00 -0.65002744971E+03  0.65002744973E+03  0.50400001928E-02 0. -1.
    10030    2    1    2    0    0  0.00000000000E+00  0.00000000000E+00  0.17541226349E+04  0.30541775343E+04  0.25002108297E+04 0.  0.
        3    1    3    3  502    0  0.10677670759E+04 -0.26152846824E+03  0.15000782286E+03  0.11095161221E+04  0.10100000352E+00 0. -1.
       -3    1    3    3    0  502 -0.10677670759E+04  0.26152846824E+03  0.16041148120E+04  0.19446614123E+04  0.10100000352E+00 0.  1.
</event>
<event>
 5   0  0.9261602E-07  0.2500050E+04  0.7818609E-02  0.8402968E-01
       -2   -1    0    0    0  501  0.00000000000E+00  0.00000000000E+00  0.80152730113E+03  0.80152730114E+03  0.25500000920E-02 0.  1.
        2   -1    0    0  501    0  0.00000000000E+00  0.00000000000E+00 -0.19494819001E+04  0.19494819001E+04  0.25500000920E-02 0. -1.
    10030    2    1    2    0    0  0.00000000000E+00  0.00000000000E+00 -0.11479545990E+04  0.27510092013E+04  0.25000503723E+04 0.  0.
        4    1    3    3  502    0  0.54772130726E+02 -0.22283106203E+03  0.77815280281E+03  0.81128112633E+03  0.12699999809E+01 0.  1.
       -4    1    3    3    0  502 -0.54772130726E+02  0.22283106203E+03 -0.19261074018E+04  0.19397280749E+04  0.12699999809E+01 0. -1.
</event>
<event>
 5   0  0.3805418E-07  0.2499794E+04  0.7818609E-02  0.8403059E-01
        1   -1    0    0  501    0  0.00000000000E+00  0.00000000000E+00  0.13160740788E+04  0.13160740788E+04  0.50400001928E-02 0. -1.
       -1   -1    0    0    0  501  0.00000000000E+00  0.00000000000E+00 -0.11870477751E+04  0.11870477751E+04  0.50400001928E-02 0.  1.
    10030    2    1    2    0    0  0.00000000000E+00  0.00000000000E+00  0.12902630372E+03  0.25031218539E+04  0.24997942372E+04 0.  0.
        4    1    3    3  502    0  0.11411923907E+04  0.24662199975E+03  0.51131190596E+03  0.12745916842E+04  0.12699999809E+01 0.  1.
       -4    1    3    3    0  502 -0.11411923907E+04 -0.24662199975E+03 -0.38228560224E+03  0.12285301697E+04  0.12699999809E+01 0. -1.
</event>
<event>
 5   0  0.3991066E-07  0.2500148E+04  0.7818609E-02  0.8402933E-01
       -1   -1    0    0    0  501  0.00000000000E+00  0.00000000000E+00  0.96825977764E+03  0.96825977765E+03  0.50400001928E-02 0. -1.
        1   -1    0    0  501    0  0.00000000000E+00  0.00000000000E+00 -0.16139106180E+04  0.16139106180E+04  0.50400001928E-02 0.  1.
    10030    2    1    2    0    0  0.00000000000E+00  0.00000000000E+00 -0.64565084032E+03  0.25821703956E+04  0.25001477845E+04 0.  0.
        1    1    3    3  502    0  0.74764838964E+03  0.68994244934E+03 -0.10730771729E+04  0.14786795856E+04  0.50400001928E-02 0.  1.
       -1    1    3    3    0  502 -0.74764838964E+03 -0.68994244934E+03  0.42742633257E+03  0.11034908100E+04  0.50400001928E-02 0. -1.
</event>
<event>
 5   0  0.3837524E-07  0.2499964E+04  0.7818609E-02  0.8402998E-01
       -1   -1    0    0    0  501  0.00000000000E+00  0.00000000000E+00  0.67113652784E+03  0.67113652786E+03  0.50400001928E-02 0. -1.
        1   -1    0    0  501    0  0.00000000000E+00  0.00000000000E+00 -0.23280734451E+04  0.23280734451E+04  0.50400001928E-02 0.  1.
    10030    2    1    2    0    0  0.00000000000E+00  0.00000000000E+00 -0.16569369173E+04  0.29992099730E+04  0.24999641026E+04 0.  0.
        5    1    3    3  502    0  0.11699248426E+04 -0.37709385683E+03 -0.11007481082E+04  0.16500280003E+04  0.46999998093E+01 0.  1.
       -5    1    3    3    0  502 -0.11699248426E+04  0.37709385683E+03 -0.55618880911E+03  0.13491819727E+04  0.46999998093E+01 0. -1.
</event>
<event>
 5   0  0.9261602E-07  0.2499866E+04  0.7818609E-02  0.8403033E-01
       -2   -1    0    0    0  501  0.00000000000E+00  0.00000000000E+00  0.16092446888E+04  0.16092446888E+04  0.25500000920E-02 0.  1.
        2   -1    0    0  501    0  0.00000000000E+00  0.00000000000E+00 -0.97084859031E+03  0.97084859031E+03  0.25500000920E-02 0. -1.
    10030    2    1    2    0    0  0.00000000000E+00  0.00000000000E+00  0.63839609845E+03  0.25800932791E+04  0.24998663465E+04 0.  0.
        4    1    3    3  502    0  0.57873378678E+03 -0.15813843578E+03 -0.81252831508E+03  0.10100219980E+04  0.12699999809E+01 0. -1.
       -4    1    3    3    0  502 -0.57873378678E+03  0.15813843578E+03  0.14509244135E+04  0.15700712810E+04  0.12699999809E+01 0.  1.
</event>
<event>
 5   0  0.9508784E-07  0.2503196E+04  0.7818609E-02  0.8401848E-01
        2   -1    0    0  501    0  0.00000000000E+00  0.00000000000E+00  0.26690660791E+04  0.26690660791E+04  0.25500000920E-02 0. -1.
       -2   -1    0    0    0  501  0.00000000000E+00  0.00000000000E+00 -0.58690860310E+03  0.58690860310E+03  0.25500000920E-02 0.  1.
    10030    2    1    2    0    0  0.00000000000E+00  0.00000000000E+00  0.20821574760E+04  0.32559746822E+04  0.25031962321E+04 0.  0.
        2    1    3    3  502    0  0.15394973393E+03  0.12402274251E+04  0.95254081219E+03  0.15713683799E+04  0.25500000920E-02 0.  1.
       -2    1    3    3    0  502 -0.15394973393E+03 -0.12402274251E+04  0.11296166638E+04  0.16846063023E+04  0.25500000920E-02 0. -1.
</event>
<event>
 5   0  0.3837524E-07  0.2499626E+04  0.7818609E-02  0.8403119E-01
        1   -1    0    0  501    0  0.00000000000E+00  0.00000000000E+00  0.22934229106E+04  0.22934229106E+04  0.50400001928E-02 0.  1.
       -1   -1    0    0    0  501  0.00000000000E+00  0.00000000000E+00 -0.68109215536E+03  0.68109215538E+03  0.50400001928E-02 0. -1.
    10030    2    1    2    0    0  0.00000000000E+00  0.00000000000E+00  0.16123307552E+04  0.29745150660E+04  0.24996258547E+04 0.  0.
        5    1    3    3  502    0 -0.92424183931E+03  0.32814588717E+03  0.17280057297E+04  0.19869395040E+04  0.46999998093E+01 0.  1.
       -5    1    3    3    0  502  0.92424183931E+03 -0.32814588717E+03 -0.11567497449E+03  0.98757556193E+03  0.46999998093E+01 0. -1.
</event>
<event>
 5   0  0.3991066E-07  0.2498895E+04  0.7818609E-02  0.8403379E-01
        1   -1    0    0  501    0  0.00000000000E+00  0.00000000000E+00  0.21420617107E+04  0.21420617107E+04  0.50400001928E-02 0.  1.
       -1   -1    0    0    0  501  0.00000000000E+00  0.00000000000E+00 -0.72879247987E+03  0.72879247988E+03  0.50400001928E-02 0. -1.
    10030    2    1    2    0    0  0.00000000000E+00  0.00000000000E+00  0.14132692309E+04  0.28708541906E+04  0.24988945286E+04 0.  0.
        1    1    3    3  502    0 -0.27819745683E+03  0.56794023862E+03 -0.53133742762E+03  0.82599600583E+03  0.50400001928E-02 0. -1.
       -1    1    3    3    0  502  0.27819745683E+03 -0.56794023862E+03  0.19446066585E+04  0.20448581848E+04  0.50400001928E-02 0.  1.
</event>
<event>
 5   0  0.9768582E-07  0.2498843E+04  0.7818609E-02  0.8403398E-01
       -2   -1    0    0    0  501  0.00000000000E+00  0.00000000000E+00  0.62649747042E+03  0.62649747042E+03  0.25500000920E-02 0.  1.
        2   -1    0    0  501    0  0.00000000000E+00  0.00000000000E+00 -0.24917160254E+04  0.24917160254E+04  0.25500000920E-02 0. -1.
    10030    2    1    2    0    0  0.00000000000E+00  0.00000000000E+00 -0.18652185550E+04  0.31182134958E+04  0.24988427617E+04 0.  0.
        3    1    3    3  502    0  0.94163692635E+03 -0.81482459657E+03 -0.80514049683E+03  0.14828588787E+04  0.10100000352E+00 0. -1.
       -3    1    3    3    0  502 -0.94163692635E+03  0.81482459657E+03 -0.10600780581E+04  0.16353546171E+04  0.10100000352E+00 0.  1.
</event>
<event>
 5   0  0.9261602E-07  0.2500997E+04  0.7818609E-02  0.8402631E-01
        2   -1    0    0  501    0  0.00000000000E+00  0.00000000000E+00  0.14067629765E+04  0.14067629765E+04  0.25500000920E-02 0.  1.
       -2   -1    0    0    0  501  0.00000000000E+00  0.00000000000E+00 -0.11115917441E+04  0.11115917441E+04  0.25500000920E-02 0. -1.
    10030    2    1    2    0    0  0.00000000000E+00  0.00000000000E+00  0.29517123238E+03  0.25183547206E+04  0.25009966898E+04 0.  0.
        4    1    3    3  502    0  0.49296566475E+03  0.71949025018E+03 -0.75477187719E+03  0.11534138746E+04  0.12699999809E+01 0. -1.
       -4    1    3    3    0  502 -0.49296566475E+03 -0.71949025018E+03  0.10499431096E+04  0.13649408460E+04  0.12699999809E+01 0.  1.
</event>
<event>
 5   0  0.9261602E-07  0.2494758E+04  0.7818609E-02  0.8404855E-01
       -2   -1    0    0    0  501  0.00000000000E+00  0.00000000000E+00  0.70653809999E+03  0.70653809999E+03  0.25500000920E-02 0. -1.
        2   -1    0    0  501    0  0.00000000000E+00  0.00000000000E+00 -0.22022225265E+04  0.22022225266E+04  0.25500000920E-02 0.  1.
    10030    2    1    2    0    0  0.00000000000E+00  0.00000000000E+00 -0.14956844266E+04  0.29087606265E+04  0.24947577996E+04 0.  0.
        4    1    3    3  502    0 -0.48674543156E+03  0.46764437639E+03 -0.19708889965E+04  0.20832708483E+04  0.12699999809E+01 0.  1.
       -4    1    3    3    0  502  0.48674543156E+03 -0.46764437639E+03  0.47520456990E+03  0.82548977829E+03  0.12699999809E+01 0. -1.
</event>
<event>
 5   0  0.3972587E-07  0.2499536E+04  0.7818609E-02  0.8403151E-01
        1   -1    0    0  501    0  0.00000000000E+00  0.00000000000E+00  0.27170107152E+04  0.27170107152E+04  0.50400001928E-02 0.  1.
       -1   -1    0    0    0  501  0.00000000000E+00  0.00000000000E+00 -0.57486701750E+03  0.57486701752E+03  0.50400001928E-02 0. -1.
    10030    2    1    2    0    0  0.00000000000E+00  0.00000000000E+00  0.21421436977E+04  0.32918777327E+04  0.24995358340E+04 0.  0.
        3    1    3    3  502    0  0.11059470251E+04  0.36405245096E+03  0.47293711501E+03  0.12567109987E+04  0.10100000352E+00 0. -1.
       -3    1    3    3    0  502 -0.11059470251E+04 -0.36405245096E+03  0.16692065827E+04  0.20351667340E+04  0.10100000352E+00 0.  1.
</event>
<event>
 5   0  0.3972587E-07  0.2499420E+04  0.7818609E-02  0.8403192E-01
        1   -1    0    0  501    0  0.00000000000E+00  0.00000000000E+00  0.10469759881E+04  0.10469759881E+04  0.50400001928E-02 0.  1.
       -1   -1    0    0    0  501  0.00000000000E+00  0.00000000000E+00 -0.14917006213E+04  0.14917006213E+04  0.50400001928E-02 0. -1.
    10030    2    1    2    0    0  0.00000000000E+00  0.00000000000E+00 -0.44472463319E+03  0.25386766094E+04  0.24994197182E+04 0.  0.
        3    1    3    3  502    0 -0.11111921833E+04  0.56594844484E+03 -0.30568127283E+03  0.12839340953E+04  0.10100000352E+00 0.  1.
       -3    1    3    3    0  502  0.11111921833E+04 -0.56594844484E+03 -0.13904336036E+03  0.12547425141E+04  0.10100000352E+00 0. -1.
</event>
<event>
 5   0  0.3991066E-07  0.2490189E+04  0.7818609E-02  0.8406489E-01
        1   -1    0    0  501    0  0.00000000000E+00  0.00000000000E+00  0.21956642892E+04  0.21956642892E+04  0.50400001928E-02 0. -1.
       -1   -1    0    0    0  501  0.00000000000E+00  0.00000000000E+00 -0.70605514040E+03  0.70605514042E+03  0.50400001928E-02 0.  1.
    10030    2    1    2    0    0  0.00000000000E+00  0.00000000000E+00  0.14896091488E+04  0.29017194297E+04  0.24901887945E+04 0.  0.
        1    1    3    3  502    0  0.78290641171E+03 -0.82452854786E+03  0.15353341230E+03  0.11473283246E+04  0.50400001928E-02 0. -1.
       -1    1    3    3    0  502 -0.78290641171E+03  0.82452854786E+03  0.13360757365E+04  0.17543911050E+04  0.50400001928E-02 0.  1.
</event>
<event>
 5   0  0.3873231E-07  0.2483326E+04  0.7818609E-02  0.8408950E-01
        1   -1    0    0  501    0  0.00000000000E+00  0.00000000000E+00  0.14422766694E+04  0.14422766694E+04  0.50400001928E-02 0.  1.
       -1   -1    0    0    0  501  0.00000000000E+00  0.00000000000E+00 -0.10689538775E+04  0.10689538775E+04  0.50400001928E-02 0. -1.
    10030    2    1    2    0    0  0.00000000000E+00  0.00000000000E+00  0.37332279183E+03  0.25112305469E+04  0.24833261874E+04 0.  0.
        2    1    3    3  502    0 -0.31421530188E+03 -0.96402092799E+03  0.91141525357E+03  0.13633581224E+04  0.25500000920E-02 0. -1.
       -2    1    3    3    0  502  0.31421530188E+03  0.96402092799E+03 -0.53809246173E+03  0.11478724245E+04  0.25500000920E-02 0.  1.
</event>
<event>
 5   0  0.9768582E-07  0.2499761E+04  0.7818609E-02  0.8403071E-01
       -2   -1    0    0    0  501  0.00000000000E+00  0.00000000000E+00  0.10280644464E+04  0.10280644464E+04  0.25500000920E-02 0.  1.
        2   -1    0    0  501    0  0.00000000000E+00  0.00000000000E+00 -0.15195555692E+04  0.15195555692E+04  0.25500000920E-02 0. -1.
    10030    2    1    2    0    0  0.00000000000E+00  0.00000000000E+00 -0.49149112273E+03  0.25476200156E+04  0.24997608326E+04 0.  0.
        3    1    3    3  502    0  0.78073195950E+03  0.47604662172E+03 -0.11141378310E+04  0.14413416997E+04  0.10100000352E+00 0. -1.
       -3    1    3    3    0  502 -0.78073195950E+03 -0.47604662172E+03  0.62264670829E+03  0.11062783159E+04  0.10100000352E+00 0.  1.
</event>
<event>
 5   0  0.9768582E-07  0.2500389E+04  0.7818609E-02  0.8402847E-01
        2   -1    0    0  501    0  0.00000000000E+00  0.00000000000E+00  0.19854127597E+04  0.19854127597E+04  0.25500000920E-02 0. -1.
       -2   -1    0    0    0  501  0.00000000000E+00  0.00000000000E+00 -0.78723463446E+03  0.78723463447E+03  0.25500000920E-02 0.  1.
    10030    2    1    2    0    0  0.00000000000E+00  0.00000000000E+00  0.11981781252E+04  0.27726473941E+04  0.25003885203E+04 0.  0.
        3    1    3    3  502    0  0.92501552830E+03  0.61945140868E+03 -0.31722128780E+02  0.11137235200E+04  0.10100000352E+00 0.  1.
       -3    1    3    3    0  502 -0.92501552830E+03 -0.61945140868E+03  0.12299002540E+04  0.16589238742E+04  0.10100000352E+00 0. -1.
</event>
<event>
 5   0  0.3972587E-07  0.2500247E+04  0.7818609E-02  0.8402898E-01
        1   -1    0    0  501    0  0.00000000000E+00  0.00000000000E+00  0.12659110551E+04  0.12659110551E+04  0.50400001928E-02 0.  1.
       -1   -1    0    0    0  501  0.00000000000E+00  0.00000000000E+00 -0.12345326699E+04  0.12345326699E+04  0.50400001928E-02 0. -1.
    10030    2    1    2    0    0  0.00000000000E+00  0.00000000000E+00  0.31378385260E+02  0.25004437250E+04  0.25002468316E+04 0.  0.
        3    1    3    3  502    0 -0.85060250731E+03 -0.36291869790E+03  0.85692957710E+03  0.12607786947E+04  0.10100000352E+00 0.  1.
       -3    1    3    3    0  502  0.85060250731E+03  0.36291869790E+03 -0.82555119185E+03  0.12396650303E+04  0.10100000352E+00 0. -1.
</event>
<event>
 5   0  0.9508784E-07  0.2499729E+04  0.7818609E-02  0.8403082E-01
        2   -1    0    0  501    0  0.00000000000E+00  0.00000000000E+00  0.14853964050E+04  0.14853964050E+04  0.25500000920E-02 0. -1.
       -2   -1    0    0    0  501  0.00000000000E+00  0.00000000000E+00 -0.10516798471E+04  0.10516798471E+04  0.25500000920E-02 0.  1.
    10030    2    1    2    0    0  0.00000000000E+00  0.00000000000E+00  0.43371655789E+03  0.25370762521E+04  0.24997291566E+04 0.  0.
        2    1    3    3  502    0  0.50712924644E+03  0.11160629235E+04 -0.30472823996E+02  0.12262565452E+04  0.25500000920E-02 0. -1.
       -2    1    3    3    0  502 -0.50712924644E+03 -0.11160629235E+04  0.46418938189E+03  0.13108197069E+04  0.25500000920E-02 0.  1.
</event>
<event>
 5   0  0.8997210E-07  0.2500440E+04  0.7818609E-02  0.8402829E-01
        2   -1    0    0  501    0  0.00000000000E+00  0.00000000000E+00  0.11183850848E+04  0.11183850848E+04  0.25500000920E-02 0. -1.
       -2   -1    0    0    0  501  0.00000000000E+00  0.00000000000E+00 -0.13975952197E+04  0.13975952197E+04  0.25500000920E-02 0.  1.
    10030    2    1    2    0    0  0.00000000000E+00  0.00000000000E+00 -0.27921013491E+03  0.25159803045E+04  0.25004396800E+04 0.  0.
        1    1    3    3  502    0  0.42272592650E+03  0.83637867140E+03  0.69307865245E+03  0.11655833344E+04  0.50400001928E-02 0. -1.
       -1    1    3    3    0  502 -0.42272592650E+03 -0.83637867140E+03 -0.97228878736E+03  0.13503969701E+04  0.50400001928E-02 0.  1.
</event>
<event>
 5   0  0.9261602E-07  0.2502797E+04  0.7818609E-02  0.8401990E-01
        2   -1    0    0  501    0  0.00000000000E+00  0.00000000000E+00  0.17424537690E+04  0.17424537690E+04  0.25500000920E-02 0. -1.
       -2   -1    0    0    0  501  0.00000000000E+00  0.00000000000E+00 -0.89873135667E+03  0.89873135667E+03  0.25500000920E-02 0.  1.
    10030    2    1    2    0    0  0.00000000000E+00  0.00000000000E+00  0.84372241234E+03  0.26411851257E+04  0.25027967075E+04 0.  0.
        4    1    3    3  502    0 -0.57581266521E+03  0.82180163198E+03 -0.36719783424E+03  0.10685289000E+04  0.12699999809E+01 0.  1.
       -4    1    3    3    0  502  0.57581266521E+03 -0.82180163198E+03  0.12109202466E+04  0.15726562257E+04  0.12699999809E+01 0. -1.
</event>
<event>
 5   0  0.3837524E-07  0.2500074E+04  0.7818609E-02  0.8402959E-01
        1   -1    0    0  501    0  0.00000000000E+00  0.00000000000E+00  0.15012170679E+04  0.15012170679E+04  0.50400001928E-02 0. -1.
       -1   -1    0    0    0  501  0.00000000000E+00  0.00000000000E+00 -0.10408835333E+04  0.10408835333E+04  0.50400001928E-02 0.  1.
    10030    2    1    2    0    0  0.00000000000E+00  0.00000000000E+00  0.46033353461E+03  0.25421006011E+04  0.25000736996E+04 0.  0.
        5    1    3    3  502    0 -0.12233262660E+04 -0.25670860915E+03  0.21798315872E+03  0.12688440450E+04  0.46999998093E+01 0.  1.
       -5    1    3    3    0  502  0.12233262660E+04  0.25670860915E+03  0.24235037589E+03  0.12732565561E+04  0.46999998093E+01 0. -1.
</event>
<event>
 5   0  0.8997210E-07  0.2498066E+04  0.7818609E-02  0.8403675E-01
        2   -1    0    0  501    0  0.00000000000E+00  0.00000000000E+00  0.21674007402E+04  0.21674007402E+04  0.25500000920E-02 0. -1.
       -2   -1    0    0    0  501  0.00000000000E+00  0.00000000000E+00 -0.71979491136E+03  0.71979491136E+03  0.25500000920E-02 0.  1.
    10030    2    1    2    0    0  0.00000000000E+00  0.00000000000E+00  0.14476058289E+04  0.28871956516E+04  0.24980664713E+04 0.  0.
        1    1    3    3  502    0  0.40318191557E+03 -0.11320888309E+04  0.11172805232E+04  0.16408828555E+04  0.50400001928E-02 0. -1.
       -1    1    3    3    0  502 -0.40318191557E+03  0.11320888309E+04  0.33032530567E+03  0.12463127961E+04  0.50400001928E-02 0.  1.
</event>
<event>
 5   0  0.9768582E-07  0.2498614E+04  0.7818609E-02  0.8403480E-01
       -2   -1    0    0    0  501  0.00000000000E+00  0.00000000000E+00  0.10346504293E+04  0.10346504293E+04  0.25500000920E-02 0. -1.
        2   -1    0    0  501    0  0.00000000000E+00  0.00000000000E+00 -0.15084973901E+04  0.15084973901E+04  0.25500000920E-02 0.  1.
    10030    2    1    2    0    0  0.00000000000E+00  0.00000000000E+00 -0.47384696077E+03  0.25431478194E+04  0.24986135934E+04 0.  0.
        3    1    3    3  502    0  0.62986806057E+03 -0.83045310211E+03  0.46410603200E+03  0.11409559797E+04  0.10100000352E+00 0. -1.
       -3    1    3    3    0  502 -0.62986806057E+03  0.83045310211E+03 -0.93795299277E+03  0.14021918397E+04  0.10100000352E+00 0.  1.
</event>
<event>
 5   0  0.3805418E-07  0.2499873E+04  0.7818609E-02  0.8403031E-01
        1   -1    0    0  501    0  0.00000000000E+00  0.00000000000E+00  0.22793467739E+04  0.22793467739E+04  0.50400001928E-02 0.  1.
       -1   -1    0    0    0  501  0.00000000000E+00  0.00000000000E+00 -0.68543387187E+03  0.68543387189E+03  0.50400001928E-02 0. -1.
    10030    2    1    2    0    0  0.00000000000E+00  0.00000000000E+00  0.15939129021E+04  0.29647806458E+04  0.24998731845E+04 0.  0.
        4    1    3    3  502    0  0.30803784356E+03  0.43212710428E+03 -0.54519482438E+03  0.76082859880E+03  0.12699999809E+01 0. -1.
       -4    1    3    3    0  502 -0.30803784356E+03 -0.43212710428E+03  0.21391077264E+04  0.22039520470E+04  0.12699999809E+01 0.  1.
</event>
<event>
 5   0  0.9251138E-07  0.2498674E+04  0.7818609E-02  0.8403458E-01
        2   -1    0    0  501    0  0.00000000000E+00  0.00000000000E+00  0.18865570313E+04  0.18865570313E+04  0.25500000920E-02 0. -1.
       -2   -1    0    0    0  501  0.00000000000E+00  0.00000000000E+00 -0.82734999500E+03  0.82734999500E+03  0.25500000920E-02 0.  1.
    10030    2    1    2    0    0  0.00000000000E+00  0.00000000000E+00  0.10592070363E+04  0.27139070263E+04  0.24986740087E+04 0.  0.
        5    1    3    3  502    0 -0.10844946956E+04 -0.32328586163E+03 -0.45310192996E+02  0.11325712325E+04  0.46999998093E+01 0. -1.
       -5    1    3    3    0  502  0.10844946956E+04  0.32328586163E+03  0.11045172293E+04  0.15813357938E+04  0.46999998093E+01 0.  1.
</event>
<event>
 5   0  0.9508784E-07  0.2500414E+04  0.7818609E-02  0.8402838E-01
       -2   -1    0    0    0  501  0.00000000000E+00  0.00000000000E+00  0.20562845194E+04  0.20562845194E+04  0.25500000920E-02 0.  1.
        2   -1    0    0  501    0  0.00000000000E+00  0.00000000000E+00 -0.76011738152E+03  0.76011738152E+03  0.25500000920E-02 0. -1.
    10030    2    1    2    0    0  0.00000000000E+00  0.00000000000E+00  0.12961671379E+04  0.28164019009E+04  0.25004140494E+04 0.  0.
        2    1    3    3  502    0  0.77785693052E+03 -0.28403282218E+03  0.17030829328E+04  0.18937337522E+04  0.25500000920E-02 0.  1.
       -2    1    3    3    0  502 -0.77785693052E+03  0.28403282218E+03 -0.40691579490E+03  0.92266814868E+03  0.25500000920E-02 0. -1.
</event>
<event>
 5   0  0.9508784E-07  0.2488259E+04  0.7818609E-02  0.8407180E-01
        2   -1    0    0  501    0  0.00000000000E+00  0.00000000000E+00  0.10424939626E+04  0.10424939626E+04  0.25500000920E-02 0. -1.
       -2   -1    0    0    0  501  0.00000000000E+00  0.00000000000E+00 -0.14847647456E+04  0.14847647456E+04  0.25500000920E-02 0.  1.
    10030    2    1    2    0    0  0.00000000000E+00  0.00000000000E+00 -0.44227078302E+03  0.25272587081E+04  0.24882590565E+04 0.  0.
        2    1    3    3  502    0  0.97054246309E+03 -0.21293368289E+03 -0.98157904897E+03  0.13967071473E+04  0.25500000920E-02 0.  1.
       -2    1    3    3    0  502 -0.97054246309E+03  0.21293368289E+03  0.53930826594E+03  0.11305515608E+04  0.25500000920E-02 0. -1.
</event>
<event>
 5   0  0.3972587E-07  0.2499985E+04  0.7818609E-02  0.8402991E-01
       -1   -1    0    0    0  501  0.00000000000E+00  0.00000000000E+00  0.15992230595E+04  0.15992230595E+04  0.50400001928E-02 0.  1.
        1   -1    0    0  501    0  0.00000000000E+00  0.00000000000E+00 -0.97702508849E+03  0.97702508851E+03  0.50400001928E-02 0. -1.
    10030    2    1    2    0    0  0.00000000000E+00  0.00000000000E+00  0.62219797100E+03  0.25762481480E+04  0.24999848410E+04 0.  0.
        3    1    3    3  502    0 -0.30644038247E+03 -0.82215840708E+03 -0.60635821422E+03  0.10665460367E+04  0.10100000352E+00 0. -1.
       -3    1    3    3    0  502  0.30644038247E+03  0.82215840708E+03  0.12285561852E+04  0.15097021113E+04  0.10100000352E+00 0.  1.
</event>
<event>
 5   0  0.3873231E-07  0.2500964E+04  0.7818609E-02  0.8402642E-01
        1   -1    0    0  501    0  0.00000000000E+00  0.00000000000E+00  0.17712631238E+04  0.17712631238E+04  0.50400001928E-02 0.  1.
       -1   -1    0    0    0  501  0.00000000000E+00  0.00000000000E+00 -0.88281911572E+03  0.88281911573E+03  0.50400001928E-02 0. -1.
    10030    2    1    2    0    0  0.00000000000E+00  0.00000000000E+00  0.88844400805E+03  0.26540822395E+04  0.25009637700E+04 0.  0.
        2    1    3    3  502    0  0.88169836892E+03  0.75267742968E+03 -0.53298017112E+02  0.11604981713E+04  0.25500000920E-02 0. -1.
       -2    1    3    3    0  502 -0.88169836892E+03 -0.75267742968E+03  0.94174202516E+03  0.14935840682E+04  0.25500000920E-02 0.  1.
</event>
<event>
 5   0  0.8997210E-07  0.2499347E+04  0.7818609E-02  0.8403218E-01
       -2   -1    0    0    0  501  0.00000000000E+00  0.00000000000E+00  0.16218516552E+04  0.16218516552E+04  0.25500000920E-02 0. -1.
        2   -1    0    0  501    0  0.00000000000E+00  0.00000000000E+00 -0.96290167288E+03  0.96290167289E+03  0.25500000920E-02 0.  1.
    10030    2    1    2    0    0  0.00000000000E+00  0.00000000000E+00  0.65894998232E+03  0.25847533281E+04  0.24993468523E+04 0.  0.
        1    1    3    3  502    0 -0.70697050398E+03 -0.13576140763E+03 -0.72692259308E+03  0.10230615376E+04  0.50400001928E-02 0.  1.
       -1    1    3    3    0  502  0.70697050398E+03  0.13576140763E+03  0.13858725754E+04  0.15616917905E+04  0.50400001928E-02 0. -1.
</event>
<event>
 5   0  0.3873231E-07  0.2500082E+04  0.7818609E-02  0.8402956E-01
        1   -1    0    0  501    0  0.00000000000E+00  0.00000000000E+00  0.12657013834E+04  0.12657013834E+04  0.50400001928E-02 0. -1.
       -1   -1    0    0    0  501  0.00000000000E+00  0.00000000000E+00 -0.12345744445E+04  0.12345744445E+04  0.50400001928E-02 0.  1.
    10030    2    1    2    0    0  0.00000000000E+00  0.00000000000E+00  0.31126938943E+02  0.25002758279E+04  0.25000820645E+04 0.  0.
        2    1    3    3  502    0 -0.17042580114E+03  0.90347236581E+03  0.86256199479E+03  0.12606825391E+04  0.25500000920E-02 0. -1.
       -2    1    3    3    0  502  0.17042580114E+03 -0.90347236581E+03 -0.83143505585E+03  0.12395932888E+04  0.25500000920E-02 0.  1.
</event>
<event>
 5   0  0.3837524E-07  0.2499687E+04  0.7818609E-02  0.8403097E-01
        1   -1    0    0  501    0  0.00000000000E+00  0.00000000000E+00  0.19102702174E+04  0.19102702174E+04  0.50400001928E-02 0. -1.
       -1   -1    0    0    0  501  0.00000000000E+00  0.00000000000E+00 -0.81774235089E+03  0.81774235091E+03  0.50400001928E-02 0.  1.
    10030    2    1    2    0    0  0.00000000000E+00  0.00000000000E+00  0.10925278665E+04  0.27280125683E+04  0.24996870672E+04 0.  0.
        5    1    3    3  502    0 -0.10131895495E+04  0.48897459637E+03 -0.47928792377E+02  0.11260410642E+04  0.46999998093E+01 0. -1.
       -5    1    3    3    0  502  0.10131895495E+04 -0.48897459637E+03  0.11404566588E+04  0.16019715041E+04  0.46999998093E+01 0.  1.
</event>
<event>
 5   0  0.9251138E-07  0.2499365E+04  0.7818609E-02  0.8403212E-01
        2   -1    0    0  501    0  0.00000000000E+00  0.00000000000E+00  0.11990120099E+04  0.11990120099E+04  0.25500000920E-02 0. -1.
       -2   -1    0    0    0  501  0.00000000000E+00  0.00000000000E+00 -0.13024944312E+04  0.13024944312E+04  0.25500000920E-02 0.  1.
    10030    2    1    2    0    0  0.00000000000E+00  0.00000000000E+00 -0.10348242130E+03  0.25015064411E+04  0.24993650920E+04 0.  0.
        5    1    3    3  502    0  0.30894574440E+03  0.28604694835E+03 -0.12293605361E+04  0.12994690252E+04  0.46999998093E+01 0.  1.
       -5    1    3    3    0  502 -0.30894574440E+03 -0.28604694835E+03  0.11258781148E+04  0.12020374159E+04  0.46999998093E+01 0. -1.
</event>
<event>
 5   0  0.3873231E-07  0.2499918E+04  0.7818609E-02  0.8403015E-01
       -1   -1    0    0    0  501  0.00000000000E+00  0.00000000000E+00  0.10372103243E+04  0.10372103243E+04  0.50400001928E-02 0.  1.
        1   -1    0    0  501    0  0.00000000000E+00  0.00000000000E+00 -0.15063457567E+04  0.15063457567E+04  0.50400001928E-02 0. -1.
    10030    2    1    2    0    0  0.00000000000E+00  0.00000000000E+00 -0.46913543237E+03  0.25435560810E+04  0.24999178953E+04 0.  0.
        2    1    3    3  502    0  0.83280966730E+03  0.54679338310E+03  0.53348841772E+03  0.11301171787E+04  0.25500000920E-02 0.  1.
       -2    1    3    3    0  502 -0.83280966730E+03 -0.54679338310E+03 -0.10026238501E+04  0.14134389023E+04  0.25500000920E-02 0. -1.
</event>
<event>
 5   0  0.3972587E-07  0.2498807E+04  0.7818609E-02  0.8403411E-01
       -1   -1    0    0    0  501  0.00000000000E+00  0.00000000000E+00  0.16850569501E+04  0.16850569501E+04  0.50400001928E-02 0.  1.
        1   -1    0    0  501    0  0.00000000000E+00  0.00000000000E+00 -0.92638340818E+03  0.92638340819E+03  0.50400001928E-02 0. -1.
    10030    2    1    2    0    0  0.00000000000E+00  0.00000000000E+00  0.75867354192E+03  0.26114403583E+04  0.24988067556E+04 0.  0.
        3    1    3    3  502    0 -0.18382399422E+03  0.10836594297E+04 -0.24149384772E+03  0.11253569697E+04  0.10100000352E+00 0. -1.
       -3    1    3    3    0  502  0.18382399422E+03 -0.10836594297E+04  0.10001673896E+04  0.14860833886E+04  0.10100000352E+00 0.  1.
</event>
<event>
 5   0  0.3837524E-07  0.2500312E+04  0.7818609E-02  0.8402874E-01
       -1   -1    0    0    0  501  0.00000000000E+00  0.00000000000E+00  0.10181642305E+04  0.10181642305E+04  0.50400001928E-02 0.  1.
        1   -1    0    0  501    0  0.00000000000E+00  0.00000000000E+00 -0.15350077899E+04  0.15350077899E+04  0.50400001928E-02 0. -1.
    10030    2    1    2    0    0  0.00000000000E+00  0.00000000000E+00 -0.51684355937E+03  0.25531720204E+04  0.25003120007E+04 0.  0.
        5    1    3    3  502    0 -0.66759199229E+02  0.40733089796E+03  0.94656513880E+03  0.10326581734E+04  0.46999998093E+01 0.  1.
       -5    1    3    3    0  502  0.66759199229E+02 -0.40733089796E+03 -0.14634086982E+04  0.15205138470E+04  0.46999998093E+01 0. -1.
</event>
<event>
 5   0  0.9508784E-07  0.2500244E+04  0.7818609E-02  0.8402899E-01
        2   -1    0    0  501    0  0.00000000000E+00  0.00000000000E+00  0.12339705758E+04  0.12339705758E+04  0.25500000920E-02 0. -1.
       -2   -1    0    0    0  501  0.00000000000E+00  0.00000000000E+00 -0.12664848969E+04  0.12664848969E+04  0.25500000920E-02 0.  1.
    10030    2    1    2    0    0  0.00000000000E+00  0.00000000000E+00 -0.32514321065E+02  0.25004554728E+04  0.25002440661E+04 0.  0.
        2    1    3    3  502    0 -0.48057778340E+03  0.88527376498E+03  0.72417052126E+03  0.12405996892E+04  0.25500000920E-02 0.  1.
       -2    1    3    3    0  502  0.48057778340E+03 -0.88527376498E+03 -0.75668484232E+03  0.12598557836E+04  0.25500000920E-02 0. -1.
</event>
<event>
 5   0  0.8997210E-07  0.2502387E+04  0.7818609E-02  0.8402136E-01
        2   -1    0    0  501    0  0.00000000000E+00  0.00000000000E+00  0.12730350708E+04  0.12730350708E+04  0.25500000920E-02 0. -1.
       -2   -1    0    0    0  501  0.00000000000E+00  0.00000000000E+00 -0.12297266365E+04  0.12297266365E+04  0.25500000920E-02 0.  1.
    10030    2    1    2    0    0  0.00000000000E+00  0.00000000000E+00  0.43308434333E+02  0.25027617072E+04  0.25023869690E+04 0.  0.
        1    1    3    3  502    0  0.19899280117E+03  0.21989552183E+03  0.12373743829E+04  0.12724179890E+04  0.50400001928E-02 0. -1.
       -1    1    3    3    0  502 -0.19899280117E+03 -0.21989552183E+03 -0.11940659485E+04  0.12303437182E+04  0.50400001928E-02 0.  1.
</event>
<event>
 5   0  0.3972587E-07  0.2500116E+04  0.7818609E-02  0.8402944E-01
        1   -1    0    0  501    0  0.00000000000E+00  0.00000000000E+00  0.14803358999E+04  0.14803358999E+04  0.50400001928E-02 0. -1.
       -1   -1    0    0    0  501  0.00000000000E+00  0.00000000000E+00 -0.10556017279E+04  0.10556017280E+04  0.50400001928E-02 0.  1.
    10030    2    1    2    0    0  0.00000000000E+00  0.00000000000E+00  0.42473417193E+03  0.25359376278E+04  0.25001161044E+04 0.  0.
        3    1    3    3  502    0 -0.64081532378E+01  0.58144138265E+03 -0.91007282571E+03  0.10799757887E+04  0.10100000352E+00 0.  1.
       -3    1    3    3    0  502  0.64081532378E+01 -0.58144138265E+03  0.13348069976E+04  0.14559618391E+04  0.10100000352E+00 0. -1.
</event>
<event>
 5   0  0.8997210E-07  0.2499651E+04  0.7818609E-02  0.8403110E-01
        2   -1    0    0  501    0  0.00000000000E+00  0.00000000000E+00  0.45346892555E+03  0.45346892556E+03  0.25500000920E-02 0. -1.
       -2   -1    0    0    0  501  0.00000000000E+00  0.00000000000E+00 -0.34446997754E+04  0.34446997754E+04  0.25500000920E-02 0.  1.
    10030    2    1    2    0    0  0.00000000000E+00  0.00000000000E+00 -0.29912308498E+04  0.38981687009E+04  0.24996514205E+04 0.  0.
        1    1    3    3  502    0 -0.40557377068E+03  0.82617899058E+03 -0.17694896623E+03  0.93721542060E+03  0.50400001928E-02 0. -1.
       -1    1    3    3    0  502  0.40557377068E+03 -0.82617899058E+03 -0.28142818836E+04  0.29609532803E+04  0.50400001928E-02 0.  1.
</event>
<event>
 5   0  0.8997210E-07  0.2499951E+04  0.7818609E-02  0.8403003E-01
        2   -1    0    0  501    0  0.00000000000E+00  0.00000000000E+00  0.15963938725E+04  0.15963938725E+04  0.25500000920E-02 0.  1.
       -2   -1    0    0    0  501  0.00000000000E+00  0.00000000000E+00 -0.97872987359E+03  0.97872987359E+03  0.25500000920E-02 0. -1.
    10030    2    1    2    0    0  0.00000000000E+00  0.00000000000E+00  0.61766399887E+03  0.25751237461E+04  0.24999506979E+04 0.  0.
        1    1    3    3  502    0 -0.12362061511E+04 -0.18153534792E+03  0.27201305487E+03  0.12787305551E+04  0.50400001928E-02 0.  1.
       -1    1    3    3    0  502  0.12362061511E+04  0.18153534792E+03  0.34565094401E+03  0.12963931910E+04  0.50400001928E-02 0. -1.
</event>
<event>
 5   0  0.9251138E-07  0.2500049E+04  0.7818609E-02  0.8402968E-01
       -2   -1    0    0    0  501  0.00000000000E+00  0.00000000000E+00  0.71444905185E+03  0.71444905185E+03  0.25500000920E-02 0.  1.
        2   -1    0    0  501    0  0.00000000000E+00  0.00000000000E+00 -0.21870859452E+04  0.21870859452E+04  0.25500000920E-02 0. -1.
    10030    2    1    2    0    0  0.00000000000E+00  0.00000000000E+00 -0.14726368934E+04  0.29015349971E+04  0.25000491834E+04 0.  0.
        5    1    3    3  502    0  0.87064406309E+02 -0.74833785575E+03 -0.18939751973E+04  0.20383213425E+04  0.46999998093E+01 0. -1.
       -5    1    3    3    0  502 -0.87064406309E+02  0.74833785575E+03  0.42133830390E+03  0.86321365462E+03  0.46999998093E+01 0.  1.
</event>
<event>
 5   0  0.8997210E-07  0.2500278E+04  0.7818609E-02  0.8402887E-01
       -2   -1    0    0    0  501  0.00000000000E+00  0.00000000000E+00  0.49725383801E+03  0.49725383802E+03  0.25500000920E-02 0.  1.
        2   -1    0    0  501    0  0.00000000000E+00  0.00000000000E+00 -0.31429560907E+04  0.31429560907E+04  0.25500000920E-02 0. -1.
    10030    2    1    2    0    0  0.00000000000E+00  0.00000000000E+00 -0.26457022527E+04  0.36402099288E+04  0.25002775677E+04 0.  0.
        1    1    3    3  502    0  0.30655801974E+03 -0.55649583341E+03 -0.28903741733E+04  0.29593797144E+04  0.50400001928E-02 0. -1.
       -1    1    3    3    0  502 -0.30655801974E+03  0.55649583341E+03  0.24467192059E+03  0.68083021438E+03  0.50400001928E-02 0.  1.
</event>
<event>
 5   0  0.3991066E-07  0.2499990E+04  0.7818609E-02  0.8402989E-01
        1   -1    0    0  501    0  0.00000000000E+00  0.00000000000E+00  0.78880639288E+03  0.78880639290E+03  0.50400001928E-02 0.  1.
       -1   -1    0    0    0  501  0.00000000000E+00  0.00000000000E+00 -0.19808246085E+04  0.19808246086E+04  0.50400001928E-02 0. -1.
    10030    2    1    2    0    0  0.00000000000E+00  0.00000000000E+00 -0.11920182157E+04  0.27696310015E+04  0.24999896915E+04 0.  0.
        1    1    3    3  502    0 -0.41644148877E+03 -0.52206781003E+03 -0.17666259537E+04  0.18886359025E+04  0.50400001928E-02 0. -1.
       -1    1    3    3    0  502  0.41644148877E+03  0.52206781003E+03  0.57460773801E+03  0.88099509899E+03  0.50400001928E-02 0.  1.
</event>
<event>
 5   0  0.3991066E-07  0.2500027E+04  0.7818609E-02  0.8402976E-01
       -1   -1    0    0    0  501  0.00000000000E+00  0.00000000000E+00  0.51721441568E+03  0.51721441571E+03  0.50400001928E-02 0. -1.
        1   -1    0    0  501    0  0.00000000000E+00  0.00000000000E+00 -0.30210567939E+04  0.30210567939E+04  0.50400001928E-02 0.  1.
    10030    2    1    2    0    0  0.00000000000E+00  0.00000000000E+00 -0.25038423783E+04  0.35382712096E+04  0.25000272994E+04 0.  0.
        1    1    3    3  502    0 -0.19434410662E+03  0.11785963036E+04 -0.17732319337E+04  0.21380389074E+04  0.50400001928E-02 0. -1.
       -1    1    3    3    0  502  0.19434410662E+03 -0.11785963036E+04 -0.73061044452E+03  0.14002323023E+04  0.50400001928E-02 0.  1.
</event>
<event>
 5   0  0.3991066E-07  0.2504376E+04  0.7818609E-02  0.8401428E-01
       -1   -1    0    0    0  501  0.00000000000E+00  0.00000000000E+00  0.67425093530E+03  0.67425093532E+03  0.50400001928E-02 0.  1.
        1   -1    0    0  501    0  0.00000000000E+00  0.00000000000E+00 -0.23255057957E+04  0.23255057957E+04  0.50400001928E-02 0. -1.
    10030    2    1    2    0    0  0.00000000000E+00  0.00000000000E+00 -0.16512548604E+04  0.29997567311E+04  0.25043757369E+04 0.  0.
        1    1    3    3  502    0 -0.48168663402E+03 -0.11558300343E+04 -0.82195965552E+03  0.14978593915E+04  0.50400001928E-02 0.  1.
       -1    1    3    3    0  502  0.48168663402E+03  0.11558300343E+04 -0.82929520490E+03  0.15018973395E+04  0.50400001928E-02 0. -1.
</event>
<event>
 5   0  0.9251138E-07  0.2500871E+04  0.7818609E-02  0.8402675E-01
       -2   -1    0    0    0  501  0.00000000000E+00  0.00000000000E+00  0.14636588638E+04  0.14636588638E+04  0.25500000920E-02 0.  1.
        2   -1    0    0  501    0  0.00000000000E+00  0.00000000000E+00 -0.10682742101E+04  0.10682742101E+04  0.25500000920E-02 0. -1.
    10030    2    1    2    0    0  0.00000000000E+00  0.00000000000E+00  0.39538465371E+03  0.25319330738E+04  0.25008710614E+04 0.  0.
        5    1    3    3  502    0 -0.82793666305E+02  0.91138224752E+03  0.10603877708E+04  0.14006843708E+04  0.46999998093E+01 0.  1.
       -5    1    3    3    0  502  0.82793666305E+02 -0.91138224752E+03 -0.66500311708E+03  0.11312487030E+04  0.46999998093E+01 0. -1.
</event>
<event>
 5   0  0.8997210E-07  0.2499677E+04  0.7818609E-02  0.8403100E-01
       -2   -1    0    0    0  501  0.00000000000E+00  0.00000000000E+00  0.54027374104E+03  0.54027374104E+03  0.25500000920E-02 0.  1.
        2   -1    0    0  501    0  0.00000000000E+00  0.00000000000E+00 -0.28913061386E+04  0.28913061386E+04  0.25500000920E-02 0. -1.
    10030    2    1    2    0    0  0.00000000000E+00  0.00000000000E+00 -0.23510323975E+04  0.34315798796E+04  0.24996774064E+04 0.  0.
        1    1    3    3  502    0 -0.40085274676E+03  0.65040236627E+03  0.18237911163E+03  0.78547329873E+03  0.50400001928E-02 0.  1.
       -1    1    3    3    0  502  0.40085274676E+03 -0.65040236627E+03 -0.25334115092E+04  0.26461065809E+04  0.50400001928E-02 0. -1.
</event>
<event>
 5   0  0.3837524E-07  0.2499913E+04  0.7818609E-02  0.8403016E-01
       -1   -1    0    0    0  501  0.00000000000E+00  0.00000000000E+00  0.11298465746E+04  0.11298465746E+04  0.50400001928E-02 0. -1.
        1   -1    0    0  501    0  0.00000000000E+00  0.00000000000E+00 -0.13828350273E+04  0.13828350273E+04  0.50400001928E-02 0.  1.
    10030    2    1    2    0    0  0.00000000000E+00  0.00000000000E+00 -0.25298845267E+03  0.25126816019E+04  0.24999131336E+04 0.  0.
        5    1    3    3  502    0 -0.12913793405E+03 -0.12424378764E+04 -0.17190068900E+03  0.12609125345E+04  0.46999998093E+01 0.  1.
       -5    1    3    3    0  502  0.12913793405E+03  0.12424378764E+04 -0.81087763662E+02  0.12517690674E+04  0.46999998093E+01 0. -1.
</event>
<event>
 5   0  0.3972587E-07  0.2501086E+04  0.7818609E-02  0.8402599E-01
        1   -1    0    0  501    0  0.00000000000E+00  0.00000000000E+00  0.18583360131E+04  0.18583360132E+04  0.50400001928E-02 0.  1.
       -1   -1    0    0    0  501  0.00000000000E+00  0.00000000000E+00 -0.84153692586E+03  0.84153692588E+03  0.50400001928E-02 0. -1.
    10030    2    1    2    0    0  0.00000000000E+00  0.00000000000E+00  0.10167990873E+04  0.26998729390E+04  0.25010864645E+04 0.  0.
        3    1    3    3  502    0  0.94892566862E+02  0.12419213395E+04  0.62901738418E+03  0.13953623517E+04  0.10100000352E+00 0. -1.
       -3    1    3    3    0  502 -0.94892566862E+02 -0.12419213395E+04  0.38778170310E+03  0.13045105873E+04  0.10100000352E+00 0.  1.
</event>
<event>
 5   0  0.8997210E-07  0.2498776E+04  0.7818609E-02  0.8403422E-01
        2   -1    0    0  501    0  0.00000000000E+00  0.00000000000E+00  0.17197302457E+04  0.17197302457E+04  0.25500000920E-02 0. -1.
       -2   -1    0    0    0  501  0.00000000000E+00  0.00000000000E+00 -0.90768343143E+03  0.90768343144E+03  0.25500000920E-02 0.  1.
    10030    2    1    2    0    0  0.00000000000E+00  0.00000000000E+00  0.81204681427E+03  0.26274136771E+04  0.24987762209E+04 0.  0.
        1    1    3    3  502    0  0.10668593297E+04 -0.15403522011E+03  0.10702518295E+04  0.15189979121E+04  0.50400001928E-02 0. -1.
       -1    1    3    3    0  502 -0.10668593297E+04  0.15403522011E+03 -0.25820501518E+03  0.11084157651E+04  0.50400001928E-02 0.  1.
</event>
<event>
 5   0  0.3991066E-07  0.2500096E+04  0.7818609E-02  0.8402951E-01
        1   -1    0    0  501    0  0.00000000000E+00  0.00000000000E+00  0.24347841211E+04  0.24347841211E+04  0.50400001928E-02 0. -1.
       -1   -1    0    0    0  501  0.00000000000E+00  0.00000000000E+00 -0.64179017804E+03  0.64179017806E+03  0.50400001928E-02 0.  1.
    10030    2    1    2    0    0  0.00000000000E+00  0.00000000000E+00  0.17929939431E+04  0.30765742992E+04  0.25000964258E+04 0.  0.
        1    1    3    3  502    0 -0.35316645829E+03 -0.79303537425E+03 -0.21033558540E+03  0.89323720846E+03  0.50400001928E-02 0.  1.
       -1    1    3    3    0  502  0.35316645829E+03  0.79303537425E+03  0.20033295285E+04  0.21833370907E+04  0.50400001928E-02 0. -1.
</event>
<event>
 5   0  0.3873231E-07  0.2499311E+04  0.7818609E-02  0.8403231E-01
        1   -1    0    0  501    0  0.00000000000E+00  0.00000000000E+00  0.16019566238E+04  0.16019566238E+04  0.50400001928E-02 0.  1.
       -1   -1    0    0    0  501  0.00000000000E+00  0.00000000000E+00 -0.97483250521E+03  0.97483250522E+03  0.50400001928E-02 0. -1.
    10030    2    1    2    0    0  0.00000000000E+00  0.00000000000E+00  0.62712411863E+03  0.25767891291E+04  0.24993114163E+04 0.  0.
        2    1    3    3  502    0  0.49421365916E+03 -0.54463016015E+03 -0.72808959019E+03  0.10348833768E+04  0.25500000920E-02 0. -1.
       -2    1    3    3    0  502 -0.49421365916E+03  0.54463016015E+03  0.13552137088E+04  0.15419057523E+04  0.25500000920E-02 0.  1.
</event>
<event>
 5   0  0.3805418E-07  0.2500048E+04  0.7818609E-02  0.8402969E-01
       -1   -1    0    0    0  501  0.00000000000E+00  0.00000000000E+00  0.13868684190E+04  0.13868684190E+04  0.50400001928E-02 0. -1.
        1   -1    0    0  501    0  0.00000000000E+00  0.00000000000E+00 -0.11266818276E+04  0.11266818276E+04  0.50400001928E-02 0.  1.
    10030    2    1    2    0    0  0.00000000000E+00  0.00000000000E+00  0.26018659135E+03  0.25135502466E+04  0.25000475556E+04 0.  0.
        4    1    3    3  502    0  0.90444841885E+03 -0.65639859685E+03  0.69318226532E+03  0.13150624799E+04  0.12699999809E+01 0. -1.
       -4    1    3    3    0  502 -0.90444841885E+03  0.65639859685E+03 -0.43299567397E+03  0.11984877667E+04  0.12699999809E+01 0.  1.
</event>
<event>
 5   0  0.3805418E-07  0.2514952E+04  0.7818609E-02  0.8397678E-01
       -1   -1    0    0    0  501  0.00000000000E+00  0.00000000000E+00  0.10671307263E+04  0.10671307263E+04  0.50400001928E-02 0.  1.
        1   -1    0    0  501    0  0.00000000000E+00  0.00000000000E+00 -0.14817736840E+04  0.14817736840E+04  0.50400001928E-02 0. -1.
    10030    2    1    2    0    0  0.00000000000E+00  0.00000000000E+00 -0.41464295770E+03  0.25489044103E+04  0.25149522680E+04 0.  0.
        4    1    3    3  502    0  0.25270994098E+03  0.50117583003E+03 -0.13477703745E+04  0.14599746992E+04  0.12699999809E+01 0. -1.
       -4    1    3    3    0  502 -0.25270994098E+03 -0.50117583003E+03  0.93312741681E+03  0.10889297111E+04  0.12699999809E+01 0.  1.
</event>
<event>
 5   0  0.3991066E-07  0.2500255E+04  0.7818609E-02  0.8402895E-01
        1   -1    0    0  501    0  0.00000000000E+00  0.00000000000E+00  0.10014146484E+04  0.10014146484E+04  0.50400001928E-02 0. -1.
       -1   -1    0    0    0  501  0.00000000000E+00  0.00000000000E+00 -0.15606108571E+04  0.15606108571E+04  0.50400001928E-02 0.  1.
    10030    2    1    2    0    0  0.00000000000E+00  0.00000000000E+00 -0.55919620866E+03  0.25620255055E+04  0.25002548453E+04 0.  0.
        1    1    3    3  502    0  0.11955201617E+04 -0.36268013688E+03 -0.32557570398E+03  0.12910479766E+04  0.50400001928E-02 0.  1.
       -1    1    3    3    0  502 -0.11955201617E+04  0.36268013688E+03 -0.23362050468E+03  0.12709775289E+04  0.50400001928E-02 0. -1.
</event>
<event>
 5   0  0.3972587E-07  0.2499129E+04  0.7818609E-02  0.8403296E-01
       -1   -1    0    0    0  501  0.00000000000E+00  0.00000000000E+00  0.81192819590E+03  0.81192819591E+03  0.50400001928E-02 0.  1.
        1   -1    0    0  501    0  0.00000000000E+00  0.00000000000E+00 -0.19230902912E+04  0.19230902912E+04  0.50400001928E-02 0. -1.
    10030    2    1    2    0    0  0.00000000000E+00  0.00000000000E+00 -0.11111620953E+04  0.27350184871E+04  0.24991288328E+04 0.  0.
        3    1    3    3  502    0 -0.11598940082E+04 -0.45211903871E+03 -0.43748090805E+03  0.13195284349E+04  0.10100000352E+00 0. -1.
       -3    1    3    3    0  502  0.11598940082E+04  0.45211903871E+03 -0.67368118726E+03  0.14154900522E+04  0.10100000352E+00 0.  1.
</event>
<event>
 5   0  0.3805418E-07  0.2499851E+04  0.7818609E-02  0.8403038E-01
       -1   -1    0    0    0  501  0.00000000000E+00  0.00000000000E+00  0.12163206734E+04  0.12163206734E+04  0.50400001928E-02 0. -1.
        1   -1    0    0  501    0  0.00000000000E+00  0.00000000000E+00 -0.12844591786E+04  0.12844591786E+04  0.50400001928E-02 0.  1.
    10030    2    1    2    0    0  0.00000000000E+00  0.00000000000E+00 -0.68138505198E+02  0.25007798521E+04  0.24998513981E+04 0.  0.
        4    1    3    3  502    0 -0.75142889981E+03  0.35410283727E+03  0.90023609608E+03  0.12249329992E+04  0.12699999809E+01 0. -1.
       -4    1    3    3    0  502  0.75142889981E+03 -0.35410283727E+03 -0.96837460128E+03  0.12758468529E+04  0.12699999809E+01 0.  1.
</event>
<event>
 5   0  0.9768582E-07  0.2500318E+04  0.7818609E-02  0.8402872E-01
        2   -1    0    0  501    0  0.00000000000E+00  0.00000000000E+00  0.13190223201E+04  0.13190223201E+04  0.25500000920E-02 0.  1.
       -2   -1    0    0    0  501  0.00000000000E+00  0.00000000000E+00 -0.11848910516E+04  0.11848910516E+04  0.25500000920E-02 0. -1.
    10030    2    1    2    0    0  0.00000000000E+00  0.00000000000E+00  0.13413126844E+03  0.25039133717E+04  0.25003181750E+04 0.  0.
        3    1    3    3  502    0 -0.41529246916E+03  0.10482424052E+04  0.60785856461E+03  0.12809262351E+04  0.10100000352E+00 0.  1.
       -3    1    3    3    0  502  0.41529246916E+03 -0.10482424052E+04 -0.47372729616E+03  0.12229871366E+04  0.10100000352E+00 0. -1.
</event>
<event>
 5   0  0.3873231E-07  0.2498186E+04  0.7818609E-02  0.8403632E-01
       -1   -1    0    0    0  501  0.00000000000E+00  0.00000000000E+00  0.78110605268E+03  0.78110605270E+03  0.50400001928E-02 0. -1.
        1   -1    0    0  501    0  0.00000000000E+00  0.00000000000E+00 -0.19974661170E+04  0.19974661170E+04  0.50400001928E-02 0.  1.
    10030    2    1    2    0    0  0.00000000000E+00  0.00000000000E+00 -0.12163600644E+04  0.27785721697E+04  0.24981856409E+04 0.  0.
        2    1    3    3  502    0  0.40637790237E+03 -0.95187391191E+03  0.16961097531E+03  0.10487968472E+04  0.25500000920E-02 0.  1.
       -2    1    3    3    0  502 -0.40637790237E+03  0.95187391191E+03 -0.13859710397E+04  0.17297753226E+04  0.25500000920E-02 0. -1.
</event>
<event>
 5   0  0.3972587E-07  0.2499836E+04  0.7818609E-02  0.8403044E-01
       -1   -1    0    0    0  501  0.00000000000E+00  0.00000000000E+00  0.97348106580E+03  0.97348106581E+03  0.50400001928E-02 0.  1.
        1   -1    0    0  501    0  0.00000000000E+00  0.00000000000E+00 -0.16048535982E+04  0.16048535982E+04  0.50400001928E-02 0. -1.
    10030    2    1    2    0    0  0.00000000000E+00  0.00000000000E+00 -0.63137253239E+03  0.25783346640E+04  0.24998356676E+04 0.  0.
        3    1    3    3  502    0  0.61322374837E+03 -0.91736605994E+00 -0.14390386425E+04  0.15642494788E+04  0.10100000352E+00 0. -1.
       -3    1    3    3    0  502 -0.61322374837E+03  0.91736605994E+00  0.80766611014E+03  0.10140851852E+04  0.10100000352E+00 0.  1.
</event>
<event>
 5   0  0.3873231E-07  0.2501194E+04  0.7818609E-02  0.8402560E-01
       -1   -1    0    0    0  501  0.00000000000E+00  0.00000000000E+00  0.57891844121E+03  0.57891844123E+03  0.50400001928E-02 0.  1.
        1   -1    0    0  501    0  0.00000000000E+00  0.00000000000E+00 -0.27015775191E+04  0.27015775191E+04  0.50400001928E-02 0. -1.
    10030    2    1    2    0    0  0.00000000000E+00  0.00000000000E+00 -0.21226590779E+04  0.32804959603E+04  0.25011941518E+04 0.  0.
        2    1    3    3  502    0 -0.51556757875E+03  0.85724515534E+03 -0.76939247518E+02  0.10032939910E+04  0.25500000920E-02 0.  1.
       -2    1    3    3    0  502  0.51556757875E+03 -0.85724515534E+03 -0.20457198304E+04  0.22772019693E+04  0.25500000920E-02 0. -1.
</event>
<event>
 5   0  0.8997210E-07  0.2502918E+04  0.7818609E-02  0.8401947E-01
        2   -1    0    0  501    0  0.00000000000E+00  0.00000000000E+00  0.13347303227E+04  0.13347303227E+04  0.25500000920E-02 0.  1.
       -2   -1    0    0    0  501  0.00000000000E+00  0.00000000000E+00 -0.11733826293E+04  0.11733826293E+04  0.25500000920E-02 0. -1.
    10030    2    1    2    0    0  0.00000000000E+00  0.00000000000E+00  0.16134769337E+03  0.25081129520E+04  0.25029177976E+04 0.  0.
        1    1    3    3  502    0  0.24206845254E+02  0.12491199194E+04  0.79778959199E+01  0.12493799227E+04  0.50400001928E-02 0. -1.
       -1    1    3    3    0  502 -0.24206845254E+02 -0.12491199194E+04  0.15336979745E+03  0.12587330293E+04  0.50400001928E-02 0.  1.
</event>
<event>
 5   0  0.3991066E-07  0.2494376E+04  0.7818609E-02  0.8404992E-01
       -1   -1    0    0    0  501  0.00000000000E+00  0.00000000000E+00  0.13095847151E+04  0.13095847151E+04  0.50400001928E-02 0.  1.
        1   -1    0    0  501    0  0.00000000000E+00  0.00000000000E+00 -0.11877642280E+04  0.11877642280E+04  0.50400001928E-02 0. -1.
    10030    2    1    2    0    0  0.00000000000E+00  0.00000000000E+00  0.12182048707E+03  0.24973489431E+04  0.24943759765E+04 0.  0.
        1    1    3    3  502    0 -0.49969956165E+03  0.11374048290E+04 -0.49168428072E+02  0.12433048425E+04  0.50400001928E-02 0.  1.
       -1    1    3    3    0  502  0.49969956165E+03 -0.11374048290E+04  0.17098891514E+03  0.12540441006E+04  0.50400001928E-02 0. -1.
</event>
<event>
 5   0  0.9508784E-07  0.2500359E+04  0.7818609E-02  0.8402858E-01
       -2   -1    0    0    0  501  0.00000000000E+00  0.00000000000E+00  0.66151055063E+03  0.66151055064E+03  0.25500000920E-02 0. -1.
        2   -1    0    0  501    0  0.00000000000E+00  0.00000000000E+00 -0.23626963539E+04  0.23626963539E+04  0.25500000920E-02 0.  1.
    10030    2    1    2    0    0  0.00000000000E+00  0.00000000000E+00 -0.17011858033E+04  0.30242069046E+04  0.25003588271E+04 0.  0.
        2    1    3    3  502    0 -0.39182579481E+03 -0.10057802098E+04 -0.16134732772E+04  0.19412411752E+04  0.25500000920E-02 0.  1.
       -2    1    3    3    0  502  0.39182579481E+03  0.10057802098E+04 -0.87712526113E+02  0.10829657294E+04  0.25500000920E-02 0. -1.
</event>
<event>
 5   0  0.3837524E-07  0.2499031E+04  0.7818609E-02  0.8403331E-01
        1   -1    0    0  501    0  0.00000000000E+00  0.00000000000E+00  0.16641069551E+04  0.16641069551E+04  0.50400001928E-02 0.  1.
       -1   -1    0    0    0  501  0.00000000000E+00  0.00000000000E+00 -0.93821457444E+03  0.93821457445E+03  0.50400001928E-02 0. -1.
    10030    2    1    2    0    0  0.00000000000E+00  0.00000000000E+00  0.72589238064E+03  0.26023215295E+04  0.24990313313E+04 0.  0.
        5    1    3    3  502    0  0.25261625681E+03 -0.68664637134E+03 -0.69182046864E+03  0.10069438233E+04  0.46999998093E+01 0. -1.
       -5    1    3    3    0  502 -0.25261625681E+03  0.68664637134E+03  0.14177128493E+04  0.15953777062E+04  0.46999998093E+01 0.  1.
</event>
<event>
 5   0  0.3805418E-07  0.2500036E+04  0.7818609E-02  0.8402973E-01
        1   -1    0    0  501    0  0.00000000000E+00  0.00000000000E+00  0.30517910218E+04  0.30517910218E+04  0.50400001928E-02 0. -1.
       -1   -1    0    0    0  501  0.00000000000E+00  0.00000000000E+00 -0.51200922128E+03  0.51200922130E+03  0.50400001928E-02 0.  1.
    10030    2    1    2    0    0  0.00000000000E+00  0.00000000000E+00  0.25397818005E+04  0.35638002431E+04  0.25000361154E+04 0.  0.
        4    1    3    3  502    0  0.70246660430E+03  0.10325516201E+04  0.13469385019E+04  0.18368089500E+04  0.12699999809E+01 0. -1.
       -4    1    3    3    0  502 -0.70246660430E+03 -0.10325516201E+04  0.11928432986E+04  0.17269912930E+04  0.12699999809E+01 0.  1.
</event>
<event>
 5   0  0.3972587E-07  0.2499871E+04  0.7818609E-02  0.8403032E-01
       -1   -1    0    0    0  501  0.00000000000E+00  0.00000000000E+00  0.21682612896E+04  0.21682612897E+04  0.50400001928E-02 0.  1.
        1   -1    0    0  501    0  0.00000000000E+00  0.00000000000E+00 -0.72054906771E+03  0.72054906773E+03  0.50400001928E-02 0. -1.
    10030    2    1    2    0    0  0.00000000000E+00  0.00000000000E+00  0.14477122219E+04  0.28888103574E+04  0.24998709173E+04 0.  0.
        3    1    3    3  502    0  0.98117582407E+03  0.10227209346E+03  0.16108546189E+04  0.18889198480E+04  0.10100000352E+00 0. -1.
       -3    1    3    3    0  502 -0.98117582407E+03 -0.10227209346E+03 -0.16314239696E+03  0.99989050937E+03  0.10100000352E+00 0.  1.
</event>
<event>
 5   0  0.9768582E-07  0.2500315E+04  0.7818609E-02  0.8402873E-01
       -2   -1    0    0    0  501  0.00000000000E+00  0.00000000000E+00  0.91930086775E+03  0.91930086776E+03  0.25500000920E-02 0. -1.
        2   -1    0    0  501    0  0.00000000000E+00  0.00000000000E+00 -0.17000893751E+04  0.17000893751E+04  0.25500000920E-02 0.  1.
    10030    2    1    2    0    0  0.00000000000E+00  0.00000000000E+00 -0.78078850737E+03  0.26193902429E+04  0.25003148904E+04 0.  0.
        3    1    3    3  502    0  0.49104661493E+03 -0.10916069184E+04 -0.12433901030E+02  0.11970326037E+04  0.10100000352E+00 0. -1.
       -3    1    3    3    0  502 -0.49104661493E+03  0.10916069184E+04 -0.76835460634E+03  0.14223576391E+04  0.10100000352E+00 0.  1.
</event>
<event>
 5   0  0.9261602E-07  0.2501366E+04  0.7818609E-02  0.8402499E-01
       -2   -1    0    0    0  501  0.00000000000E+00  0.00000000000E+00  0.14945198232E+04  0.14945198232E+04  0.25500000920E-02 0. -1.
        2   -1    0    0  501    0  0.00000000000E+00  0.00000000000E+00 -0.10466289687E+04  0.10466289687E+04  0.25500000920E-02 0.  1.
    10030    2    1    2    0    0  0.00000000000E+00  0.00000000000E+00  0.44789085444E+03  0.25411487919E+04  0.25013658199E+04 0.  0.
        4    1    3    3  502    0 -0.62050566022E+03 -0.52929350742E+03  0.11871960725E+04  0.14403523940E+04  0.12699999809E+01 0. -1.
       -4    1    3    3    0  502  0.62050566022E+03  0.52929350742E+03 -0.73930521806E+03  0.11007963979E+04  0.12699999809E+01 0.  1.
</event>
<event>
 5   0  0.3991066E-07  0.2497880E+04  0.7818609E-02  0.8403741E-01
       -1   -1    0    0    0  501  0.00000000000E+00  0.00000000000E+00  0.16005324518E+04  0.16005324518E+04  0.50400001928E-02 0.  1.
        1   -1    0    0  501    0  0.00000000000E+00  0.00000000000E+00 -0.97458252338E+03  0.97458252339E+03  0.50400001928E-02 0. -1.
    10030    2    1    2    0    0  0.00000000000E+00  0.00000000000E+00  0.62594992840E+03  0.25751149752E+04  0.24978798655E+04 0.  0.
        1    1    3    3  502    0 -0.25065071261E+03 -0.59946197231E+03  0.14125714148E+04  0.15548435413E+04  0.50400001928E-02 0.  1.
       -1    1    3    3    0  502  0.25065071261E+03  0.59946197231E+03 -0.78662148638E+03  0.10202714339E+04  0.50400001928E-02 0. -1.
</event>
<event>
 5   0  0.3837524E-07  0.2512752E+04  0.7818609E-02  0.8398457E-01
       -1   -1    0    0    0  501  0.00000000000E+00  0.00000000000E+00  0.10540178940E+04  0.10540178940E+04  0.50400001928E-02 0.  1.
        1   -1    0    0  501    0  0.00000000000E+00  0.00000000000E+00 -0.14975845486E+04  0.14975845486E+04  0.50400001928E-02 0. -1.
    10030    2    1    2    0    0  0.00000000000E+00  0.00000000000E+00 -0.44356665459E+03  0.25516024427E+04  0.25127522059E+04 0.  0.
        5    1    3    3  502    0  0.25494825998E+02 -0.16894404704E+03  0.10421566364E+04  0.10560798369E+04  0.46999998093E+01 0.  1.
       -5    1    3    3    0  502 -0.25494825998E+02  0.16894404704E+03 -0.14857232909E+04  0.14955226058E+04  0.46999998093E+01 0. -1.
</event>
<event>
 5   0  0.9768582E-07  0.2501091E+04  0.7818609E-02  0.8402597E-01
       -2   -1    0    0    0  501  0.00000000000E+00  0.00000000000E+00  0.80965392756E+03  0.80965392756E+03  0.25500000920E-02 0. -1.
        2   -1    0    0  501    0  0.00000000000E+00  0.00000000000E+00 -0.19315216720E+04  0.19315216720E+04  0.25500000920E-02 0.  1.
    10030    2    1    2    0    0  0.00000000000E+00  0.00000000000E+00 -0.11218677444E+04  0.27411755996E+04  0.25010910483E+04 0.  0.
        3    1    3    3  502    0 -0.12372258623E+03  0.43651380298E+03  0.71626710542E+03  0.84787390279E+03  0.10100000352E+00 0. -1.
       -3    1    3    3    0  502  0.12372258623E+03 -0.43651380298E+03 -0.18381348499E+04  0.18933016968E+04  0.10100000352E+00 0.  1.
</event>
<event>
 5   0  0.3805418E-07  0.2507065E+04  0.7818609E-02  0.8400473E-01
        1   -1    0    0  501    0  0.00000000000E+00  0.00000000000E+00  0.18468196987E+04  0.18468196987E+04  0.50400001928E-02 0.  1.
       -1   -1    0    0    0  501  0.00000000000E+00  0.00000000000E+00 -0.85083779140E+03  0.85083779142E+03  0.50400001928E-02 0. -1.
    10030    2    1    2    0    0  0.00000000000E+00  0.00000000000E+00  0.99598190726E+03  0.26976574901E+04  0.25070652114E+04 0.  0.
        4    1    3    3  502    0 -0.32177906116E+03 -0.28963157143E+03  0.17638220366E+04  0.18161767538E+04  0.12699999809E+01 0.  1.
       -4    1    3    3    0  502  0.32177906116E+03  0.28963157143E+03 -0.76784012932E+03  0.88148073630E+03  0.12699999809E+01 0. -1.
</event>
<event>
 5   0  0.9768582E-07  0.2499659E+04  0.7818609E-02  0.8403107E-01
       -2   -1    0    0    0  501  0.00000000000E+00  0.00000000000E+00  0.72392440742E+03  0.72392440743E+03  0.25500000920E-02 0. -1.
        2   -1    0    0  501    0  0.00000000000E+00  0.00000000000E+00 -0.21577860344E+04  0.21577860344E+04  0.25500000920E-02 0.  1.
    10030    2    1    2    0    0  0.00000000000E+00  0.00000000000E+00 -0.14338616270E+04  0.28817104419E+04  0.24996591578E+04 0.  0.
        3    1    3    3  502    0 -0.82661250142E+03  0.45136283254E+03 -0.16641268568E+04  0.19121545021E+04  0.10100000352E+00 0.  1.
       -3    1    3    3    0  502  0.82661250142E+03 -0.45136283254E+03  0.23026522980E+03  0.96955593977E+03  0.10100000352E+00 0. -1.
</event>
<event>
 5   0  0.3837524E-07  0.2505554E+04  0.7818609E-02  0.8401009E-01
        1   -1    0    0  501    0  0.00000000000E+00  0.00000000000E+00  0.66838355736E+03  0.66838355738E+03  0.50400001928E-02 0.  1.
       -1   -1    0    0    0  501  0.00000000000E+00  0.00000000000E+00 -0.23481288657E+04  0.23481288657E+04  0.50400001928E-02 0. -1.
    10030    2    1    2    0    0  0.00000000000E+00  0.00000000000E+00 -0.16797453084E+04  0.30165124231E+04  0.25055544093E+04 0.  0.
        5    1    3    3  502    0 -0.46044074101E+03  0.40242804882E+02 -0.22417165392E+04  0.22888731488E+04  0.46999998093E+01 0. -1.
       -5    1    3    3    0  502  0.46044074101E+03 -0.40242804882E+02  0.56197123078E+03  0.72763927433E+03  0.46999998093E+01 0.  1.
</event>
<event>
 5   0  0.3873231E-07  0.2500488E+04  0.7818609E-02  0.8402812E-01
       -1   -1    0    0    0  501  0.00000000000E+00  0.00000000000E+00  0.75481808308E+03  0.75481808310E+03  0.50400001928E-02 0. -1.
        1   -1    0    0  501    0  0.00000000000E+00  0.00000000000E+00 -0.20708433080E+04  0.20708433080E+04  0.50400001928E-02 0.  1.
    10030    2    1    2    0    0  0.00000000000E+00  0.00000000000E+00 -0.13160252249E+04  0.28256613911E+04  0.25004879333E+04 0.  0.
        2    1    3    3  502    0 -0.33480281652E+03 -0.89077234166E-01  0.70321769861E+03  0.77885047700E+03  0.25500000920E-02 0. -1.
       -2    1    3    3    0  502  0.33480281652E+03  0.89077234166E-01 -0.20192429235E+04  0.20468109141E+04  0.25500000920E-02 0.  1.
</event>
<event>
 5   0  0.9251138E-07  0.2492905E+04  0.7818609E-02  0.8405517E-01
        2   -1    0    0  501    0  0.00000000000E+00  0.00000000000E+00  0.11628441709E+04  0.11628441709E+04  0.25500000920E-02 0.  1.
       -2   -1    0    0    0  501  0.00000000000E+00  0.00000000000E+00 -0.13360727208E+04  0.13360727208E+04  0.25500000920E-02 0. -1.
    10030    2    1    2    0    0  0.00000000000E+00  0.00000000000E+00 -0.17322854987E+03  0.24989168916E+04  0.24929054336E+04 0.  0.
        5    1    3    3  502    0  0.45369984080E+03 -0.50376969127E+03  0.96185001893E+03  0.11767773775E+04  0.46999998093E+01 0.  1.
       -5    1    3    3    0  502 -0.45369984080E+03  0.50376969127E+03 -0.11350785688E+04  0.13221395141E+04  0.46999998093E+01 0. -1.
</event>
<event>
 5   0  0.3991066E-07  0.2499785E+04  0.7818609E-02  0.8403062E-01
       -1   -1    0    0    0  501  0.00000000000E+00  0.00000000000E+00  0.13425925916E+04  0.13425925916E+04  0.50400001928E-02 0.  1.
        1   -1    0    0  501    0  0.00000000000E+00  0.00000000000E+00 -0.11635931145E+04  0.11635931145E+04  0.50400001928E-02 0. -1.
    10030    2    1    2    0    0  0.00000000000E+00  0.00000000000E+00  0.17899947710E+03  0.25061857061E+04  0.24997851869E+04 0.  0.
        1    1    3    3  502    0  0.12054933496E+04 -0.16362422564E+03  0.37701685612E+03  0.12736282083E+04  0.50400001928E-02 0. -1.
       -1    1    3    3    0  502 -0.12054933496E+04  0.16362422564E+03 -0.19801737903E+03  0.12325574979E+04  0.50400001928E-02 0.  1.
</event>
<event>
 5   0  0.3991066E-07  0.2500280E+04  0.7818609E-02  0.8402886E-01
       -1   -1    0    0    0  501  0.00000000000E+00  0.00000000000E+00  0.92820206808E+03  0.92820206809E+03  0.50400001928E-02 0. -1.
        1   -1    0    0  501    0  0.00000000000E+00  0.00000000000E+00 -0.16837384694E+04  0.16837384694E+04  0.50400001928E-02 0.  1.
    10030    2    1    2    0    0  0.00000000000E+00  0.00000000000E+00 -0.75553640130E+03  0.26119405375E+04  0.25002796079E+04 0.  0.
        1    1    3    3  502    0  0.16076801880E+03 -0.29149817725E+03  0.88104937691E+03  0.94184157255E+03  0.50400001928E-02 0. -1.
       -1    1    3    3    0  502 -0.16076801880E+03  0.29149817725E+03 -0.16365857782E+04  0.16700989649E+04  0.50400001928E-02 0.  1.
</event>
<event>
 5   0  0.9768582E-07  0.2500534E+04  0.7818609E-02  0.8402795E-01
        2   -1    0    0  501    0  0.00000000000E+00  0.00000000000E+00  0.15279018226E+04  0.15279018226E+04  0.25500000920E-02 0.  1.
       -2   -1    0    0    0  501  0.00000000000E+00  0.00000000000E+00 -0.10230808904E+04  0.10230808904E+04  0.25500000920E-02 0. -1.
    10030    2    1    2    0    0  0.00000000000E+00  0.00000000000E+00  0.50482093224E+03  0.25509827130E+04  0.25005336687E+04 0.  0.
        3    1    3    3  502    0  0.77166476520E+03 -0.51700667195E+03  0.11061970905E+04  0.14444495221E+04  0.10100000352E+00 0.  1.
       -3    1    3    3    0  502 -0.77166476520E+03  0.51700667195E+03 -0.60137615825E+03  0.11065331909E+04  0.10100000352E+00 0. -1.
</event>
<event>
 5   0  0.3805418E-07  0.2503105E+04  0.7818609E-02  0.8401880E-01
        1   -1    0    0  501    0  0.00000000000E+00  0.00000000000E+00  0.15810975711E+04  0.15810975711E+04  0.50400001928E-02 0.  1.
       -1   -1    0    0    0  501  0.00000000000E+00  0.00000000000E+00 -0.99069387520E+03  0.99069387521E+03  0.50400001928E-02 0. -1.
    10030    2    1    2    0    0  0.00000000000E+00  0.00000000000E+00  0.59040369589E+03  0.25717914463E+04  0.25031050156E+04 0.  0.
        4    1    3    3  502    0 -0.11017839285E+04 -0.42290084775E+03 -0.13289589527E+03  0.11876177348E+04  0.12699999809E+01 0. -1.
       -4    1    3    3    0  502  0.11017839285E+04  0.42290084775E+03  0.72329959116E+03  0.13841737115E+04  0.12699999809E+01 0.  1.
</event>
<event>
 5   0  0.3991066E-07  0.2500315E+04  0.7818609E-02  0.8402873E-01
       -1   -1    0    0    0  501  0.00000000000E+00  0.00000000000E+00  0.11419523266E+04  0.11419523267E+04  0.50400001928E-02 0. -1.
        1   -1    0    0  501    0  0.00000000000E+00  0.00000000000E+00 -0.13686153611E+04  0.13686153611E+04  0.50400001928E-02 0.  1.
    10030    2    1    2    0    0  0.00000000000E+00  0.00000000000E+00 -0.22666303446E+03  0.25105676878E+04  0.25003147769E+04 0.  0.
        1    1    3    3  502    0 -0.43061359545E+03 -0.98696311113E+03  0.52438642821E+03  0.11977083858E+04  0.50400001928E-02 0. -1.
       -1    1    3    3    0  502  0.43061359545E+03  0.98696311113E+03 -0.75104946267E+03  0.13128593020E+04  0.50400001928E-02 0.  1.
</event>
<event>
 5   0  0.9251138E-07  0.2500389E+04  0.7818609E-02  0.8402847E-01
        2   -1    0    0  501    0  0.00000000000E+00  0.00000000000E+00  0.98657022417E+03  0.98657022418E+03  0.25500000920E-02 0. -1.
       -2   -1    0    0    0  501  0.00000000000E+00  0.00000000000E+00 -0.15842629900E+04  0.15842629900E+04  0.25500000920E-02 0.  1.
    10030    2    1    2    0    0  0.00000000000E+00  0.00000000000E+00 -0.59769276587E+03  0.25708332142E+04  0.25003893243E+04 0.  0.
        5    1    3    3  502    0 -0.20066704310E+03 -0.10174338462E+04 -0.10167481591E+04  0.14523215218E+04  0.46999998093E+01 0.  1.
       -5    1    3    3    0  502  0.20066704310E+03  0.10174338462E+04  0.41905539324E+03  0.11185116925E+04  0.46999998093E+01 0. -1.
</event>
<event>
 5   0  0.3837524E-07  0.2498804E+04  0.7818609E-02  0.8403412E-01
       -1   -1    0    0    0  501  0.00000000000E+00  0.00000000000E+00  0.85018554358E+03  0.85018554359E+03  0.50400001928E-02 0. -1.
        1   -1    0    0  501    0  0.00000000000E+00  0.00000000000E+00 -0.18360761506E+04  0.18360761506E+04  0.50400001928E-02 0.  1.
    10030    2    1    2    0    0  0.00000000000E+00  0.00000000000E+00 -0.98589060698E+03  0.26862616942E+04  0.24988040340E+04 0.  0.
        5    1    3    3  502    0 -0.68065568553E+03  0.60827111277E+03  0.42410156614E+03  0.10065635287E+04  0.46999998093E+01 0. -1.
       -5    1    3    3    0  502  0.68065568553E+03 -0.60827111277E+03 -0.14099921731E+04  0.16796981655E+04  0.46999998093E+01 0.  1.
</event>
<event>
 5   0  0.9768582E-07  0.2500565E+04  0.7818609E-02  0.8402784E-01
        2   -1    0    0  501    0  0.00000000000E+00  0.00000000000E+00  0.20049299036E+04  0.20049299036E+04  0.25500000920E-02 0.  1.
       -2   -1    0    0    0  501  0.00000000000E+00  0.00000000000E+00 -0.77968129983E+03  0.77968129983E+03  0.25500000920E-02 0. -1.
    10030    2    1    2    0    0  0.00000000000E+00  0.00000000000E+00  0.12252486038E+04  0.27846112035E+04  0.25005650188E+04 0.  0.
        3    1    3    3  502    0 -0.30914696389E+03 -0.11352935564E+04  0.14181939217E+03  0.11851481150E+04  0.10100000352E+00 0. -1.
       -3    1    3    3    0  502  0.30914696389E+03  0.11352935564E+04  0.10834292116E+04  0.15994630884E+04  0.10100000352E+00 0.  1.
</event>
<event>
 5   0  0.3873231E-07  0.2500882E+04  0.7818609E-02  0.8402671E-01
       -1   -1    0    0    0  501  0.00000000000E+00  0.00000000000E+00  0.76030858480E+03  0.76030858482E+03  0.50400001928E-02 0.  1.
        1   -1    0    0  501    0  0.00000000000E+00  0.00000000000E+00 -0.20565371043E+04  0.20565371044E+04  0.50400001928E-02 0. -1.
    10030    2    1    2    0    0  0.00000000000E+00  0.00000000000E+00 -0.12962285195E+04  0.28168456892E+04  0.25008820967E+04 0.  0.
        2    1    3    3  502    0  0.10098187628E+04 -0.57311010762E+02 -0.14762500705E+04  0.17895062884E+04  0.25500000920E-02 0. -1.
       -2    1    3    3    0  502 -0.10098187628E+04  0.57311010762E+02  0.18002155094E+03  0.10273394008E+04  0.25500000920E-02 0.  1.
</event>
<event>
 5   0  0.3805418E-07  0.2499504E+04  0.7818609E-02  0.8403162E-01
        1   -1    0    0  501    0  0.00000000000E+00  0.00000000000E+00  0.10400330903E+04  0.10400330904E+04  0.50400001928E-02 0. -1.
       -1   -1    0    0    0  501  0.00000000000E+00  0.00000000000E+00 -0.15017599268E+04  0.15017599268E+04  0.50400001928E-02 0.  1.
    10030    2    1    2    0    0  0.00000000000E+00  0.00000000000E+00 -0.46172683645E+03  0.25417930171E+04  0.24995039649E+04 0.  0.
        4    1    3    3  502    0  0.68082450516E+03 -0.27126914698E+02  0.83453601819E+03  0.10773624529E+04  0.12699999809E+01 0. -1.
       -4    1    3    3    0  502 -0.68082450516E+03  0.27126914698E+02 -0.12962628546E+04  0.14644305643E+04  0.12699999809E+01 0.  1.
</event>
<event>
 5   0  0.3991066E-07  0.2501894E+04  0.7818609E-02  0.8402311E-01
       -1   -1    0    0    0  501  0.00000000000E+00  0.00000000000E+00  0.11896617440E+04  0.11896617440E+04  0.50400001928E-02 0. -1.
        1   -1    0    0  501    0  0.00000000000E+00  0.00000000000E+00 -0.13153889492E+04  0.13153889492E+04  0.50400001928E-02 0.  1.
    10030    2    1    2    0    0  0.00000000000E+00  0.00000000000E+00 -0.12572720522E+03  0.25050506931E+04  0.25018936119E+04 0.  0.
        1    1    3    3  502    0 -0.18849821336E+03 -0.74061256405E+03  0.92875441762E+03  0.12027565484E+04  0.50400001928E-02 0. -1.
       -1    1    3    3    0  502  0.18849821336E+03  0.74061256405E+03 -0.10544816228E+04  0.13022941447E+04  0.50400001928E-02 0.  1.
</event>
<event>
 5   0  0.3805418E-07  0.2500795E+04  0.7818609E-02  0.8402702E-01
        1   -1    0    0  501    0  0.00000000000E+00  0.00000000000E+00  0.10208359281E+04  0.10208359282E+04  0.50400001928E-02 0. -1.
       -1   -1    0    0    0  501  0.00000000000E+00  0.00000000000E+00 -0.15315825048E+04  0.15315825048E+04  0.50400001928E-02 0.  1.
    10030    2    1    2    0    0  0.00000000000E+00  0.00000000000E+00 -0.51074657667E+03  0.25524184330E+04  0.25007954317E+04 0.  0.
        4    1    3    3  502    0  0.73519196317E+03  0.47963828837E+03 -0.11642225858E+04  0.14580726842E+04  0.12699999809E+01 0.  1.
       -4    1    3    3    0  502 -0.73519196317E+03 -0.47963828837E+03  0.65347600912E+03  0.10943457487E+04  0.12699999809E+01 0. -1.
</event>
<event>
 5   0  0.9508784E-07  0.2500338E+04  0.7818609E-02  0.8402865E-01
       -2   -1    0    0    0  501  0.00000000000E+00  0.00000000000E+00  0.97065155781E+03  0.97065155781E+03  0.25500000920E-02 0. -1.
        2   -1    0    0  501    0  0.00000000000E+00  0.00000000000E+00 -0.16101789433E+04  0.16101789433E+04  0.25500000920E-02 0.  1.
    10030    2    1    2    0    0  0.00000000000E+00  0.00000000000E+00 -0.63952738552E+03  0.25808305011E+04  0.25003381369E+04 0.  0.
        2    1    3    3  502    0  0.10698358743E+04 -0.33799041917E+03  0.24947566838E+03  0.11493582690E+04  0.25500000920E-02 0. -1.
       -2    1    3    3    0  502 -0.10698358743E+04  0.33799041917E+03 -0.88900305390E+03  0.14314722321E+04  0.25500000920E-02 0.  1.
</event>
<event>
 5   0  0.8997210E-07  0.2505844E+04  0.7818609E-02  0.8400906E-01
        2   -1    0    0  501    0  0.00000000000E+00  0.00000000000E+00  0.94681089998E+03  0.94681089999E+03  0.25500000920E-02 0. -1.
       -2   -1    0    0    0  501  0.00000000000E+00  0.00000000000E+00 -0.16580013792E+04  0.16580013792E+04  0.25500000920E-02 0.  1.
    10030    2    1    2    0    0  0.00000000000E+00  0.00000000000E+00 -0.71119047918E+03  0.26048122792E+04  0.25058441915E+04 0.  0.
        1    1    3    3  502    0  0.87890784248E+02 -0.12492623864E+04 -0.31625234389E+03  0.12916643702E+04  0.50400001928E-02 0. -1.
       -1    1    3    3    0  502 -0.87890784248E+02  0.12492623864E+04 -0.39493813529E+03  0.13131479090E+04  0.50400001928E-02 0.  1.
</event>
<event>
 5   0  0.9768582E-07  0.2499886E+04  0.7818609E-02  0.8403026E-01
       -2   -1    0    0    0  501  0.00000000000E+00  0.00000000000E+00  0.88171100636E+03  0.88171100636E+03  0.25500000920E-02 0. -1.
        2   -1    0    0  501    0  0.00000000000E+00  0.00000000000E+00 -0.17719604118E+04  0.17719604118E+04  0.25500000920E-02 0.  1.
    10030    2    1    2    0    0  0.00000000000E+00  0.00000000000E+00 -0.89024940548E+03  0.26536714182E+04  0.24998855957E+04 0.  0.
        3    1    3    3  502    0  0.50272321673E+03 -0.27020709725E+02  0.76932524947E+03  0.91941399874E+03  0.10100000352E+00 0. -1.
       -3    1    3    3    0  502 -0.50272321673E+03  0.27020709725E+02 -0.16595746550E+04  0.17342574195E+04  0.10100000352E+00 0.  1.
</event>
<event>
 5   0  0.8997210E-07  0.2492695E+04  0.7818609E-02  0.8405593E-01
       -2   -1    0    0    0  501  0.00000000000E+00  0.00000000000E+00  0.71127212683E+03  0.71127212684E+03  0.25500000920E-02 0.  1.
        2   -1    0    0  501    0  0.00000000000E+00  0.00000000000E+00 -0.21839485919E+04  0.21839485919E+04  0.25500000920E-02 0. -1.
    10030    2    1    2    0    0  0.00000000000E+00  0.00000000000E+00 -0.14726764650E+04  0.28952207187E+04  0.24926947345E+04 0.  0.
        1    1    3    3  502    0  0.21366204990E+02  0.92260684859E+03  0.23662198000E+03  0.95270660396E+03  0.50400001928E-02 0.  1.
       -1    1    3    3    0  502 -0.21366204990E+02 -0.92260684859E+03 -0.17092984450E+04  0.19425141148E+04  0.50400001928E-02 0. -1.
</event>
<event>
 5   0  0.9261602E-07  0.2500104E+04  0.7818609E-02  0.8402948E-01
        2   -1    0    0  501    0  0.00000000000E+00  0.00000000000E+00  0.20386049631E+04  0.20386049631E+04  0.25500000920E-02 0.  1.
       -2   -1    0    0    0  501  0.00000000000E+00  0.00000000000E+00 -0.76651943661E+03  0.76651943662E+03  0.25500000920E-02 0. -1.
    10030    2    1    2    0    0  0.00000000000E+00  0.00000000000E+00  0.12720855265E+04  0.28051243997E+04  0.25001042601E+04 0.  0.
        4    1    3    3  502    0  0.82861353724E+03  0.71247610852E+03  0.13170589290E+04  0.17113937112E+04  0.12699999809E+01 0.  1.
       -4    1    3    3    0  502 -0.82861353724E+03 -0.71247610852E+03 -0.44973402470E+02  0.10937306886E+04  0.12699999809E+01 0. -1.
</event>
<event>
 5   0  0.3972587E-07  0.2499216E+04  0.7818609E-02  0.8403265E-01
        1   -1    0    0  501    0  0.00000000000E+00  0.00000000000E+00  0.11025558316E+04  0.11025558317E+04  0.50400001928E-02 0.  1.
       -1   -1    0    0    0  501  0.00000000000E+00  0.00000000000E+00 -0.14162730586E+04  0.14162730586E+04  0.50400001928E-02 0. -1.
    10030    2    1    2    0    0  0.00000000000E+00  0.00000000000E+00 -0.31371722697E+03  0.25188288903E+04  0.24992159731E+04 0.  0.
        3    1    3    3  502    0  0.10011745809E+04 -0.40538257017E+03 -0.79014834602E+03  0.13382899494E+04  0.10100000352E+00 0. -1.
       -3    1    3    3    0  502 -0.10011745809E+04  0.40538257017E+03  0.47643111905E+03  0.11805389409E+04  0.10100000352E+00 0.  1.
</event>
<event>
 5   0  0.3991066E-07  0.2502082E+04  0.7818609E-02  0.8402244E-01
       -1   -1    0    0    0  501  0.00000000000E+00  0.00000000000E+00  0.10966546771E+04  0.10966546771E+04  0.50400001928E-02 0. -1.
        1   -1    0    0  501    0  0.00000000000E+00  0.00000000000E+00 -0.14271614538E+04  0.14271614538E+04  0.50400001928E-02 0.  1.
    10030    2    1    2    0    0  0.00000000000E+00  0.00000000000E+00 -0.33050677671E+03  0.25238161309E+04  0.25020817599E+04 0.  0.
        1    1    3    3  502    0  0.16162459407E+03  0.16315638300E+03  0.10752099017E+04  0.10994629814E+04  0.50400001928E-02 0. -1.
       -1    1    3    3    0  502 -0.16162459407E+03 -0.16315638300E+03 -0.14057166784E+04  0.14243531495E+04  0.50400001928E-02 0.  1.
</event>
<event>
 5   0  0.3837524E-07  0.2501042E+04  0.7818609E-02  0.8402615E-01
        1   -1    0    0  501    0  0.00000000000E+00  0.00000000000E+00  0.22246949054E+04  0.22246949054E+04  0.50400001928E-02 0.  1.
       -1   -1    0    0    0  501  0.00000000000E+00  0.00000000000E+00 -0.70292884296E+03  0.70292884298E+03  0.50400001928E-02 0. -1.
    10030    2    1    2    0    0  0.00000000000E+00  0.00000000000E+00  0.15217660625E+04  0.29276237484E+04  0.25010415557E+04 0.  0.
        5    1    3    3  502    0  0.11519798900E+04  0.47797175568E+03  0.86730415924E+03  0.15191291126E+04  0.46999998093E+01 0. -1.
       -5    1    3    3    0  502 -0.11519798900E+04 -0.47797175568E+03  0.65446190323E+03  0.14084946358E+04  0.46999998093E+01 0.  1.
</event>
<event>
 5   0  0.3991066E-07  0.2500034E+04  0.7818609E-02  0.8402973E-01
       -1   -1    0    0    0  501  0.00000000000E+00  0.00000000000E+00  0.14865687059E+04  0.14865687059E+04  0.50400001928E-02 0. -1.
        1   -1    0    0  501    0  0.00000000000E+00  0.00000000000E+00 -0.10511070849E+04  0.10511070849E+04  0.50400001928E-02 0.  1.
    10030    2    1    2    0    0  0.00000000000E+00  0.00000000000E+00  0.43546162101E+03  0.25376757908E+04  0.25000343189E+04 0.  0.
        1    1    3    3  502    0 -0.90038293160E+03 -0.79627067661E+03  0.56612809806E+03  0.13286223833E+04  0.50400001928E-02 0. -1.
       -1    1    3    3    0  502  0.90038293160E+03  0.79627067661E+03 -0.13066647704E+03  0.12090534075E+04  0.50400001928E-02 0.  1.
</event>
<event>
 5   0  0.3805418E-07  0.2499237E+04  0.7818609E-02  0.8403257E-01
        1   -1    0    0  501    0  0.00000000000E+00  0.00000000000E+00  0.14607279584E+04  0.14607279584E+04  0.50400001928E-02 0. -1.
       -1   -1    0    0    0  501  0.00000000000E+00  0.00000000000E+00 -0.10690196868E+04  0.10690196868E+04  0.50400001928E-02 0.  1.
    10030    2    1    2    0    0  0.00000000000E+00  0.00000000000E+00  0.39170827154E+03  0.25297476452E+04  0.24992374394E+04 0.  0.
        4    1    3    3  502    0 -0.91665122207E+03 -0.82098927962E+03  0.41593071995E+03  0.12989506676E+04  0.12699999809E+01 0.  1.
       -4    1    3    3    0  502  0.91665122207E+03  0.82098927962E+03 -0.24222448405E+02  0.12307969776E+04  0.12699999809E+01 0. -1.
</event>
<event>
 5   0  0.3972587E-07  0.2499047E+04  0.7818609E-02  0.8403325E-01
        1   -1    0    0  501    0  0.00000000000E+00  0.00000000000E+00  0.18730954340E+04  0.18730954340E+04  0.50400001928E-02 0.  1.
       -1   -1    0    0    0  501  0.00000000000E+00  0.00000000000E+00 -0.83354500363E+03  0.83354500364E+03  0.50400001928E-02 0. -1.
    10030    2    1    2    0    0  0.00000000000E+00  0.00000000000E+00  0.10395504304E+04  0.27066404376E+04  0.24990472907E+04 0.  0.
        3    1    3    3  502    0  0.48709353000E+03 -0.10609270728E+04  0.37252552664E+02  0.11679957721E+04  0.10100000352E+00 0. -1.
       -3    1    3    3    0  502 -0.48709353000E+03  0.10609270728E+04  0.10022978777E+04  0.15386446655E+04  0.10100000352E+00 0.  1.
</event>
<event>
 5   0  0.9261602E-07  0.2499479E+04  0.7818609E-02  0.8403171E-01
        2   -1    0    0  501    0  0.00000000000E+00  0.00000000000E+00  0.91915686597E+03  0.91915686597E+03  0.25500000920E-02 0.  1.
       -2   -1    0    0    0  501  0.00000000000E+00  0.00000000000E+00 -0.16992184776E+04  0.16992184776E+04  0.25500000920E-02 0. -1.
    10030    2    1    2    0    0  0.00000000000E+00  0.00000000000E+00 -0.78006161160E+03  0.26183753435E+04  0.24994786100E+04 0.  0.
        4    1    3    3  502    0 -0.75389227797E+03  0.94189675160E+03 -0.73161474090E+03  0.14109517353E+04  0.12699999809E+01 0. -1.
       -4    1    3    3    0  502  0.75389227797E+03 -0.94189675160E+03 -0.48446870694E+02  0.12074236082E+04  0.12699999809E+01 0.  1.
</event>
<event>
 5   0  0.3873231E-07  0.2500344E+04  0.7818609E-02  0.8402863E-01
        1   -1    0    0  501    0  0.00000000000E+00  0.00000000000E+00  0.22539989243E+04  0.22539989243E+04  0.50400001928E-02 0. -1.
       -1   -1    0    0    0  501  0.00000000000E+00  0.00000000000E+00 -0.69340303992E+03  0.69340303993E+03  0.50400001928E-02 0.  1.
    10030    2    1    2    0    0  0.00000000000E+00  0.00000000000E+00  0.15605958844E+04  0.29474019643E+04  0.25003437413E+04 0.  0.
        2    1    3    3  502    0 -0.98808093787E+03  0.74155363378E+03  0.10061970362E+04  0.15933104554E+04  0.25500000920E-02 0. -1.
       -2    1    3    3    0  502  0.98808093787E+03 -0.74155363378E+03  0.55439884824E+03  0.13540915089E+04  0.25500000920E-02 0.  1.
</event>
<event>
 5   0  0.3972587E-07  0.2499938E+04  0.7818609E-02  0.8403008E-01
       -1   -1    0    0    0  501  0.00000000000E+00  0.00000000000E+00  0.11271997668E+04  0.11271997668E+04  0.50400001928E-02 0.  1.
        1   -1    0    0  501    0  0.00000000000E+00  0.00000000000E+00 -0.13861099536E+04  0.13861099536E+04  0.50400001928E-02 0. -1.
    10030    2    1    2    0    0  0.00000000000E+00  0.00000000000E+00 -0.25891018679E+03  0.25133097204E+04  0.24999382524E+04 0.  0.
        3    1    3    3  502    0 -0.70421535079E+03  0.50145860298E+03  0.77817093278E+03  0.11631551924E+04  0.10100000352E+00 0.  1.
       -3    1    3    3    0  502  0.70421535079E+03 -0.50145860298E+03 -0.10370811196E+04  0.13501545280E+04  0.10100000352E+00 0. -1.
</event>
<event>
 5   0  0.9251138E-07  0.2500124E+04  0.7818609E-02  0.8402941E-01
        2   -1    0    0  501    0  0.00000000000E+00  0.00000000000E+00  0.19225495802E+04  0.19225495802E+04  0.25500000920E-02 0. -1.
       -2   -1    0    0    0  501  0.00000000000E+00  0.00000000000E+00 -0.81280350218E+03  0.81280350219E+03  0.25500000920E-02 0.  1.
    10030    2    1    2    0    0  0.00000000000E+00  0.00000000000E+00  0.11097460780E+04  0.27353530824E+04  0.25001240224E+04 0.  0.
        5    1    3    3  502    0 -0.65283848681E+03 -0.76471588549E+03 -0.25773567196E+03  0.10379972264E+04  0.46999998093E+01 0.  1.
       -5    1    3    3    0  502  0.65283848681E+03  0.76471588549E+03  0.13674817499E+04  0.16973558560E+04  0.46999998093E+01 0. -1.
</event>
<event>
 5   0  0.3873231E-07  0.2501356E+04  0.7818609E-02  0.8402503E-01
        1   -1    0    0  501    0  0.00000000000E+00  0.00000000000E+00  0.13594835257E+04  0.13594835257E+04  0.50400001928E-02 0.  1.
       -1   -1    0    0    0  501  0.00000000000E+00  0.00000000000E+00 -0.11505806825E+04  0.11505806825E+04  0.50400001928E-02 0. -1.
    10030    2    1    2    0    0  0.00000000000E+00  0.00000000000E+00  0.20890284316E+03  0.25100642082E+04  0.25013560185E+04 0.  0.
        2    1    3    3  502    0  0.10698950918E+02  0.32856665949E+02  0.13590044201E+04  0.13594436516E+04  0.25500000920E-02 0.  1.
       -2    1    3    3    0  502 -0.10698950918E+02 -0.32856665949E+02 -0.11501015769E+04  0.11506205566E+04  0.25500000920E-02 0. -1.
</event>
<event>
 5   0  0.3837524E-07  0.2500297E+04  0.7818609E-02  0.8402880E-01
       -1   -1    0    0    0  501  0.00000000000E+00  0.00000000000E+00  0.92328386870E+03  0.92328386871E+03  0.50400001928E-02 0. -1.
        1   -1    0    0  501    0  0.00000000000E+00  0.00000000000E+00 -0.16927306758E+04  0.16927306758E+04  0.50400001928E-02 0.  1.
    10030    2    1    2    0    0  0.00000000000E+00  0.00000000000E+00 -0.76944680713E+03  0.26160145446E+04  0.25002967240E+04 0.  0.
        5    1    3    3  502    0  0.78622971362E+03 -0.29156090352E+03  0.58537994273E+03  0.10226713501E+04  0.46999998093E+01 0. -1.
       -5    1    3    3    0  502 -0.78622971362E+03  0.29156090352E+03 -0.13548267499E+04  0.15933431944E+04  0.46999998093E+01 0.  1.
</event>
<event>
 5   0  0.3837524E-07  0.2500887E+04  0.7818609E-02  0.8402670E-01
       -1   -1    0    0    0  501  0.00000000000E+00  0.00000000000E+00  0.87598130231E+03  0.87598130232E+03  0.50400001928E-02 0.  1.
        1   -1    0    0  501    0  0.00000000000E+00  0.00000000000E+00 -0.17849791178E+04  0.17849791178E+04  0.50400001928E-02 0. -1.
    10030    2    1    2    0    0  0.00000000000E+00  0.00000000000E+00 -0.90899781553E+03  0.26609604202E+04  0.25008865086E+04 0.  0.
        5    1    3    3  502    0  0.92112489781E+03 -0.30366238192E+03 -0.12942587516E+04  0.16173465076E+04  0.46999998093E+01 0. -1.
       -5    1    3    3    0  502 -0.92112489781E+03  0.30366238192E+03  0.38526093609E+03  0.10436139125E+04  0.46999998093E+01 0.  1.
</event>
<event>
 5   0  0.9508784E-07  0.2500436E+04  0.7818609E-02  0.8402830E-01
       -2   -1    0    0    0  501  0.00000000000E+00  0.00000000000E+00  0.73577363036E+03  0.73577363036E+03  0.25500000920E-02 0. -1.
        2   -1    0    0  501    0  0.00000000000E+00  0.00000000000E+00 -0.21243558183E+04  0.21243558183E+04  0.25500000920E-02 0.  1.
    10030    2    1    2    0    0  0.00000000000E+00  0.00000000000E+00 -0.13885821879E+04  0.28601294486E+04  0.25004359561E+04 0.  0.
        2    1    3    3  502    0 -0.70532577846E+03 -0.71154926661E+03 -0.15497046467E+04  0.18453648162E+04  0.25500000920E-02 0.  1.
       -2    1    3    3    0  502  0.70532577846E+03  0.71154926661E+03  0.16112245883E+03  0.10147646325E+04  0.25500000920E-02 0. -1.
</event>
<event>
 5   0  0.9508784E-07  0.2498590E+04  0.7818609E-02  0.8403488E-01
       -2   -1    0    0    0  501  0.00000000000E+00  0.00000000000E+00  0.25604970272E+04  0.25604970272E+04  0.25500000920E-02 0.  1.
        2   -1    0    0  501    0  0.00000000000E+00  0.00000000000E+00 -0.60954508302E+03  0.60954508303E+03  0.25500000920E-02 0. -1.
    10030    2    1    2    0    0  0.00000000000E+00  0.00000000000E+00  0.19509519441E+04  0.31700421102E+04  0.24985903010E+04 0.  0.
        2    1    3    3  502    0 -0.88984207777E+03  0.76435437426E+03  0.15207089026E+04  0.19205759812E+04  0.25500000920E-02 0.  1.
       -2    1    3    3    0  502  0.88984207777E+03 -0.76435437426E+03  0.43024304148E+03  0.12494661290E+04  0.25500000920E-02 0. -1.
</event>
<event>
 5   0  0.9251138E-07  0.2499357E+04  0.7818609E-02  0.8403214E-01
        2   -1    0    0  501    0  0.00000000000E+00  0.00000000000E+00  0.11530700275E+04  0.11530700275E+04  0.25500000920E-02 0.  1.
       -2   -1    0    0    0  501  0.00000000000E+00  0.00000000000E+00 -0.13543816743E+04  0.13543816743E+04  0.25500000920E-02 0. -1.
    10030    2    1    2    0    0  0.00000000000E+00  0.00000000000E+00 -0.20131164679E+03  0.25074517018E+04  0.24993574489E+04 0.  0.
        5    1    3    3  502    0  0.24658489668E+03 -0.11950129499E+04  0.17006017614E+03  0.12319913211E+04  0.46999998093E+01 0.  1.
       -5    1    3    3    0  502 -0.24658489668E+03  0.11950129499E+04 -0.37137182293E+03  0.12754603807E+04  0.46999998093E+01 0. -1.
</event>
<event>
 5   0  0.9261602E-07  0.2503498E+04  0.7818609E-02  0.8401740E-01
        2   -1    0    0  501    0  0.00000000000E+00  0.00000000000E+00  0.26468094680E+04  0.26468094680E+04  0.25500000920E-02 0.  1.
       -2   -1    0    0    0  501  0.00000000000E+00  0.00000000000E+00 -0.59198664427E+03  0.59198664428E+03  0.25500000920E-02 0. -1.
    10030    2    1    2    0    0  0.00000000000E+00  0.00000000000E+00  0.20548228237E+04  0.32387961123E+04  0.25034982365E+04 0.  0.
        4    1    3    3  502    0 -0.12235725749E+04 -0.19585056247E+03  0.79821337180E+03  0.14739855795E+04  0.12699999809E+01 0. -1.
       -4    1    3    3    0  502  0.12235725749E+04  0.19585056247E+03  0.12566094519E+04  0.17648105327E+04  0.12699999809E+01 0.  1.
</event>
<event>
 5   0  0.3991066E-07  0.2502436E+04  0.7818609E-02  0.8402118E-01
       -1   -1    0    0    0  501  0.00000000000E+00  0.00000000000E+00  0.82500586604E+03  0.82500586605E+03  0.50400001928E-02 0. -1.
        1   -1    0    0  501    0  0.00000000000E+00  0.00000000000E+00 -0.18976187298E+04  0.18976187298E+04  0.50400001928E-02 0.  1.
    10030    2    1    2    0    0  0.00000000000E+00  0.00000000000E+00 -0.10726128638E+04  0.27226245959E+04  0.25024360800E+04 0.  0.
        1    1    3    3  502    0 -0.99236023654E+02  0.81532201306E+03  0.49064793648E+03  0.95673045890E+03  0.50400001928E-02 0. -1.
       -1    1    3    3    0  502  0.99236023654E+02 -0.81532201306E+03 -0.15632608003E+04  0.17658941370E+04  0.50400001928E-02 0.  1.
</event>
<event>
 5   0  0.9261602E-07  0.2500272E+04  0.7818609E-02  0.8402889E-01
       -2   -1    0    0    0  501  0.00000000000E+00  0.00000000000E+00  0.20480206886E+04  0.20480206886E+04  0.25500000920E-02 0. -1.
        2   -1    0    0  501    0  0.00000000000E+00  0.00000000000E+00 -0.76309793725E+03  0.76309793726E+03  0.25500000920E-02 0.  1.
    10030    2    1    2    0    0  0.00000000000E+00  0.00000000000E+00  0.12849227514E+04  0.28111186259E+04  0.25002722755E+04 0.  0.
        4    1    3    3  502    0 -0.49170229018E+03  0.50486556241E+03  0.18033934275E+04  0.19362050112E+04  0.12699999809E+01 0. -1.
       -4    1    3    3    0  502  0.49170229018E+03 -0.50486556241E+03 -0.51847067610E+03  0.87491361468E+03  0.12699999809E+01 0.  1.
</event>
<event>
 5   0  0.3805418E-07  0.2495589E+04  0.7818609E-02  0.8404559E-01
        1   -1    0    0  501    0  0.00000000000E+00  0.00000000000E+00  0.86237687882E+03  0.86237687883E+03  0.50400001928E-02 0.  1.
       -1   -1    0    0    0  501  0.00000000000E+00  0.00000000000E+00 -0.18054642665E+04  0.18054642665E+04  0.50400001928E-02 0. -1.
    10030    2    1    2    0    0  0.00000000000E+00  0.00000000000E+00 -0.94308738769E+03  0.26678411453E+04  0.24955886191E+04 0.  0.
        4    1    3    3  502    0 -0.63207355790E+02  0.72054542186E+03  0.61539974647E+03  0.94968380825E+03  0.12699999809E+01 0.  1.
       -4    1    3    3    0  502  0.63207355790E+02 -0.72054542186E+03 -0.15584871342E+04  0.17181573371E+04  0.12699999809E+01 0. -1.
</event>
<event>
 5   0  0.8997210E-07  0.2500623E+04  0.7818609E-02  0.8402763E-01
       -2   -1    0    0    0  501  0.00000000000E+00  0.00000000000E+00  0.90963312302E+03  0.90963312302E+03  0.25500000920E-02 0. -1.
        2   -1    0    0  501    0  0.00000000000E+00  0.00000000000E+00 -0.17185823729E+04  0.17185823729E+04  0.25500000920E-02 0.  1.
    10030    2    1    2    0    0  0.00000000000E+00  0.00000000000E+00 -0.80894924986E+03  0.26282154959E+04  0.25006234831E+04 0.  0.
        1    1    3    3  502    0 -0.42091452161E+03 -0.32329596008E+03  0.78536175831E+03  0.94788311714E+03  0.50400001928E-02 0. -1.
       -1    1    3    3    0  502  0.42091452161E+03  0.32329596008E+03 -0.15943110082E+04  0.16803323788E+04  0.50400001928E-02 0.  1.
</event>
<event>
 5   0  0.3972587E-07  0.2501833E+04  0.7818609E-02  0.8402333E-01
        1   -1    0    0  501    0  0.00000000000E+00  0.00000000000E+00  0.13192213226E+04  0.13192213226E+04  0.50400001928E-02 0. -1.
       -1   -1    0    0    0  501  0.00000000000E+00  0.00000000000E+00 -0.11861484884E+04  0.11861484884E+04  0.50400001928E-02 0.  1.
    10030    2    1    2    0    0  0.00000000000E+00  0.00000000000E+00  0.13307283421E+03  0.25053698111E+04  0.25018332301E+04 0.  0.
        3    1    3    3  502    0  0.46876306527E+03  0.58227260849E+03 -0.93788299981E+03  0.11993351214E+04  0.10100000352E+00 0.  1.
       -3    1    3    3    0  502 -0.46876306527E+03 -0.58227260849E+03  0.10709558340E+04  0.13060346896E+04  0.10100000352E+00 0. -1.
</event>
<event>
 5   0  0.9768582E-07  0.2502007E+04  0.7818609E-02  0.8402271E-01
        2   -1    0    0  501    0  0.00000000000E+00  0.00000000000E+00  0.15736475547E+04  0.15736475547E+04  0.25500000920E-02 0.  1.
       -2   -1    0    0    0  501  0.00000000000E+00  0.00000000000E+00 -0.99451119696E+03  0.99451119696E+03  0.25500000920E-02 0. -1.
    10030    2    1    2    0    0  0.00000000000E+00  0.00000000000E+00  0.57913635771E+03  0.25681587516E+04  0.25020072847E+04 0.  0.
        3    1    3    3  502    0 -0.40944689767E+03  0.25809555191E+03 -0.89451316442E+03  0.10170613981E+04  0.10100000352E+00 0. -1.
       -3    1    3    3    0  502  0.40944689767E+03 -0.25809555191E+03  0.14736495221E+04  0.15510973536E+04  0.10100000352E+00 0.  1.
</event>
<event>
 5   0  0.3837524E-07  0.2499003E+04  0.7818609E-02  0.8403341E-01
       -1   -1    0    0    0  501  0.00000000000E+00  0.00000000000E+00  0.10479756449E+04  0.10479756449E+04  0.50400001928E-02 0. -1.
        1   -1    0    0  501    0  0.00000000000E+00  0.00000000000E+00 -0.14897808931E+04  0.14897808931E+04  0.50400001928E-02 0.  1.
    10030    2    1    2    0    0  0.00000000000E+00  0.00000000000E+00 -0.44180524821E+03  0.25377565380E+04  0.24990030750E+04 0.  0.
        5    1    3    3  502    0 -0.45738658876E+03 -0.90130058658E+03 -0.96692876926E+03  0.13987560809E+04  0.46999998093E+01 0.  1.
       -5    1    3    3    0  502  0.45738658876E+03  0.90130058658E+03  0.52512352105E+03  0.11390004571E+04  0.46999998093E+01 0. -1.
</event>
<event>
 5   0  0.8997210E-07  0.2497154E+04  0.7818609E-02  0.8404000E-01
        2   -1    0    0  501    0  0.00000000000E+00  0.00000000000E+00  0.11750984617E+04  0.11750984617E+04  0.25500000920E-02 0.  1.
       -2   -1    0    0    0  501  0.00000000000E+00  0.00000000000E+00 -0.13266504094E+04  0.13266504094E+04  0.25500000920E-02 0. -1.
    10030    2    1    2    0    0  0.00000000000E+00  0.00000000000E+00 -0.15155194765E+03  0.25017488711E+04  0.24971542646E+04 0.  0.
        1    1    3    3  502    0  0.10536659379E+04  0.66794681433E+03 -0.12666312909E+03  0.12539570981E+04  0.50400001928E-02 0.  1.
       -1    1    3    3    0  502 -0.10536659379E+04 -0.66794681433E+03 -0.24888818553E+02  0.12477917730E+04  0.50400001928E-02 0. -1.
</event>
<event>
 5   0  0.9768582E-07  0.2497460E+04  0.7818609E-02  0.8403891E-01
        2   -1    0    0  501    0  0.00000000000E+00  0.00000000000E+00  0.17172502841E+04  0.17172502841E+04  0.25500000920E-02 0.  1.
       -2   -1    0    0    0  501  0.00000000000E+00  0.00000000000E+00 -0.90803677433E+03  0.90803677433E+03  0.25500000920E-02 0. -1.
    10030    2    1    2    0    0  0.00000000000E+00  0.00000000000E+00  0.80921350979E+03  0.26252870585E+04  0.24974598365E+04 0.  0.
        3    1    3    3  502    0  0.36617582098E+03  0.10307336458E+04  0.10377905193E+04  0.15078148933E+04  0.10100000352E+00 0.  1.
       -3    1    3    3    0  502 -0.36617582098E+03 -0.10307336458E+04 -0.22857700947E+03  0.11174721651E+04  0.10100000352E+00 0. -1.
</event>
<event>
 5   0  0.3837524E-07  0.2499943E+04  0.7818609E-02  0.8403006E-01
       -1   -1    0    0    0  501  0.00000000000E+00  0.00000000000E+00  0.73582114795E+03  0.73582114797E+03  0.50400001928E-02 0.  1.
        1   -1    0    0  501    0  0.00000000000E+00  0.00000000000E+00 -0.21233809771E+04  0.21233809771E+04  0.50400001928E-02 0. -1.
    10030    2    1    2    0    0  0.00000000000E+00  0.00000000000E+00 -0.13875598291E+04  0.28592021250E+04  0.24999429018E+04 0.  0.
        5    1    3    3  502    0  0.12015438619E+04 -0.33367095694E+03 -0.59564360113E+03  0.13819758859E+04  0.46999998093E+01 0. -1.
       -5    1    3    3    0  502 -0.12015438619E+04  0.33367095694E+03 -0.79191622798E+03  0.14772262392E+04  0.46999998093E+01 0.  1.
</event>
<event>
 5   0  0.3805418E-07  0.2500103E+04  0.7818609E-02  0.8402949E-01
       -1   -1    0    0    0  501  0.00000000000E+00  0.00000000000E+00  0.10990986646E+04  0.10990986646E+04  0.50400001928E-02 0.  1.
        1   -1    0    0  501    0  0.00000000000E+00  0.00000000000E+00 -0.14217363625E+04  0.14217363626E+04  0.50400001928E-02 0. -1.
    10030    2    1    2    0    0  0.00000000000E+00  0.00000000000E+00 -0.32263769796E+03  0.25208350271E+04  0.25001028279E+04 0.  0.
        4    1    3    3  502    0 -0.58110093153E+03 -0.23254741263E+03 -0.12523595559E+04  0.14000580923E+04  0.12699999809E+01 0. -1.
       -4    1    3    3    0  502  0.58110093153E+03  0.23254741263E+03  0.92972185790E+03  0.11207769349E+04  0.12699999809E+01 0.  1.
</event>
<event>
 5   0  0.3873231E-07  0.2499553E+04  0.7818609E-02  0.8403145E-01
        1   -1    0    0  501    0  0.00000000000E+00  0.00000000000E+00  0.18073118535E+04  0.18073118535E+04  0.50400001928E-02 0.  1.
       -1   -1    0    0    0  501  0.00000000000E+00  0.00000000000E+00 -0.86423478632E+03  0.86423478634E+03  0.50400001928E-02 0. -1.
    10030    2    1    2    0    0  0.00000000000E+00  0.00000000000E+00  0.94307706719E+03  0.26715466399E+04  0.24995533790E+04 0.  0.
        2    1    3    3  502    0 -0.25043445125E+03  0.72096262860E+03 -0.58622515127E+03  0.96237438359E+03  0.25500000920E-02 0. -1.
       -2    1    3    3    0  502  0.25043445125E+03 -0.72096262860E+03  0.15293022185E+04  0.17091722563E+04  0.25500000920E-02 0.  1.
</event>
<event>
 5   0  0.9261602E-07  0.2502516E+04  0.7818609E-02  0.8402090E-01
        2   -1    0    0  501    0  0.00000000000E+00  0.00000000000E+00  0.16360427061E+04  0.16360427061E+04  0.25500000920E-02 0.  1.
       -2   -1    0    0    0  501  0.00000000000E+00  0.00000000000E+00 -0.95697153852E+03  0.95697153852E+03  0.25500000920E-02 0. -1.
    10030    2    1    2    0    0  0.00000000000E+00  0.00000000000E+00  0.67907116763E+03  0.25930142447E+04  0.25025157786E+04 0.  0.
        4    1    3    3  502    0  0.11572003953E+04  0.18458302933E+03  0.79410424962E+03  0.14155517729E+04  0.12699999809E+01 0. -1.
       -4    1    3    3    0  502 -0.11572003953E+04 -0.18458302933E+03 -0.11503308199E+03  0.11774624718E+04  0.12699999809E+01 0.  1.
</event>
<event>
 5   0  0.8997210E-07  0.2500012E+04  0.7818609E-02  0.8402981E-01
       -2   -1    0    0    0  501  0.00000000000E+00  0.00000000000E+00  0.15523249354E+04  0.15523249354E+04  0.25500000920E-02 0.  1.
        2   -1    0    0  501    0  0.00000000000E+00  0.00000000000E+00 -0.10065639965E+04  0.10065639965E+04  0.25500000920E-02 0. -1.
    10030    2    1    2    0    0  0.00000000000E+00  0.00000000000E+00  0.54576093888E+03  0.25588889319E+04  0.25000115127E+04 0.  0.
        1    1    3    3  502    0  0.35385595036E+03  0.14517247564E+03  0.14909598818E+04  0.15392369702E+04  0.50400001928E-02 0.  1.
       -1    1    3    3    0  502 -0.35385595036E+03 -0.14517247564E+03 -0.94519894293E+03  0.10196519617E+04  0.50400001928E-02 0. -1.
</event>
<event>
 5   0  0.3991066E-07  0.2499918E+04  0.7818609E-02  0.8403015E-01
        1   -1    0    0  501    0  0.00000000000E+00  0.00000000000E+00  0.90669594987E+03  0.90669594988E+03  0.50400001928E-02 0.  1.
       -1   -1    0    0    0  501  0.00000000000E+00  0.00000000000E+00 -0.17231768445E+04  0.17231768446E+04  0.50400001928E-02 0. -1.
    10030    2    1    2    0    0  0.00000000000E+00  0.00000000000E+00 -0.81648089468E+03  0.26298727944E+04  0.24999179714E+04 0.  0.
        1    1    3    3  502    0  0.22312109555E+03 -0.10831770895E+04 -0.10210530470E+04  0.15051926639E+04  0.50400001928E-02 0. -1.
       -1    1    3    3    0  502 -0.22312109555E+03  0.10831770895E+04  0.20457215233E+03  0.11246801306E+04  0.50400001928E-02 0.  1.
</event>
<event>
 5   0  0.9251138E-07  0.2501171E+04  0.7818609E-02  0.8402568E-01
        2   -1    0    0  501    0  0.00000000000E+00  0.00000000000E+00  0.11988529445E+04  0.11988529445E+04  0.25500000920E-02 0. -1.
       -2   -1    0    0    0  501  0.00000000000E+00  0.00000000000E+00 -0.13045505214E+04  0.13045505214E+04  0.25500000920E-02 0.  1.
    10030    2    1    2    0    0  0.00000000000E+00  0.00000000000E+00 -0.10569757698E+03  0.25034034659E+04  0.25011711128E+04 0.  0.
        5    1    3    3  502    0 -0.70091549722E+03 -0.78684787565E+03  0.62119866056E+03  0.12232424042E+04  0.46999998093E+01 0. -1.
       -5    1    3    3    0  502  0.70091549722E+03  0.78684787565E+03 -0.72689623753E+03  0.12801610617E+04  0.46999998093E+01 0.  1.
</event>
<event>
 5   0  0.3805418E-07  0.2498827E+04  0.7818609E-02  0.8403404E-01
        1   -1    0    0  501    0  0.00000000000E+00  0.00000000000E+00  0.12596003221E+04  0.12596003221E+04  0.50400001928E-02 0. -1.
       -1   -1    0    0    0  501  0.00000000000E+00  0.00000000000E+00 -0.12393089391E+04  0.12393089391E+04  0.50400001928E-02 0.  1.
    10030    2    1    2    0    0  0.00000000000E+00  0.00000000000E+00  0.20291383069E+02  0.24989092612E+04  0.24988268759E+04 0.  0.
        4    1    3    3  502    0 -0.50892776903E+03  0.76682194513E+03 -0.83487267414E+03  0.12425930004E+04  0.12699999809E+01 0.  1.
       -4    1    3    3    0  502  0.50892776903E+03 -0.76682194513E+03  0.85516405721E+03  0.12563162608E+04  0.12699999809E+01 0. -1.
</event>
<event>
 5   0  0.3972587E-07  0.2500563E+04  0.7818609E-02  0.8402785E-01
        1   -1    0    0  501    0  0.00000000000E+00  0.00000000000E+00  0.10742557066E+04  0.10742557066E+04  0.50400001928E-02 0.  1.
       -1   -1    0    0    0  501  0.00000000000E+00  0.00000000000E+00 -0.14551503381E+04  0.14551503381E+04  0.50400001928E-02 0. -1.
    10030    2    1    2    0    0  0.00000000000E+00  0.00000000000E+00 -0.38089463148E+03  0.25294060447E+04  0.25005627804E+04 0.  0.
        3    1    3    3  502    0 -0.40888814995E+03  0.11463445043E+04 -0.47994477262E+03  0.13082974573E+04  0.10100000352E+00 0. -1.
       -3    1    3    3    0  502  0.40888814995E+03 -0.11463445043E+04  0.99050141141E+02  0.12211085875E+04  0.10100000352E+00 0.  1.
</event>
<event>
 5   0  0.3873231E-07  0.2498793E+04  0.7818609E-02  0.8403416E-01
        1   -1    0    0  501    0  0.00000000000E+00  0.00000000000E+00  0.12563751971E+04  0.12563751971E+04  0.50400001928E-02 0.  1.
       -1   -1    0    0    0  501  0.00000000000E+00  0.00000000000E+00 -0.12424561213E+04  0.12424561213E+04  0.50400001928E-02 0. -1.
    10030    2    1    2    0    0  0.00000000000E+00  0.00000000000E+00  0.13919075870E+02  0.24988313184E+04  0.24987925518E+04 0.  0.
        2    1    3    3  502    0 -0.82579563750E+03  0.21275234843E+03 -0.90617513384E+03  0.12443292851E+04  0.25500000920E-02 0. -1.
       -2    1    3    3    0  502  0.82579563750E+03 -0.21275234843E+03  0.92009420971E+03  0.12545020333E+04  0.25500000920E-02 0.  1.
</event>
<event>
 5   0  0.9261602E-07  0.2493459E+04  0.7818609E-02  0.8405320E-01
       -2   -1    0    0    0  501  0.00000000000E+00  0.00000000000E+00  0.10213809276E+04  0.10213809276E+04  0.25500000920E-02 0.  1.
        2   -1    0    0  501    0  0.00000000000E+00  0.00000000000E+00 -0.15217968135E+04  0.15217968135E+04  0.25500000920E-02 0. -1.
    10030    2    1    2    0    0  0.00000000000E+00  0.00000000000E+00 -0.50041588582E+03  0.25431777411E+04  0.24934588355E+04 0.  0.
        4    1    3    3  502    0 -0.94734228286E+03  0.76917464622E+03  0.10317471330E+02  0.12203258173E+04  0.12699999809E+01 0.  1.
       -4    1    3    3    0  502  0.94734228286E+03 -0.76917464622E+03 -0.51073335715E+03  0.13228519238E+04  0.12699999809E+01 0. -1.
</event>
<event>
 5   0  0.3991066E-07  0.2498757E+04  0.7818609E-02  0.8403428E-01
        1   -1    0    0  501    0  0.00000000000E+00  0.00000000000E+00  0.11642157610E+04  0.11642157610E+04  0.50400001928E-02 0.  1.
       -1   -1    0    0    0  501  0.00000000000E+00  0.00000000000E+00 -0.13407710195E+04  0.13407710195E+04  0.50400001928E-02 0. -1.
    10030    2    1    2    0    0  0.00000000000E+00  0.00000000000E+00 -0.17655525847E+03  0.25049867805E+04  0.24987570933E+04 0.  0.
        1    1    3    3  502    0 -0.84714178185E+03 -0.60661699917E+03  0.60287094102E+03  0.12037801933E+04  0.50400001928E-02 0.  1.
       -1    1    3    3    0  502  0.84714178185E+03  0.60661699917E+03 -0.77942619948E+03  0.13012065872E+04  0.50400001928E-02 0. -1.
</event>
<event>
 5   0  0.3972587E-07  0.2504951E+04  0.7818609E-02  0.8401224E-01
       -1   -1    0    0    0  501  0.00000000000E+00  0.00000000000E+00  0.89081922970E+03  0.89081922971E+03  0.50400001928E-02 0. -1.
        1   -1    0    0  501    0  0.00000000000E+00  0.00000000000E+00 -0.17609579182E+04  0.17609579182E+04  0.50400001928E-02 0.  1.
    10030    2    1    2    0    0  0.00000000000E+00  0.00000000000E+00 -0.87013868849E+03  0.26517771479E+04  0.25049512380E+04 0.  0.
        3    1    3    3  502    0  0.18019992159E+02  0.29016111774E+03  0.85460657830E+03  0.90270183795E+03  0.10100000352E+00 0. -1.
       -3    1    3    3    0  502 -0.18019992159E+02 -0.29016111774E+03 -0.17247452668E+04  0.17490753099E+04  0.10100000352E+00 0.  1.
</event>
<event>
 5   0  0.9508784E-07  0.2500142E+04  0.7818609E-02  0.8402935E-01
       -2   -1    0    0    0  501  0.00000000000E+00  0.00000000000E+00  0.13413649085E+04  0.13413649085E+04  0.25500000920E-02 0. -1.
        2   -1    0    0  501    0  0.00000000000E+00  0.00000000000E+00 -0.11649908285E+04  0.11649908285E+04  0.25500000920E-02 0.  1.
    10030    2    1    2    0    0  0.00000000000E+00  0.00000000000E+00  0.17637408002E+03  0.25063557370E+04  0.25001422488E+04 0.  0.
        2    1    3    3  502    0 -0.43552719766E+03 -0.13467871233E+03 -0.10786883641E+04  0.11710639958E+04  0.25500000920E-02 0.  1.
       -2    1    3    3    0  502  0.43552719766E+03  0.13467871233E+03  0.12550624441E+04  0.13352917412E+04  0.25500000920E-02 0. -1.
</event>
<event>
 5   0  0.9261602E-07  0.2500133E+04  0.7818609E-02  0.8402938E-01
       -2   -1    0    0    0  501  0.00000000000E+00  0.00000000000E+00  0.68283541890E+03  0.68283541890E+03  0.25500000920E-02 0.  1.
        2   -1    0    0  501    0  0.00000000000E+00  0.00000000000E+00 -0.22884964662E+04  0.22884964662E+04  0.25500000920E-02 0. -1.
    10030    2    1    2    0    0  0.00000000000E+00  0.00000000000E+00 -0.16056610473E+04  0.29713318851E+04  0.25001331510E+04 0.  0.
        4    1    3    3  502    0  0.60825596067E+03 -0.11132028486E+03  0.48834038798E+03  0.78793747654E+03  0.12699999809E+01 0.  1.
       -4    1    3    3    0  502 -0.60825596067E+03  0.11132028486E+03 -0.20940014353E+04  0.21833944086E+04  0.12699999809E+01 0. -1.
</event>
<event>
 5   0  0.3837524E-07  0.2499258E+04  0.7818609E-02  0.8403250E-01
        1   -1    0    0  501    0  0.00000000000E+00  0.00000000000E+00  0.12488191946E+04  0.12488191946E+04  0.50400001928E-02 0.  1.
       -1   -1    0    0    0  501  0.00000000000E+00  0.00000000000E+00 -0.12504392519E+04  0.12504392519E+04  0.50400001928E-02 0. -1.
    10030    2    1    2    0    0  0.00000000000E+00  0.00000000000E+00 -0.16200573024E+01  0.24992584464E+04  0.24992579214E+04 0.  0.
        5    1    3    3  502    0  0.65034232564E+03 -0.94662307909E+03  0.49164317410E+03  0.12493100076E+04  0.46999998093E+01 0.  1.
       -5    1    3    3    0  502 -0.65034232564E+03  0.94662307909E+03 -0.49326323140E+03  0.12499484389E+04  0.46999998093E+01 0. -1.
</event>
<event>
 5   0  0.9261602E-07  0.2499580E+04  0.7818609E-02  0.8403135E-01
       -2   -1    0    0    0  501  0.00000000000E+00  0.00000000000E+00  0.12745777690E+04  0.12745777690E+04  0.25500000920E-02 0. -1.
        2   -1    0    0  501    0  0.00000000000E+00  0.00000000000E+00 -0.12254838209E+04  0.12254838209E+04  0.25500000920E-02 0.  1.
    10030    2    1    2    0    0  0.00000000000E+00  0.00000000000E+00  0.49093948107E+02  0.25000615900E+04  0.24995795122E+04 0.  0.
        4    1    3    3  502    0  0.19428966685E+03  0.41313424809E+03  0.11881906434E+04  0.12728813768E+04  0.12699999809E+01 0. -1.
       -4    1    3    3    0  502 -0.19428966685E+03 -0.41313424809E+03 -0.11390966952E+04  0.12271802132E+04  0.12699999809E+01 0.  1.
</event>
<event>
 5   0  0.3873231E-07  0.2500303E+04  0.7818609E-02  0.8402877E-01
        1   -1    0    0  501    0  0.00000000000E+00  0.00000000000E+00  0.11316838066E+04  0.11316838066E+04  0.50400001928E-02 0. -1.
       -1   -1    0    0    0  501  0.00000000000E+00  0.00000000000E+00 -0.13810211168E+04  0.13810211168E+04  0.50400001928E-02 0.  1.
    10030    2    1    2    0    0  0.00000000000E+00  0.00000000000E+00 -0.24933731018E+03  0.25127049234E+04  0.25003033691E+04 0.  0.
        2    1    3    3  502    0 -0.11021344824E+04 -0.31131765199E+03 -0.62841346026E+03  0.13063393796E+04  0.25500000920E-02 0.  1.
       -2    1    3    3    0  502  0.11021344824E+04  0.31131765199E+03  0.37907615008E+03  0.12063655438E+04  0.25500000920E-02 0. -1.
</event>
<event>
 5   0  0.9251138E-07  0.2501709E+04  0.7818609E-02  0.8402377E-01
        2   -1    0    0  501    0  0.00000000000E+00  0.00000000000E+00  0.15023506240E+04  0.15023506240E+04  0.25500000920E-02 0. -1.
       -2   -1    0    0    0  501  0.00000000000E+00  0.00000000000E+00 -0.10414594374E+04  0.10414594375E+04  0.25500000920E-02 0.  1.
    10030    2    1    2    0    0  0.00000000000E+00  0.00000000000E+00  0.46089118657E+03  0.25438100615E+04  0.25017092043E+04 0.  0.
        5    1    3    3  502    0 -0.26890969780E+03 -0.64413099765E+03 -0.82500019794E+03  0.10806778356E+04  0.46999998093E+01 0.  1.
       -5    1    3    3    0  502  0.26890969780E+03  0.64413099765E+03  0.12858913845E+04  0.14631322259E+04  0.46999998093E+01 0. -1.
</event>
<event>
 5   0  0.3805418E-07  0.2500337E+04  0.7818609E-02  0.8402865E-01
       -1   -1    0    0    0  501  0.00000000000E+00  0.00000000000E+00  0.76547367162E+03  0.76547367164E+03  0.50400001928E-02 0.  1.
        1   -1    0    0  501    0  0.00000000000E+00  0.00000000000E+00 -0.20417708756E+04  0.20417708756E+04  0.50400001928E-02 0. -1.
    10030    2    1    2    0    0  0.00000000000E+00  0.00000000000E+00 -0.12762972039E+04  0.28072445472E+04  0.25003374562E+04 0.  0.
        4    1    3    3  502    0 -0.22944552244E+02  0.10384548521E+04 -0.14192486783E+04  0.17587448241E+04  0.12699999809E+01 0. -1.
       -4    1    3    3    0  502  0.22944552244E+02 -0.10384548521E+04  0.14295147440E+03  0.10484997231E+04  0.12699999809E+01 0.  1.
</event>
<event>
 5   0  0.9768582E-07  0.2500711E+04  0.7818609E-02  0.8402732E-01
       -2   -1    0    0    0  501  0.00000000000E+00  0.00000000000E+00  0.98587129445E+03  0.98587129445E+03  0.25500000920E-02 0.  1.
        2   -1    0    0  501    0  0.00000000000E+00  0.00000000000E+00 -0.15857946697E+04  0.15857946697E+04  0.25500000920E-02 0. -1.
    10030    2    1    2    0    0  0.00000000000E+00  0.00000000000E+00 -0.59992337522E+03  0.25716659641E+04  0.25007114537E+04 0.  0.
        3    1    3    3  502    0 -0.78978726893E+03  0.25999819459E+02 -0.12964497359E+04  0.15182957053E+04  0.10100000352E+00 0. -1.
       -3    1    3    3    0  502  0.78978726893E+03 -0.25999819459E+02  0.69652636072E+03  0.10533702588E+04  0.10100000352E+00 0.  1.
</event>
<event>
 5   0  0.3214375E-07  0.2499926E+04  0.7818609E-02  0.8403012E-01
       -4   -1    0    0    0  501  0.00000000000E+00  0.00000000000E+00  0.16715377947E+04  0.16715382772E+04  0.12699999809E+01 0.  1.
        4   -1    0    0  501    0  0.00000000000E+00  0.00000000000E+00 -0.93471142204E+03  0.93471228482E+03  0.12699999809E+01 0. -1.
    10030    2    1    2    0    0  0.00000000000E+00  0.00000000000E+00  0.73682637268E+03  0.26062505620E+04  0.24999257766E+04 0.  0.
        1    1    3    3  502    0  0.24449939698E+03 -0.28286817807E+03 -0.87504852400E+03  0.95157988665E+03  0.50400001928E-02 0. -1.
       -1    1    3    3    0  502 -0.24449939698E+03  0.28286817807E+03  0.16118748967E+04  0.16546706753E+04  0.50400001928E-02 0.  1.
</event>
<event>
 5   0  0.9508784E-07  0.2498456E+04  0.7818609E-02  0.8403536E-01
        2   -1    0    0  501    0  0.00000000000E+00  0.00000000000E+00  0.21878899429E+04  0.21878899429E+04  0.25500000920E-02 0. -1.
       -2   -1    0    0    0  501  0.00000000000E+00  0.00000000000E+00 -0.71327670681E+03  0.71327670682E+03  0.25500000920E-02 0.  1.
    10030    2    1    2    0    0  0.00000000000E+00  0.00000000000E+00  0.14746132361E+04  0.29011666497E+04  0.24984562701E+04 0.  0.
        2    1    3    3  502    0  0.18015667136E+03  0.98329558422E+03 -0.13260853531E+03  0.10084203765E+04  0.25500000920E-02 0.  1.
       -2    1    3    3    0  502 -0.18015667136E+03 -0.98329558422E+03  0.16072217714E+04  0.18927462732E+04  0.25500000920E-02 0. -1.
</event>
<event>
 5   0  0.3214375E-07  0.2501003E+04  0.7818609E-02  0.8402628E-01
        3   -1    0    0  501    0  0.00000000000E+00  0.00000000000E+00  0.10810940436E+04  0.10810940483E+04  0.10100000352E+00 0.  1.
       -3   -1    0    0    0  501  0.00000000000E+00  0.00000000000E+00 -0.14464554796E+04  0.14464554831E+04  0.10100000352E+00 0. -1.
    10030    2    1    2    0    0  0.00000000000E+00  0.00000000000E+00 -0.36536143602E+03  0.25275495314E+04  0.25010033296E+04 0.  0.
        1    1    3    3  502    0 -0.80090099221E+03 -0.87361993757E+03  0.22042670344E+03  0.12055049259E+04  0.50400001928E-02 0. -1.
       -1    1    3    3    0  502  0.80090099221E+03  0.87361993757E+03 -0.58578813945E+03  0.13220446055E+04  0.50400001928E-02 0.  1.
</event>
<event>
 5   0  0.9261602E-07  0.2499255E+04  0.7818609E-02  0.8403251E-01
        2   -1    0    0  501    0  0.00000000000E+00  0.00000000000E+00  0.27960444146E+04  0.27960444146E+04  0.25500000920E-02 0.  1.
       -2   -1    0    0    0  501  0.00000000000E+00  0.00000000000E+00 -0.55849230139E+03  0.55849230140E+03  0.25500000920E-02 0. -1.
    10030    2    1    2    0    0  0.00000000000E+00  0.00000000000E+00  0.22375521132E+04  0.33545367160E+04  0.24992553130E+04 0.  0.
        4    1    3    3  502    0  0.11245101114E+03 -0.42514167984E+03 -0.45120013552E+03  0.63005861079E+03  0.12699999809E+01 0. -1.
       -4    1    3    3    0  502 -0.11245101114E+03  0.42514167984E+03  0.26887522487E+04  0.27244781052E+04  0.12699999809E+01 0.  1.
</event>
<event>
 5   0  0.9251138E-07  0.2499255E+04  0.7818609E-02  0.8403251E-01
        2   -1    0    0  501    0  0.00000000000E+00  0.00000000000E+00  0.16684138403E+04  0.16684138403E+04  0.25500000920E-02 0. -1.
       -2   -1    0    0    0  501  0.00000000000E+00  0.00000000000E+00 -0.93596010278E+03  0.93596010278E+03  0.25500000920E-02 0.  1.
    10030    2    1    2    0    0  0.00000000000E+00  0.00000000000E+00  0.73245373754E+03  0.26043739431E+04  0.24992549205E+04 0.  0.
        5    1    3    3  502    0 -0.28136010776E+03 -0.36934362051E+03 -0.84272839481E+03  0.96218057436E+03  0.46999998093E+01 0.  1.
       -5    1    3    3    0  502  0.28136010776E+03  0.36934362051E+03  0.15751821323E+04  0.16421933687E+04  0.46999998093E+01 0. -1.
</event>
<event>
 5   0  0.3805418E-07  0.2500167E+04  0.7818609E-02  0.8402926E-01
        1   -1    0    0  501    0  0.00000000000E+00  0.00000000000E+00  0.83169639213E+03  0.83169639215E+03  0.50400001928E-02 0.  1.
       -1   -1    0    0    0  501  0.00000000000E+00  0.00000000000E+00 -0.18789420925E+04  0.18789420925E+04  0.50400001928E-02 0. -1.
    10030    2    1    2    0    0  0.00000000000E+00  0.00000000000E+00 -0.10472457003E+04  0.27106384846E+04  0.25001674819E+04 0.  0.
        4    1    3    3  502    0 -0.97506375047E+03 -0.59139053057E+03 -0.10788003003E+04  0.15698101089E+04  0.12699999809E+01 0. -1.
       -4    1    3    3    0  502  0.97506375047E+03  0.59139053057E+03  0.31554600006E+02  0.11408283757E+04  0.12699999809E+01 0.  1.
</event>
<event>
 5   0  0.3873231E-07  0.2498821E+04  0.7818609E-02  0.8403406E-01
        1   -1    0    0  501    0  0.00000000000E+00  0.00000000000E+00  0.65913808359E+03  0.65913808361E+03  0.50400001928E-02 0. -1.
       -1   -1    0    0    0  501  0.00000000000E+00  0.00000000000E+00 -0.23682851165E+04  0.23682851166E+04  0.50400001928E-02 0.  1.
    10030    2    1    2    0    0  0.00000000000E+00  0.00000000000E+00 -0.17091470330E+04  0.30274232002E+04  0.24988212526E+04 0.  0.
        2    1    3    3  502    0 -0.24177659418E+03  0.89958844300E+03 -0.18633668064E+04  0.20832309386E+04  0.25500000920E-02 0.  1.
       -2    1    3    3    0  502  0.24177659418E+03 -0.89958844300E+03  0.15421977347E+03  0.94419226157E+03  0.25500000920E-02 0. -1.
</event>
<event>
 5   0  0.9251138E-07  0.2492138E+04  0.7818609E-02  0.8405792E-01
       -2   -1    0    0    0  501  0.00000000000E+00  0.00000000000E+00  0.86032108023E+03  0.86032108024E+03  0.25500000920E-02 0.  1.
        2   -1    0    0  501    0  0.00000000000E+00  0.00000000000E+00 -0.18047779898E+04  0.18047779898E+04  0.25500000920E-02 0. -1.
    10030    2    1    2    0    0  0.00000000000E+00  0.00000000000E+00 -0.94445690960E+03  0.26650990701E+04  0.24921384791E+04 0.  0.
        5    1    3    3  502    0  0.83710375018E+03  0.89352392820E+03 -0.71967155312E+03  0.14202383368E+04  0.46999998093E+01 0. -1.
       -5    1    3    3    0  502 -0.83710375018E+03 -0.89352392820E+03 -0.22478535647E+03  0.12448607333E+04  0.46999998093E+01 0.  1.
</event>
<event>
 5   0  0.3972587E-07  0.2499552E+04  0.7818609E-02  0.8403145E-01
       -1   -1    0    0    0  501  0.00000000000E+00  0.00000000000E+00  0.19113908972E+04  0.19113908972E+04  0.50400001928E-02 0.  1.
        1   -1    0    0  501    0  0.00000000000E+00  0.00000000000E+00 -0.81717428055E+03  0.81717428056E+03  0.50400001928E-02 0. -1.
    10030    2    1    2    0    0  0.00000000000E+00  0.00000000000E+00  0.10942166166E+04  0.27285651777E+04  0.24995515448E+04 0.  0.
        3    1    3    3  502    0  0.29987677985E+03 -0.58651118117E+03 -0.61228357196E+03  0.89934010887E+03  0.10100000352E+00 0. -1.
       -3    1    3    3    0  502 -0.29987677985E+03  0.58651118117E+03  0.17065001886E+04  0.18292250689E+04  0.10100000352E+00 0.  1.
</event>
<event>
 5   0  0.8997210E-07  0.2503631E+04  0.7818609E-02  0.8401693E-01
       -2   -1    0    0    0  501  0.00000000000E+00  0.00000000000E+00  0.11771745325E+04  0.11771745326E+04  0.25500000920E-02 0. -1.
        2   -1    0    0  501    0  0.00000000000E+00  0.00000000000E+00 -0.13311889053E+04  0.13311889053E+04  0.25500000920E-02 0.  1.
    10030    2    1    2    0    0  0.00000000000E+00  0.00000000000E+00 -0.15401437273E+03  0.25083634378E+04  0.25036307054E+04 0.  0.
        1    1    3    3  502    0 -0.11219414375E+04 -0.12395555802E+03 -0.61925492616E+03  0.12874759155E+04  0.50400001928E-02 0.  1.
       -1    1    3    3    0  502  0.11219414375E+04  0.12395555802E+03  0.46524055343E+03  0.12208875223E+04  0.50400001928E-02 0. -1.
</event>
<event>
 5   0  0.3991066E-07  0.2500527E+04  0.7818609E-02  0.8402798E-01
        1   -1    0    0  501    0  0.00000000000E+00  0.00000000000E+00  0.19952226064E+04  0.19952226064E+04  0.50400001928E-02 0. -1.
       -1   -1    0    0    0  501  0.00000000000E+00  0.00000000000E+00 -0.78345072607E+03  0.78345072608E+03  0.50400001928E-02 0.  1.
    10030    2    1    2    0    0  0.00000000000E+00  0.00000000000E+00  0.12117718803E+04  0.27786733324E+04  0.25005268242E+04 0.  0.
        1    1    3    3  502    0  0.30993456398E+03  0.65927366005E+03  0.17350110030E+04  0.18817450341E+04  0.50400001928E-02 0. -1.
       -1    1    3    3    0  502 -0.30993456398E+03 -0.65927366005E+03 -0.52323912273E+03  0.89692829834E+03  0.50400001928E-02 0.  1.
</event>
<event>
 5   0  0.8997210E-07  0.2499950E+04  0.7818609E-02  0.8403003E-01
        2   -1    0    0  501    0  0.00000000000E+00  0.00000000000E+00  0.15539077394E+04  0.15539077394E+04  0.25500000920E-02 0.  1.
       -2   -1    0    0    0  501  0.00000000000E+00  0.00000000000E+00 -0.10054892188E+04  0.10054892188E+04  0.25500000920E-02 0. -1.
    10030    2    1    2    0    0  0.00000000000E+00  0.00000000000E+00  0.54841852059E+03  0.25593969582E+04  0.24999499827E+04 0.  0.
        1    1    3    3  502    0 -0.59460417193E+03  0.96330940817E+03  0.81682998606E+03  0.13959693275E+04  0.50400001928E-02 0.  1.
       -1    1    3    3    0  502  0.59460417193E+03 -0.96330940817E+03 -0.26841146547E+03  0.11634276307E+04  0.50400001928E-02 0. -1.
</event>
<event>
 5   0  0.8997210E-07  0.2500965E+04  0.7818609E-02  0.8402642E-01
       -2   -1    0    0    0  501  0.00000000000E+00  0.00000000000E+00  0.10996482832E+04  0.10996482832E+04  0.25500000920E-02 0.  1.
        2   -1    0    0  501    0  0.00000000000E+00  0.00000000000E+00 -0.14220057572E+04  0.14220057572E+04  0.25500000920E-02 0. -1.
    10030    2    1    2    0    0  0.00000000000E+00  0.00000000000E+00 -0.32235747402E+03  0.25216540404E+04  0.25009647655E+04 0.  0.
        1    1    3    3  502    0 -0.11113645834E+04 -0.44734059178E+03 -0.52255878056E+03  0.13070243003E+04  0.50400001928E-02 0.  1.
       -1    1    3    3    0  502  0.11113645834E+04  0.44734059178E+03  0.20020130653E+03  0.12146297401E+04  0.50400001928E-02 0. -1.
</event>
<event>
 5   0  0.9251138E-07  0.2498462E+04  0.7818609E-02  0.8403534E-01
        2   -1    0    0  501    0  0.00000000000E+00  0.00000000000E+00  0.13090885386E+04  0.13090885386E+04  0.25500000920E-02 0. -1.
       -2   -1    0    0    0  501  0.00000000000E+00  0.00000000000E+00 -0.11921105567E+04  0.11921105567E+04  0.25500000920E-02 0.  1.
    10030    2    1    2    0    0  0.00000000000E+00  0.00000000000E+00  0.11697798186E+03  0.25011990952E+04  0.24984621402E+04 0.  0.
        5    1    3    3  502    0  0.57499444980E+03 -0.75009473903E+03  0.87626538326E+03  0.12888459360E+04  0.46999998093E+01 0. -1.
       -5    1    3    3    0  502 -0.57499444980E+03  0.75009473903E+03 -0.75928740140E+03  0.12123531593E+04  0.46999998093E+01 0.  1.
</event>
<event>
 5   0  0.9768582E-07  0.2502030E+04  0.7818609E-02  0.8402263E-01
       -2   -1    0    0    0  501  0.00000000000E+00  0.00000000000E+00  0.89244151051E+03  0.89244151052E+03  0.25500000920E-02 0. -1.
        2   -1    0    0  501    0  0.00000000000E+00  0.00000000000E+00 -0.17536589816E+04  0.17536589816E+04  0.25500000920E-02 0.  1.
    10030    2    1    2    0    0  0.00000000000E+00  0.00000000000E+00 -0.86121747110E+03  0.26461004921E+04  0.25020296325E+04 0.  0.
        3    1    3    3  502    0  0.10273366402E+04 -0.70994727862E+03 -0.35152065382E+03  0.12973097128E+04  0.10100000352E+00 0.  1.
       -3    1    3    3    0  502 -0.10273366402E+04  0.70994727862E+03 -0.50969681728E+03  0.13487907793E+04  0.10100000352E+00 0. -1.
</event>
<event>
 5   0  0.3873231E-07  0.2499587E+04  0.7818609E-02  0.8403133E-01
        1   -1    0    0  501    0  0.00000000000E+00  0.00000000000E+00  0.16787465181E+04  0.16787465181E+04  0.50400001928E-02 0. -1.
       -1   -1    0    0    0  501  0.00000000000E+00  0.00000000000E+00 -0.93044670090E+03  0.93044670092E+03  0.50400001928E-02 0.  1.
    10030    2    1    2    0    0  0.00000000000E+00  0.00000000000E+00  0.74829981723E+03  0.26091932191E+04  0.24995872935E+04 0.  0.
        2    1    3    3  502    0 -0.12044053673E+04  0.36625252649E+02  0.72043505815E+03  0.14039089610E+04  0.25500000920E-02 0. -1.
       -2    1    3    3    0  502  0.12044053673E+04 -0.36625252649E+02  0.27864759085E+02  0.12052842580E+04  0.25500000920E-02 0.  1.
</event>
<event>
 5   0  0.3972587E-07  0.2499884E+04  0.7818609E-02  0.8403027E-01
        1   -1    0    0  501    0  0.00000000000E+00  0.00000000000E+00  0.17401613027E+04  0.17401613027E+04  0.50400001928E-02 0.  1.
       -1   -1    0    0    0  501  0.00000000000E+00  0.00000000000E+00 -0.89782195671E+03  0.89782195672E+03  0.50400001928E-02 0. -1.
    10030    2    1    2    0    0  0.00000000000E+00  0.00000000000E+00  0.84233934600E+03  0.26379832594E+04  0.24998840180E+04 0.  0.
        3    1    3    3  502    0 -0.54690267767E+03 -0.33691053510E+03  0.15526648504E+04  0.16802914615E+04  0.10100000352E+00 0.  1.
       -3    1    3    3    0  502  0.54690267767E+03  0.33691053510E+03 -0.71032550442E+03  0.95769179798E+03  0.10100000352E+00 0. -1.
</event>
<event>
 5   0  0.3214375E-07  0.2501575E+04  0.7818609E-02  0.8402425E-01
        3   -1    0    0  501    0  0.00000000000E+00  0.00000000000E+00  0.14856287539E+04  0.14856287573E+04  0.10100000352E+00 0. -1.
       -3   -1    0    0    0  501  0.00000000000E+00  0.00000000000E+00 -0.10530687075E+04  0.10530687124E+04  0.10100000352E+00 0.  1.
    10030    2    1    2    0    0  0.00000000000E+00  0.00000000000E+00  0.43256004634E+03  0.25386974697E+04  0.25015748338E+04 0.  0.
        3    1    3    3  502    0 -0.61980001866E+03  0.66486417129E+03  0.10882586947E+04  0.14179222215E+04  0.10100000352E+00 0. -1.
       -3    1    3    3    0  502  0.61980001866E+03 -0.66486417129E+03 -0.65569864833E+03  0.11207752482E+04  0.10100000352E+00 0.  1.
</event>
<event>
 5   0  0.3873231E-07  0.2500789E+04  0.7818609E-02  0.8402704E-01
       -1   -1    0    0    0  501  0.00000000000E+00  0.00000000000E+00  0.14575435253E+04  0.14575435253E+04  0.50400001928E-02 0.  1.
        1   -1    0    0  501    0  0.00000000000E+00  0.00000000000E+00 -0.10726861288E+04  0.10726861288E+04  0.50400001928E-02 0. -1.
    10030    2    1    2    0    0  0.00000000000E+00  0.00000000000E+00  0.38485739653E+03  0.25302296541E+04  0.25007892528E+04 0.  0.
        2    1    3    3  502    0 -0.12499645998E+04 -0.27844928172E+02  0.20994963512E+03  0.12677798271E+04  0.25500000920E-02 0.  1.
       -2    1    3    3    0  502  0.12499645998E+04  0.27844928172E+02  0.17490776141E+03  0.12624498270E+04  0.25500000920E-02 0. -1.
</event>
<event>
 5   0  0.3991066E-07  0.2499873E+04  0.7818609E-02  0.8403031E-01
       -1   -1    0    0    0  501  0.00000000000E+00  0.00000000000E+00  0.13524092096E+04  0.13524092096E+04  0.50400001928E-02 0.  1.
        1   -1    0    0  501    0  0.00000000000E+00  0.00000000000E+00 -0.11552279374E+04  0.11552279374E+04  0.50400001928E-02 0. -1.
    10030    2    1    2    0    0  0.00000000000E+00  0.00000000000E+00  0.19718127218E+03  0.25076371470E+04  0.24998727181E+04 0.  0.
        1    1    3    3  502    0 -0.70467680141E+03 -0.66446273964E+03 -0.69396511407E+03  0.11914980933E+04  0.50400001928E-02 0. -1.
       -1    1    3    3    0  502  0.70467680141E+03  0.66446273964E+03  0.89114638625E+03  0.13161390537E+04  0.50400001928E-02 0.  1.
</event>
<event>
 5   0  0.8997210E-07  0.2500766E+04  0.7818609E-02  0.8402713E-01
        2   -1    0    0  501    0  0.00000000000E+00  0.00000000000E+00  0.14096866165E+04  0.14096866165E+04  0.25500000920E-02 0. -1.
       -2   -1    0    0    0  501  0.00000000000E+00  0.00000000000E+00 -0.11090817659E+04  0.11090817659E+04  0.25500000920E-02 0.  1.
    10030    2    1    2    0    0  0.00000000000E+00  0.00000000000E+00  0.30060485065E+03  0.25187683824E+04  0.25007660602E+04 0.  0.
        1    1    3    3  502    0  0.12943978972E+03  0.13569980775E+03  0.13954414843E+04  0.14079865174E+04  0.50400001928E-02 0. -1.
       -1    1    3    3    0  502 -0.12943978972E+03 -0.13569980775E+03 -0.10948366337E+04  0.11107818649E+04  0.50400001928E-02 0.  1.
</event>
<event>
 5   0  0.3972587E-07  0.2485828E+04  0.7818609E-02  0.8408052E-01
       -1   -1    0    0    0  501  0.00000000000E+00  0.00000000000E+00  0.10873597956E+04  0.10873597956E+04  0.50400001928E-02 0. -1.
        1   -1    0    0  501    0  0.00000000000E+00  0.00000000000E+00 -0.14207213637E+04  0.14207213637E+04  0.50400001928E-02 0.  1.
    10030    2    1    2    0    0  0.00000000000E+00  0.00000000000E+00 -0.33336156805E+03  0.25080811593E+04  0.24858280646E+04 0.  0.
        3    1    3    3  502    0 -0.21675171498E+03  0.20910140538E+03  0.10499875431E+04  0.10923271280E+04  0.10100000352E+00 0. -1.
       -3    1    3    3    0  502  0.21675171498E+03 -0.20910140538E+03 -0.13833491112E+04  0.14157540313E+04  0.10100000352E+00 0.  1.
</event>
<event>
 5   0  0.9508784E-07  0.2500147E+04  0.7818609E-02  0.8402933E-01
       -2   -1    0    0    0  501  0.00000000000E+00  0.00000000000E+00  0.68877861384E+03  0.68877861384E+03  0.25500000920E-02 0. -1.
        2   -1    0    0  501    0  0.00000000000E+00  0.00000000000E+00 -0.22687747231E+04  0.22687747231E+04  0.25500000920E-02 0.  1.
    10030    2    1    2    0    0  0.00000000000E+00  0.00000000000E+00 -0.15799961093E+04  0.29575533370E+04  0.25001468028E+04 0.  0.
        2    1    3    3  502    0  0.41166827873E+03 -0.11394637739E+03 -0.21797671282E+04  0.22212247257E+04  0.25500000920E-02 0.  1.
       -2    1    3    3    0  502 -0.41166827873E+03  0.11394637739E+03  0.59977101894E+03  0.73632861129E+03  0.25500000920E-02 0. -1.
</event>
<event>
 5   0  0.3837524E-07  0.2498525E+04  0.7818609E-02  0.8403511E-01
       -1   -1    0    0    0  501  0.00000000000E+00  0.00000000000E+00  0.18249787782E+04  0.18249787782E+04  0.50400001928E-02 0. -1.
        1   -1    0    0  501    0  0.00000000000E+00  0.00000000000E+00 -0.85516431366E+03  0.85516431368E+03  0.50400001928E-02 0.  1.
    10030    2    1    2    0    0  0.00000000000E+00  0.00000000000E+00  0.96981446458E+03  0.26801430919E+04  0.24985249443E+04 0.  0.
        5    1    3    3  502    0  0.15220324738E+02 -0.97467870127E+03 -0.35316822271E+03  0.10368124770E+04  0.46999998093E+01 0.  1.
       -5    1    3    3    0  502 -0.15220324738E+02  0.97467870127E+03  0.13229826873E+04  0.16433306149E+04  0.46999998093E+01 0. -1.
</event>
<event>
 5   0  0.9261602E-07  0.2511920E+04  0.7818609E-02  0.8398751E-01
        2   -1    0    0  501    0  0.00000000000E+00  0.00000000000E+00  0.18001815203E+04  0.18001815203E+04  0.25500000920E-02 0.  1.
       -2   -1    0    0    0  501  0.00000000000E+00  0.00000000000E+00 -0.87626442815E+03  0.87626442816E+03  0.25500000920E-02 0. -1.
    10030    2    1    2    0    0  0.00000000000E+00  0.00000000000E+00  0.92391709215E+03  0.26764459485E+04  0.25119196090E+04 0.  0.
        4    1    3    3  502    0  0.31383108912E+03 -0.12081581256E+04  0.31394473606E+03  0.12871281673E+04  0.12699999809E+01 0. -1.
       -4    1    3    3    0  502 -0.31383108912E+03  0.12081581256E+04  0.60997235610E+03  0.13893177811E+04  0.12699999809E+01 0.  1.
</event>
<event>
 5   0  0.8997210E-07  0.2499301E+04  0.7818609E-02  0.8403235E-01
        2   -1    0    0  501    0  0.00000000000E+00  0.00000000000E+00  0.30989500879E+04  0.30989500879E+04  0.25500000920E-02 0.  1.
       -2   -1    0    0    0  501  0.00000000000E+00  0.00000000000E+00 -0.50392116247E+03  0.50392116248E+03  0.25500000920E-02 0. -1.
    10030    2    1    2    0    0  0.00000000000E+00  0.00000000000E+00  0.25950289255E+04  0.36028712504E+04  0.24993011269E+04 0.  0.
        1    1    3    3  502    0  0.32899355703E+02 -0.12491983687E+04  0.12875689422E+04  0.17942721959E+04  0.50400001928E-02 0. -1.
       -1    1    3    3    0  502 -0.32899355703E+02  0.12491983687E+04  0.13074599832E+04  0.18085990545E+04  0.50400001928E-02 0.  1.
</event>
<event>
 5   0  0.8997210E-07  0.2497774E+04  0.7818609E-02  0.8403779E-01
       -2   -1    0    0    0  501  0.00000000000E+00  0.00000000000E+00  0.82439182958E+03  0.82439182959E+03  0.25500000920E-02 0.  1.
        2   -1    0    0  501    0  0.00000000000E+00  0.00000000000E+00 -0.18919625377E+04  0.18919625377E+04  0.25500000920E-02 0. -1.
    10030    2    1    2    0    0  0.00000000000E+00  0.00000000000E+00 -0.10675707081E+04  0.27163543673E+04  0.24977737751E+04 0.  0.
        1    1    3    3  502    0 -0.85526165838E+03 -0.68422883089E+03  0.11879039607E+03  0.11017044774E+04  0.50400001928E-02 0.  1.
       -1    1    3    3    0  502  0.85526165838E+03  0.68422883089E+03 -0.11863611042E+04  0.16146498898E+04  0.50400001928E-02 0. -1.
</event>
<event>
 5   0  0.3805418E-07  0.2500435E+04  0.7818609E-02  0.8402830E-01
        1   -1    0    0  501    0  0.00000000000E+00  0.00000000000E+00  0.17799431318E+04  0.17799431319E+04  0.50400001928E-02 0.  1.
       -1   -1    0    0    0  501  0.00000000000E+00  0.00000000000E+00 -0.87814276050E+03  0.87814276052E+03  0.50400001928E-02 0. -1.
    10030    2    1    2    0    0  0.00000000000E+00  0.00000000000E+00  0.90180037135E+03  0.26580858924E+04  0.25004353024E+04 0.  0.
        4    1    3    3  502    0 -0.90863470519E+03  0.84930328004E+03  0.31597467761E+03  0.12832671969E+04  0.12699999809E+01 0. -1.
       -4    1    3    3    0  502  0.90863470519E+03 -0.84930328004E+03  0.58582569374E+03  0.13748186954E+04  0.12699999809E+01 0.  1.
</event>
<event>
 5   0  0.9261602E-07  0.2500668E+04  0.7818609E-02  0.8402748E-01
        2   -1    0    0  501    0  0.00000000000E+00  0.00000000000E+00  0.18024491901E+04  0.18024491901E+04  0.25500000920E-02 0.  1.
       -2   -1    0    0    0  501  0.00000000000E+00  0.00000000000E+00 -0.86733935143E+03  0.86733935144E+03  0.25500000920E-02 0. -1.
    10030    2    1    2    0    0  0.00000000000E+00  0.00000000000E+00  0.93510983864E+03  0.26697885415E+04  0.25006680000E+04 0.  0.
        4    1    3    3  502    0  0.25996656291E+03 -0.65442682169E+03  0.15706170456E+04  0.17212485572E+04  0.12699999809E+01 0.  1.
       -4    1    3    3    0  502 -0.25996656291E+03  0.65442682169E+03 -0.63550720699E+03  0.94853998430E+03  0.12699999809E+01 0. -1.
</event>
<event>
 5   0  0.9261602E-07  0.2499277E+04  0.7818609E-02  0.8403243E-01
        2   -1    0    0  501    0  0.00000000000E+00  0.00000000000E+00  0.13942657974E+04  0.13942657974E+04  0.25500000920E-02 0.  1.
       -2   -1    0    0    0  501  0.00000000000E+00  0.00000000000E+00 -0.11200135642E+04  0.11200135642E+04  0.25500000920E-02 0. -1.
    10030    2    1    2    0    0  0.00000000000E+00  0.00000000000E+00  0.27425223316E+03  0.25142793616E+04  0.24992771797E+04 0.  0.
        4    1    3    3  502    0  0.11368516251E+04 -0.42893766153E+03  0.43072700357E+03  0.12891650397E+04  0.12699999809E+01 0. -1.
       -4    1    3    3    0  502 -0.11368516251E+04  0.42893766153E+03 -0.15647477040E+03  0.12251143219E+04  0.12699999809E+01 0.  1.
</event>
<event>
 5   0  0.3873231E-07  0.2501331E+04  0.7818609E-02  0.8402512E-01
       -1   -1    0    0    0  501  0.00000000000E+00  0.00000000000E+00  0.11161973322E+04  0.11161973322E+04  0.50400001928E-02 0.  1.
        1   -1    0    0  501    0  0.00000000000E+00  0.00000000000E+00 -0.14013328815E+04  0.14013328815E+04  0.50400001928E-02 0. -1.
    10030    2    1    2    0    0  0.00000000000E+00  0.00000000000E+00 -0.28513554931E+03  0.25175302137E+04  0.25013308649E+04 0.  0.
        2    1    3    3  502    0  0.33132093239E+03 -0.65603564927E+03  0.87591844778E+03  0.11434113260E+04  0.25500000920E-02 0.  1.
       -2    1    3    3    0  502 -0.33132093239E+03  0.65603564927E+03 -0.11610539971E+04  0.13741188877E+04  0.25500000920E-02 0. -1.
</event>
<event>
 5   0  0.8997210E-07  0.2500055E+04  0.7818609E-02  0.8402966E-01
        2   -1    0    0  501    0  0.00000000000E+00  0.00000000000E+00  0.64219075301E+03  0.64219075302E+03  0.25500000920E-02 0. -1.
       -2   -1    0    0    0  501  0.00000000000E+00  0.00000000000E+00 -0.24331857030E+04  0.24331857030E+04  0.25500000920E-02 0.  1.
    10030    2    1    2    0    0  0.00000000000E+00  0.00000000000E+00 -0.17909949499E+04  0.30753764560E+04  0.25000554864E+04 0.  0.
        1    1    3    3  502    0 -0.80571777760E+03  0.80868913465E+03 -0.15220277801E+04  0.19025582296E+04  0.50400001928E-02 0.  1.
       -1    1    3    3    0  502  0.80571777760E+03 -0.80868913465E+03 -0.26896716986E+03  0.11728182264E+04  0.50400001928E-02 0. -1.
</event>
<event>
 5   0  0.3837524E-07  0.2504722E+04  0.7818609E-02  0.8401305E-01
        1   -1    0    0  501    0  0.00000000000E+00  0.00000000000E+00  0.10313945737E+04  0.10313945738E+04  0.50400001928E-02 0. -1.
       -1   -1    0    0    0  501  0.00000000000E+00  0.00000000000E+00 -0.15206677109E+04  0.15206677109E+04  0.50400001928E-02 0.  1.
    10030    2    1    2    0    0  0.00000000000E+00  0.00000000000E+00 -0.48927313716E+03  0.25520622847E+04  0.25047222804E+04 0.  0.
        5    1    3    3  502    0  0.11769557830E+04  0.85726658263E+02 -0.67186130724E+03  0.13579372891E+04  0.46999998093E+01 0.  1.
       -5    1    3    3    0  502 -0.11769557830E+04 -0.85726658263E+02  0.18258817009E+03  0.11941249955E+04  0.46999998093E+01 0. -1.
</event>
<event>
 5   0  0.3837524E-07  0.2499594E+04  0.7818609E-02  0.8403130E-01
       -1   -1    0    0    0  501  0.00000000000E+00  0.00000000000E+00  0.10565794287E+04  0.10565794287E+04  0.50400001928E-02 0.  1.
        1   -1    0    0  501    0  0.00000000000E+00  0.00000000000E+00 -0.14783482878E+04  0.14783482878E+04  0.50400001928E-02 0. -1.
    10030    2    1    2    0    0  0.00000000000E+00  0.00000000000E+00 -0.42176885908E+03  0.25349277165E+04  0.24995938785E+04 0.  0.
        5    1    3    3  502    0  0.16838567833E+03  0.93324370278E+03 -0.10364388076E+04  0.14048220661E+04  0.46999998093E+01 0. -1.
       -5    1    3    3    0  502 -0.16838567833E+03 -0.93324370278E+03  0.61466994856E+03  0.11301056504E+04  0.46999998093E+01 0.  1.
</event>
<event>
 5   0  0.3837524E-07  0.2500473E+04  0.7818609E-02  0.8402817E-01
       -1   -1    0    0    0  501  0.00000000000E+00  0.00000000000E+00  0.91656319584E+03  0.91656319586E+03  0.50400001928E-02 0.  1.
        1   -1    0    0  501    0  0.00000000000E+00  0.00000000000E+00 -0.17053836482E+04  0.17053836482E+04  0.50400001928E-02 0. -1.
    10030    2    1    2    0    0  0.00000000000E+00  0.00000000000E+00 -0.78882045233E+03  0.26219468440E+04  0.25004734646E+04 0.  0.
        5    1    3    3  502    0 -0.42627474598E+02 -0.12494797811E+04 -0.38677847269E+03  0.13086773864E+04  0.46999998093E+01 0.  1.
       -5    1    3    3    0  502  0.42627474598E+02  0.12494797811E+04 -0.40204197964E+03  0.13132694576E+04  0.46999998093E+01 0. -1.
</event>
<event>
 5   0  0.3873231E-07  0.2498328E+04  0.7818609E-02  0.8403581E-01
        1   -1    0    0  501    0  0.00000000000E+00  0.00000000000E+00  0.16503850775E+04  0.16503850775E+04  0.50400001928E-02 0. -1.
       -1   -1    0    0    0  501  0.00000000000E+00  0.00000000000E+00 -0.94548303545E+03  0.94548303546E+03  0.50400001928E-02 0.  1.
    10030    2    1    2    0    0  0.00000000000E+00  0.00000000000E+00  0.70490204208E+03  0.25958681130E+04  0.24983283153E+04 0.  0.
        2    1    3    3  502    0  0.71233803152E+03 -0.45151704897E+02 -0.71273022038E+03  0.10086865294E+04  0.25500000920E-02 0.  1.
       -2    1    3    3    0  502 -0.71233803152E+03  0.45151704897E+02  0.14176322625E+04  0.15871815836E+04  0.25500000920E-02 0. -1.
</event>
<event>
 5   0  0.9768582E-07  0.2499681E+04  0.7818609E-02  0.8403099E-01
       -2   -1    0    0    0  501  0.00000000000E+00  0.00000000000E+00  0.12115402969E+04  0.12115402969E+04  0.25500000920E-02 0. -1.
        2   -1    0    0  501    0  0.00000000000E+00  0.00000000000E+00 -0.12893511835E+04  0.12893511835E+04  0.25500000920E-02 0.  1.
    10030    2    1    2    0    0  0.00000000000E+00  0.00000000000E+00 -0.77810886583E+02  0.25008914803E+04  0.24996807121E+04 0.  0.
        3    1    3    3  502    0  0.28252118903E+03  0.11911757103E+04  0.21297652655E+03  0.12426088710E+04  0.10100000352E+00 0. -1.
       -3    1    3    3    0  502 -0.28252118903E+03 -0.11911757103E+04 -0.29078741313E+03  0.12582826094E+04  0.10100000352E+00 0.  1.
</event>
<event>
 5   0  0.9251138E-07  0.2499390E+04  0.7818609E-02  0.8403203E-01
       -2   -1    0    0    0  501  0.00000000000E+00  0.00000000000E+00  0.16842386030E+04  0.16842386030E+04  0.25500000920E-02 0. -1.
        2   -1    0    0  501    0  0.00000000000E+00  0.00000000000E+00 -0.92726604188E+03  0.92726604188E+03  0.25500000920E-02 0.  1.
    10030    2    1    2    0    0  0.00000000000E+00  0.00000000000E+00  0.75697256115E+03  0.26115046449E+04  0.24993897359E+04 0.  0.
        5    1    3    3  502    0 -0.11730652351E+04 -0.98602933319E+01  0.82854667900E+03  0.14362071440E+04  0.46999998093E+01 0. -1.
       -5    1    3    3    0  502  0.11730652351E+04  0.98602933319E+01 -0.71574117853E+02  0.11752975009E+04  0.46999998093E+01 0.  1.
</event>
<event>
 5   0  0.9508784E-07  0.2500160E+04  0.7818609E-02  0.8402929E-01
        2   -1    0    0  501    0  0.00000000000E+00  0.00000000000E+00  0.13784512575E+04  0.13784512575E+04  0.25500000920E-02 0.  1.
       -2   -1    0    0    0  501  0.00000000000E+00  0.00000000000E+00 -0.11336635572E+04  0.11336635572E+04  0.25500000920E-02 0. -1.
    10030    2    1    2    0    0  0.00000000000E+00  0.00000000000E+00  0.24478770027E+03  0.25121148147E+04  0.25001599597E+04 0.  0.
        2    1    3    3  502    0  0.21809388316E+02 -0.26977369253E+03  0.13486582988E+04  0.13755481458E+04  0.25500000920E-02 0.  1.
       -2    1    3    3    0  502 -0.21809388316E+02  0.26977369253E+03 -0.11038705985E+04  0.11365666689E+04  0.25500000920E-02 0. -1.
</event>
<event>
 5   0  0.3873231E-07  0.2499324E+04  0.7818609E-02  0.8403227E-01
        1   -1    0    0  501    0  0.00000000000E+00  0.00000000000E+00  0.13096839454E+04  0.13096839454E+04  0.50400001928E-02 0. -1.
       -1   -1    0    0    0  501  0.00000000000E+00  0.00000000000E+00 -0.11923903854E+04  0.11923903854E+04  0.50400001928E-02 0.  1.
    10030    2    1    2    0    0  0.00000000000E+00  0.00000000000E+00  0.11729355992E+03  0.25020743308E+04  0.24993235440E+04 0.  0.
        2    1    3    3  502    0 -0.11413711054E+04  0.49678156161E+03 -0.51631730881E+02  0.12458674712E+04  0.25500000920E-02 0.  1.
       -2    1    3    3    0  502  0.11413711054E+04 -0.49678156161E+03  0.16892529081E+03  0.12562068596E+04  0.25500000920E-02 0. -1.
</event>
<event>
 5   0  0.8997210E-07  0.2498699E+04  0.7818609E-02  0.8403449E-01
       -2   -1    0    0    0  501  0.00000000000E+00  0.00000000000E+00  0.76341974142E+03  0.76341974143E+03  0.25500000920E-02 0.  1.
        2   -1    0    0  501    0  0.00000000000E+00  0.00000000000E+00 -0.20445817784E+04  0.20445817784E+04  0.25500000920E-02 0. -1.
    10030    2    1    2    0    0  0.00000000000E+00  0.00000000000E+00 -0.12811620370E+04  0.28080015198E+04  0.24986989355E+04 0.  0.
        1    1    3    3  502    0 -0.95630397932E+03  0.40548555092E+03  0.13957077147E+03  0.10480533541E+04  0.50400001928E-02 0.  1.
       -1    1    3    3    0  502  0.95630397932E+03 -0.40548555092E+03 -0.14207328084E+04  0.17599481657E+04  0.50400001928E-02 0. -1.
</event>
<event>
 5   0  0.3873231E-07  0.2499142E+04  0.7818609E-02  0.8403291E-01
       -1   -1    0    0    0  501  0.00000000000E+00  0.00000000000E+00  0.76076347618E+03  0.76076347620E+03  0.50400001928E-02 0.  1.
        1   -1    0    0  501    0  0.00000000000E+00  0.00000000000E+00 -0.20524478972E+04  0.20524478972E+04  0.50400001928E-02 0. -1.
    10030    2    1    2    0    0  0.00000000000E+00  0.00000000000E+00 -0.12916844210E+04  0.28132113734E+04  0.24991417703E+04 0.  0.
        2    1    3    3  502    0 -0.11019714169E+04 -0.47272868931E+03 -0.25007002830E+03  0.12248871117E+04  0.25500000920E-02 0.  1.
       -2    1    3    3    0  502  0.11019714169E+04  0.47272868931E+03 -0.10416143927E+04  0.15883242618E+04  0.25500000920E-02 0. -1.
</event>
<event>
 5   0  0.3991066E-07  0.2499600E+04  0.7818609E-02  0.8403128E-01
        1   -1    0    0  501    0  0.00000000000E+00  0.00000000000E+00  0.25875841792E+04  0.25875841792E+04  0.50400001928E-02 0. -1.
       -1   -1    0    0    0  501  0.00000000000E+00  0.00000000000E+00 -0.60365176605E+03  0.60365176607E+03  0.50400001928E-02 0.  1.
    10030    2    1    2    0    0  0.00000000000E+00  0.00000000000E+00  0.19839324131E+04  0.31912359452E+04  0.24995997756E+04 0.  0.
        1    1    3    3  502    0  0.84878009078E+03  0.76728752357E+03  0.16339336790E+04  0.19947172867E+04  0.50400001928E-02 0. -1.
       -1    1    3    3    0  502 -0.84878009078E+03 -0.76728752357E+03  0.34999873407E+03  0.11965186585E+04  0.50400001928E-02 0.  1.
</event>
<event>
 5   0  0.3972587E-07  0.2500070E+04  0.7818609E-02  0.8402961E-01
       -1   -1    0    0    0  501  0.00000000000E+00  0.00000000000E+00  0.10685871926E+04  0.10685871927E+04  0.50400001928E-02 0.  1.
        1   -1    0    0  501    0  0.00000000000E+00  0.00000000000E+00 -0.14622926442E+04  0.14622926442E+04  0.50400001928E-02 0. -1.
    10030    2    1    2    0    0  0.00000000000E+00  0.00000000000E+00 -0.39370545159E+03  0.25308798369E+04  0.25000697523E+04 0.  0.
        3    1    3    3  502    0  0.10700200274E+04  0.32507047930E+03 -0.76228195728E+03  0.13533984883E+04  0.10100000352E+00 0. -1.
       -3    1    3    3    0  502 -0.10700200274E+04 -0.32507047930E+03  0.36857650569E+03  0.11774813486E+04  0.10100000352E+00 0.  1.
</event>
<event>
 5   0  0.3873231E-07  0.2499577E+04  0.7818609E-02  0.8403136E-01
       -1   -1    0    0    0  501  0.00000000000E+00  0.00000000000E+00  0.11297688354E+04  0.11297688354E+04  0.50400001928E-02 0.  1.
        1   -1    0    0  501    0  0.00000000000E+00  0.00000000000E+00 -0.13825584572E+04  0.13825584572E+04  0.50400001928E-02 0. -1.
    10030    2    1    2    0    0  0.00000000000E+00  0.00000000000E+00 -0.25278962185E+03  0.25123272926E+04  0.24995771306E+04 0.  0.
        2    1    3    3  502    0  0.11068872577E+04  0.50472891423E+03  0.16145875961E+03  0.12271999060E+04  0.25500000920E-02 0.  1.
       -2    1    3    3    0  502 -0.11068872577E+04 -0.50472891423E+03 -0.41424838145E+03  0.12851273866E+04  0.25500000920E-02 0. -1.
</event>
<event>
 5   0  0.3972587E-07  0.2499377E+04  0.7818609E-02  0.8403207E-01
        1   -1    0    0  501    0  0.00000000000E+00  0.00000000000E+00  0.10663119824E+04  0.10663119825E+04  0.50400001928E-02 0. -1.
       -1   -1    0    0    0  501  0.00000000000E+00  0.00000000000E+00 -0.14646012896E+04  0.14646012897E+04  0.50400001928E-02 0.  1.
    10030    2    1    2    0    0  0.00000000000E+00  0.00000000000E+00 -0.39828930720E+03  0.25309132721E+04  0.24993774462E+04 0.  0.
        3    1    3    3  502    0 -0.31710085987E+03  0.91138436203E+03 -0.10032340132E+04  0.13919960151E+04  0.10100000352E+00 0. -1.
       -3    1    3    3    0  502  0.31710085987E+03 -0.91138436203E+03  0.60494470602E+03  0.11389172570E+04  0.10100000352E+00 0.  1.
</event>
<event>
 5   0  0.3805418E-07  0.2499887E+04  0.7818609E-02  0.8403026E-01
        1   -1    0    0  501    0  0.00000000000E+00  0.00000000000E+00  0.25278687775E+04  0.25278687775E+04  0.50400001928E-02 0.  1.
       -1   -1    0    0    0  501  0.00000000000E+00  0.00000000000E+00 -0.61805360379E+03  0.61805360381E+03  0.50400001928E-02 0. -1.
    10030    2    1    2    0    0  0.00000000000E+00  0.00000000000E+00  0.19098151737E+04  0.31459223813E+04  0.24998867237E+04 0.  0.
        4    1    3    3  502    0 -0.68335082996E+03  0.22724081381E+03  0.22405669820E+04  0.23534546432E+04  0.12699999809E+01 0.  1.
       -4    1    3    3    0  502  0.68335082996E+03 -0.22724081381E+03 -0.33075180828E+03  0.79246773804E+03  0.12699999809E+01 0. -1.
</event>
<event>
 5   0  0.3873231E-07  0.2499375E+04  0.7818609E-02  0.8403208E-01
       -1   -1    0    0    0  501  0.00000000000E+00  0.00000000000E+00  0.52864213183E+03  0.52864213186E+03  0.50400001928E-02 0.  1.
        1   -1    0    0  501    0  0.00000000000E+00  0.00000000000E+00 -0.29542084395E+04  0.29542084395E+04  0.50400001928E-02 0. -1.
    10030    2    1    2    0    0  0.00000000000E+00  0.00000000000E+00 -0.24255663077E+04  0.34828505714E+04  0.24993751598E+04 0.  0.
        2    1    3    3  502    0  0.70324101662E+03  0.98651138402E+03 -0.16399422983E+04  0.20389123032E+04  0.25500000920E-02 0. -1.
       -2    1    3    3    0  502 -0.70324101662E+03 -0.98651138402E+03 -0.78562400936E+03  0.14439382682E+04  0.25500000920E-02 0.  1.
</event>
<event>
 5   0  0.9508784E-07  0.2500240E+04  0.7818609E-02  0.8402900E-01
        2   -1    0    0  501    0  0.00000000000E+00  0.00000000000E+00  0.29177456794E+04  0.29177456794E+04  0.25500000920E-02 0.  1.
       -2   -1    0    0    0  501  0.00000000000E+00  0.00000000000E+00 -0.53561896668E+03  0.53561896669E+03  0.25500000920E-02 0. -1.
    10030    2    1    2    0    0  0.00000000000E+00  0.00000000000E+00  0.23821267127E+04  0.34533646461E+04  0.25002399292E+04 0.  0.
        2    1    3    3  502    0  0.11938498326E+04  0.34542703518E+03  0.10047138457E+04  0.15981386583E+04  0.25500000920E-02 0. -1.
       -2    1    3    3    0  502 -0.11938498326E+04 -0.34542703518E+03  0.13774128670E+04  0.18552259877E+04  0.25500000920E-02 0.  1.
</event>
<event>
 5   0  0.3873231E-07  0.2501241E+04  0.7818609E-02  0.8402543E-01
       -1   -1    0    0    0  501  0.00000000000E+00  0.00000000000E+00  0.11593525115E+04  0.11593525115E+04  0.50400001928E-02 0.  1.
        1   -1    0    0  501    0  0.00000000000E+00  0.00000000000E+00 -0.13490737976E+04  0.13490737976E+04  0.50400001928E-02 0. -1.
    10030    2    1    2    0    0  0.00000000000E+00  0.00000000000E+00 -0.18972128612E+03  0.25084263091E+04  0.25012413681E+04 0.  0.
        2    1    3    3  502    0 -0.89599198387E+03  0.35549675596E+03 -0.89393833737E+03  0.13146502690E+04  0.25500000920E-02 0. -1.
       -2    1    3    3    0  502  0.89599198387E+03 -0.35549675596E+03  0.70421705125E+03  0.11937760401E+04  0.25500000920E-02 0.  1.
</event>
<event>
 5   0  0.3837524E-07  0.2508875E+04  0.7818609E-02  0.8399831E-01
        1   -1    0    0  501    0  0.00000000000E+00  0.00000000000E+00  0.12554291143E+04  0.12554291143E+04  0.50400001928E-02 0.  1.
       -1   -1    0    0    0  501  0.00000000000E+00  0.00000000000E+00 -0.12534468827E+04  0.12534468827E+04  0.50400001928E-02 0. -1.
    10030    2    1    2    0    0  0.00000000000E+00  0.00000000000E+00  0.19822315343E+01  0.25088759970E+04  0.25088752139E+04 0.  0.
        5    1    3    3  502    0  0.66399594125E+03  0.77672247850E+03 -0.72661010168E+03  0.12538631299E+04  0.46999998093E+01 0. -1.
       -5    1    3    3    0  502 -0.66399594125E+03 -0.77672247850E+03  0.72859233322E+03  0.12550128671E+04  0.46999998093E+01 0.  1.
</event>
<event>
 5   0  0.3214375E-07  0.2498524E+04  0.7818609E-02  0.8403512E-01
       -3   -1    0    0    0  501  0.00000000000E+00  0.00000000000E+00  0.12511209770E+04  0.12511209810E+04  0.10100000352E+00 0.  1.
        3   -1    0    0  501    0  0.00000000000E+00  0.00000000000E+00 -0.12474056523E+04  0.12474056564E+04  0.10100000352E+00 0. -1.
    10030    2    1    2    0    0  0.00000000000E+00  0.00000000000E+00  0.37153246307E+01  0.24985266375E+04  0.24985238751E+04 0.  0.
        3    1    3    3  502    0 -0.74833172804E+03  0.54795155198E+03  0.83876007516E+03  0.12505077978E+04  0.10100000352E+00 0.  1.
       -3    1    3    3    0  502  0.74833172804E+03 -0.54795155198E+03 -0.83504475053E+03  0.12480188396E+04  0.10100000352E+00 0. -1.
</event>
<event>
 5   0  0.9768582E-07  0.2500451E+04  0.7818609E-02  0.8402825E-01
       -2   -1    0    0    0  501  0.00000000000E+00  0.00000000000E+00  0.10192129334E+04  0.10192129334E+04  0.25500000920E-02 0. -1.
        2   -1    0    0  501    0  0.00000000000E+00  0.00000000000E+00 -0.15335991580E+04  0.15335991580E+04  0.25500000920E-02 0.  1.
    10030    2    1    2    0    0  0.00000000000E+00  0.00000000000E+00 -0.51438622458E+03  0.25528120915E+04  0.25004512365E+04 0.  0.
        3    1    3    3  502    0 -0.20696356278E+03 -0.12301559627E+04 -0.17210227944E+03  0.12592604233E+04  0.10100000352E+00 0. -1.
       -3    1    3    3    0  502  0.20696356278E+03  0.12301559627E+04 -0.34228394514E+03  0.12935516682E+04  0.10100000352E+00 0.  1.
</event>
<event>
 5   0  0.9768582E-07  0.2498812E+04  0.7818609E-02  0.8403409E-01
        2   -1    0    0  501    0  0.00000000000E+00  0.00000000000E+00  0.13768821578E+04  0.13768821578E+04  0.25500000920E-02 0. -1.
       -2   -1    0    0    0  501  0.00000000000E+00  0.00000000000E+00 -0.11337321262E+04  0.11337321262E+04  0.25500000920E-02 0.  1.
    10030    2    1    2    0    0  0.00000000000E+00  0.00000000000E+00  0.24315003151E+03  0.25106142840E+04  0.24988121468E+04 0.  0.
        3    1    3    3  502    0 -0.12058406517E+04  0.21363667210E+03  0.37037987985E+03  0.12794035996E+04  0.10100000352E+00 0. -1.
       -3    1    3    3    0  502  0.12058406517E+04 -0.21363667210E+03 -0.12722984834E+03  0.12312106844E+04  0.10100000352E+00 0.  1.
</event>
<event>
 5   0  0.9261602E-07  0.2499699E+04  0.7818609E-02  0.8403093E-01
        2   -1    0    0  501    0  0.00000000000E+00  0.00000000000E+00  0.10428212908E+04  0.10428212908E+04  0.25500000920E-02 0. -1.
       -2   -1    0    0    0  501  0.00000000000E+00  0.00000000000E+00 -0.14979780681E+04  0.14979780681E+04  0.25500000920E-02 0.  1.
    10030    2    1    2    0    0  0.00000000000E+00  0.00000000000E+00 -0.45515677736E+03  0.25407993589E+04  0.24996987199E+04 0.  0.
        4    1    3    3  502    0  0.23227620203E+03  0.23093515430E+03 -0.14535773453E+04  0.14900241579E+04  0.12699999809E+01 0.  1.
       -4    1    3    3    0  502 -0.23227620203E+03 -0.23093515430E+03  0.99842056795E+03  0.10507752010E+04  0.12699999809E+01 0. -1.
</event>
<event>
 5   0  0.9768582E-07  0.2497539E+04  0.7818609E-02  0.8403863E-01
       -2   -1    0    0    0  501  0.00000000000E+00  0.00000000000E+00  0.11836273685E+04  0.11836273685E+04  0.25500000920E-02 0.  1.
        2   -1    0    0  501    0  0.00000000000E+00  0.00000000000E+00 -0.13174971699E+04  0.13174971699E+04  0.25500000920E-02 0. -1.
    10030    2    1    2    0    0  0.00000000000E+00  0.00000000000E+00 -0.13386980139E+03  0.25011245383E+04  0.24975393556E+04 0.  0.
        3    1    3    3  502    0  0.88709487977E+03 -0.31131652607E+03  0.75617586257E+03  0.12065062165E+04  0.10100000352E+00 0.  1.
       -3    1    3    3    0  502 -0.88709487977E+03  0.31131652607E+03 -0.89004566395E+03  0.12946183218E+04  0.10100000352E+00 0. -1.
</event>
<event>
 5   0  0.8997210E-07  0.2499947E+04  0.7818609E-02  0.8403004E-01
       -2   -1    0    0    0  501  0.00000000000E+00  0.00000000000E+00  0.84953815410E+03  0.84953815410E+03  0.25500000920E-02 0.  1.
        2   -1    0    0  501    0  0.00000000000E+00  0.00000000000E+00 -0.18391570476E+04  0.18391570476E+04  0.25500000920E-02 0. -1.
    10030    2    1    2    0    0  0.00000000000E+00  0.00000000000E+00 -0.98961889349E+03  0.26886952017E+04  0.24999472661E+04 0.  0.
        1    1    3    3  502    0  0.70440140949E+03  0.40234768394E+03  0.52797373226E+03  0.96789527659E+03  0.50400001928E-02 0.  1.
       -1    1    3    3    0  502 -0.70440140949E+03 -0.40234768394E+03 -0.15175926257E+04  0.17207999251E+04  0.50400001928E-02 0. -1.
</event>
<event>
 5   0  0.9768582E-07  0.2498718E+04  0.7818609E-02  0.8403442E-01
        2   -1    0    0  501    0  0.00000000000E+00  0.00000000000E+00  0.16764367409E+04  0.16764367409E+04  0.25500000920E-02 0.  1.
       -2   -1    0    0    0  501  0.00000000000E+00  0.00000000000E+00 -0.93108066613E+03  0.93108066614E+03  0.25500000920E-02 0. -1.
    10030    2    1    2    0    0  0.00000000000E+00  0.00000000000E+00  0.74535607478E+03  0.26075174071E+04  0.24987179412E+04 0.  0.
        3    1    3    3  502    0  0.11800877048E+04  0.20148676455E+03  0.74558036217E+03  0.14103524361E+04  0.10100000352E+00 0. -1.
       -3    1    3    3    0  502 -0.11800877048E+04 -0.20148676455E+03 -0.22428738274E+00  0.11971649710E+04  0.10100000352E+00 0.  1.
</event>
<event>
 5   0  0.9251138E-07  0.2499584E+04  0.7818609E-02  0.8403134E-01
        2   -1    0    0  501    0  0.00000000000E+00  0.00000000000E+00  0.18060653396E+04  0.18060653396E+04  0.25500000920E-02 0. -1.
       -2   -1    0    0    0  501  0.00000000000E+00  0.00000000000E+00 -0.86485235782E+03  0.86485235783E+03  0.25500000920E-02 0.  1.
    10030    2    1    2    0    0  0.00000000000E+00  0.00000000000E+00  0.94121298180E+03  0.26709176974E+04  0.24995838593E+04 0.  0.
        5    1    3    3  502    0  0.20434448751E+03 -0.45206656834E+03 -0.75512072414E+03  0.90352102898E+03  0.46999998093E+01 0.  1.
       -5    1    3    3    0  502 -0.20434448751E+03  0.45206656834E+03  0.16963337059E+04  0.17673966685E+04  0.46999998093E+01 0. -1.
</event>
<event>
 5   0  0.3972587E-07  0.2493260E+04  0.7818609E-02  0.8405391E-01
       -1   -1    0    0    0  501  0.00000000000E+00  0.00000000000E+00  0.13434282106E+04  0.13434282106E+04  0.50400001928E-02 0. -1.
        1   -1    0    0  501    0  0.00000000000E+00  0.00000000000E+00 -0.11568066361E+04  0.11568066362E+04  0.50400001928E-02 0.  1.
    10030    2    1    2    0    0  0.00000000000E+00  0.00000000000E+00  0.18662157442E+03  0.25002348467E+04  0.24932602505E+04 0.  0.
        3    1    3    3  502    0 -0.51350168943E+03 -0.24625971645E+03  0.12053578431E+04  0.13331224149E+04  0.10100000352E+00 0. -1.
       -3    1    3    3    0  502  0.51350168943E+03  0.24625971645E+03 -0.10187362687E+04  0.11671124318E+04  0.10100000352E+00 0.  1.
</event>
<event>
 5   0  0.3991066E-07  0.2500919E+04  0.7818609E-02  0.8402658E-01
        1   -1    0    0  501    0  0.00000000000E+00  0.00000000000E+00  0.11527965895E+04  0.11527965895E+04  0.50400001928E-02 0.  1.
       -1   -1    0    0    0  501  0.00000000000E+00  0.00000000000E+00 -0.13563963705E+04  0.13563963705E+04  0.50400001928E-02 0. -1.
    10030    2    1    2    0    0  0.00000000000E+00  0.00000000000E+00 -0.20359978094E+03  0.25091929600E+04  0.25009191190E+04 0.  0.
        1    1    3    3  502    0  0.10485173201E+04  0.57491985090E+03  0.26509791011E+03  0.12248258274E+04  0.50400001928E-02 0.  1.
       -1    1    3    3    0  502 -0.10485173201E+04 -0.57491985090E+03 -0.46869769105E+03  0.12843671326E+04  0.50400001928E-02 0. -1.
</event>
<event>
 5   0  0.3972587E-07  0.2498793E+04  0.7818609E-02  0.8403416E-01
       -1   -1    0    0    0  501  0.00000000000E+00  0.00000000000E+00  0.14141173809E+04  0.14141173810E+04  0.50400001928E-02 0. -1.
        1   -1    0    0  501    0  0.00000000000E+00  0.00000000000E+00 -0.11038625344E+04  0.11038625344E+04  0.50400001928E-02 0.  1.
    10030    2    1    2    0    0  0.00000000000E+00  0.00000000000E+00  0.31025484653E+03  0.25179799154E+04  0.24987926654E+04 0.  0.
        3    1    3    3  502    0 -0.23168545745E+03 -0.61323935420E+03 -0.91664218267E+03  0.11269310352E+04  0.10100000352E+00 0.  1.
       -3    1    3    3    0  502  0.23168545745E+03  0.61323935420E+03  0.12268970292E+04  0.13910488802E+04  0.10100000352E+00 0. -1.
</event>
<event>
 5   0  0.3991066E-07  0.2500000E+04  0.7818609E-02  0.8402986E-01
       -1   -1    0    0    0  501  0.00000000000E+00  0.00000000000E+00  0.12203683893E+04  0.12203683893E+04  0.50400001928E-02 0.  1.
        1   -1    0    0  501    0  0.00000000000E+00  0.00000000000E+00 -0.12803511574E+04  0.12803511574E+04  0.50400001928E-02 0. -1.
    10030    2    1    2    0    0  0.00000000000E+00  0.00000000000E+00 -0.59982768111E+02  0.25007195467E+04  0.25000000638E+04 0.  0.
        1    1    3    3  502    0 -0.17320777871E+03 -0.11846458851E+04  0.32943537983E+03  0.12417384898E+04  0.50400001928E-02 0.  1.
       -1    1    3    3    0  502  0.17320777871E+03  0.11846458851E+04 -0.38941814794E+03  0.12589810569E+04  0.50400001928E-02 0. -1.
</event>
<event>
 5   0  0.3805418E-07  0.2500721E+04  0.7818609E-02  0.8402729E-01
        1   -1    0    0  501    0  0.00000000000E+00  0.00000000000E+00  0.30729333410E+04  0.30729333410E+04  0.50400001928E-02 0. -1.
       -1   -1    0    0    0  501  0.00000000000E+00  0.00000000000E+00 -0.50876506728E+03  0.50876506731E+03  0.50400001928E-02 0.  1.
    10030    2    1    2    0    0  0.00000000000E+00  0.00000000000E+00  0.25641682737E+04  0.35816984083E+04  0.25007208065E+04 0.  0.
        4    1    3    3  502    0 -0.19145653559E+03  0.11925668580E+04  0.17451476490E+04  0.21223603007E+04  0.12699999809E+01 0.  1.
       -4    1    3    3    0  502  0.19145653559E+03 -0.11925668580E+04  0.81902062470E+03  0.14593381077E+04  0.12699999809E+01 0. -1.
</event>
<event>
 5   0  0.9261602E-07  0.2499625E+04  0.7818609E-02  0.8403119E-01
        2   -1    0    0  501    0  0.00000000000E+00  0.00000000000E+00  0.22214328534E+04  0.22214328534E+04  0.25500000920E-02 0. -1.
       -2   -1    0    0    0  501  0.00000000000E+00  0.00000000000E+00 -0.70316369675E+03  0.70316369676E+03  0.25500000920E-02 0.  1.
    10030    2    1    2    0    0  0.00000000000E+00  0.00000000000E+00  0.15182691566E+04  0.29245965501E+04  0.24996247217E+04 0.  0.
        4    1    3    3  502    0  0.35868922733E+03 -0.89288747933E+03  0.16923068115E+04  0.19467434268E+04  0.12699999809E+01 0. -1.
       -4    1    3    3    0  502 -0.35868922733E+03  0.89288747933E+03 -0.17403765492E+03  0.97785312332E+03  0.12699999809E+01 0.  1.
</event>
<event>
 5   0  0.9251138E-07  0.2500113E+04  0.7818609E-02  0.8402945E-01
        2   -1    0    0  501    0  0.00000000000E+00  0.00000000000E+00  0.13354088833E+04  0.13354088833E+04  0.25500000920E-02 0. -1.
       -2   -1    0    0    0  501  0.00000000000E+00  0.00000000000E+00 -0.11701597206E+04  0.11701597206E+04  0.25500000920E-02 0.  1.
    10030    2    1    2    0    0  0.00000000000E+00  0.00000000000E+00  0.16524916270E+03  0.25055686039E+04  0.25001133461E+04 0.  0.
        5    1    3    3  502    0 -0.46017449148E+03 -0.59254576113E+03 -0.91943141768E+03  0.11866959440E+04  0.46999998093E+01 0.  1.
       -5    1    3    3    0  502  0.46017449148E+03  0.59254576113E+03  0.10846805804E+04  0.13188726599E+04  0.46999998093E+01 0. -1.
</event>
<event>
 5   0  0.3991066E-07  0.2502345E+04  0.7818609E-02  0.8402151E-01
        1   -1    0    0  501    0  0.00000000000E+00  0.00000000000E+00  0.17046643562E+04  0.17046643562E+04  0.50400001928E-02 0.  1.
       -1   -1    0    0    0  501  0.00000000000E+00  0.00000000000E+00 -0.91832286529E+03  0.91832286531E+03  0.50400001928E-02 0. -1.
    10030    2    1    2    0    0  0.00000000000E+00  0.00000000000E+00  0.78634149088E+03  0.26229872215E+04  0.25023447052E+04 0.  0.
        1    1    3    3  502    0  0.10192814687E+04  0.71916182431E+03  0.29206413567E+03  0.12811830085E+04  0.50400001928E-02 0. -1.
       -1    1    3    3    0  502 -0.10192814687E+04 -0.71916182431E+03  0.49427735521E+03  0.13418042129E+04  0.50400001928E-02 0.  1.
</event>
<event>
 5   0  0.9768582E-07  0.2499636E+04  0.7818609E-02  0.8403115E-01
        2   -1    0    0  501    0  0.00000000000E+00  0.00000000000E+00  0.22547523265E+04  0.22547523265E+04  0.25500000920E-02 0.  1.
       -2   -1    0    0    0  501  0.00000000000E+00  0.00000000000E+00 -0.69277882541E+03  0.69277882541E+03  0.25500000920E-02 0. -1.
    10030    2    1    2    0    0  0.00000000000E+00  0.00000000000E+00  0.15619735011E+04  0.29475311519E+04  0.24996357081E+04 0.  0.
        3    1    3    3  502    0 -0.55769954796E+03  0.62613654086E+03  0.18738615327E+04  0.20529083778E+04  0.10100000352E+00 0.  1.
       -3    1    3    3    0  502  0.55769954796E+03 -0.62613654086E+03 -0.31188803158E+03  0.89462277416E+03  0.10100000352E+00 0. -1.
</event>
<event>
 5   0  0.8997210E-07  0.2498501E+04  0.7818609E-02  0.8403520E-01
       -2   -1    0    0    0  501  0.00000000000E+00  0.00000000000E+00  0.92206512014E+03  0.92206512014E+03  0.25500000920E-02 0. -1.
        2   -1    0    0  501    0  0.00000000000E+00  0.00000000000E+00 -0.16925342863E+04  0.16925342863E+04  0.25500000920E-02 0.  1.
    10030    2    1    2    0    0  0.00000000000E+00  0.00000000000E+00 -0.77046916615E+03  0.26145994064E+04  0.24985010146E+04 0.  0.
        1    1    3    3  502    0  0.34019338412E+03 -0.39553548456E+02 -0.16424467317E+04  0.16777745046E+04  0.50400001928E-02 0.  1.
       -1    1    3    3    0  502 -0.34019338412E+03  0.39553548456E+02  0.87197756556E+03  0.93682490182E+03  0.50400001928E-02 0. -1.
</event>
<event>
 5   0  0.9508784E-07  0.2500190E+04  0.7818609E-02  0.8402918E-01
       -2   -1    0    0    0  501  0.00000000000E+00  0.00000000000E+00  0.90745543460E+03  0.90745543461E+03  0.25500000920E-02 0.  1.
        2   -1    0    0  501    0  0.00000000000E+00  0.00000000000E+00 -0.17221092951E+04  0.17221092951E+04  0.25500000920E-02 0. -1.
    10030    2    1    2    0    0  0.00000000000E+00  0.00000000000E+00 -0.81465386050E+03  0.26295647297E+04  0.25001899439E+04 0.  0.
        2    1    3    3  502    0 -0.12002080656E+04  0.13648872551E+03 -0.74586640968E+03  0.14196637890E+04  0.25500000920E-02 0. -1.
       -2    1    3    3    0  502  0.12002080656E+04 -0.13648872551E+03 -0.68787450829E+02  0.12099009407E+04  0.25500000920E-02 0.  1.
</event>
<event>
 5   0  0.3873231E-07  0.2499703E+04  0.7818609E-02  0.8403091E-01
       -1   -1    0    0    0  501  0.00000000000E+00  0.00000000000E+00  0.84888100163E+03  0.84888100165E+03  0.50400001928E-02 0. -1.
        1   -1    0    0  501    0  0.00000000000E+00  0.00000000000E+00 -0.18402207710E+04  0.18402207710E+04  0.50400001928E-02 0.  1.
    10030    2    1    2    0    0  0.00000000000E+00  0.00000000000E+00 -0.99133976939E+03  0.26891017727E+04  0.24997027434E+04 0.  0.
        2    1    3    3  502    0 -0.20877674097E+03  0.43458263706E+03 -0.17361568946E+04  0.18018575301E+04  0.25500000920E-02 0.  1.
       -2    1    3    3    0  502  0.20877674097E+03 -0.43458263706E+03  0.74481712521E+03  0.88724424260E+03  0.25500000920E-02 0. -1.
</event>
<event>
 5   0  0.3805418E-07  0.2498951E+04  0.7818609E-02  0.8403359E-01
       -1   -1    0    0    0  501  0.00000000000E+00  0.00000000000E+00  0.23273254342E+04  0.23273254342E+04  0.50400001928E-02 0. -1.
        1   -1    0    0  501    0  0.00000000000E+00  0.00000000000E+00 -0.67080800559E+03  0.67080800561E+03  0.50400001928E-02 0.  1.
    10030    2    1    2    0    0  0.00000000000E+00  0.00000000000E+00  0.16565174286E+04  0.29981334398E+04  0.24989506061E+04 0.  0.
        4    1    3    3  502    0  0.47781903547E+02  0.12050421596E+04  0.12203006792E+04  0.17156762740E+04  0.12699999809E+01 0.  1.
       -4    1    3    3    0  502 -0.47781903547E+02 -0.12050421596E+04  0.43621674941E+03  0.12824571658E+04  0.12699999809E+01 0. -1.
</event>
<event>
 5   0  0.9251138E-07  0.2500349E+04  0.7818609E-02  0.8402861E-01
       -2   -1    0    0    0  501  0.00000000000E+00  0.00000000000E+00  0.74851744716E+03  0.74851744717E+03  0.25500000920E-02 0.  1.
        2   -1    0    0  501    0  0.00000000000E+00  0.00000000000E+00 -0.20880428308E+04  0.20880428308E+04  0.25500000920E-02 0. -1.
    10030    2    1    2    0    0  0.00000000000E+00  0.00000000000E+00 -0.13395253836E+04  0.28365602780E+04  0.25003491671E+04 0.  0.
        5    1    3    3  502    0 -0.12664576319E+03  0.23803969612E+03 -0.20546531899E+04  0.20722750462E+04  0.46999998093E+01 0. -1.
       -5    1    3    3    0  502  0.12664576319E+03 -0.23803969612E+03  0.71512780626E+03  0.76428523180E+03  0.46999998093E+01 0.  1.
</event>
<event>
 5   0  0.3214375E-07  0.2494631E+04  0.7818609E-02  0.8404901E-01
        4   -1    0    0  501    0  0.00000000000E+00  0.00000000000E+00  0.96904640117E+03  0.96904723338E+03  0.12699999809E+01 0.  1.
       -4   -1    0    0    0  501  0.00000000000E+00  0.00000000000E+00 -0.16054897392E+04  0.16054902415E+04  0.12699999809E+01 0. -1.
    10030    2    1    2    0    0  0.00000000000E+00  0.00000000000E+00 -0.63644333805E+03  0.25745374749E+04  0.24946308519E+04 0.  0.
        1    1    3    3  502    0  0.12316236913E+04 -0.15256074006E+03 -0.44722178204E+03  0.13191584510E+04  0.50400001928E-02 0.  1.
       -1    1    3    3    0  502 -0.12316236913E+04  0.15256074006E+03 -0.18922155600E+03  0.12553790239E+04  0.50400001928E-02 0. -1.
</event>
<event>
 5   0  0.3837524E-07  0.2497787E+04  0.7818609E-02  0.8403774E-01
        1   -1    0    0  501    0  0.00000000000E+00  0.00000000000E+00  0.13981603273E+04  0.13981603273E+04  0.50400001928E-02 0.  1.
       -1   -1    0    0    0  501  0.00000000000E+00  0.00000000000E+00 -0.11155620474E+04  0.11155620474E+04  0.50400001928E-02 0. -1.
    10030    2    1    2    0    0  0.00000000000E+00  0.00000000000E+00  0.28259827985E+03  0.25137223747E+04  0.24977866981E+04 0.  0.
        5    1    3    3  502    0 -0.30206539192E+03  0.12080761939E+04  0.23688359781E+03  0.12676070054E+04  0.46999998093E+01 0. -1.
       -5    1    3    3    0  502  0.30206539192E+03 -0.12080761939E+04  0.45714682038E+02  0.12461153693E+04  0.46999998093E+01 0.  1.
</event>
<event>
 5   0  0.3805418E-07  0.2499634E+04  0.7818609E-02  0.8403116E-01
       -1   -1    0    0    0  501  0.00000000000E+00  0.00000000000E+00  0.93432257043E+03  0.93432257044E+03  0.50400001928E-02 0. -1.
        1   -1    0    0  501    0  0.00000000000E+00  0.00000000000E+00 -0.16718452010E+04  0.16718452010E+04  0.50400001928E-02 0.  1.
    10030    2    1    2    0    0  0.00000000000E+00  0.00000000000E+00 -0.73752263061E+03  0.26061677715E+04  0.24996341377E+04 0.  0.
        4    1    3    3  502    0  0.10530647087E+04 -0.24331522375E+03  0.28559656573E+03  0.11179063423E+04  0.12699999809E+01 0. -1.
       -4    1    3    3    0  502 -0.10530647087E+04  0.24331522375E+03 -0.10231191963E+04  0.14882614292E+04  0.12699999809E+01 0.  1.
</event>
<event>
 5   0  0.3972587E-07  0.2499446E+04  0.7818609E-02  0.8403183E-01
        1   -1    0    0  501    0  0.00000000000E+00  0.00000000000E+00  0.11412599670E+04  0.11412599670E+04  0.50400001928E-02 0. -1.
       -1   -1    0    0    0  501  0.00000000000E+00  0.00000000000E+00 -0.13684936405E+04  0.13684936405E+04  0.50400001928E-02 0.  1.
    10030    2    1    2    0    0  0.00000000000E+00  0.00000000000E+00 -0.22723367349E+03  0.25097536076E+04  0.24994455442E+04 0.  0.
        3    1    3    3  502    0 -0.66703079403E+03  0.68974991414E+03 -0.91761996532E+03  0.13276714335E+04  0.10100000352E+00 0.  1.
       -3    1    3    3    0  502  0.66703079403E+03 -0.68974991414E+03  0.69038629183E+03  0.11820821741E+04  0.10100000352E+00 0. -1.
</event>
<event>
 5   0  0.3837524E-07  0.2498438E+04  0.7818609E-02  0.8403542E-01
       -1   -1    0    0    0  501  0.00000000000E+00  0.00000000000E+00  0.87473004151E+03  0.87473004153E+03  0.50400001928E-02 0. -1.
        1   -1    0    0  501    0  0.00000000000E+00  0.00000000000E+00 -0.17840344479E+04  0.17840344479E+04  0.50400001928E-02 0.  1.
    10030    2    1    2    0    0  0.00000000000E+00  0.00000000000E+00 -0.90930440637E+03  0.26587644894E+04  0.24984383336E+04 0.  0.
        5    1    3    3  502    0 -0.77098406896E+03 -0.55726654802E+03  0.40697377018E+03  0.10347039092E+04  0.46999998093E+01 0. -1.
       -5    1    3    3    0  502  0.77098406896E+03  0.55726654802E+03 -0.13162781765E+04  0.16240605802E+04  0.46999998093E+01 0.  1.
</event>
<event>
 5   0  0.3991066E-07  0.2500617E+04  0.7818609E-02  0.8402766E-01
       -1   -1    0    0    0  501  0.00000000000E+00  0.00000000000E+00  0.75094265430E+03  0.75094265432E+03  0.50400001928E-02 0.  1.
        1   -1    0    0  501    0  0.00000000000E+00  0.00000000000E+00 -0.20817450501E+04  0.20817450501E+04  0.50400001928E-02 0. -1.
    10030    2    1    2    0    0  0.00000000000E+00  0.00000000000E+00 -0.13308023958E+04  0.28326877044E+04  0.25006168467E+04 0.  0.
        1    1    3    3  502    0  0.12492839358E+04  0.25365719252E+02 -0.61579844183E+03  0.13930403774E+04  0.50400001928E-02 0.  1.
       -1    1    3    3    0  502 -0.12492839358E+04 -0.25365719252E+02 -0.71500395396E+03  0.14396473270E+04  0.50400001928E-02 0. -1.
</event>
<event>
 5   0  0.3214375E-07  0.2500076E+04  0.7818609E-02  0.8402959E-01
        3   -1    0    0  501    0  0.00000000000E+00  0.00000000000E+00  0.16790624189E+04  0.16790624219E+04  0.10100000352E+00 0. -1.
       -3   -1    0    0    0  501  0.00000000000E+00  0.00000000000E+00 -0.93063515653E+03  0.93063516201E+03  0.10100000352E+00 0.  1.
    10030    2    1    2    0    0  0.00000000000E+00  0.00000000000E+00  0.74842726232E+03  0.26096975839E+04  0.25000756213E+04 0.  0.
        3    1    3    3  502    0  0.20281558962E+03  0.82451152089E+03  0.13318497273E+04  0.15794863462E+04  0.10100000352E+00 0. -1.
       -3    1    3    3    0  502 -0.20281558962E+03 -0.82451152089E+03 -0.58342246498E+03  0.10302112377E+04  0.10100000352E+00 0.  1.
</event>
<event>
 5   0  0.8997210E-07  0.2503855E+04  0.7818609E-02  0.8401613E-01
       -2   -1    0    0    0  501  0.00000000000E+00  0.00000000000E+00  0.83073899269E+03  0.83073899269E+03  0.25500000920E-02 0.  1.
        2   -1    0    0  501    0  0.00000000000E+00  0.00000000000E+00 -0.18866609367E+04  0.18866609367E+04  0.25500000920E-02 0. -1.
    10030    2    1    2    0    0  0.00000000000E+00  0.00000000000E+00 -0.10559219440E+04  0.27173999294E+04  0.25038552723E+04 0.  0.
        1    1    3    3  502    0  0.31980658100E+03  0.13669477017E+03  0.77725597344E+03  0.85152131959E+03  0.50400001928E-02 0.  1.
       -1    1    3    3    0  502 -0.31980658100E+03 -0.13669477017E+03 -0.18331779175E+04  0.18658786098E+04  0.50400001928E-02 0. -1.
</event>
<event>
 5   0  0.3991066E-07  0.2494241E+04  0.7818609E-02  0.8405040E-01
       -1   -1    0    0    0  501  0.00000000000E+00  0.00000000000E+00  0.93300271430E+03  0.93300271431E+03  0.50400001928E-02 0. -1.
        1   -1    0    0  501    0  0.00000000000E+00  0.00000000000E+00 -0.16669939072E+04  0.16669939072E+04  0.50400001928E-02 0.  1.
    10030    2    1    2    0    0  0.00000000000E+00  0.00000000000E+00 -0.73399119293E+03  0.25999966215E+04  0.24942412395E+04 0.  0.
        1    1    3    3  502    0  0.11048478259E+04  0.57282670912E+03 -0.28301488823E+03  0.12762901645E+04  0.50400001928E-02 0. -1.
       -1    1    3    3    0  502 -0.11048478259E+04 -0.57282670912E+03 -0.45097630470E+03  0.13237064570E+04  0.50400001928E-02 0.  1.
</event>
<event>
 5   0  0.9261602E-07  0.2500760E+04  0.7818609E-02  0.8402715E-01
       -2   -1    0    0    0  501  0.00000000000E+00  0.00000000000E+00  0.10890514714E+04  0.10890514714E+04  0.25500000920E-02 0.  1.
        2   -1    0    0  501    0  0.00000000000E+00  0.00000000000E+00 -0.14356074137E+04  0.14356074137E+04  0.25500000920E-02 0. -1.
    10030    2    1    2    0    0  0.00000000000E+00  0.00000000000E+00 -0.34655594222E+03  0.25246588851E+04  0.25007601774E+04 0.  0.
        4    1    3    3  502    0 -0.96688406357E+03 -0.44914898785E+03 -0.83285856868E+03  0.13528690306E+04  0.12699999809E+01 0. -1.
       -4    1    3    3    0  502  0.96688406357E+03  0.44914898785E+03  0.48630262646E+03  0.11717898545E+04  0.12699999809E+01 0.  1.
</event>
<event>
 5   0  0.9251138E-07  0.2500678E+04  0.7818609E-02  0.8402744E-01
       -2   -1    0    0    0  501  0.00000000000E+00  0.00000000000E+00  0.13885178010E+04  0.13885178010E+04  0.25500000920E-02 0.  1.
        2   -1    0    0  501    0  0.00000000000E+00  0.00000000000E+00 -0.11259108155E+04  0.11259108155E+04  0.25500000920E-02 0. -1.
    10030    2    1    2    0    0  0.00000000000E+00  0.00000000000E+00  0.26260698551E+03  0.25144286164E+04  0.25006776758E+04 0.  0.
        5    1    3    3  502    0 -0.11475087380E+04 -0.15026492508E+03 -0.34455279143E+03  0.12075158664E+04  0.46999998093E+01 0. -1.
       -5    1    3    3    0  502  0.11475087380E+04  0.15026492508E+03  0.60715977693E+03  0.13069127500E+04  0.46999998093E+01 0.  1.
</event>
<event>
 5   0  0.3873231E-07  0.2498523E+04  0.7818609E-02  0.8403512E-01
        1   -1    0    0  501    0  0.00000000000E+00  0.00000000000E+00  0.15085681738E+04  0.15085681739E+04  0.50400001928E-02 0. -1.
       -1   -1    0    0    0  501  0.00000000000E+00  0.00000000000E+00 -0.10345268871E+04  0.10345268871E+04  0.50400001928E-02 0.  1.
    10030    2    1    2    0    0  0.00000000000E+00  0.00000000000E+00  0.47404128679E+03  0.25430950609E+04  0.24985230332E+04 0.  0.
        2    1    3    3  502    0 -0.52081534009E+03 -0.11005792794E+04 -0.47484970207E+02  0.12185147480E+04  0.25500000920E-02 0.  1.
       -2    1    3    3    0  502  0.52081534009E+03  0.11005792794E+04  0.52152625700E+03  0.13245803129E+04  0.25500000920E-02 0. -1.
</event>
<event>
 5   0  0.3991066E-07  0.2500472E+04  0.7818609E-02  0.8402817E-01
        1   -1    0    0  501    0  0.00000000000E+00  0.00000000000E+00  0.15443373297E+04  0.15443373297E+04  0.50400001928E-02 0. -1.
       -1   -1    0    0    0  501  0.00000000000E+00  0.00000000000E+00 -0.10121430921E+04  0.10121430921E+04  0.50400001928E-02 0.  1.
    10030    2    1    2    0    0  0.00000000000E+00  0.00000000000E+00  0.53219423762E+03  0.25564804219E+04  0.25004722436E+04 0.  0.
        1    1    3    3  502    0  0.38676546027E+03  0.86202229371E+03 -0.57103507659E+03  0.11039705679E+04  0.50400001928E-02 0.  1.
       -1    1    3    3    0  502 -0.38676546027E+03 -0.86202229371E+03  0.11032293142E+04  0.14525098540E+04  0.50400001928E-02 0. -1.
</event>
<event>
 5   0  0.9508784E-07  0.2499913E+04  0.7818609E-02  0.8403016E-01
        2   -1    0    0  501    0  0.00000000000E+00  0.00000000000E+00  0.17379327959E+04  0.17379327959E+04  0.25500000920E-02 0.  1.
       -2   -1    0    0    0  501  0.00000000000E+00  0.00000000000E+00 -0.89899439703E+03  0.89899439704E+03  0.25500000920E-02 0. -1.
    10030    2    1    2    0    0  0.00000000000E+00  0.00000000000E+00  0.83893839882E+03  0.26369271929E+04  0.24999134752E+04 0.  0.
        2    1    3    3  502    0  0.37086002201E+03 -0.32696690484E+03  0.16304079837E+04  0.17037237764E+04  0.25500000920E-02 0.  1.
       -2    1    3    3    0  502 -0.37086002201E+03  0.32696690484E+03 -0.79146958490E+03  0.93320341652E+03  0.25500000920E-02 0. -1.
</event>
<event>
 5   0  0.3972587E-07  0.2500228E+04  0.7818609E-02  0.8402904E-01
        1   -1    0    0  501    0  0.00000000000E+00  0.00000000000E+00  0.15427568123E+04  0.15427568123E+04  0.50400001928E-02 0.  1.
       -1   -1    0    0    0  501  0.00000000000E+00  0.00000000000E+00 -0.10129820876E+04  0.10129820877E+04  0.50400001928E-02 0. -1.
    10030    2    1    2    0    0  0.00000000000E+00  0.00000000000E+00  0.52977472466E+03  0.25557389000E+04  0.25002280028E+04 0.  0.
        3    1    3    3  502    0 -0.10373369391E+04  0.61508705478E+03  0.60141555356E+03  0.13476278004E+04  0.10100000352E+00 0.  1.
       -3    1    3    3    0  502  0.10373369391E+04 -0.61508705478E+03 -0.71640828893E+02  0.12081110995E+04  0.10100000352E+00 0. -1.
</event>
<event>
 5   0  0.3972587E-07  0.2501282E+04  0.7818609E-02  0.8402529E-01
       -1   -1    0    0    0  501  0.00000000000E+00  0.00000000000E+00  0.78818435608E+03  0.78818435609E+03  0.50400001928E-02 0.  1.
        1   -1    0    0  501    0  0.00000000000E+00  0.00000000000E+00 -0.19844385552E+04  0.19844385552E+04  0.50400001928E-02 0. -1.
    10030    2    1    2    0    0  0.00000000000E+00  0.00000000000E+00 -0.11962541991E+04  0.27726229113E+04  0.25012824109E+04 0.  0.
        3    1    3    3  502    0  0.70630729277E+03 -0.43076296432E+03  0.44152879650E+03  0.93774965295E+03  0.10100000352E+00 0.  1.
       -3    1    3    3    0  502 -0.70630729277E+03  0.43076296432E+03 -0.16377829956E+04  0.18348732583E+04  0.10100000352E+00 0. -1.
</event>
<event>
 5   0  0.9508784E-07  0.2499832E+04  0.7818609E-02  0.8403045E-01
       -2   -1    0    0    0  501  0.00000000000E+00  0.00000000000E+00  0.83980235109E+03  0.83980235110E+03  0.25500000920E-02 0. -1.
        2   -1    0    0  501    0  0.00000000000E+00  0.00000000000E+00 -0.18603063693E+04  0.18603063693E+04  0.25500000920E-02 0.  1.
    10030    2    1    2    0    0  0.00000000000E+00  0.00000000000E+00 -0.10205040182E+04  0.27001087204E+04  0.24998317245E+04 0.  0.
        2    1    3    3  502    0  0.93436570316E+03 -0.29145781950E+03  0.32939695418E+03  0.10327096791E+04  0.25500000920E-02 0. -1.
       -2    1    3    3    0  502 -0.93436570316E+03  0.29145781950E+03 -0.13499009724E+04  0.16673990413E+04  0.25500000920E-02 0.  1.
</event>
<event>
 5   0  0.3837524E-07  0.2490829E+04  0.7818609E-02  0.8406260E-01
        1   -1    0    0  501    0  0.00000000000E+00  0.00000000000E+00  0.68328567825E+03  0.68328567827E+03  0.50400001928E-02 0. -1.
       -1   -1    0    0    0  501  0.00000000000E+00  0.00000000000E+00 -0.22699985210E+04  0.22699985210E+04  0.50400001928E-02 0.  1.
    10030    2    1    2    0    0  0.00000000000E+00  0.00000000000E+00 -0.15867128427E+04  0.29532841992E+04  0.24908291624E+04 0.  0.
        5    1    3    3  502    0 -0.74017440033E+03  0.15294014007E+02 -0.19807631328E+04  0.21146008437E+04  0.46999998093E+01 0.  1.
       -5    1    3    3    0  502  0.74017440033E+03 -0.15294014007E+02  0.39405029010E+03  0.83868335556E+03  0.46999998093E+01 0. -1.
</event>
<event>
 5   0  0.9768582E-07  0.2499417E+04  0.7818609E-02  0.8403193E-01
       -2   -1    0    0    0  501  0.00000000000E+00  0.00000000000E+00  0.92299245543E+03  0.92299245544E+03  0.25500000920E-02 0.  1.
        2   -1    0    0  501    0  0.00000000000E+00  0.00000000000E+00 -0.16920731747E+04  0.16920731747E+04  0.25500000920E-02 0. -1.
    10030    2    1    2    0    0  0.00000000000E+00  0.00000000000E+00 -0.76908071922E+03  0.26150656301E+04  0.24994165513E+04 0.  0.
        3    1    3    3  502    0 -0.28260528223E+02  0.11851715052E+04  0.29154240626E+02  0.11858668281E+04  0.10100000352E+00 0.  1.
       -3    1    3    3    0  502  0.28260528223E+02 -0.11851715052E+04 -0.79823495984E+03  0.14291988019E+04  0.10100000352E+00 0. -1.
</event>
<event>
 5   0  0.9768582E-07  0.2499221E+04  0.7818609E-02  0.8403263E-01
        2   -1    0    0  501    0  0.00000000000E+00  0.00000000000E+00  0.59530221425E+03  0.59530221426E+03  0.25500000920E-02 0.  1.
       -2   -1    0    0    0  501  0.00000000000E+00  0.00000000000E+00 -0.26230809079E+04  0.26230809079E+04  0.25500000920E-02 0. -1.
    10030    2    1    2    0    0  0.00000000000E+00  0.00000000000E+00 -0.20277786937E+04  0.32183831222E+04  0.24992205766E+04 0.  0.
        3    1    3    3  502    0  0.10167357155E+04  0.69328728275E+03 -0.73433357092E+03  0.14330542820E+04  0.10100000352E+00 0.  1.
       -3    1    3    3    0  502 -0.10167357155E+04 -0.69328728275E+03 -0.12934451227E+04  0.17853288401E+04  0.10100000352E+00 0. -1.
</event>
<event>
 5   0  0.9508784E-07  0.2498703E+04  0.7818609E-02  0.8403448E-01
        2   -1    0    0  501    0  0.00000000000E+00  0.00000000000E+00  0.80597466296E+03  0.80597466297E+03  0.25500000920E-02 0. -1.
       -2   -1    0    0    0  501  0.00000000000E+00  0.00000000000E+00 -0.19366356660E+04  0.19366356660E+04  0.25500000920E-02 0.  1.
    10030    2    1    2    0    0  0.00000000000E+00  0.00000000000E+00 -0.11306610031E+04  0.27426103290E+04  0.24987030862E+04 0.  0.
        2    1    3    3  502    0 -0.10260310071E+04 -0.75771134677E+02  0.21265870492E+03  0.10505734706E+04  0.25500000920E-02 0.  1.
       -2    1    3    3    0  502  0.10260310071E+04  0.75771134677E+02 -0.13433197080E+04  0.16920368584E+04  0.25500000920E-02 0. -1.
</event>
<event>
 5   0  0.3805418E-07  0.2497127E+04  0.7818609E-02  0.8404010E-01
       -1   -1    0    0    0  501  0.00000000000E+00  0.00000000000E+00  0.13294971589E+04  0.13294971589E+04  0.50400001928E-02 0. -1.
        1   -1    0    0  501    0  0.00000000000E+00  0.00000000000E+00 -0.11725571006E+04  0.11725571006E+04  0.50400001928E-02 0.  1.
    10030    2    1    2    0    0  0.00000000000E+00  0.00000000000E+00  0.15694005831E+03  0.25020542595E+04  0.24971274167E+04 0.  0.
        4    1    3    3  502    0  0.11782685688E+04  0.18369385366E+03 -0.29219155596E+03  0.12277775737E+04  0.12699999809E+01 0.  1.
       -4    1    3    3    0  502 -0.11782685688E+04 -0.18369385366E+03  0.44913161427E+03  0.12742766858E+04  0.12699999809E+01 0. -1.
</event>
<event>
 5   0  0.8997210E-07  0.2500660E+04  0.7818609E-02  0.8402750E-01
       -2   -1    0    0    0  501  0.00000000000E+00  0.00000000000E+00  0.98821542679E+03  0.98821542680E+03  0.25500000920E-02 0. -1.
        2   -1    0    0  501    0  0.00000000000E+00  0.00000000000E+00 -0.15819684749E+04  0.15819684749E+04  0.25500000920E-02 0.  1.
    10030    2    1    2    0    0  0.00000000000E+00  0.00000000000E+00 -0.59375304810E+03  0.25701839017E+04  0.25006604340E+04 0.  0.
        1    1    3    3  502    0  0.57467837792E+03  0.63699983778E+03  0.63797235974E+03  0.10691271034E+04  0.50400001928E-02 0. -1.
       -1    1    3    3    0  502 -0.57467837792E+03 -0.63699983778E+03 -0.12317254078E+04  0.15010567983E+04  0.50400001928E-02 0.  1.
</event>
<event>
 5   0  0.9508784E-07  0.2500154E+04  0.7818609E-02  0.8402931E-01
        2   -1    0    0  501    0  0.00000000000E+00  0.00000000000E+00  0.19077916162E+04  0.19077916162E+04  0.25500000920E-02 0.  1.
       -2   -1    0    0    0  501  0.00000000000E+00  0.00000000000E+00 -0.81911096683E+03  0.81911096684E+03  0.25500000920E-02 0. -1.
    10030    2    1    2    0    0  0.00000000000E+00  0.00000000000E+00  0.10886806493E+04  0.27269025830E+04  0.25001544234E+04 0.  0.
        2    1    3    3  502    0  0.38193050582E+03  0.38552372312E+03 -0.68393454126E+03  0.87307840949E+03  0.25500000920E-02 0. -1.
       -2    1    3    3    0  502 -0.38193050582E+03 -0.38552372312E+03  0.17726151906E+04  0.18538241735E+04  0.25500000920E-02 0.  1.
</event>
<event>
 5   0  0.8997210E-07  0.2499923E+04  0.7818609E-02  0.8403013E-01
        2   -1    0    0  501    0  0.00000000000E+00  0.00000000000E+00  0.19915548578E+04  0.19915548578E+04  0.25500000920E-02 0.  1.
       -2   -1    0    0    0  501  0.00000000000E+00  0.00000000000E+00 -0.78451468893E+03  0.78451468894E+03  0.25500000920E-02 0. -1.
    10030    2    1    2    0    0  0.00000000000E+00  0.00000000000E+00  0.12070401689E+04  0.27760695468E+04  0.24999232307E+04 0.  0.
        1    1    3    3  502    0  0.10635788400E+04 -0.49726804917E+02  0.13306236648E+04  0.17041807538E+04  0.50400001928E-02 0.  1.
       -1    1    3    3    0  502 -0.10635788400E+04  0.49726804917E+02 -0.12358349591E+03  0.10718887930E+04  0.50400001928E-02 0. -1.
</event>
<event>
 5   0  0.9768582E-07  0.2498224E+04  0.7818609E-02  0.8403619E-01
        2   -1    0    0  501    0  0.00000000000E+00  0.00000000000E+00  0.12721878636E+04  0.12721878636E+04  0.25500000920E-02 0. -1.
       -2   -1    0    0    0  501  0.00000000000E+00  0.00000000000E+00 -0.12264543958E+04  0.12264543958E+04  0.25500000920E-02 0.  1.
    10030    2    1    2    0    0  0.00000000000E+00  0.00000000000E+00  0.45733467811E+02  0.24986422595E+04  0.24982236871E+04 0.  0.
        3    1    3    3  502    0 -0.22757428020E+03 -0.91364696610E+03  0.84382065596E+03  0.12643473183E+04  0.10100000352E+00 0. -1.
       -3    1    3    3    0  502  0.22757428020E+03  0.91364696610E+03 -0.79808718815E+03  0.12342949412E+04  0.10100000352E+00 0.  1.
</event>
<event>
 5   0  0.3873231E-07  0.2501503E+04  0.7818609E-02  0.8402450E-01
       -1   -1    0    0    0  501  0.00000000000E+00  0.00000000000E+00  0.89454817509E+03  0.89454817510E+03  0.50400001928E-02 0.  1.
        1   -1    0    0  501    0  0.00000000000E+00  0.00000000000E+00 -0.17487927589E+04  0.17487927589E+04  0.50400001928E-02 0. -1.
    10030    2    1    2    0    0  0.00000000000E+00  0.00000000000E+00 -0.85424458383E+03  0.26433409340E+04  0.25015030451E+04 0.  0.
        2    1    3    3  502    0 -0.32454986139E+03 -0.92554562667E+03  0.39303843849E+03  0.10566203356E+04  0.25500000920E-02 0.  1.
       -2    1    3    3    0  502  0.32454986139E+03  0.92554562667E+03 -0.12472830223E+04  0.15867205984E+04  0.25500000920E-02 0. -1.
</event>
<event>
 5   0  0.8997210E-07  0.2499407E+04  0.7818609E-02  0.8403197E-01
       -2   -1    0    0    0  501  0.00000000000E+00  0.00000000000E+00  0.13401258572E+04  0.13401258572E+04  0.25500000920E-02 0.  1.
        2   -1    0    0  501    0  0.00000000000E+00  0.00000000000E+00 -0.11653824057E+04  0.11653824057E+04  0.25500000920E-02 0. -1.
    10030    2    1    2    0    0  0.00000000000E+00  0.00000000000E+00  0.17474345147E+03  0.25055082629E+04  0.24994072060E+04 0.  0.
        1    1    3    3  502    0 -0.22078274702E+03  0.14267017570E+03 -0.11373549198E+04  0.11673371467E+04  0.50400001928E-02 0. -1.
       -1    1    3    3    0  502  0.22078274702E+03 -0.14267017570E+03  0.13120983713E+04  0.13381711162E+04  0.50400001928E-02 0.  1.
</event>
<event>
 5   0  0.9261602E-07  0.2500135E+04  0.7818609E-02  0.8402938E-01
       -2   -1    0    0    0  501  0.00000000000E+00  0.00000000000E+00  0.11701404953E+04  0.11701404953E+04  0.25500000920E-02 0.  1.
        2   -1    0    0  501    0  0.00000000000E+00  0.00000000000E+00 -0.13354535751E+04  0.13354535751E+04  0.25500000920E-02 0. -1.
    10030    2    1    2    0    0  0.00000000000E+00  0.00000000000E+00 -0.16531307985E+03  0.25055940704E+04  0.25001346427E+04 0.  0.
        4    1    3    3  502    0  0.11922797117E+04 -0.22774677251E+03 -0.38208511984E+03  0.12725526139E+04  0.12699999809E+01 0. -1.
       -4    1    3    3    0  502 -0.11922797117E+04  0.22774677251E+03  0.21677203998E+03  0.12330414566E+04  0.12699999809E+01 0.  1.
</event>
<event>
 5   0  0.3991066E-07  0.2499788E+04  0.7818609E-02  0.8403061E-01
       -1   -1    0    0    0  501  0.00000000000E+00  0.00000000000E+00  0.98577354505E+03  0.98577354506E+03  0.50400001928E-02 0. -1.
        1   -1    0    0  501    0  0.00000000000E+00  0.00000000000E+00 -0.15847809082E+04  0.15847809083E+04  0.50400001928E-02 0.  1.
    10030    2    1    2    0    0  0.00000000000E+00  0.00000000000E+00 -0.59900736320E+03  0.25705544533E+04  0.24997880663E+04 0.  0.
        1    1    3    3  502    0 -0.22248234713E+03 -0.36039306517E+03 -0.15087414699E+04  0.15670617024E+04  0.50400001928E-02 0.  1.
       -1    1    3    3    0  502  0.22248234713E+03  0.36039306517E+03  0.90973410669E+03  0.10034927509E+04  0.50400001928E-02 0. -1.
</event>
<event>
 5   0  0.3873231E-07  0.2500175E+04  0.7818609E-02  0.8402923E-01
        1   -1    0    0  501    0  0.00000000000E+00  0.00000000000E+00  0.12274361182E+04  0.12274361182E+04  0.50400001928E-02 0.  1.
       -1   -1    0    0    0  501  0.00000000000E+00  0.00000000000E+00 -0.12731564832E+04  0.12731564832E+04  0.50400001928E-02 0. -1.
    10030    2    1    2    0    0  0.00000000000E+00  0.00000000000E+00 -0.45720364982E+02  0.25005926014E+04  0.25001745952E+04 0.  0.
        2    1    3    3  502    0 -0.17993817958E+03 -0.48743508719E+03 -0.11600408392E+04  0.12710882980E+04  0.25500000920E-02 0. -1.
       -2    1    3    3    0  502  0.17993817958E+03  0.48743508719E+03  0.11143204743E+04  0.12295043034E+04  0.25500000920E-02 0.  1.
</event>
<event>
 5   0  0.3837524E-07  0.2499865E+04  0.7818609E-02  0.8403034E-01
       -1   -1    0    0    0  501  0.00000000000E+00  0.00000000000E+00  0.73291029903E+03  0.73291029905E+03  0.50400001928E-02 0.  1.
        1   -1    0    0  501    0  0.00000000000E+00  0.00000000000E+00 -0.21316812235E+04  0.21316812235E+04  0.50400001928E-02 0. -1.
    10030    2    1    2    0    0  0.00000000000E+00  0.00000000000E+00 -0.13987709244E+04  0.28645915225E+04  0.24998648947E+04 0.  0.
        5    1    3    3  502    0 -0.39108153572E+03  0.74272997894E+03  0.36186534263E+03  0.91409037048E+03  0.46999998093E+01 0.  1.
       -5    1    3    3    0  502  0.39108153572E+03 -0.74272997894E+03 -0.17606362671E+04  0.19505011520E+04  0.46999998093E+01 0. -1.
</event>
<event>
 5   0  0.3214375E-07  0.2500929E+04  0.7818609E-02  0.8402655E-01
        3   -1    0    0  501    0  0.00000000000E+00  0.00000000000E+00  0.79768130173E+03  0.79768130813E+03  0.10100000352E+00 0.  1.
       -3   -1    0    0    0  501  0.00000000000E+00  0.00000000000E+00 -0.19602584023E+04  0.19602584049E+04  0.10100000352E+00 0. -1.
    10030    2    1    2    0    0  0.00000000000E+00  0.00000000000E+00 -0.11625771006E+04  0.27579397130E+04  0.25009290166E+04 0.  0.
        1    1    3    3  502    0  0.95925149340E+03  0.66459024753E+03 -0.10766967647E+04  0.15878033719E+04  0.50400001928E-02 0.  1.
       -1    1    3    3    0  502 -0.95925149340E+03 -0.66459024753E+03 -0.85880335866E+02  0.11701363411E+04  0.50400001928E-02 0. -1.
</event>
<event>
 5   0  0.3972587E-07  0.2498445E+04  0.7818609E-02  0.8403540E-01
       -1   -1    0    0    0  501  0.00000000000E+00  0.00000000000E+00  0.13192545871E+04  0.13192545871E+04  0.50400001928E-02 0. -1.
        1   -1    0    0  501    0  0.00000000000E+00  0.00000000000E+00 -0.11829084056E+04  0.11829084056E+04  0.50400001928E-02 0.  1.
    10030    2    1    2    0    0  0.00000000000E+00  0.00000000000E+00  0.13634618145E+03  0.25021629927E+04  0.24984453888E+04 0.  0.
        3    1    3    3  502    0  0.72191302514E+03  0.94939865039E+03  0.44026477781E+03  0.12713572661E+04  0.10100000352E+00 0. -1.
       -3    1    3    3    0  502 -0.72191302514E+03 -0.94939865039E+03 -0.30391859636E+03  0.12308057266E+04  0.10100000352E+00 0.  1.
</event>
<event>
 5   0  0.9261602E-07  0.2502060E+04  0.7818609E-02  0.8402252E-01
       -2   -1    0    0    0  501  0.00000000000E+00  0.00000000000E+00  0.62779330679E+03  0.62779330679E+03  0.25500000920E-02 0.  1.
        2   -1    0    0  501    0  0.00000000000E+00  0.00000000000E+00 -0.24929795800E+04  0.24929795800E+04  0.25500000920E-02 0. -1.
    10030    2    1    2    0    0  0.00000000000E+00  0.00000000000E+00 -0.18651862732E+04  0.31207728868E+04  0.25020598668E+04 0.  0.
        4    1    3    3  502    0  0.34340578230E+03 -0.40779667952E+03  0.47901245297E+03  0.71671487088E+03  0.12699999809E+01 0.  1.
       -4    1    3    3    0  502 -0.34340578230E+03  0.40779667952E+03 -0.23441987262E+04  0.24040580159E+04  0.12699999809E+01 0. -1.
</event>
<event>
 5   0  0.3991066E-07  0.2500350E+04  0.7818609E-02  0.8402861E-01
        1   -1    0    0  501    0  0.00000000000E+00  0.00000000000E+00  0.17179368185E+04  0.17179368185E+04  0.50400001928E-02 0. -1.
       -1   -1    0    0    0  501  0.00000000000E+00  0.00000000000E+00 -0.90977601343E+03  0.90977601345E+03  0.50400001928E-02 0.  1.
    10030    2    1    2    0    0  0.00000000000E+00  0.00000000000E+00  0.80816080508E+03  0.26277128320E+04  0.25003501436E+04 0.  0.
        1    1    3    3  502    0  0.72326594678E+03 -0.50646994757E+02  0.14744177245E+04  0.16430418054E+04  0.50400001928E-02 0. -1.
       -1    1    3    3    0  502 -0.72326594678E+03  0.50646994757E+02 -0.66625691945E+03  0.98467102658E+03  0.50400001928E-02 0.  1.
</event>
<event>
 5   0  0.9251138E-07  0.2502690E+04  0.7818609E-02  0.8402028E-01
        2   -1    0    0  501    0  0.00000000000E+00  0.00000000000E+00  0.15604818906E+04  0.15604818906E+04  0.25500000920E-02 0. -1.
       -2   -1    0    0    0  501  0.00000000000E+00  0.00000000000E+00 -0.10034490447E+04  0.10034490447E+04  0.25500000920E-02 0.  1.
    10030    2    1    2    0    0  0.00000000000E+00  0.00000000000E+00  0.55703284590E+03  0.25639309353E+04  0.25026898029E+04 0.  0.
        5    1    3    3  502    0 -0.85675035108E+03 -0.41937948704E+03  0.11082370820E+04  0.14622283810E+04  0.46999998093E+01 0. -1.
       -5    1    3    3    0  502  0.85675035108E+03  0.41937948704E+03 -0.55120423614E+03  0.11017025543E+04  0.46999998093E+01 0.  1.
</event>
<event>
 5   0  0.9251138E-07  0.2502177E+04  0.7818609E-02  0.8402210E-01
       -2   -1    0    0    0  501  0.00000000000E+00  0.00000000000E+00  0.11194261560E+04  0.11194261560E+04  0.25500000920E-02 0.  1.
        2   -1    0    0  501    0  0.00000000000E+00  0.00000000000E+00 -0.13982365507E+04  0.13982365507E+04  0.25500000920E-02 0. -1.
    10030    2    1    2    0    0  0.00000000000E+00  0.00000000000E+00 -0.27881039467E+03  0.25176627068E+04  0.25021771058E+04 0.  0.
        5    1    3    3  502    0 -0.34174364667E+03 -0.10426434105E+04  0.46540258888E+03  0.11918538758E+04  0.46999998093E+01 0.  1.
       -5    1    3    3    0  502  0.34174364667E+03  0.10426434105E+04 -0.74421298355E+03  0.13258088310E+04  0.46999998093E+01 0. -1.
</event>
<event>
 5   0  0.9251138E-07  0.2498909E+04  0.7818609E-02  0.8403374E-01
       -2   -1    0    0    0  501  0.00000000000E+00  0.00000000000E+00  0.27499233576E+04  0.27499233576E+04  0.25500000920E-02 0.  1.
        2   -1    0    0  501    0  0.00000000000E+00  0.00000000000E+00 -0.56770172442E+03  0.56770172442E+03  0.25500000920E-02 0. -1.
    10030    2    1    2    0    0  0.00000000000E+00  0.00000000000E+00  0.21822216332E+04  0.33176250821E+04  0.24989087476E+04 0.  0.
        5    1    3    3  502    0  0.30942326551E+03 -0.89691043543E+02  0.26938224871E+04  0.27130221014E+04  0.46999998093E+01 0.  1.
       -5    1    3    3    0  502 -0.30942326551E+03  0.89691043543E+02 -0.51160085390E+03  0.60460298067E+03  0.46999998093E+01 0. -1.
</event>
<event>
 5   0  0.9508784E-07  0.2504852E+04  0.7818609E-02  0.8401259E-01
       -2   -1    0    0    0  501  0.00000000000E+00  0.00000000000E+00  0.99690321927E+03  0.99690321927E+03  0.25500000920E-02 0.  1.
        2   -1    0    0  501    0  0.00000000000E+00  0.00000000000E+00 -0.15734436357E+04  0.15734436357E+04  0.25500000920E-02 0. -1.
    10030    2    1    2    0    0  0.00000000000E+00  0.00000000000E+00 -0.57654041639E+03  0.25703468549E+04  0.25048521120E+04 0.  0.
        2    1    3    3  502    0 -0.30859173879E+03 -0.80542223715E+03 -0.12201096743E+04  0.14941892312E+04  0.25500000920E-02 0. -1.
       -2    1    3    3    0  502  0.30859173879E+03  0.80542223715E+03  0.64356925792E+03  0.10761576237E+04  0.25500000920E-02 0.  1.
</event>
<event>
 5   0  0.3805418E-07  0.2501388E+04  0.7818609E-02  0.8402491E-01
        1   -1    0    0  501    0  0.00000000000E+00  0.00000000000E+00  0.14962907401E+04  0.14962907401E+04  0.50400001928E-02 0. -1.
       -1   -1    0    0    0  501  0.00000000000E+00  0.00000000000E+00 -0.10454087947E+04  0.10454087948E+04  0.50400001928E-02 0.  1.
    10030    2    1    2    0    0  0.00000000000E+00  0.00000000000E+00  0.45088194536E+03  0.25416995349E+04  0.25013880141E+04 0.  0.
        4    1    3    3  502    0  0.71472701775E+03 -0.50549636009E+03 -0.68219128438E+03  0.11098413586E+04  0.12699999809E+01 0.  1.
       -4    1    3    3    0  502 -0.71472701775E+03  0.50549636009E+03  0.11330732297E+04  0.14318581762E+04  0.12699999809E+01 0. -1.
</event>
<event>
 5   0  0.8997210E-07  0.2499784E+04  0.7818609E-02  0.8403063E-01
        2   -1    0    0  501    0  0.00000000000E+00  0.00000000000E+00  0.26250772798E+04  0.26250772798E+04  0.25500000920E-02 0. -1.
       -2   -1    0    0    0  501  0.00000000000E+00  0.00000000000E+00 -0.59511755930E+03  0.59511755930E+03  0.25500000920E-02 0.  1.
    10030    2    1    2    0    0  0.00000000000E+00  0.00000000000E+00  0.20299597205E+04  0.32201948391E+04  0.24997836576E+04 0.  0.
        1    1    3    3  502    0  0.56297596640E+03 -0.13097159542E+03 -0.41260724882E+03  0.71016916249E+03  0.50400001928E-02 0.  1.
       -1    1    3    3    0  502 -0.56297596640E+03  0.13097159542E+03  0.24425669693E+04  0.25100256766E+04  0.50400001928E-02 0. -1.
</event>
<event>
 5   0  0.9251138E-07  0.2499784E+04  0.7818609E-02  0.8403063E-01
       -2   -1    0    0    0  501  0.00000000000E+00  0.00000000000E+00  0.86172291082E+03  0.86172291082E+03  0.25500000920E-02 0. -1.
        2   -1    0    0  501    0  0.00000000000E+00  0.00000000000E+00 -0.18129144596E+04  0.18129144596E+04  0.25500000920E-02 0.  1.
    10030    2    1    2    0    0  0.00000000000E+00  0.00000000000E+00 -0.95119154876E+03  0.26746373704E+04  0.24997839308E+04 0.  0.
        5    1    3    3  502    0  0.68208672542E+03 -0.24528778906E+03 -0.15650520684E+04  0.17247662065E+04  0.46999998093E+01 0.  1.
       -5    1    3    3    0  502 -0.68208672542E+03  0.24528778906E+03  0.61386051960E+03  0.94987116388E+03  0.46999998093E+01 0. -1.
</event>
<event>
 5   0  0.9261602E-07  0.2499105E+04  0.7818609E-02  0.8403304E-01
       -2   -1    0    0    0  501  0.00000000000E+00  0.00000000000E+00  0.90805459446E+03  0.90805459446E+03  0.25500000920E-02 0. -1.
        2   -1    0    0  501    0  0.00000000000E+00  0.00000000000E+00 -0.17194798215E+04  0.17194798215E+04  0.25500000920E-02 0.  1.
    10030    2    1    2    0    0  0.00000000000E+00  0.00000000000E+00 -0.81142522706E+03  0.26275344160E+04  0.24991050814E+04 0.  0.
        4    1    3    3  502    0  0.12413518267E+04 -0.81143854810E+01 -0.55573290006E+03  0.13600959047E+04  0.12699999809E+01 0. -1.
       -4    1    3    3    0  502 -0.12413518267E+04  0.81143854810E+01 -0.25569232700E+03  0.12674385113E+04  0.12699999809E+01 0.  1.
</event>
<event>
 5   0  0.9768582E-07  0.2497632E+04  0.7818609E-02  0.8403830E-01
       -2   -1    0    0    0  501  0.00000000000E+00  0.00000000000E+00  0.16272972917E+04  0.16272972917E+04  0.25500000920E-02 0. -1.
        2   -1    0    0  501    0  0.00000000000E+00  0.00000000000E+00 -0.95836278057E+03  0.95836278057E+03  0.25500000920E-02 0.  1.
    10030    2    1    2    0    0  0.00000000000E+00  0.00000000000E+00  0.66893451110E+03  0.25856600722E+04  0.24976318041E+04 0.  0.
        3    1    3    3  502    0  0.73555646261E+02  0.63297705955E+03  0.14463175293E+04  0.15804761298E+04  0.10100000352E+00 0. -1.
       -3    1    3    3    0  502 -0.73555646261E+02 -0.63297705955E+03 -0.77738301820E+03  0.10051839425E+04  0.10100000352E+00 0.  1.
</event>
<event>
 5   0  0.9251138E-07  0.2499755E+04  0.7818609E-02  0.8403073E-01
       -2   -1    0    0    0  501  0.00000000000E+00  0.00000000000E+00  0.14649900112E+04  0.14649900112E+04  0.25500000920E-02 0. -1.
        2   -1    0    0  501    0  0.00000000000E+00  0.00000000000E+00 -0.10663511913E+04  0.10663511913E+04  0.25500000920E-02 0.  1.
    10030    2    1    2    0    0  0.00000000000E+00  0.00000000000E+00  0.39863881984E+03  0.25313412025E+04  0.24997550630E+04 0.  0.
        5    1    3    3  502    0 -0.92029895104E+03 -0.65891711131E+03  0.73615944828E+03  0.13502128507E+04  0.46999998093E+01 0. -1.
       -5    1    3    3    0  502  0.92029895104E+03  0.65891711131E+03 -0.33752062844E+03  0.11811283518E+04  0.46999998093E+01 0.  1.
</event>
<event>
 5   0  0.3805418E-07  0.2499938E+04  0.7818609E-02  0.8403008E-01
        1   -1    0    0  501    0  0.00000000000E+00  0.00000000000E+00  0.19310484216E+04  0.19310484216E+04  0.50400001928E-02 0.  1.
       -1   -1    0    0    0  501  0.00000000000E+00  0.00000000000E+00 -0.80910569645E+03  0.80910569647E+03  0.50400001928E-02 0. -1.
    10030    2    1    2    0    0  0.00000000000E+00  0.00000000000E+00  0.11219427251E+04  0.27401541181E+04  0.24999378217E+04 0.  0.
        4    1    3    3  502    0 -0.26868069581E+03  0.11082420000E+04 -0.10520986769E+00  0.11403469958E+04  0.12699999809E+01 0. -1.
       -4    1    3    3    0  502  0.26868069581E+03 -0.11082420000E+04  0.11220479350E+04  0.15998071222E+04  0.12699999809E+01 0.  1.
</event>
<event>
 5   0  0.3972587E-07  0.2498922E+04  0.7818609E-02  0.8403370E-01
        1   -1    0    0  501    0  0.00000000000E+00  0.00000000000E+00  0.12750088366E+04  0.12750088366E+04  0.50400001928E-02 0. -1.
       -1   -1    0    0    0  501  0.00000000000E+00  0.00000000000E+00 -0.12244255018E+04  0.12244255018E+04  0.50400001928E-02 0.  1.
    10030    2    1    2    0    0  0.00000000000E+00  0.00000000000E+00  0.50583334878E+02  0.24994343384E+04  0.24989224354E+04 0.  0.
        3    1    3    3  502    0  0.92267532141E+02  0.78756522551E+03 -0.94050493493E+03  0.12301714615E+04  0.10100000352E+00 0.  1.
       -3    1    3    3    0  502 -0.92267532141E+02 -0.78756522551E+03  0.99108826981E+03  0.12692628769E+04  0.10100000352E+00 0. -1.
</event>
<event>
 5   0  0.3837524E-07  0.2498854E+04  0.7818609E-02  0.8403394E-01
        1   -1    0    0  501    0  0.00000000000E+00  0.00000000000E+00  0.13349735748E+04  0.13349735748E+04  0.50400001928E-02 0.  1.
       -1   -1    0    0    0  501  0.00000000000E+00  0.00000000000E+00 -0.11693625222E+04  0.11693625222E+04  0.50400001928E-02 0. -1.
    10030    2    1    2    0    0  0.00000000000E+00  0.00000000000E+00  0.16561105259E+03  0.25043360970E+04  0.24988541906E+04 0.  0.
        5    1    3    3  502    0  0.51144346195E+02  0.84552451561E+03 -0.83764194819E+03  0.11912991119E+04  0.46999998093E+01 0. -1.
       -5    1    3    3    0  502 -0.51144346195E+02 -0.84552451561E+03  0.10032530008E+04  0.13130369851E+04  0.46999998093E+01 0.  1.
</event>
<event>
 5   0  0.8997210E-07  0.2501610E+04  0.7818609E-02  0.8402412E-01
       -2   -1    0    0    0  501  0.00000000000E+00  0.00000000000E+00  0.73356091256E+03  0.73356091256E+03  0.25500000920E-02 0.  1.
        2   -1    0    0  501    0  0.00000000000E+00  0.00000000000E+00 -0.21327659659E+04  0.21327659659E+04  0.25500000920E-02 0. -1.
    10030    2    1    2    0    0  0.00000000000E+00  0.00000000000E+00 -0.13992050533E+04  0.28663268784E+04  0.25016104798E+04 0.  0.
        1    1    3    3  502    0  0.12270807558E+04 -0.20912529879E+03 -0.84018141462E+03  0.15017873955E+04  0.50400001928E-02 0.  1.
       -1    1    3    3    0  502 -0.12270807558E+04  0.20912529879E+03 -0.55902363871E+03  0.13645394829E+04  0.50400001928E-02 0. -1.
</event>
<event>
 5   0  0.9251138E-07  0.2499862E+04  0.7818609E-02  0.8403035E-01
       -2   -1    0    0    0  501  0.00000000000E+00  0.00000000000E+00  0.99279071305E+03  0.99279071305E+03  0.25500000920E-02 0.  1.
        2   -1    0    0  501    0  0.00000000000E+00  0.00000000000E+00 -0.15736726790E+04  0.15736726790E+04  0.25500000920E-02 0. -1.
    10030    2    1    2    0    0  0.00000000000E+00  0.00000000000E+00 -0.58088196595E+03  0.25664633921E+04  0.24998620931E+04 0.  0.
        5    1    3    3  502    0  0.75332376692E+03  0.82108819065E+03  0.29088049709E+03  0.11516579649E+04  0.46999998093E+01 0.  1.
       -5    1    3    3    0  502 -0.75332376692E+03 -0.82108819065E+03 -0.87176246304E+03  0.14148054271E+04  0.46999998093E+01 0. -1.
</event>
<event>
 5   0  0.3837524E-07  0.2499613E+04  0.7818609E-02  0.8403124E-01
        1   -1    0    0  501    0  0.00000000000E+00  0.00000000000E+00  0.17033800468E+04  0.17033800468E+04  0.50400001928E-02 0. -1.
       -1   -1    0    0    0  501  0.00000000000E+00  0.00000000000E+00 -0.91700966589E+03  0.91700966590E+03  0.50400001928E-02 0.  1.
    10030    2    1    2    0    0  0.00000000000E+00  0.00000000000E+00  0.78637038090E+03  0.26203897127E+04  0.24996127441E+04 0.  0.
        5    1    3    3  502    0 -0.75866012633E+03  0.73626046954E+03 -0.30561877761E+03  0.11004860715E+04  0.46999998093E+01 0.  1.
       -5    1    3    3    0  502  0.75866012633E+03 -0.73626046954E+03  0.10919891585E+04  0.15199036412E+04  0.46999998093E+01 0. -1.
</event>
<event>
 5   0  0.3991066E-07  0.2497892E+04  0.7818609E-02  0.8403737E-01
        1   -1    0    0  501    0  0.00000000000E+00  0.00000000000E+00  0.14891691118E+04  0.14891691118E+04  0.50400001928E-02 0.  1.
       -1   -1    0    0    0  501  0.00000000000E+00  0.00000000000E+00 -0.10474743918E+04  0.10474743918E+04  0.50400001928E-02 0. -1.
    10030    2    1    2    0    0  0.00000000000E+00  0.00000000000E+00  0.44169472001E+03  0.25366435036E+04  0.24978923193E+04 0.  0.
        1    1    3    3  502    0  0.81735303187E+03  0.82737997077E+03 -0.24145442449E+03  0.11878231492E+04  0.50400001928E-02 0. -1.
       -1    1    3    3    0  502 -0.81735303187E+03 -0.82737997077E+03  0.68314914450E+03  0.13488203544E+04  0.50400001928E-02 0.  1.
</event>
<event>
 5   0  0.9261602E-07  0.2499383E+04  0.7818609E-02  0.8403205E-01
       -2   -1    0    0    0  501  0.00000000000E+00  0.00000000000E+00  0.71096728242E+03  0.71096728243E+03  0.25500000920E-02 0.  1.
        2   -1    0    0  501    0  0.00000000000E+00  0.00000000000E+00 -0.21966249603E+04  0.21966249603E+04  0.25500000920E-02 0. -1.
    10030    2    1    2    0    0  0.00000000000E+00  0.00000000000E+00 -0.14856576779E+04  0.29075922428E+04  0.24993827066E+04 0.  0.
        4    1    3    3  502    0 -0.72603861186E+03  0.61367801166E+03 -0.16864805678E+04  0.19359625736E+04  0.12699999809E+01 0. -1.
       -4    1    3    3    0  502  0.72603861186E+03 -0.61367801166E+03  0.20082288993E+03  0.97162966913E+03  0.12699999809E+01 0.  1.
</event>
<event>
 5   0  0.3991066E-07  0.2499939E+04  0.7818609E-02  0.8403007E-01
       -1   -1    0    0    0  501  0.00000000000E+00  0.00000000000E+00  0.63589604007E+03  0.63589604009E+03  0.50400001928E-02 0.  1.
        1   -1    0    0  501    0  0.00000000000E+00  0.00000000000E+00 -0.24570432975E+04  0.24570432975E+04  0.50400001928E-02 0. -1.
    10030    2    1    2    0    0  0.00000000000E+00  0.00000000000E+00 -0.18211472575E+04  0.30929393376E+04  0.24999392818E+04 0.  0.
        1    1    3    3  502    0  0.10492990004E+04 -0.33010758597E+03 -0.16450453958E+04  0.19789324811E+04  0.50400001928E-02 0. -1.
       -1    1    3    3    0  502 -0.10492990004E+04  0.33010758597E+03 -0.17610186164E+03  0.11140068565E+04  0.50400001928E-02 0.  1.
</event>
<event>
 5   0  0.9261602E-07  0.2500577E+04  0.7818609E-02  0.8402780E-01
       -2   -1    0    0    0  501  0.00000000000E+00  0.00000000000E+00  0.74109623541E+03  0.74109623542E+03  0.25500000920E-02 0. -1.
        2   -1    0    0  501    0  0.00000000000E+00  0.00000000000E+00 -0.21093366040E+04  0.21093366040E+04  0.25500000920E-02 0.  1.
    10030    2    1    2    0    0  0.00000000000E+00  0.00000000000E+00 -0.13682403686E+04  0.28504328395E+04  0.25005770666E+04 0.  0.
        4    1    3    3  502    0  0.10160001970E+04 -0.16764311047E+03  0.12421924804E+03  0.10372042457E+04  0.12699999809E+01 0. -1.
       -4    1    3    3    0  502 -0.10160001970E+04  0.16764311047E+03 -0.14924596167E+04  0.18132285937E+04  0.12699999809E+01 0.  1.
</event>
<event>
 5   0  0.8997210E-07  0.2500246E+04  0.7818609E-02  0.8402898E-01
        2   -1    0    0  501    0  0.00000000000E+00  0.00000000000E+00  0.20927456460E+04  0.20927456460E+04  0.25500000920E-02 0.  1.
       -2   -1    0    0    0  501  0.00000000000E+00  0.00000000000E+00 -0.74677388889E+03  0.74677388890E+03  0.25500000920E-02 0. -1.
    10030    2    1    2    0    0  0.00000000000E+00  0.00000000000E+00  0.13459717572E+04  0.28395195349E+04  0.25002462315E+04 0.  0.
        1    1    3    3  502    0 -0.69995392454E+03  0.31636939993E+03 -0.44714817647E+03  0.88880064437E+03  0.50400001928E-02 0. -1.
       -1    1    3    3    0  502  0.69995392454E+03 -0.31636939993E+03  0.17931199336E+04  0.19507188906E+04  0.50400001928E-02 0.  1.
</event>
<event>
 5   0  0.3214375E-07  0.2500340E+04  0.7818609E-02  0.8402864E-01
        4   -1    0    0  501    0  0.00000000000E+00  0.00000000000E+00  0.15692820033E+04  0.15692825172E+04  0.12699999809E+01 0.  1.
       -4   -1    0    0    0  501  0.00000000000E+00  0.00000000000E+00 -0.99594800194E+03  0.99594881167E+03  0.12699999809E+01 0. -1.
    10030    2    1    2    0    0  0.00000000000E+00  0.00000000000E+00  0.57333400132E+03  0.25652313288E+04  0.25003399556E+04 0.  0.
        4    1    3    3  502    0 -0.11188822079E+04  0.55625969773E+03  0.24561459753E+03  0.12734403755E+04  0.12699999809E+01 0. -1.
       -4    1    3    3    0  502  0.11188822079E+04 -0.55625969773E+03  0.32771940379E+03  0.12917909533E+04  0.12699999809E+01 0.  1.
</event>
<event>
 5   0  0.3991066E-07  0.2499512E+04  0.7818609E-02  0.8403159E-01
        1   -1    0    0  501    0  0.00000000000E+00  0.00000000000E+00  0.82574365396E+03  0.82574365398E+03  0.50400001928E-02 0.  1.
       -1   -1    0    0    0  501  0.00000000000E+00  0.00000000000E+00 -0.18914949509E+04  0.18914949509E+04  0.50400001928E-02 0. -1.
    10030    2    1    2    0    0  0.00000000000E+00  0.00000000000E+00 -0.10657512969E+04  0.27172386049E+04  0.24995119141E+04 0.  0.
        1    1    3    3  502    0  0.11244599379E+04 -0.21683648036E+03 -0.10769312204E+04  0.15720079722E+04  0.50400001928E-02 0. -1.
       -1    1    3    3    0  502 -0.11244599379E+04  0.21683648036E+03  0.11179923448E+02  0.11452306327E+04  0.50400001928E-02 0.  1.
</event>
<event>
 5   0  0.3214375E-07  0.2498938E+04  0.7818609E-02  0.8403364E-01
       -3   -1    0    0    0  501  0.00000000000E+00  0.00000000000E+00  0.87614386173E+03  0.87614386755E+03  0.10100000352E+00 0. -1.
        3   -1    0    0  501    0  0.00000000000E+00  0.00000000000E+00 -0.17818680904E+04  0.17818680933E+04  0.10100000352E+00 0.  1.
    10030    2    1    2    0    0  0.00000000000E+00  0.00000000000E+00 -0.90572422869E+03  0.26580119608E+04  0.24989380155E+04 0.  0.
        4    1    3    3  502    0 -0.99940827803E+03  0.63820848443E+03 -0.87168386426E+03  0.14717205400E+04  0.12699999809E+01 0. -1.
       -4    1    3    3    0  502  0.99940827803E+03 -0.63820848443E+03 -0.34040364429E+02  0.11862914208E+04  0.12699999809E+01 0.  1.
</event>
<event>
 5   0  0.9261602E-07  0.2499854E+04  0.7818609E-02  0.8403037E-01
       -2   -1    0    0    0  501  0.00000000000E+00  0.00000000000E+00  0.12236795113E+04  0.12236795113E+04  0.25500000920E-02 0. -1.
        2   -1    0    0  501    0  0.00000000000E+00  0.00000000000E+00 -0.12767377071E+04  0.12767377071E+04  0.25500000920E-02 0.  1.
    10030    2    1    2    0    0  0.00000000000E+00  0.00000000000E+00 -0.53058195760E+02  0.25004172185E+04  0.24998542146E+04 0.  0.
        4    1    3    3  502    0 -0.14735072719E+02 -0.11874375643E+04  0.36354728317E+03  0.12419312910E+04  0.12699999809E+01 0.  1.
       -4    1    3    3    0  502  0.14735072719E+02  0.11874375643E+04 -0.41660547893E+03  0.12584859274E+04  0.12699999809E+01 0. -1.
</event>
<event>
 5   0  0.3805418E-07  0.2500543E+04  0.7818609E-02  0.8402792E-01
       -1   -1    0    0    0  501  0.00000000000E+00  0.00000000000E+00  0.99966703811E+03  0.99966703812E+03  0.50400001928E-02 0. -1.
        1   -1    0    0  501    0  0.00000000000E+00  0.00000000000E+00 -0.15636990956E+04  0.15636990956E+04  0.50400001928E-02 0.  1.
    10030    2    1    2    0    0  0.00000000000E+00  0.00000000000E+00 -0.56403205749E+03  0.25633661337E+04  0.25005426958E+04 0.  0.
        4    1    3    3  502    0 -0.21544182354E+03  0.10729455719E+02  0.98044667197E+03  0.10038962048E+04  0.12699999809E+01 0. -1.
       -4    1    3    3    0  502  0.21544182354E+03 -0.10729455719E+02 -0.15444787295E+04  0.15594699289E+04  0.12699999809E+01 0.  1.
</event>
<event>
 5   0  0.9261602E-07  0.2498566E+04  0.7818609E-02  0.8403497E-01
       -2   -1    0    0    0  501  0.00000000000E+00  0.00000000000E+00  0.75466087555E+03  0.75466087555E+03  0.25500000920E-02 0.  1.
        2   -1    0    0  501    0  0.00000000000E+00  0.00000000000E+00 -0.20680920415E+04  0.20680920415E+04  0.25500000920E-02 0. -1.
    10030    2    1    2    0    0  0.00000000000E+00  0.00000000000E+00 -0.13134311659E+04  0.28227529170E+04  0.24985661094E+04 0.  0.
        4    1    3    3  502    0  0.26212620553E+03  0.73684867460E+02  0.72072937511E+03  0.77044925359E+03  0.12699999809E+01 0.  1.
       -4    1    3    3    0  502 -0.26212620553E+03 -0.73684867460E+02 -0.20341605411E+04  0.20523036634E+04  0.12699999809E+01 0. -1.
</event>
<event>
 5   0  0.3873231E-07  0.2499579E+04  0.7818609E-02  0.8403135E-01
        1   -1    0    0  501    0  0.00000000000E+00  0.00000000000E+00  0.21285784016E+04  0.21285784016E+04  0.50400001928E-02 0. -1.
       -1   -1    0    0    0  501  0.00000000000E+00  0.00000000000E+00 -0.73381093092E+03  0.73381093093E+03  0.50400001928E-02 0.  1.
    10030    2    1    2    0    0  0.00000000000E+00  0.00000000000E+00  0.13947674707E+04  0.28623893326E+04  0.24995792434E+04 0.  0.
        2    1    3    3  502    0  0.18678655736E+03 -0.75726399679E+03  0.18156703872E+04  0.19761065087E+04  0.25500000920E-02 0. -1.
       -2    1    3    3    0  502 -0.18678655736E+03  0.75726399679E+03 -0.42090291645E+03  0.88628282389E+03  0.25500000920E-02 0.  1.
</event>
<event>
 5   0  0.8997210E-07  0.2499530E+04  0.7818609E-02  0.8403153E-01
        2   -1    0    0  501    0  0.00000000000E+00  0.00000000000E+00  0.15088667518E+04  0.15088667518E+04  0.25500000920E-02 0.  1.
       -2   -1    0    0    0  501  0.00000000000E+00  0.00000000000E+00 -0.10351560351E+04  0.10351560351E+04  0.25500000920E-02 0. -1.
    10030    2    1    2    0    0  0.00000000000E+00  0.00000000000E+00  0.47371071668E+03  0.25440227869E+04  0.24995299753E+04 0.  0.
        1    1    3    3  502    0 -0.55265132029E+03 -0.10165177368E+04  0.71768473986E+03  0.13615444087E+04  0.50400001928E-02 0.  1.
       -1    1    3    3    0  502  0.55265132029E+03  0.10165177368E+04 -0.24397402318E+03  0.11824783782E+04  0.50400001928E-02 0. -1.
</event>
<event>
 5   0  0.3972587E-07  0.2501785E+04  0.7818609E-02  0.8402350E-01
       -1   -1    0    0    0  501  0.00000000000E+00  0.00000000000E+00  0.23901311051E+04  0.23901311051E+04  0.50400001928E-02 0. -1.
        1   -1    0    0  501    0  0.00000000000E+00  0.00000000000E+00 -0.65466370699E+03  0.65466370701E+03  0.50400001928E-02 0.  1.
    10030    2    1    2    0    0  0.00000000000E+00  0.00000000000E+00  0.17354673981E+04  0.30447948121E+04  0.25017850343E+04 0.  0.
        3    1    3    3  502    0 -0.51909247230E+02  0.78784170106E+03  0.20485490242E+04  0.21954366834E+04  0.10100000352E+00 0. -1.
       -3    1    3    3    0  502  0.51909247230E+02 -0.78784170106E+03 -0.31308162618E+03  0.84935812867E+03  0.10100000352E+00 0.  1.
</event>
<event>
 5   0  0.3991066E-07  0.2499450E+04  0.7818609E-02  0.8403181E-01
       -1   -1    0    0    0  501  0.00000000000E+00  0.00000000000E+00  0.11965680324E+04  0.11965680324E+04  0.50400001928E-02 0.  1.
        1   -1    0    0  501    0  0.00000000000E+00  0.00000000000E+00 -0.13052437281E+04  0.13052437281E+04  0.50400001928E-02 0. -1.
    10030    2    1    2    0    0  0.00000000000E+00  0.00000000000E+00 -0.10867569568E+03  0.25018117606E+04  0.24994502752E+04 0.  0.
        1    1    3    3  502    0 -0.12185657533E+04  0.25811322033E+03 -0.15586340805E+03  0.12553160286E+04  0.50400001928E-02 0. -1.
       -1    1    3    3    0  502  0.12185657533E+04 -0.25811322033E+03  0.47187712375E+02  0.12464957320E+04  0.50400001928E-02 0.  1.
</event>
<event>
 5   0  0.3972587E-07  0.2501445E+04  0.7818609E-02  0.8402471E-01
       -1   -1    0    0    0  501  0.00000000000E+00  0.00000000000E+00  0.16464709710E+04  0.16464709710E+04  0.50400001928E-02 0. -1.
        1   -1    0    0  501    0  0.00000000000E+00  0.00000000000E+00 -0.95009661908E+03  0.95009661909E+03  0.50400001928E-02 0.  1.
    10030    2    1    2    0    0  0.00000000000E+00  0.00000000000E+00  0.69637435192E+03  0.25965675901E+04  0.25014447849E+04 0.  0.
        3    1    3    3  502    0  0.20340514530E+03 -0.66291952759E+03 -0.73229414788E+03  0.10085091385E+04  0.10100000352E+00 0.  1.
       -3    1    3    3    0  502 -0.20340514530E+03  0.66291952759E+03  0.14286684998E+04  0.15880584516E+04  0.10100000352E+00 0. -1.
</event>
<event>
 5   0  0.9768582E-07  0.2500626E+04  0.7818609E-02  0.8402762E-01
       -2   -1    0    0    0  501  0.00000000000E+00  0.00000000000E+00  0.11054907681E+04  0.11054907681E+04  0.25500000920E-02 0.  1.
        2   -1    0    0  501    0  0.00000000000E+00  0.00000000000E+00 -0.14141077783E+04  0.14141077783E+04  0.25500000920E-02 0. -1.
    10030    2    1    2    0    0  0.00000000000E+00  0.00000000000E+00 -0.30861701016E+03  0.25195985465E+04  0.25006263968E+04 0.  0.
        3    1    3    3  502    0 -0.66002306367E+03  0.10404479994E+04  0.59719187649E+02  0.12335837530E+04  0.10100000352E+00 0.  1.
       -3    1    3    3    0  502  0.66002306367E+03 -0.10404479994E+04 -0.36833619781E+03  0.12860147934E+04  0.10100000352E+00 0. -1.
</event>
<event>
 5   0  0.9508784E-07  0.2498870E+04  0.7818609E-02  0.8403388E-01
        2   -1    0    0  501    0  0.00000000000E+00  0.00000000000E+00  0.28237516900E+04  0.28237516900E+04  0.25500000920E-02 0. -1.
       -2   -1    0    0    0  501  0.00000000000E+00  0.00000000000E+00 -0.55284165473E+03  0.55284165473E+03  0.25500000920E-02 0.  1.
    10030    2    1    2    0    0  0.00000000000E+00  0.00000000000E+00  0.22709100353E+04  0.33765933447E+04  0.24988697900E+04 0.  0.
        2    1    3    3  502    0  0.39464187901E+03  0.73236567824E+03 -0.12417060921E+03  0.84114210424E+03  0.25500000920E-02 0.  1.
       -2    1    3    3    0  502 -0.39464187901E+03 -0.73236567824E+03  0.23950806445E+04  0.25354512405E+04  0.25500000920E-02 0. -1.
</event>
<event>
 5   0  0.3805418E-07  0.2499564E+04  0.7818609E-02  0.8403141E-01
        1   -1    0    0  501    0  0.00000000000E+00  0.00000000000E+00  0.19907562847E+04  0.19907562847E+04  0.50400001928E-02 0.  1.
       -1   -1    0    0    0  501  0.00000000000E+00  0.00000000000E+00 -0.78460411825E+03  0.78460411827E+03  0.50400001928E-02 0. -1.
    10030    2    1    2    0    0  0.00000000000E+00  0.00000000000E+00  0.12061521665E+04  0.27753604030E+04  0.24995644256E+04 0.  0.
        4    1    3    3  502    0  0.12227140462E+04 -0.16316303966E+03  0.82598075031E+03  0.14845530065E+04  0.12699999809E+01 0. -1.
       -4    1    3    3    0  502 -0.12227140462E+04  0.16316303966E+03  0.38017141615E+03  0.12908073965E+04  0.12699999809E+01 0.  1.
</event>
<event>
 5   0  0.8997210E-07  0.2500354E+04  0.7818609E-02  0.8402859E-01
       -2   -1    0    0    0  501  0.00000000000E+00  0.00000000000E+00  0.10590302560E+04  0.10590302560E+04  0.25500000920E-02 0.  1.
        2   -1    0    0  501    0  0.00000000000E+00  0.00000000000E+00 -0.14758244933E+04  0.14758244933E+04  0.25500000920E-02 0. -1.
    10030    2    1    2    0    0  0.00000000000E+00  0.00000000000E+00 -0.41679423733E+03  0.25348547493E+04  0.25003542077E+04 0.  0.
        1    1    3    3  502    0 -0.94842945417E+03  0.79825427359E+03 -0.44254206855E+02  0.12404381281E+04  0.50400001928E-02 0.  1.
       -1    1    3    3    0  502  0.94842945417E+03 -0.79825427359E+03 -0.37254003048E+03  0.12944166212E+04  0.50400001928E-02 0. -1.
</event>
<event>
 5   0  0.9251138E-07  0.2499788E+04  0.7818609E-02  0.8403061E-01
        2   -1    0    0  501    0  0.00000000000E+00  0.00000000000E+00  0.10273527211E+04  0.10273527211E+04  0.25500000920E-02 0. -1.
       -2   -1    0    0    0  501  0.00000000000E+00  0.00000000000E+00 -0.15206416350E+04  0.15206416350E+04  0.25500000920E-02 0.  1.
    10030    2    1    2    0    0  0.00000000000E+00  0.00000000000E+00 -0.49328891389E+03  0.25479943561E+04  0.24997882483E+04 0.  0.
        5    1    3    3  502    0 -0.37955299929E+03  0.11908345812E+04 -0.23837928776E+03  0.12723970504E+04  0.46999998093E+01 0. -1.
       -5    1    3    3    0  502  0.37955299929E+03 -0.11908345812E+04 -0.25490962613E+03  0.12755973058E+04  0.46999998093E+01 0.  1.
</event>
<event>
 5   0  0.3805418E-07  0.2499854E+04  0.7818609E-02  0.8403037E-01
       -1   -1    0    0    0  501  0.00000000000E+00  0.00000000000E+00  0.12940397024E+04  0.12940397024E+04  0.50400001928E-02 0. -1.
        1   -1    0    0  501    0  0.00000000000E+00  0.00000000000E+00 -0.12073183497E+04  0.12073183497E+04  0.50400001928E-02 0.  1.
    10030    2    1    2    0    0  0.00000000000E+00  0.00000000000E+00  0.86721352657E+02  0.25013580521E+04  0.24998542981E+04 0.  0.
        4    1    3    3  502    0 -0.38216525675E+03  0.25973106180E+02  0.12338626510E+04  0.12919533816E+04  0.12699999809E+01 0. -1.
       -4    1    3    3    0  502  0.38216525675E+03 -0.25973106180E+02 -0.11471412984E+04  0.12094046705E+04  0.12699999809E+01 0.  1.
</event>
<event>
 5   0  0.8997210E-07  0.2496379E+04  0.7818609E-02  0.8404277E-01
        2   -1    0    0  501    0  0.00000000000E+00  0.00000000000E+00  0.14222445260E+04  0.14222445260E+04  0.25500000920E-02 0.  1.
       -2   -1    0    0    0  501  0.00000000000E+00  0.00000000000E+00 -0.10954357601E+04  0.10954357601E+04  0.25500000920E-02 0. -1.
    10030    2    1    2    0    0  0.00000000000E+00  0.00000000000E+00  0.32680876589E+03  0.25176802860E+04  0.24963793889E+04 0.  0.
        1    1    3    3  502    0  0.81093634345E+02 -0.11876065502E+04 -0.21528859640E+03  0.12096837089E+04  0.50400001928E-02 0. -1.
       -1    1    3    3    0  502 -0.81093634345E+02  0.11876065502E+04  0.54209736229E+03  0.13079965772E+04  0.50400001928E-02 0.  1.
</event>
<event>
 5   0  0.3991066E-07  0.2501060E+04  0.7818609E-02  0.8402608E-01
        1   -1    0    0  501    0  0.00000000000E+00  0.00000000000E+00  0.16679873452E+04  0.16679873452E+04  0.50400001928E-02 0. -1.
       -1   -1    0    0    0  501  0.00000000000E+00  0.00000000000E+00 -0.93755254800E+03  0.93755254801E+03  0.50400001928E-02 0.  1.
    10030    2    1    2    0    0  0.00000000000E+00  0.00000000000E+00  0.73043479724E+03  0.26055398933E+04  0.25010604036E+04 0.  0.
        1    1    3    3  502    0 -0.41634703154E+03 -0.65424439186E+03  0.13872424809E+04  0.15892835731E+04  0.50400001928E-02 0. -1.
       -1    1    3    3    0  502  0.41634703154E+03  0.65424439186E+03 -0.65680768363E+03  0.10162563202E+04  0.50400001928E-02 0.  1.
</event>
<event>
 5   0  0.8997210E-07  0.2499324E+04  0.7818609E-02  0.8403226E-01
       -2   -1    0    0    0  501  0.00000000000E+00  0.00000000000E+00  0.12575310239E+04  0.12575310239E+04  0.25500000920E-02 0.  1.
        2   -1    0    0  501    0  0.00000000000E+00  0.00000000000E+00 -0.12418421392E+04  0.12418421392E+04  0.25500000920E-02 0. -1.
    10030    2    1    2    0    0  0.00000000000E+00  0.00000000000E+00  0.15688884695E+02  0.24993731632E+04  0.24993239221E+04 0.  0.
        1    1    3    3  502    0  0.22107644696E+03 -0.12113397540E+04  0.22100638142E+03  0.12510246263E+04  0.50400001928E-02 0. -1.
       -1    1    3    3    0  502 -0.22107644696E+03  0.12113397540E+04 -0.20531749672E+03  0.12483485369E+04  0.50400001928E-02 0.  1.
</event>
<event>
 5   0  0.3805418E-07  0.2495583E+04  0.7818609E-02  0.8404561E-01
       -1   -1    0    0    0  501  0.00000000000E+00  0.00000000000E+00  0.18846128069E+04  0.18846128069E+04  0.50400001928E-02 0. -1.
        1   -1    0    0  501    0  0.00000000000E+00  0.00000000000E+00 -0.82615575899E+03  0.82615575900E+03  0.50400001928E-02 0.  1.
    10030    2    1    2    0    0  0.00000000000E+00  0.00000000000E+00  0.10584570479E+04  0.27107685659E+04  0.24955830773E+04 0.  0.
        4    1    3    3  502    0 -0.60589816635E+03 -0.83584789803E+03 -0.23208208835E+03  0.10581200335E+04  0.12699999809E+01 0.  1.
       -4    1    3    3    0  502  0.60589816635E+03  0.83584789803E+03  0.12905391362E+04  0.16526485324E+04  0.12699999809E+01 0. -1.
</event>
<event>
 5   0  0.9508784E-07  0.2499803E+04  0.7818609E-02  0.8403056E-01
       -2   -1    0    0    0  501  0.00000000000E+00  0.00000000000E+00  0.98852582323E+03  0.98852582323E+03  0.25500000920E-02 0. -1.
        2   -1    0    0  501    0  0.00000000000E+00  0.00000000000E+00 -0.15803868003E+04  0.15803868003E+04  0.25500000920E-02 0.  1.
    10030    2    1    2    0    0  0.00000000000E+00  0.00000000000E+00 -0.59186097706E+03  0.25689126235E+04  0.24998025224E+04 0.  0.
        2    1    3    3  502    0  0.23856750511E+03 -0.23684827575E+03 -0.15330567531E+04  0.15694822613E+04  0.25500000920E-02 0.  1.
       -2    1    3    3    0  502 -0.23856750511E+03  0.23684827575E+03  0.94119577602E+03  0.99943036227E+03  0.25500000920E-02 0. -1.
</event>
<event>
 5   0  0.9508784E-07  0.2501035E+04  0.7818609E-02  0.8402617E-01
       -2   -1    0    0    0  501  0.00000000000E+00  0.00000000000E+00  0.94274372330E+03  0.94274372330E+03  0.25500000920E-02 0.  1.
        2   -1    0    0  501    0  0.00000000000E+00  0.00000000000E+00 -0.16587691191E+04  0.16587691191E+04  0.25500000920E-02 0. -1.
    10030    2    1    2    0    0  0.00000000000E+00  0.00000000000E+00 -0.71602539580E+03  0.26015128424E+04  0.25010351260E+04 0.  0.
        2    1    3    3  502    0  0.81224989006E+03  0.62776530803E+01 -0.13470019478E+04  0.15729601204E+04  0.25500000920E-02 0. -1.
       -2    1    3    3    0  502 -0.81224989006E+03 -0.62776530803E+01  0.63097655201E+03  0.10285527220E+04  0.25500000920E-02 0.  1.
</event>
<event>
 5   0  0.3805418E-07  0.2499475E+04  0.7818609E-02  0.8403173E-01
       -1   -1    0    0    0  501  0.00000000000E+00  0.00000000000E+00  0.14159304652E+04  0.14159304652E+04  0.50400001928E-02 0.  1.
        1   -1    0    0  501    0  0.00000000000E+00  0.00000000000E+00 -0.11030509158E+04  0.11030509158E+04  0.50400001928E-02 0. -1.
    10030    2    1    2    0    0  0.00000000000E+00  0.00000000000E+00  0.31287954938E+03  0.25189813811E+04  0.24994746619E+04 0.  0.
        4    1    3    3  502    0 -0.41025295087E+03 -0.98350435090E+03 -0.50153643872E+03  0.11777642821E+04  0.12699999809E+01 0. -1.
       -4    1    3    3    0  502  0.41025295087E+03  0.98350435090E+03  0.81441598810E+03  0.13412170989E+04  0.12699999809E+01 0.  1.
</event>
<event>
 5   0  0.3837524E-07  0.2483633E+04  0.7818609E-02  0.8408840E-01
       -1   -1    0    0    0  501  0.00000000000E+00  0.00000000000E+00  0.11824114314E+04  0.11824114314E+04  0.50400001928E-02 0.  1.
        1   -1    0    0  501    0  0.00000000000E+00  0.00000000000E+00 -0.13042057651E+04  0.13042057651E+04  0.50400001928E-02 0. -1.
    10030    2    1    2    0    0  0.00000000000E+00  0.00000000000E+00 -0.12179433367E+03  0.24866171965E+04  0.24836326665E+04 0.  0.
        5    1    3    3  502    0 -0.79675835153E+03  0.92903152837E+03  0.14950355957E+03  0.12330031856E+04  0.46999998093E+01 0.  1.
       -5    1    3    3    0  502  0.79675835153E+03 -0.92903152837E+03 -0.27129789324E+03  0.12536140109E+04  0.46999998093E+01 0. -1.
</event>
<event>
 5   0  0.3873231E-07  0.2500681E+04  0.7818609E-02  0.8402743E-01
        1   -1    0    0  501    0  0.00000000000E+00  0.00000000000E+00  0.17309635589E+04  0.17309635589E+04  0.50400001928E-02 0.  1.
       -1   -1    0    0    0  501  0.00000000000E+00  0.00000000000E+00 -0.90316799484E+03  0.90316799486E+03  0.50400001928E-02 0. -1.
    10030    2    1    2    0    0  0.00000000000E+00  0.00000000000E+00  0.82779556401E+03  0.26341315537E+04  0.25006806167E+04 0.  0.
        2    1    3    3  502    0  0.40466520248E+02  0.61113460561E+03 -0.73433276090E+03  0.95622573129E+03  0.25500000920E-02 0. -1.
       -2    1    3    3    0  502 -0.40466520248E+02 -0.61113460561E+03  0.15621283249E+04  0.16779058224E+04  0.25500000920E-02 0.  1.
</event>
<event>
 5   0  0.9768582E-07  0.2499090E+04  0.7818609E-02  0.8403310E-01
       -2   -1    0    0    0  501  0.00000000000E+00  0.00000000000E+00  0.11385557497E+04  0.11385557497E+04  0.25500000920E-02 0.  1.
        2   -1    0    0  501    0  0.00000000000E+00  0.00000000000E+00 -0.13713540711E+04  0.13713540711E+04  0.25500000920E-02 0. -1.
    10030    2    1    2    0    0  0.00000000000E+00  0.00000000000E+00 -0.23279832141E+03  0.25099098209E+04  0.24990902846E+04 0.  0.
        3    1    3    3  502    0 -0.43690002823E+03 -0.88659684970E+03  0.65138910874E+03  0.11837412681E+04  0.10100000352E+00 0.  1.
       -3    1    3    3    0  502  0.43690002823E+03  0.88659684970E+03 -0.88418743015E+03  0.13261685528E+04  0.10100000352E+00 0. -1.
</event>
<event>
 5   0  0.3873231E-07  0.2500424E+04  0.7818609E-02  0.8402834E-01
       -1   -1    0    0    0  501  0.00000000000E+00  0.00000000000E+00  0.67768666548E+03  0.67768666550E+03  0.50400001928E-02 0. -1.
        1   -1    0    0  501    0  0.00000000000E+00  0.00000000000E+00 -0.23064200542E+04  0.23064200542E+04  0.50400001928E-02 0.  1.
    10030    2    1    2    0    0  0.00000000000E+00  0.00000000000E+00 -0.16287333887E+04  0.29841067197E+04  0.25004240567E+04 0.  0.
        2    1    3    3  502    0 -0.64101492848E+03 -0.10719265827E+04 -0.74788255291E+03  0.14557661385E+04  0.25500000920E-02 0. -1.
       -2    1    3    3    0  502  0.64101492848E+03  0.10719265827E+04 -0.88085083583E+03  0.15283405812E+04  0.25500000920E-02 0.  1.
</event>
<event>
 5   0  0.3991066E-07  0.2501685E+04  0.7818609E-02  0.8402386E-01
        1   -1    0    0  501    0  0.00000000000E+00  0.00000000000E+00  0.10230585651E+04  0.10230585651E+04  0.50400001928E-02 0.  1.
       -1   -1    0    0    0  501  0.00000000000E+00  0.00000000000E+00 -0.15293419321E+04  0.15293419321E+04  0.50400001928E-02 0. -1.
    10030    2    1    2    0    0  0.00000000000E+00  0.00000000000E+00 -0.50628336700E+03  0.25524004973E+04  0.25016845226E+04 0.  0.
        1    1    3    3  502    0  0.88572524786E+03 -0.37252728446E+03  0.56391815515E+03  0.11141317149E+04  0.50400001928E-02 0.  1.
       -1    1    3    3    0  502 -0.88572524786E+03  0.37252728446E+03 -0.10702015221E+04  0.14382687824E+04  0.50400001928E-02 0. -1.
</event>
<event>
 5   0  0.8997210E-07  0.2500093E+04  0.7818609E-02  0.8402952E-01
        2   -1    0    0  501    0  0.00000000000E+00  0.00000000000E+00  0.10993046495E+04  0.10993046495E+04  0.25500000920E-02 0.  1.
       -2   -1    0    0    0  501  0.00000000000E+00  0.00000000000E+00 -0.14214589468E+04  0.14214589468E+04  0.25500000920E-02 0. -1.
    10030    2    1    2    0    0  0.00000000000E+00  0.00000000000E+00 -0.32215429732E+03  0.25207635963E+04  0.25000931417E+04 0.  0.
        1    1    3    3  502    0  0.82947807854E+03  0.93118809441E+03 -0.73925939861E+02  0.12492438491E+04  0.50400001928E-02 0.  1.
       -1    1    3    3    0  502 -0.82947807854E+03 -0.93118809441E+03 -0.24822835746E+03  0.12715197472E+04  0.50400001928E-02 0. -1.
</event>
<event>
 5   0  0.3837524E-07  0.2499621E+04  0.7818609E-02  0.8403121E-01
       -1   -1    0    0    0  501  0.00000000000E+00  0.00000000000E+00  0.85038860732E+03  0.85038860734E+03  0.50400001928E-02 0. -1.
        1   -1    0    0  501    0  0.00000000000E+00  0.00000000000E+00 -0.18368383374E+04  0.18368383374E+04  0.50400001928E-02 0.  1.
    10030    2    1    2    0    0  0.00000000000E+00  0.00000000000E+00 -0.98644973009E+03  0.26872269448E+04  0.24996210878E+04 0.  0.
        5    1    3    3  502    0 -0.54065803595E+03 -0.79366749530E+03  0.36667370480E+03  0.10279547173E+04  0.46999998093E+01 0. -1.
       -5    1    3    3    0  502  0.54065803595E+03  0.79366749530E+03 -0.13531234349E+04  0.16592722275E+04  0.46999998093E+01 0.  1.
</event>
<event>
 5   0  0.3837524E-07  0.2483036E+04  0.7818609E-02  0.8409054E-01
        1   -1    0    0  501    0  0.00000000000E+00  0.00000000000E+00  0.21314226305E+04  0.21314226305E+04  0.50400001928E-02 0. -1.
       -1   -1    0    0    0  501  0.00000000000E+00  0.00000000000E+00 -0.72316332108E+03  0.72316332110E+03  0.50400001928E-02 0.  1.
    10030    2    1    2    0    0  0.00000000000E+00  0.00000000000E+00  0.14082593094E+04  0.28545859516E+04  0.24830357776E+04 0.  0.
        5    1    3    3  502    0 -0.44755991014E+03  0.63674766622E+03  0.18161231910E+04  0.19758752487E+04  0.46999998093E+01 0. -1.
       -5    1    3    3    0  502  0.44755991014E+03 -0.63674766622E+03 -0.40786388154E+03  0.87871070294E+03  0.46999998093E+01 0.  1.
</event>
<event>
 5   0  0.9508784E-07  0.2499892E+04  0.7818609E-02  0.8403024E-01
       -2   -1    0    0    0  501  0.00000000000E+00  0.00000000000E+00  0.85307316501E+03  0.85307316501E+03  0.25500000920E-02 0. -1.
        2   -1    0    0  501    0  0.00000000000E+00  0.00000000000E+00 -0.18314541556E+04  0.18314541556E+04  0.25500000920E-02 0.  1.
    10030    2    1    2    0    0  0.00000000000E+00  0.00000000000E+00 -0.97838099059E+03  0.26845273206E+04  0.24998915121E+04 0.  0.
        2    1    3    3  502    0  0.10013001239E+04  0.37708964451E+03  0.20472910631E+03  0.10893633668E+04  0.25500000920E-02 0. -1.
       -2    1    3    3    0  502 -0.10013001239E+04 -0.37708964451E+03 -0.11831100969E+04  0.15951639538E+04  0.25500000920E-02 0.  1.
</event>
<event>
 5   0  0.9508784E-07  0.2499678E+04  0.7818609E-02  0.8403100E-01
       -2   -1    0    0    0  501  0.00000000000E+00  0.00000000000E+00  0.72230564773E+03  0.72230564774E+03  0.25500000920E-02 0.  1.
        2   -1    0    0  501    0  0.00000000000E+00  0.00000000000E+00 -0.21626536549E+04  0.21626536549E+04  0.25500000920E-02 0. -1.
    10030    2    1    2    0    0  0.00000000000E+00  0.00000000000E+00 -0.14403480072E+04  0.28849593026E+04  0.24996775384E+04 0.  0.
        2    1    3    3  502    0  0.75740102774E+02  0.63411805371E+03  0.51978271272E+03  0.82341747472E+03  0.25500000920E-02 0.  1.
       -2    1    3    3    0  502 -0.75740102774E+02 -0.63411805371E+03 -0.19601307199E+04  0.20615418279E+04  0.25500000920E-02 0. -1.
</event>
<event>
 5   0  0.3972587E-07  0.2499515E+04  0.7818609E-02  0.8403158E-01
        1   -1    0    0  501    0  0.00000000000E+00  0.00000000000E+00  0.13209121349E+04  0.13209121349E+04  0.50400001928E-02 0. -1.
       -1   -1    0    0    0  501  0.00000000000E+00  0.00000000000E+00 -0.11824354832E+04  0.11824354832E+04  0.50400001928E-02 0.  1.
    10030    2    1    2    0    0  0.00000000000E+00  0.00000000000E+00  0.13847665168E+03  0.25033476181E+04  0.24995146557E+04 0.  0.
        3    1    3    3  502    0 -0.15224894885E+03 -0.12403873602E+04  0.56857223380E+02  0.12509889287E+04  0.10100000352E+00 0. -1.
       -3    1    3    3    0  502  0.15224894885E+03  0.12403873602E+04  0.81619428303E+02  0.12523586894E+04  0.10100000352E+00 0.  1.
</event>
<event>
 5   0  0.9251138E-07  0.2502485E+04  0.7818609E-02  0.8402101E-01
        2   -1    0    0  501    0  0.00000000000E+00  0.00000000000E+00  0.19051575811E+04  0.19051575811E+04  0.25500000920E-02 0.  1.
       -2   -1    0    0    0  501  0.00000000000E+00  0.00000000000E+00 -0.82177365216E+03  0.82177365217E+03  0.25500000920E-02 0. -1.
    10030    2    1    2    0    0  0.00000000000E+00  0.00000000000E+00  0.10833839290E+04  0.27269312333E+04  0.25024854073E+04 0.  0.
        5    1    3    3  502    0 -0.53415651141E+03  0.10485510636E+04  0.78345032699E+02  0.11793822730E+04  0.46999998093E+01 0. -1.
       -5    1    3    3    0  502  0.53415651141E+03 -0.10485510636E+04  0.10050388963E+04  0.15475489603E+04  0.46999998093E+01 0.  1.
</event>
<event>
 5   0  0.3805418E-07  0.2499070E+04  0.7818609E-02  0.8403317E-01
        1   -1    0    0  501    0  0.00000000000E+00  0.00000000000E+00  0.50383109420E+03  0.50383109422E+03  0.50400001928E-02 0.  1.
       -1   -1    0    0    0  501  0.00000000000E+00  0.00000000000E+00 -0.30989305220E+04  0.30989305221E+04  0.50400001928E-02 0. -1.
    10030    2    1    2    0    0  0.00000000000E+00  0.00000000000E+00 -0.25950994279E+04  0.36027616163E+04  0.24990698716E+04 0.  0.
        4    1    3    3  502    0  0.27485889699E+02  0.11066405266E+04 -0.21331137177E+04  0.24032445724E+04  0.12699999809E+01 0. -1.
       -4    1    3    3    0  502 -0.27485889699E+02 -0.11066405266E+04 -0.46198571017E+03  0.11995170439E+04  0.12699999809E+01 0.  1.
</event>
<event>
 5   0  0.9508784E-07  0.2494620E+04  0.7818609E-02  0.8404905E-01
       -2   -1    0    0    0  501  0.00000000000E+00  0.00000000000E+00  0.11308375627E+04  0.11308375627E+04  0.25500000920E-02 0. -1.
        2   -1    0    0  501    0  0.00000000000E+00  0.00000000000E+00 -0.13757789559E+04  0.13757789559E+04  0.25500000920E-02 0.  1.
    10030    2    1    2    0    0  0.00000000000E+00  0.00000000000E+00 -0.24494139321E+03  0.25066165186E+04  0.24946202286E+04 0.  0.
        2    1    3    3  502    0  0.36337747664E+03  0.11896934050E+04 -0.21439249235E+03  0.12622906675E+04  0.25500000920E-02 0. -1.
       -2    1    3    3    0  502 -0.36337747664E+03 -0.11896934050E+04 -0.30548900863E+02  0.12443258511E+04  0.25500000920E-02 0.  1.
</event>
<event>
 5   0  0.3837524E-07  0.2498432E+04  0.7818609E-02  0.8403544E-01
       -1   -1    0    0    0  501  0.00000000000E+00  0.00000000000E+00  0.13906885066E+04  0.13906885066E+04  0.50400001928E-02 0.  1.
        1   -1    0    0  501    0  0.00000000000E+00  0.00000000000E+00 -0.11221354372E+04  0.11221354372E+04  0.50400001928E-02 0. -1.
    10030    2    1    2    0    0  0.00000000000E+00  0.00000000000E+00  0.26855306948E+03  0.25128239438E+04  0.24984321927E+04 0.  0.
        5    1    3    3  502    0  0.59391800377E+03 -0.55867377822E+03 -0.81757014729E+03  0.11546852478E+04  0.46999998093E+01 0. -1.
       -5    1    3    3    0  502 -0.59391800377E+03  0.55867377822E+03  0.10861232168E+04  0.13581386960E+04  0.46999998093E+01 0.  1.
</event>
<event>
 5   0  0.3837524E-07  0.2496695E+04  0.7818609E-02  0.8404164E-01
       -1   -1    0    0    0  501  0.00000000000E+00  0.00000000000E+00  0.25200664132E+04  0.25200664132E+04  0.50400001928E-02 0. -1.
        1   -1    0    0  501    0  0.00000000000E+00  0.00000000000E+00 -0.61838491646E+03  0.61838491648E+03  0.50400001928E-02 0.  1.
    10030    2    1    2    0    0  0.00000000000E+00  0.00000000000E+00  0.19016814968E+04  0.31384513297E+04  0.24966946617E+04 0.  0.
        5    1    3    3  502    0 -0.11335009668E+04  0.50107889124E+03  0.76251718766E+03  0.14551147888E+04  0.46999998093E+01 0. -1.
       -5    1    3    3    0  502  0.11335009668E+04 -0.50107889124E+03  0.11391643091E+04  0.16833365410E+04  0.46999998093E+01 0.  1.
</event>
<event>
 5   0  0.3873231E-07  0.2499577E+04  0.7818609E-02  0.8403136E-01
        1   -1    0    0  501    0  0.00000000000E+00  0.00000000000E+00  0.15836257291E+04  0.15836257291E+04  0.50400001928E-02 0.  1.
       -1   -1    0    0    0  501  0.00000000000E+00  0.00000000000E+00 -0.98632633861E+03  0.98632633862E+03  0.50400001928E-02 0. -1.
    10030    2    1    2    0    0  0.00000000000E+00  0.00000000000E+00  0.59729939047E+03  0.25699520677E+04  0.24995773780E+04 0.  0.
        2    1    3    3  502    0 -0.72898462456E+03  0.42028654797E+03  0.12487404640E+04  0.15057928515E+04  0.25500000920E-02 0.  1.
       -2    1    3    3    0  502  0.72898462456E+03 -0.42028654797E+03 -0.65144107349E+03  0.10641592162E+04  0.25500000920E-02 0. -1.
</event>
<event>
 5   0  0.3837524E-07  0.2493810E+04  0.7818609E-02  0.8405194E-01
        1   -1    0    0  501    0  0.00000000000E+00  0.00000000000E+00  0.15894061084E+04  0.15894061084E+04  0.50400001928E-02 0.  1.
       -1   -1    0    0    0  501  0.00000000000E+00  0.00000000000E+00 -0.97820944887E+03  0.97820944888E+03  0.50400001928E-02 0. -1.
    10030    2    1    2    0    0  0.00000000000E+00  0.00000000000E+00  0.61119665951E+03  0.25676155573E+04  0.24938099954E+04 0.  0.
        5    1    3    3  502    0  0.29242240687E+03 -0.21313918549E+03 -0.92295150998E+03  0.99136307991E+03  0.46999998093E+01 0. -1.
       -5    1    3    3    0  502 -0.29242240687E+03  0.21313918549E+03  0.15341481695E+04  0.15762524774E+04  0.46999998093E+01 0.  1.
</event>
<event>
 5   0  0.9508784E-07  0.2503057E+04  0.7818609E-02  0.8401897E-01
       -2   -1    0    0    0  501  0.00000000000E+00  0.00000000000E+00  0.97086166648E+03  0.97086166648E+03  0.25500000920E-02 0.  1.
        2   -1    0    0  501    0  0.00000000000E+00  0.00000000000E+00 -0.16133329842E+04  0.16133329842E+04  0.25500000920E-02 0. -1.
    10030    2    1    2    0    0  0.00000000000E+00  0.00000000000E+00 -0.64247131771E+03  0.25841946507E+04  0.25030566511E+04 0.  0.
        2    1    3    3  502    0  0.10511048220E+04  0.67709745543E+03 -0.26430434138E+03  0.12779433070E+04  0.25500000920E-02 0. -1.
       -2    1    3    3    0  502 -0.10511048220E+04 -0.67709745543E+03 -0.37816697634E+03  0.13062513437E+04  0.25500000920E-02 0.  1.
</event>
<event>
 5   0  0.9508784E-07  0.2499951E+04  0.7818609E-02  0.8403003E-01
       -2   -1    0    0    0  501  0.00000000000E+00  0.00000000000E+00  0.75026317259E+03  0.75026317260E+03  0.25500000920E-02 0. -1.
        2   -1    0    0  501    0  0.00000000000E+00  0.00000000000E+00 -0.20825217504E+04  0.20825217504E+04  0.25500000920E-02 0.  1.
    10030    2    1    2    0    0  0.00000000000E+00  0.00000000000E+00 -0.13322585778E+04  0.28327849230E+04  0.24999514999E+04 0.  0.
        2    1    3    3  502    0 -0.11900026557E+04  0.25947792021E+03 -0.98462771013E+03  0.15661822497E+04  0.25500000920E-02 0.  1.
       -2    1    3    3    0  502  0.11900026557E+04 -0.25947792021E+03 -0.34763086766E+03  0.12666026733E+04  0.25500000920E-02 0. -1.
</event>
<event>
 5   0  0.3805418E-07  0.2499633E+04  0.7818609E-02  0.8403116E-01
        1   -1    0    0  501    0  0.00000000000E+00  0.00000000000E+00  0.10612527675E+04  0.10612527675E+04  0.50400001928E-02 0. -1.
       -1   -1    0    0    0  501  0.00000000000E+00  0.00000000000E+00 -0.14718841108E+04  0.14718841108E+04  0.50400001928E-02 0.  1.
    10030    2    1    2    0    0  0.00000000000E+00  0.00000000000E+00 -0.41063134330E+03  0.25331368784E+04  0.24996328419E+04 0.  0.
        4    1    3    3  502    0  0.97324771270E+03 -0.77981689160E+03 -0.12227852640E+03  0.12531077949E+04  0.12699999809E+01 0. -1.
       -4    1    3    3    0  502 -0.97324771270E+03  0.77981689160E+03 -0.28835281690E+03  0.12800290835E+04  0.12699999809E+01 0.  1.
</event>
<event>
 5   0  0.9261602E-07  0.2492822E+04  0.7818609E-02  0.8405547E-01
       -2   -1    0    0    0  501  0.00000000000E+00  0.00000000000E+00  0.78055191427E+03  0.78055191427E+03  0.25500000920E-02 0. -1.
        2   -1    0    0  501    0  0.00000000000E+00  0.00000000000E+00 -0.19903101867E+04  0.19903101867E+04  0.25500000920E-02 0.  1.
    10030    2    1    2    0    0  0.00000000000E+00  0.00000000000E+00 -0.12097582724E+04  0.27708621010E+04  0.24928220363E+04 0.  0.
        4    1    3    3  502    0 -0.97300384835E+03  0.42636575231E+03  0.11976627509E+03  0.10690508955E+04  0.12699999809E+01 0. -1.
       -4    1    3    3    0  502  0.97300384835E+03 -0.42636575231E+03 -0.13295245475E+04  0.17018112054E+04  0.12699999809E+01 0.  1.
</event>
<event>
 5   0  0.3214375E-07  0.2501222E+04  0.7818609E-02  0.8402550E-01
        3   -1    0    0  501    0  0.00000000000E+00  0.00000000000E+00  0.17132296394E+04  0.17132296424E+04  0.10100000352E+00 0.  1.
       -3   -1    0    0    0  501  0.00000000000E+00  0.00000000000E+00 -0.91291165475E+03  0.91291166034E+03  0.10100000352E+00 0. -1.
    10030    2    1    2    0    0  0.00000000000E+00  0.00000000000E+00  0.80031798465E+03  0.26261413027E+04  0.25012215546E+04 0.  0.
        4    1    3    3  502    0 -0.12219422186E+04 -0.44664538757E+02  0.12458533133E+03  0.12290894289E+04  0.12699999809E+01 0. -1.
       -4    1    3    3    0  502  0.12219422186E+04  0.44664538757E+02  0.67573265332E+03  0.13970518738E+04  0.12699999809E+01 0.  1.
</event>
<event>
 5   0  0.3837524E-07  0.2499483E+04  0.7818609E-02  0.8403170E-01
        1   -1    0    0  501    0  0.00000000000E+00  0.00000000000E+00  0.15842023530E+04  0.15842023530E+04  0.50400001928E-02 0.  1.
       -1   -1    0    0    0  501  0.00000000000E+00  0.00000000000E+00 -0.98589273987E+03  0.98589273988E+03  0.50400001928E-02 0. -1.
    10030    2    1    2    0    0  0.00000000000E+00  0.00000000000E+00  0.59830961312E+03  0.25700950929E+04  0.24994828252E+04 0.  0.
        5    1    3    3  502    0  0.10171632201E+04  0.20087889570E+03 -0.41830943837E+03  0.11180242499E+04  0.46999998093E+01 0. -1.
       -5    1    3    3    0  502 -0.10171632201E+04 -0.20087889570E+03  0.10166190515E+04  0.14520708430E+04  0.46999998093E+01 0.  1.
</event>
<event>
 5   0  0.3972587E-07  0.2504840E+04  0.7818609E-02  0.8401263E-01
        1   -1    0    0  501    0  0.00000000000E+00  0.00000000000E+00  0.98966713281E+03  0.98966713282E+03  0.50400001928E-02 0. -1.
       -1   -1    0    0    0  501  0.00000000000E+00  0.00000000000E+00 -0.15849321642E+04  0.15849321642E+04  0.50400001928E-02 0.  1.
    10030    2    1    2    0    0  0.00000000000E+00  0.00000000000E+00 -0.59526503140E+03  0.25745992970E+04  0.25048395323E+04 0.  0.
        3    1    3    3  502    0  0.66371765924E+03  0.10429352589E+04 -0.91241426867E+02  0.12395806120E+04  0.10100000352E+00 0. -1.
       -3    1    3    3    0  502 -0.66371765924E+03 -0.10429352589E+04 -0.50402360454E+03  0.13350186851E+04  0.10100000352E+00 0.  1.
</event>
<event>
 5   0  0.9508784E-07  0.2499316E+04  0.7818609E-02  0.8403229E-01
        2   -1    0    0  501    0  0.00000000000E+00  0.00000000000E+00  0.18328976678E+04  0.18328976678E+04  0.25500000920E-02 0.  1.
       -2   -1    0    0    0  501  0.00000000000E+00  0.00000000000E+00 -0.85200871250E+03  0.85200871251E+03  0.25500000920E-02 0. -1.
    10030    2    1    2    0    0  0.00000000000E+00  0.00000000000E+00  0.98088895532E+03  0.26849063803E+04  0.24993157320E+04 0.  0.
        2    1    3    3  502    0 -0.11624931947E+04  0.12960048023E+03  0.17944873213E+02  0.11698327790E+04  0.25500000920E-02 0. -1.
       -2    1    3    3    0  502  0.11624931947E+04 -0.12960048023E+03  0.96294408210E+03  0.15150736014E+04  0.25500000920E-02 0.  1.
</event>
<event>
 5   0  0.3991066E-07  0.2499922E+04  0.7818609E-02  0.8403013E-01
        1   -1    0    0  501    0  0.00000000000E+00  0.00000000000E+00  0.87286608912E+03  0.87286608914E+03  0.50400001928E-02 0. -1.
       -1   -1    0    0    0  501  0.00000000000E+00  0.00000000000E+00 -0.17899675520E+04  0.17899675520E+04  0.50400001928E-02 0.  1.
    10030    2    1    2    0    0  0.00000000000E+00  0.00000000000E+00 -0.91710146285E+03  0.26628336411E+04  0.24999215802E+04 0.  0.
        1    1    3    3  502    0  0.59518107778E+03  0.86400615117E+03  0.26517888024E+03  0.10821584834E+04  0.50400001928E-02 0. -1.
       -1    1    3    3    0  502 -0.59518107778E+03 -0.86400615117E+03 -0.11822803431E+04  0.15806751577E+04  0.50400001928E-02 0.  1.
</event>
<event>
 5   0  0.9508784E-07  0.2500983E+04  0.7818609E-02  0.8402635E-01
        2   -1    0    0  501    0  0.00000000000E+00  0.00000000000E+00  0.21398973458E+04  0.21398973458E+04  0.25500000920E-02 0.  1.
       -2   -1    0    0    0  501  0.00000000000E+00  0.00000000000E+00 -0.73074941480E+03  0.73074941481E+03  0.25500000920E-02 0. -1.
    10030    2    1    2    0    0  0.00000000000E+00  0.00000000000E+00  0.14091479310E+04  0.28706467606E+04  0.25009827934E+04 0.  0.
        2    1    3    3  502    0 -0.36257033466E+03  0.29163795693E+02  0.20778338604E+04  0.21094315172E+04  0.25500000920E-02 0.  1.
       -2    1    3    3    0  502  0.36257033466E+03 -0.29163795693E+02 -0.66868592939E+03  0.76121524336E+03  0.25500000920E-02 0. -1.
</event>
<event>
 5   0  0.9508784E-07  0.2497848E+04  0.7818609E-02  0.8403753E-01
       -2   -1    0    0    0  501  0.00000000000E+00  0.00000000000E+00  0.12153462134E+04  0.12153462134E+04  0.25500000920E-02 0. -1.
        2   -1    0    0  501    0  0.00000000000E+00  0.00000000000E+00 -0.12834291927E+04  0.12834291927E+04  0.25500000920E-02 0.  1.
    10030    2    1    2    0    0  0.00000000000E+00  0.00000000000E+00 -0.68082979305E+02  0.24987754060E+04  0.24978477211E+04 0.  0.
        2    1    3    3  502    0 -0.93429535382E+03  0.17189512254E+03 -0.84511696939E+03  0.12714867020E+04  0.25500000920E-02 0.  1.
       -2    1    3    3    0  502  0.93429535382E+03 -0.17189512254E+03  0.77703399009E+03  0.12272887040E+04  0.25500000920E-02 0. -1.
</event>
<event>
 5   0  0.3972587E-07  0.2500454E+04  0.7818609E-02  0.8402824E-01
       -1   -1    0    0    0  501  0.00000000000E+00  0.00000000000E+00  0.82795893465E+03  0.82795893466E+03  0.50400001928E-02 0.  1.
        1   -1    0    0  501    0  0.00000000000E+00  0.00000000000E+00 -0.18878556361E+04  0.18878556361E+04  0.50400001928E-02 0. -1.
    10030    2    1    2    0    0  0.00000000000E+00  0.00000000000E+00 -0.10598967014E+04  0.27158145708E+04  0.25004535119E+04 0.  0.
        3    1    3    3  502    0 -0.42729746609E+03 -0.53108950118E+03 -0.16682754559E+04  0.18021604229E+04  0.10100000352E+00 0. -1.
       -3    1    3    3    0  502  0.42729746609E+03  0.53108950118E+03  0.60837875449E+03  0.91365414786E+03  0.10100000352E+00 0.  1.
</event>
<event>
 5   0  0.3991066E-07  0.2500213E+04  0.7818609E-02  0.8402910E-01
        1   -1    0    0  501    0  0.00000000000E+00  0.00000000000E+00  0.14443468074E+04  0.14443468074E+04  0.50400001928E-02 0.  1.
       -1   -1    0    0    0  501  0.00000000000E+00  0.00000000000E+00 -0.10819883805E+04  0.10819883805E+04  0.50400001928E-02 0. -1.
    10030    2    1    2    0    0  0.00000000000E+00  0.00000000000E+00  0.36235842688E+03  0.25263351880E+04  0.25002131614E+04 0.  0.
        1    1    3    3  502    0  0.52481208914E+03  0.83440747974E+03  0.95804407128E+03  0.13745952181E+04  0.50400001928E-02 0.  1.
       -1    1    3    3    0  502 -0.52481208914E+03 -0.83440747974E+03 -0.59568564440E+03  0.11517399698E+04  0.50400001928E-02 0. -1.
</event>
<event>
 5   0  0.3972587E-07  0.2500759E+04  0.7818609E-02  0.8402715E-01
        1   -1    0    0  501    0  0.00000000000E+00  0.00000000000E+00  0.11141014997E+04  0.11141014997E+04  0.50400001928E-02 0.  1.
       -1   -1    0    0    0  501  0.00000000000E+00  0.00000000000E+00 -0.14033274135E+04  0.14033274135E+04  0.50400001928E-02 0. -1.
    10030    2    1    2    0    0  0.00000000000E+00  0.00000000000E+00 -0.28922591382E+03  0.25174289133E+04  0.25007592256E+04 0.  0.
        3    1    3    3  502    0 -0.77890780547E+03 -0.97813615411E+03 -0.14582950406E+03  0.12588542250E+04  0.10100000352E+00 0.  1.
       -3    1    3    3    0  502  0.77890780547E+03  0.97813615411E+03 -0.14339640976E+03  0.12585746883E+04  0.10100000352E+00 0. -1.
</event>
<event>
 5   0  0.3214375E-07  0.2498440E+04  0.7818609E-02  0.8403541E-01
        3   -1    0    0  501    0  0.00000000000E+00  0.00000000000E+00  0.51487981005E+03  0.51487981995E+03  0.10100000352E+00 0.  1.
       -3   -1    0    0    0  501  0.00000000000E+00  0.00000000000E+00 -0.30309036443E+04  0.30309036460E+04  0.10100000352E+00 0. -1.
    10030    2    1    2    0    0  0.00000000000E+00  0.00000000000E+00 -0.25160238342E+04  0.35457834659E+04  0.24984404041E+04 0.  0.
        2    1    3    3  502    0  0.29469847628E+03 -0.12138772435E+04 -0.12376446165E+04  0.17584394647E+04  0.25500000920E-02 0.  1.
       -2    1    3    3    0  502 -0.29469847628E+03  0.12138772435E+04 -0.12783792177E+04  0.17873440012E+04  0.25500000920E-02 0. -1.
</event>
<event>
 5   0  0.3805418E-07  0.2499154E+04  0.7818609E-02  0.8403287E-01
       -1   -1    0    0    0  501  0.00000000000E+00  0.00000000000E+00  0.12292504362E+04  0.12292504362E+04  0.50400001928E-02 0. -1.
        1   -1    0    0  501    0  0.00000000000E+00  0.00000000000E+00 -0.12702392502E+04  0.12702392502E+04  0.50400001928E-02 0.  1.
    10030    2    1    2    0    0  0.00000000000E+00  0.00000000000E+00 -0.40988814051E+02  0.24994896864E+04  0.24991535786E+04 0.  0.
        4    1    3    3  502    0  0.11559087485E+04  0.30692329132E+03  0.34165040777E+03  0.12438060763E+04  0.12699999809E+01 0. -1.
       -4    1    3    3    0  502 -0.11559087485E+04 -0.30692329132E+03 -0.38263922182E+03  0.12556836100E+04  0.12699999809E+01 0.  1.
</event>
<event>
 5   0  0.3805418E-07  0.2500376E+04  0.7818609E-02  0.8402852E-01
       -1   -1    0    0    0  501  0.00000000000E+00  0.00000000000E+00  0.10671050547E+04  0.10671050548E+04  0.50400001928E-02 0.  1.
        1   -1    0    0  501    0  0.00000000000E+00  0.00000000000E+00 -0.14646823440E+04  0.14646823440E+04  0.50400001928E-02 0. -1.
    10030    2    1    2    0    0  0.00000000000E+00  0.00000000000E+00 -0.39757728925E+03  0.25317873988E+04  0.25003759181E+04 0.  0.
        4    1    3    3  502    0 -0.65333248186E+03  0.10204642279E+04  0.11293885679E+03  0.12169418107E+04  0.12699999809E+01 0.  1.
       -4    1    3    3    0  502  0.65333248186E+03 -0.10204642279E+04 -0.51051614604E+03  0.13148455881E+04  0.12699999809E+01 0. -1.
</event>
<event>
 5   0  0.8997210E-07  0.2498827E+04  0.7818609E-02  0.8403403E-01
       -2   -1    0    0    0  501  0.00000000000E+00  0.00000000000E+00  0.53193118965E+03  0.53193118965E+03  0.25500000920E-02 0. -1.
        2   -1    0    0  501    0  0.00000000000E+00  0.00000000000E+00 -0.29346547581E+04  0.29346547581E+04  0.25500000920E-02 0.  1.
    10030    2    1    2    0    0  0.00000000000E+00  0.00000000000E+00 -0.24027235684E+04  0.34665859477E+04  0.24988272423E+04 0.  0.
        1    1    3    3  502    0  0.33726761009E+03 -0.12013101567E+04 -0.12906113844E+04  0.17951527175E+04  0.50400001928E-02 0. -1.
       -1    1    3    3    0  502 -0.33726761009E+03  0.12013101567E+04 -0.11121121840E+04  0.16714332302E+04  0.50400001928E-02 0.  1.
</event>
<event>
 5   0  0.9768582E-07  0.2500078E+04  0.7818609E-02  0.8402958E-01
        2   -1    0    0  501    0  0.00000000000E+00  0.00000000000E+00  0.10361475375E+04  0.10361475375E+04  0.25500000920E-02 0.  1.
       -2   -1    0    0    0  501  0.00000000000E+00  0.00000000000E+00 -0.15080838135E+04  0.15080838135E+04  0.25500000920E-02 0. -1.
    10030    2    1    2    0    0  0.00000000000E+00  0.00000000000E+00 -0.47193627601E+03  0.25442313510E+04  0.25000778625E+04 0.  0.
        3    1    3    3  502    0  0.77951656870E+03  0.95841063933E+03 -0.41810063120E+02  0.12361007750E+04  0.10100000352E+00 0.  1.
       -3    1    3    3    0  502 -0.77951656870E+03 -0.95841063933E+03 -0.43012621289E+03  0.13081305759E+04  0.10100000352E+00 0. -1.
</event>
<event>
 5   0  0.3837524E-07  0.2502234E+04  0.7818609E-02  0.8402190E-01
        1   -1    0    0  501    0  0.00000000000E+00  0.00000000000E+00  0.12600250935E+04  0.12600250935E+04  0.50400001928E-02 0.  1.
       -1   -1    0    0    0  501  0.00000000000E+00  0.00000000000E+00 -0.12422722039E+04  0.12422722039E+04  0.50400001928E-02 0. -1.
    10030    2    1    2    0    0  0.00000000000E+00  0.00000000000E+00  0.17752889676E+02  0.25022972974E+04  0.25022343215E+04 0.  0.
        5    1    3    3  502    0  0.56188611626E+03 -0.10228432153E+04  0.45982882032E+03  0.12543479919E+04  0.46999998093E+01 0.  1.
       -5    1    3    3    0  502 -0.56188611626E+03  0.10228432153E+04 -0.44207593065E+03  0.12479493055E+04  0.46999998093E+01 0. -1.
</event>
<event>
 5   0  0.9508784E-07  0.2500022E+04  0.7818609E-02  0.8402978E-01
       -2   -1    0    0    0  501  0.00000000000E+00  0.00000000000E+00  0.12251365858E+04  0.12251365858E+04  0.25500000920E-02 0.  1.
        2   -1    0    0  501    0  0.00000000000E+00  0.00000000000E+00 -0.12753902834E+04  0.12753902834E+04  0.25500000920E-02 0. -1.
    10030    2    1    2    0    0  0.00000000000E+00  0.00000000000E+00 -0.50253697594E+02  0.25005268691E+04  0.25000218377E+04 0.  0.
        2    1    3    3  502    0  0.11740565713E+04 -0.41323919820E+03 -0.14070030925E+03  0.12525861426E+04  0.25500000920E-02 0.  1.
       -2    1    3    3    0  502 -0.11740565713E+04  0.41323919820E+03  0.90446611660E+02  0.12479407266E+04  0.25500000920E-02 0. -1.
</event>
<event>
 5   0  0.9261602E-07  0.2499910E+04  0.7818609E-02  0.8403018E-01
        2   -1    0    0  501    0  0.00000000000E+00  0.00000000000E+00  0.18140398402E+04  0.18140398402E+04  0.25500000920E-02 0.  1.
       -2   -1    0    0    0  501  0.00000000000E+00  0.00000000000E+00 -0.86127525867E+03  0.86127525867E+03  0.25500000920E-02 0. -1.
    10030    2    1    2    0    0  0.00000000000E+00  0.00000000000E+00  0.95276458149E+03  0.26753150988E+04  0.24999101044E+04 0.  0.
        4    1    3    3  502    0  0.10207005169E+04  0.23935050800E+03  0.12047767111E+04  0.15970619109E+04  0.12699999809E+01 0. -1.
       -4    1    3    3    0  502 -0.10207005169E+04 -0.23935050800E+03 -0.25201212963E+03  0.10782531879E+04  0.12699999809E+01 0.  1.
</event>
<event>
 5   0  0.3805418E-07  0.2501769E+04  0.7818609E-02  0.8402356E-01
        1   -1    0    0  501    0  0.00000000000E+00  0.00000000000E+00  0.27606321143E+04  0.27606321143E+04  0.50400001928E-02 0.  1.
       -1   -1    0    0    0  501  0.00000000000E+00  0.00000000000E+00 -0.56679494963E+03  0.56679494965E+03  0.50400001928E-02 0. -1.
    10030    2    1    2    0    0  0.00000000000E+00  0.00000000000E+00  0.21938371647E+04  0.33274270640E+04  0.25017692461E+04 0.  0.
        4    1    3    3  502    0  0.74061559266E+03  0.35386383981E+03  0.23523563474E+04  0.24914479868E+04  0.12699999809E+01 0.  1.
       -4    1    3    3    0  502 -0.74061559266E+03 -0.35386383981E+03 -0.15851918268E+03  0.83597907713E+03  0.12699999809E+01 0. -1.
</event>
<event>
 5   0  0.9251138E-07  0.2497148E+04  0.7818609E-02  0.8404002E-01
       -2   -1    0    0    0  501  0.00000000000E+00  0.00000000000E+00  0.18546325010E+04  0.18546325010E+04  0.25500000920E-02 0.  1.
        2   -1    0    0  501    0  0.00000000000E+00  0.00000000000E+00 -0.84056403597E+03  0.84056403597E+03  0.25500000920E-02 0. -1.
    10030    2    1    2    0    0  0.00000000000E+00  0.00000000000E+00  0.10140684650E+04  0.26951965370E+04  0.24971482778E+04 0.  0.
        5    1    3    3  502    0 -0.38642531234E+03  0.25306436404E+03  0.17590099321E+04  0.18186544822E+04  0.46999998093E+01 0.  1.
       -5    1    3    3    0  502  0.38642531234E+03 -0.25306436404E+03 -0.74494146710E+03  0.87654205476E+03  0.46999998093E+01 0. -1.
</event>
<event>
 5   0  0.8997210E-07  0.2499913E+04  0.7818609E-02  0.8403017E-01
        2   -1    0    0  501    0  0.00000000000E+00  0.00000000000E+00  0.15425268393E+04  0.15425268393E+04  0.25500000920E-02 0.  1.
       -2   -1    0    0    0  501  0.00000000000E+00  0.00000000000E+00 -0.10128774394E+04  0.10128774394E+04  0.25500000920E-02 0. -1.
    10030    2    1    2    0    0  0.00000000000E+00  0.00000000000E+00  0.52964939984E+03  0.25554042787E+04  0.24999125066E+04 0.  0.
        1    1    3    3  502    0 -0.12175153974E+04 -0.25415444957E+03  0.13775766611E+03  0.12513654150E+04  0.50400001928E-02 0. -1.
       -1    1    3    3    0  502  0.12175153974E+04  0.25415444957E+03  0.39189173373E+03  0.13040388637E+04  0.50400001928E-02 0.  1.
</event>
<event>
 5   0  0.3805418E-07  0.2500418E+04  0.7818609E-02  0.8402837E-01
       -1   -1    0    0    0  501  0.00000000000E+00  0.00000000000E+00  0.68294980423E+03  0.68294980425E+03  0.50400001928E-02 0. -1.
        1   -1    0    0  501    0  0.00000000000E+00  0.00000000000E+00 -0.22886337112E+04  0.22886337112E+04  0.50400001928E-02 0.  1.
    10030    2    1    2    0    0  0.00000000000E+00  0.00000000000E+00 -0.16056839069E+04  0.29715835154E+04  0.25004175212E+04 0.  0.
        4    1    3    3  502    0 -0.71977313888E+03  0.89757370213E+03 -0.22146958388E+03  0.11716493979E+04  0.12699999809E+01 0. -1.
       -4    1    3    3    0  502  0.71977313888E+03 -0.89757370213E+03 -0.13842143230E+04  0.17999341175E+04  0.12699999809E+01 0.  1.
</event>
<event>
 5   0  0.3972587E-07  0.2513948E+04  0.7818609E-02  0.8398033E-01
        1   -1    0    0  501    0  0.00000000000E+00  0.00000000000E+00  0.69075725583E+03  0.69075725585E+03  0.50400001928E-02 0. -1.
       -1   -1    0    0    0  501  0.00000000000E+00  0.00000000000E+00 -0.22873219880E+04  0.22873219880E+04  0.50400001928E-02 0.  1.
    10030    2    1    2    0    0  0.00000000000E+00  0.00000000000E+00 -0.15965647322E+04  0.29780792439E+04  0.25139484956E+04 0.  0.
        3    1    3    3  502    0  0.74820176000E+03 -0.93292119606E+03 -0.33973039497E+03  0.12432073774E+04  0.10100000352E+00 0. -1.
       -3    1    3    3    0  502 -0.74820176000E+03  0.93292119606E+03 -0.12568343372E+04  0.17348718665E+04  0.10100000352E+00 0.  1.
</event>
<event>
 5   0  0.9261602E-07  0.2499379E+04  0.7818609E-02  0.8403207E-01
        2   -1    0    0  501    0  0.00000000000E+00  0.00000000000E+00  0.91279457155E+03  0.91279457155E+03  0.25500000920E-02 0. -1.
       -2   -1    0    0    0  501  0.00000000000E+00  0.00000000000E+00 -0.17109257392E+04  0.17109257392E+04  0.25500000920E-02 0.  1.
    10030    2    1    2    0    0  0.00000000000E+00  0.00000000000E+00 -0.79813116767E+03  0.26237203108E+04  0.24993789045E+04 0.  0.
        4    1    3    3  502    0 -0.10197597225E+04 -0.60769586599E+03  0.10898609841E+02  0.11871497588E+04  0.12699999809E+01 0.  1.
       -4    1    3    3    0  502  0.10197597225E+04  0.60769586599E+03 -0.80902977751E+03  0.14365705520E+04  0.12699999809E+01 0. -1.
</event>
<event>
 5   0  0.9768582E-07  0.2499880E+04  0.7818609E-02  0.8403028E-01
       -2   -1    0    0    0  501  0.00000000000E+00  0.00000000000E+00  0.81315677470E+03  0.81315677470E+03  0.25500000920E-02 0. -1.
        2   -1    0    0  501    0  0.00000000000E+00  0.00000000000E+00 -0.19213388394E+04  0.19213388394E+04  0.25500000920E-02 0.  1.
    10030    2    1    2    0    0  0.00000000000E+00  0.00000000000E+00 -0.11081820647E+04  0.27344956141E+04  0.24998797521E+04 0.  0.
        3    1    3    3  502    0  0.28806622462E+03 -0.61701591184E+03 -0.17006319303E+04  0.18318951274E+04  0.10100000352E+00 0.  1.
       -3    1    3    3    0  502 -0.28806622462E+03  0.61701591184E+03  0.59244986558E+03  0.90260048673E+03  0.10100000352E+00 0. -1.
</event>
<event>
 5   0  0.9508784E-07  0.2500449E+04  0.7818609E-02  0.8402826E-01
        2   -1    0    0  501    0  0.00000000000E+00  0.00000000000E+00  0.12633297344E+04  0.12633297344E+04  0.25500000920E-02 0.  1.
       -2   -1    0    0    0  501  0.00000000000E+00  0.00000000000E+00 -0.12372551128E+04  0.12372551128E+04  0.25500000920E-02 0. -1.
    10030    2    1    2    0    0  0.00000000000E+00  0.00000000000E+00  0.26074621550E+02  0.25005848472E+04  0.25004488981E+04 0.  0.
        2    1    3    3  502    0 -0.92010585910E+02  0.58564889698E+03 -0.10877543808E+04  0.12388140181E+04  0.25500000920E-02 0. -1.
       -2    1    3    3    0  502  0.92010585910E+02 -0.58564889698E+03  0.11138290024E+04  0.12617708290E+04  0.25500000920E-02 0.  1.
</event>
<event>
 5   0  0.9508784E-07  0.2499655E+04  0.7818609E-02  0.8403108E-01
        2   -1    0    0  501    0  0.00000000000E+00  0.00000000000E+00  0.85307576522E+03  0.85307576522E+03  0.25500000920E-02 0.  1.
       -2   -1    0    0    0  501  0.00000000000E+00  0.00000000000E+00 -0.18311026607E+04  0.18311026607E+04  0.25500000920E-02 0. -1.
    10030    2    1    2    0    0  0.00000000000E+00  0.00000000000E+00 -0.97802689550E+03  0.26841784259E+04  0.24996554190E+04 0.  0.
        2    1    3    3  502    0 -0.19370363372E+03  0.75360212195E+02  0.83438738064E+03  0.85988520180E+03  0.25500000920E-02 0.  1.
       -2    1    3    3    0  502  0.19370363372E+03 -0.75360212195E+02 -0.18124142761E+04  0.18242932241E+04  0.25500000920E-02 0. -1.
</event>
<event>
 5   0  0.9261602E-07  0.2500433E+04  0.7818609E-02  0.8402831E-01
        2   -1    0    0  501    0  0.00000000000E+00  0.00000000000E+00  0.20150168332E+04  0.20150168332E+04  0.25500000920E-02 0. -1.
       -2   -1    0    0    0  501  0.00000000000E+00  0.00000000000E+00 -0.77569660653E+03  0.77569660654E+03  0.25500000920E-02 0.  1.
    10030    2    1    2    0    0  0.00000000000E+00  0.00000000000E+00  0.12393202267E+04  0.27907134397E+04  0.25004333382E+04 0.  0.
        4    1    3    3  502    0 -0.92206443783E+03 -0.82626173416E+03  0.81338752100E+03  0.14813885895E+04  0.12699999809E+01 0.  1.
       -4    1    3    3    0  502  0.92206443783E+03  0.82626173416E+03  0.42593270568E+03  0.13093248503E+04  0.12699999809E+01 0. -1.
</event>
<event>
 5   0  0.9251138E-07  0.2511922E+04  0.7818609E-02  0.8398751E-01
       -2   -1    0    0    0  501  0.00000000000E+00  0.00000000000E+00  0.98331362392E+03  0.98331362393E+03  0.25500000920E-02 0. -1.
        2   -1    0    0  501    0  0.00000000000E+00  0.00000000000E+00 -0.16042065230E+04  0.16042065230E+04  0.25500000920E-02 0.  1.
    10030    2    1    2    0    0  0.00000000000E+00  0.00000000000E+00 -0.62089289910E+03  0.25875201470E+04  0.25119220766E+04 0.  0.
        5    1    3    3  502    0 -0.58972597096E+03  0.60327130898E+03  0.64798719379E+03  0.10637774609E+04  0.46999998093E+01 0. -1.
       -5    1    3    3    0  502  0.58972597096E+03 -0.60327130898E+03 -0.12688800929E+04  0.15237426860E+04  0.46999998093E+01 0.  1.
</event>
<event>
 5   0  0.9251138E-07  0.2500719E+04  0.7818609E-02  0.8402730E-01
        2   -1    0    0  501    0  0.00000000000E+00  0.00000000000E+00  0.22706555705E+04  0.22706555705E+04  0.25500000920E-02 0.  1.
       -2   -1    0    0    0  501  0.00000000000E+00  0.00000000000E+00 -0.68852294997E+03  0.68852294997E+03  0.25500000920E-02 0. -1.
    10030    2    1    2    0    0  0.00000000000E+00  0.00000000000E+00  0.15821326205E+04  0.29591785204E+04  0.25007186741E+04 0.  0.
        5    1    3    3  502    0 -0.57352104407E+03 -0.97683817024E+03  0.16464112798E+03  0.11446693802E+04  0.46999998093E+01 0. -1.
       -5    1    3    3    0  502  0.57352104407E+03  0.97683817024E+03  0.14174914925E+04  0.18145091403E+04  0.46999998093E+01 0.  1.
</event>
<event>
 5   0  0.9768582E-07  0.2504940E+04  0.7818609E-02  0.8401228E-01
        2   -1    0    0  501    0  0.00000000000E+00  0.00000000000E+00  0.46599585471E+03  0.46599585472E+03  0.25500000920E-02 0.  1.
       -2   -1    0    0    0  501  0.00000000000E+00  0.00000000000E+00 -0.33662992468E+04  0.33662992468E+04  0.25500000920E-02 0. -1.
    10030    2    1    2    0    0  0.00000000000E+00  0.00000000000E+00 -0.29003033921E+04  0.38322951015E+04  0.25049403145E+04 0.  0.
        3    1    3    3  502    0  0.37637758629E+03 -0.10750391704E+04 -0.65326567866E+03  0.13130595426E+04  0.10100000352E+00 0.  1.
       -3    1    3    3    0  502 -0.37637758629E+03  0.10750391704E+04 -0.22470377134E+04  0.25192355589E+04  0.10100000352E+00 0. -1.
</event>
<event>
 5   0  0.3991066E-07  0.2499559E+04  0.7818609E-02  0.8403143E-01
       -1   -1    0    0    0  501  0.00000000000E+00  0.00000000000E+00  0.10809005497E+04  0.10809005497E+04  0.50400001928E-02 0. -1.
        1   -1    0    0  501    0  0.00000000000E+00  0.00000000000E+00 -0.14450439080E+04  0.14450439080E+04  0.50400001928E-02 0.  1.
    10030    2    1    2    0    0  0.00000000000E+00  0.00000000000E+00 -0.36414335826E+03  0.25259444577E+04  0.24995589647E+04 0.  0.
        1    1    3    3  502    0  0.10760379686E+04 -0.60392829662E+03  0.18420343874E+02  0.12340690444E+04  0.50400001928E-02 0. -1.
       -1    1    3    3    0  502 -0.10760379686E+04  0.60392829662E+03 -0.38256370214E+03  0.12918754133E+04  0.50400001928E-02 0.  1.
</event>
<event>
 5   0  0.3991066E-07  0.2500401E+04  0.7818609E-02  0.8402843E-01
       -1   -1    0    0    0  501  0.00000000000E+00  0.00000000000E+00  0.90788420842E+03  0.90788420844E+03  0.50400001928E-02 0. -1.
        1   -1    0    0  501    0  0.00000000000E+00  0.00000000000E+00 -0.17215869649E+04  0.17215869649E+04  0.50400001928E-02 0.  1.
    10030    2    1    2    0    0  0.00000000000E+00  0.00000000000E+00 -0.81370275649E+03  0.26294711734E+04  0.25004012629E+04 0.  0.
        1    1    3    3  502    0 -0.74403057508E+03 -0.68486208916E+03 -0.11799056099E+04  0.15539610118E+04  0.50400001928E-02 0.  1.
       -1    1    3    3    0  502  0.74403057508E+03  0.68486208916E+03  0.36620285340E+03  0.10755101616E+04  0.50400001928E-02 0. -1.
</event>
<event>
 5   0  0.9508784E-07  0.2499315E+04  0.7818609E-02  0.8403230E-01
        2   -1    0    0  501    0  0.00000000000E+00  0.00000000000E+00  0.12244313713E+04  0.12244313713E+04  0.25500000920E-02 0.  1.
       -2   -1    0    0    0  501  0.00000000000E+00  0.00000000000E+00 -0.12754035265E+04  0.12754035265E+04  0.25500000920E-02 0. -1.
    10030    2    1    2    0    0  0.00000000000E+00  0.00000000000E+00 -0.50972155221E+02  0.24998348978E+04  0.24993151773E+04 0.  0.
        2    1    3    3  502    0 -0.11454874924E+04  0.45613357883E+03  0.17813585203E+03  0.12457655553E+04  0.25500000920E-02 0.  1.
       -2    1    3    3    0  502  0.11454874924E+04 -0.45613357883E+03 -0.22910800726E+03  0.12540693425E+04  0.25500000920E-02 0. -1.
</event>
<event>
 5   0  0.9261602E-07  0.2499892E+04  0.7818609E-02  0.8403024E-01
        2   -1    0    0  501    0  0.00000000000E+00  0.00000000000E+00  0.18739552823E+04  0.18739552823E+04  0.25500000920E-02 0.  1.
       -2   -1    0    0    0  501  0.00000000000E+00  0.00000000000E+00 -0.83372602168E+03  0.83372602168E+03  0.25500000920E-02 0. -1.
    10030    2    1    2    0    0  0.00000000000E+00  0.00000000000E+00  0.10402292606E+04  0.27076813040E+04  0.24998922235E+04 0.  0.
        4    1    3    3  502    0  0.70960380156E+03 -0.13601757022E+03  0.16248565866E+04  0.17782572577E+04  0.12699999809E+01 0.  1.
       -4    1    3    3    0  502 -0.70960380156E+03  0.13601757022E+03 -0.58462732600E+03  0.92942404628E+03  0.12699999809E+01 0. -1.
</event>
<event>
 5   0  0.3837524E-07  0.2499467E+04  0.7818609E-02  0.8403175E-01
        1   -1    0    0  501    0  0.00000000000E+00  0.00000000000E+00  0.20572798938E+04  0.20572798938E+04  0.50400001928E-02 0. -1.
       -1   -1    0    0    0  501  0.00000000000E+00  0.00000000000E+00 -0.75917449941E+03  0.75917449942E+03  0.50400001928E-02 0.  1.
    10030    2    1    2    0    0  0.00000000000E+00  0.00000000000E+00  0.12981053944E+04  0.28164543932E+04  0.24994674901E+04 0.  0.
        5    1    3    3  502    0  0.14269455671E+03  0.32865598844E+02 -0.74946453300E+03  0.76364982834E+03  0.46999998093E+01 0.  1.
       -5    1    3    3    0  502 -0.14269455671E+03 -0.32865598844E+02  0.20475699274E+04  0.20528045649E+04  0.46999998093E+01 0. -1.
</event>
<event>
 5   0  0.8997210E-07  0.2498914E+04  0.7818609E-02  0.8403372E-01
       -2   -1    0    0    0  501  0.00000000000E+00  0.00000000000E+00  0.11191356597E+04  0.11191356597E+04  0.25500000920E-02 0. -1.
        2   -1    0    0  501    0  0.00000000000E+00  0.00000000000E+00 -0.13949542997E+04  0.13949542997E+04  0.25500000920E-02 0.  1.
    10030    2    1    2    0    0  0.00000000000E+00  0.00000000000E+00 -0.27581864005E+03  0.25140899594E+04  0.24989142446E+04 0.  0.
        1    1    3    3  502    0 -0.79973268610E+03 -0.25728735447E+03 -0.10683902365E+04  0.13591272381E+04  0.50400001928E-02 0.  1.
       -1    1    3    3    0  502  0.79973268610E+03  0.25728735447E+03  0.79257159645E+03  0.11549627213E+04  0.50400001928E-02 0. -1.
</event>
<event>
 5   0  0.3837524E-07  0.2500675E+04  0.7818609E-02  0.8402745E-01
        1   -1    0    0  501    0  0.00000000000E+00  0.00000000000E+00  0.21068328270E+04  0.21068328270E+04  0.50400001928E-02 0.  1.
       -1   -1    0    0    0  501  0.00000000000E+00  0.00000000000E+00 -0.74203481093E+03  0.74203481094E+03  0.50400001928E-02 0. -1.
    10030    2    1    2    0    0  0.00000000000E+00  0.00000000000E+00  0.13647980161E+04  0.28488676380E+04  0.25006745478E+04 0.  0.
        5    1    3    3  502    0  0.46746655296E+03  0.19383269736E+03 -0.62013865463E+03  0.80043121732E+03  0.46999998093E+01 0. -1.
       -5    1    3    3    0  502 -0.46746655296E+03 -0.19383269736E+03  0.19849366707E+04  0.20484364207E+04  0.46999998093E+01 0.  1.
</event>
<event>
 5   0  0.3805418E-07  0.2499009E+04  0.7818609E-02  0.8403339E-01
        1   -1    0    0  501    0  0.00000000000E+00  0.00000000000E+00  0.24812643344E+04  0.24812643344E+04  0.50400001928E-02 0.  1.
       -1   -1    0    0    0  501  0.00000000000E+00  0.00000000000E+00 -0.62921999550E+03  0.62921999552E+03  0.50400001928E-02 0. -1.
    10030    2    1    2    0    0  0.00000000000E+00  0.00000000000E+00  0.18520443389E+04  0.31104843300E+04  0.24990087102E+04 0.  0.
        4    1    3    3  502    0 -0.73139400824E+03  0.21255784602E+03 -0.30687276439E+03  0.82115195891E+03  0.12699999809E+01 0. -1.
       -4    1    3    3    0  502  0.73139400824E+03 -0.21255784602E+03  0.21589171033E+04  0.22893323711E+04  0.12699999809E+01 0.  1.
</event>
<event>
 5   0  0.3991066E-07  0.2502208E+04  0.7818609E-02  0.8402200E-01
        1   -1    0    0  501    0  0.00000000000E+00  0.00000000000E+00  0.17213132848E+04  0.17213132848E+04  0.50400001928E-02 0.  1.
       -1   -1    0    0    0  501  0.00000000000E+00  0.00000000000E+00 -0.90934093959E+03  0.90934093960E+03  0.50400001928E-02 0. -1.
    10030    2    1    2    0    0  0.00000000000E+00  0.00000000000E+00  0.81197234525E+03  0.26306542244E+04  0.25022075372E+04 0.  0.
        1    1    3    3  502    0 -0.53310808290E+03  0.11212220732E+04  0.56857776975E+03  0.13655123016E+04  0.50400001928E-02 0.  1.
       -1    1    3    3    0  502  0.53310808290E+03 -0.11212220732E+04  0.24339457550E+03  0.12651419228E+04  0.50400001928E-02 0. -1.
</event>
<event>
 5   0  0.3991066E-07  0.2499321E+04  0.7818609E-02  0.8403227E-01
        1   -1    0    0  501    0  0.00000000000E+00  0.00000000000E+00  0.17317257877E+04  0.17317257877E+04  0.50400001928E-02 0. -1.
       -1   -1    0    0    0  501  0.00000000000E+00  0.00000000000E+00 -0.90178917511E+03  0.90178917512E+03  0.50400001928E-02 0.  1.
    10030    2    1    2    0    0  0.00000000000E+00  0.00000000000E+00  0.82993661258E+03  0.26335149628E+04  0.24993211635E+04 0.  0.
        1    1    3    3  502    0 -0.27542916443E+03  0.99071708942E+03 -0.33327921493E+03  0.10809517154E+04  0.50400001928E-02 0.  1.
       -1    1    3    3    0  502  0.27542916443E+03 -0.99071708942E+03  0.11632158275E+04  0.15525632474E+04  0.50400001928E-02 0. -1.
</event>
<event>
 5   0  0.3991066E-07  0.2501199E+04  0.7818609E-02  0.8402559E-01
       -1   -1    0    0    0  501  0.00000000000E+00  0.00000000000E+00  0.14645549034E+04  0.14645549035E+04  0.50400001928E-02 0.  1.
        1   -1    0    0  501    0  0.00000000000E+00  0.00000000000E+00 -0.10679002528E+04  0.10679002528E+04  0.50400001928E-02 0. -1.
    10030    2    1    2    0    0  0.00000000000E+00  0.00000000000E+00  0.39665465066E+03  0.25324551562E+04  0.25011985540E+04 0.  0.
        1    1    3    3  502    0 -0.14228912907E+03  0.12291794344E+04  0.38189459709E+03  0.12949794444E+04  0.50400001928E-02 0.  1.
       -1    1    3    3    0  502  0.14228912907E+03 -0.12291794344E+04  0.14760053569E+02  0.12374757118E+04  0.50400001928E-02 0. -1.
</event>
<event>
 5   0  0.3873231E-07  0.2500409E+04  0.7818609E-02  0.8402840E-01
       -1   -1    0    0    0  501  0.00000000000E+00  0.00000000000E+00  0.78251555293E+03  0.78251555294E+03  0.50400001928E-02 0. -1.
        1   -1    0    0  501    0  0.00000000000E+00  0.00000000000E+00 -0.19974195511E+04  0.19974195511E+04  0.50400001928E-02 0.  1.
    10030    2    1    2    0    0  0.00000000000E+00  0.00000000000E+00 -0.12149039982E+04  0.27799351040E+04  0.25004094581E+04 0.  0.
        2    1    3    3  502    0 -0.68317868824E+03 -0.80778074809E+03  0.13317921019E+03  0.10662924360E+04  0.25500000920E-02 0. -1.
       -2    1    3    3    0  502  0.68317868824E+03  0.80778074809E+03 -0.13480832084E+04  0.17136426680E+04  0.25500000920E-02 0.  1.
</event>
<event>
 5   0  0.3837524E-07  0.2499920E+04  0.7818609E-02  0.8403014E-01
       -1   -1    0    0    0  501  0.00000000000E+00  0.00000000000E+00  0.13195722716E+04  0.13195722716E+04  0.50400001928E-02 0.  1.
        1   -1    0    0  501    0  0.00000000000E+00  0.00000000000E+00 -0.11840196187E+04  0.11840196187E+04  0.50400001928E-02 0. -1.
    10030    2    1    2    0    0  0.00000000000E+00  0.00000000000E+00  0.13555265292E+03  0.25035918904E+04  0.24999195651E+04 0.  0.
        5    1    3    3  502    0  0.51532817900E+03 -0.17543850925E+03 -0.10590589998E+04  0.11907853953E+04  0.46999998093E+01 0. -1.
       -5    1    3    3    0  502 -0.51532817900E+03  0.17543850925E+03  0.11946116527E+04  0.13128064950E+04  0.46999998093E+01 0.  1.
</event>
<event>
 5   0  0.9768582E-07  0.2499786E+04  0.7818609E-02  0.8403062E-01
        2   -1    0    0  501    0  0.00000000000E+00  0.00000000000E+00  0.17032968312E+04  0.17032968312E+04  0.25500000920E-02 0.  1.
       -2   -1    0    0    0  501  0.00000000000E+00  0.00000000000E+00 -0.91718146476E+03  0.91718146477E+03  0.25500000920E-02 0. -1.
    10030    2    1    2    0    0  0.00000000000E+00  0.00000000000E+00  0.78611536649E+03  0.26204782960E+04  0.24997858169E+04 0.  0.
        3    1    3    3  502    0  0.14103122409E+03  0.98492636059E+03 -0.39994639869E+03  0.10723464338E+04  0.10100000352E+00 0. -1.
       -3    1    3    3    0  502 -0.14103122409E+03 -0.98492636059E+03  0.11860617652E+04  0.15481318623E+04  0.10100000352E+00 0.  1.
</event>
<event>
 5   0  0.3972587E-07  0.2500082E+04  0.7818609E-02  0.8402956E-01
        1   -1    0    0  501    0  0.00000000000E+00  0.00000000000E+00  0.20466995640E+04  0.20466995640E+04  0.50400001928E-02 0. -1.
       -1   -1    0    0    0  501  0.00000000000E+00  0.00000000000E+00 -0.76347400871E+03  0.76347400873E+03  0.50400001928E-02 0.  1.
    10030    2    1    2    0    0  0.00000000000E+00  0.00000000000E+00  0.12832255553E+04  0.28101735727E+04  0.25000815353E+04 0.  0.
        3    1    3    3  502    0 -0.96301580969E+03 -0.78761293993E+03  0.50455304224E+03  0.13425004192E+04  0.10100000352E+00 0.  1.
       -3    1    3    3    0  502  0.96301580969E+03  0.78761293993E+03  0.77867251301E+03  0.14676731535E+04  0.10100000352E+00 0. -1.
</event>
<event>
 5   0  0.3873231E-07  0.2499760E+04  0.7818609E-02  0.8403071E-01
       -1   -1    0    0    0  501  0.00000000000E+00  0.00000000000E+00  0.10228284892E+04  0.10228284892E+04  0.50400001928E-02 0.  1.
        1   -1    0    0  501    0  0.00000000000E+00  0.00000000000E+00 -0.15273334325E+04  0.15273334325E+04  0.50400001928E-02 0. -1.
    10030    2    1    2    0    0  0.00000000000E+00  0.00000000000E+00 -0.50450494332E+03  0.25501619218E+04  0.24997601064E+04 0.  0.
        2    1    3    3  502    0  0.53796419139E+03  0.58511594721E+03  0.73178630153E+03  0.10804060968E+04  0.25500000920E-02 0.  1.
       -2    1    3    3    0  502 -0.53796419139E+03 -0.58511594721E+03 -0.12362912448E+04  0.14697558250E+04  0.25500000920E-02 0. -1.
</event>
<event>
 5   0  0.9251138E-07  0.2500452E+04  0.7818609E-02  0.8402824E-01
        2   -1    0    0  501    0  0.00000000000E+00  0.00000000000E+00  0.12621221191E+04  0.12621221191E+04  0.25500000920E-02 0.  1.
       -2   -1    0    0    0  501  0.00000000000E+00  0.00000000000E+00 -0.12384424135E+04  0.12384424135E+04  0.25500000920E-02 0. -1.
    10030    2    1    2    0    0  0.00000000000E+00  0.00000000000E+00  0.23679705687E+02  0.25005645326E+04  0.25004524097E+04 0.  0.
        5    1    3    3  502    0  0.12489589465E+03 -0.73874427205E+00  0.12558586325E+04  0.12620628055E+04  0.46999998093E+01 0.  1.
       -5    1    3    3    0  502 -0.12489589465E+03  0.73874427205E+00 -0.12321789268E+04  0.12385017271E+04  0.46999998093E+01 0. -1.
</event>
<event>
 5   0  0.9768582E-07  0.2498669E+04  0.7818609E-02  0.8403460E-01
       -2   -1    0    0    0  501  0.00000000000E+00  0.00000000000E+00  0.11181051274E+04  0.11181051274E+04  0.25500000920E-02 0.  1.
        2   -1    0    0  501    0  0.00000000000E+00  0.00000000000E+00 -0.13959655677E+04  0.13959655677E+04  0.25500000920E-02 0. -1.
    10030    2    1    2    0    0  0.00000000000E+00  0.00000000000E+00 -0.27786044028E+03  0.25140706951E+04  0.24986686526E+04 0.  0.
        3    1    3    3  502    0 -0.72710131597E+03 -0.87047504731E+03  0.38816257107E+03  0.11987799312E+04  0.10100000352E+00 0.  1.
       -3    1    3    3    0  502  0.72710131597E+03  0.87047504731E+03 -0.66602301135E+03  0.13152907639E+04  0.10100000352E+00 0. -1.
</event>
<event>
 5   0  0.3991066E-07  0.2500884E+04  0.7818609E-02  0.8402671E-01
        1   -1    0    0  501    0  0.00000000000E+00  0.00000000000E+00  0.18392409318E+04  0.18392409318E+04  0.50400001928E-02 0. -1.
       -1   -1    0    0    0  501  0.00000000000E+00  0.00000000000E+00 -0.85013642800E+03  0.85013642801E+03  0.50400001928E-02 0.  1.
    10030    2    1    2    0    0  0.00000000000E+00  0.00000000000E+00  0.98910450376E+03  0.26893773598E+04  0.25008844164E+04 0.  0.
        1    1    3    3  502    0  0.60861684328E+02  0.93091344839E+03  0.13899567338E+04  0.16740023043E+04  0.50400001928E-02 0. -1.
       -1    1    3    3    0  502 -0.60861684328E+02 -0.93091344839E+03 -0.40085222999E+03  0.10153750555E+04  0.50400001928E-02 0.  1.
</event>
<event>
 5   0  0.9261602E-07  0.2495520E+04  0.7818609E-02  0.8404583E-01
       -2   -1    0    0    0  501  0.00000000000E+00  0.00000000000E+00  0.13067558900E+04  0.13067558900E+04  0.25500000920E-02 0.  1.
        2   -1    0    0  501    0  0.00000000000E+00  0.00000000000E+00 -0.11914278488E+04  0.11914278488E+04  0.25500000920E-02 0. -1.
    10030    2    1    2    0    0  0.00000000000E+00  0.00000000000E+00  0.11532804119E+03  0.24981837387E+04  0.24955202735E+04 0.  0.
        4    1    3    3  502    0  0.23089100777E+03  0.93660139223E+03 -0.73461666430E+03  0.12125164254E+04  0.12699999809E+01 0. -1.
       -4    1    3    3    0  502 -0.23089100777E+03 -0.93660139223E+03  0.84994470549E+03  0.12856673134E+04  0.12699999809E+01 0.  1.
</event>
<event>
 5   0  0.8997210E-07  0.2498253E+04  0.7818609E-02  0.8403608E-01
       -2   -1    0    0    0  501  0.00000000000E+00  0.00000000000E+00  0.78352246204E+03  0.78352246204E+03  0.25500000920E-02 0.  1.
        2   -1    0    0  501    0  0.00000000000E+00  0.00000000000E+00 -0.19914125635E+04  0.19914125635E+04  0.25500000920E-02 0. -1.
    10030    2    1    2    0    0  0.00000000000E+00  0.00000000000E+00 -0.12078901014E+04  0.27749350255E+04  0.24982525690E+04 0.  0.
        1    1    3    3  502    0  0.56388403947E+03 -0.55869008820E+03  0.46734859847E+03  0.92114848811E+03  0.50400001928E-02 0.  1.
       -1    1    3    3    0  502 -0.56388403947E+03  0.55869008820E+03 -0.16752386999E+04  0.18537865374E+04  0.50400001928E-02 0. -1.
</event>
<event>
 5   0  0.9768582E-07  0.2502621E+04  0.7818609E-02  0.8402052E-01
       -2   -1    0    0    0  501  0.00000000000E+00  0.00000000000E+00  0.77895100804E+03  0.77895100805E+03  0.25500000920E-02 0.  1.
        2   -1    0    0  501    0  0.00000000000E+00  0.00000000000E+00 -0.20101109317E+04  0.20101109317E+04  0.25500000920E-02 0. -1.
    10030    2    1    2    0    0  0.00000000000E+00  0.00000000000E+00 -0.12311599237E+04  0.27890619397E+04  0.25026209753E+04 0.  0.
        3    1    3    3  502    0 -0.72172961239E+03 -0.63473997258E+03  0.27736980470E+03  0.10003611773E+04  0.10100000352E+00 0.  1.
       -3    1    3    3    0  502  0.72172961239E+03  0.63473997258E+03 -0.15085297284E+04  0.17887007625E+04  0.10100000352E+00 0. -1.
</event>
<event>
 5   0  0.3837524E-07  0.2500104E+04  0.7818609E-02  0.8402949E-01
       -1   -1    0    0    0  501  0.00000000000E+00  0.00000000000E+00  0.12682695176E+04  0.12682695176E+04  0.50400001928E-02 0.  1.
        1   -1    0    0  501    0  0.00000000000E+00  0.00000000000E+00 -0.12320960610E+04  0.12320960610E+04  0.50400001928E-02 0. -1.
    10030    2    1    2    0    0  0.00000000000E+00  0.00000000000E+00  0.36173456636E+02  0.25003655787E+04  0.25001038994E+04 0.  0.
        5    1    3    3  502    0 -0.60666501811E+03  0.67271446021E+03 -0.84340960748E+03  0.12377192917E+04  0.46999998093E+01 0. -1.
       -5    1    3    3    0  502  0.60666501811E+03 -0.67271446021E+03  0.87958306412E+03  0.12626462869E+04  0.46999998093E+01 0.  1.
</event>
<event>
 5   0  0.3873231E-07  0.2501785E+04  0.7818609E-02  0.8402350E-01
       -1   -1    0    0    0  501  0.00000000000E+00  0.00000000000E+00  0.94620236294E+03  0.94620236295E+03  0.50400001928E-02 0. -1.
        1   -1    0    0  501    0  0.00000000000E+00  0.00000000000E+00 -0.16536976084E+04  0.16536976084E+04  0.50400001928E-02 0.  1.
    10030    2    1    2    0    0  0.00000000000E+00  0.00000000000E+00 -0.70749524549E+03  0.25998999714E+04  0.25017854302E+04 0.  0.
        2    1    3    3  502    0 -0.11876226126E+04  0.39167496463E+03 -0.32299244952E+03  0.12915807642E+04  0.25500000920E-02 0.  1.
       -2    1    3    3    0  502  0.11876226126E+04 -0.39167496463E+03 -0.38450279597E+03  0.13083192072E+04  0.25500000920E-02 0. -1.
</event>
<event>
 5   0  0.3991066E-07  0.2499309E+04  0.7818609E-02  0.8403232E-01
        1   -1    0    0  501    0  0.00000000000E+00  0.00000000000E+00  0.17129680986E+04  0.17129680986E+04  0.50400001928E-02 0.  1.
       -1   -1    0    0    0  501  0.00000000000E+00  0.00000000000E+00 -0.91165531935E+03  0.91165531936E+03  0.50400001928E-02 0. -1.
    10030    2    1    2    0    0  0.00000000000E+00  0.00000000000E+00  0.80131277922E+03  0.26246234179E+04  0.24993090877E+04 0.  0.
        1    1    3    3  502    0  0.81901044905E+03  0.68269913255E+03 -0.28377385598E+03  0.11033511783E+04  0.50400001928E-02 0. -1.
       -1    1    3    3    0  502 -0.81901044905E+03 -0.68269913255E+03  0.10850866352E+04  0.15212722397E+04  0.50400001928E-02 0.  1.
</event>
<event>
 5   0  0.9508784E-07  0.2499501E+04  0.7818609E-02  0.8403163E-01
       -2   -1    0    0    0  501  0.00000000000E+00  0.00000000000E+00  0.11642213945E+04  0.11642213945E+04  0.25500000920E-02 0.  1.
        2   -1    0    0  501    0  0.00000000000E+00  0.00000000000E+00 -0.13415631451E+04  0.13415631451E+04  0.25500000920E-02 0. -1.
    10030    2    1    2    0    0  0.00000000000E+00  0.00000000000E+00 -0.17734175062E+03  0.25057845395E+04  0.24995011627E+04 0.  0.
        2    1    3    3  502    0  0.80229549785E+03  0.13101785987E+03  0.86294280197E+03  0.11855437676E+04  0.25500000920E-02 0.  1.
       -2    1    3    3    0  502 -0.80229549785E+03 -0.13101785987E+03 -0.10402845526E+04  0.13202407719E+04  0.25500000920E-02 0. -1.
</event>
<event>
 5   0  0.9261602E-07  0.2497698E+04  0.7818609E-02  0.8403806E-01
        2   -1    0    0  501    0  0.00000000000E+00  0.00000000000E+00  0.21252446698E+04  0.21252446698E+04  0.25500000920E-02 0. -1.
       -2   -1    0    0    0  501  0.00000000000E+00  0.00000000000E+00 -0.73385589188E+03  0.73385589188E+03  0.25500000920E-02 0.  1.
    10030    2    1    2    0    0  0.00000000000E+00  0.00000000000E+00  0.13913887779E+04  0.28591005617E+04  0.24976975979E+04 0.  0.
        4    1    3    3  502    0 -0.11833666784E+04  0.39367474172E+02  0.24109759107E+03  0.12083195583E+04  0.12699999809E+01 0.  1.
       -4    1    3    3    0  502  0.11833666784E+04 -0.39367474172E+02  0.11502911868E+04  0.16507810034E+04  0.12699999809E+01 0. -1.
</event>
<event>
 5   0  0.3873231E-07  0.2499499E+04  0.7818609E-02  0.8403164E-01
       -1   -1    0    0    0  501  0.00000000000E+00  0.00000000000E+00  0.13665730739E+04  0.13665730739E+04  0.50400001928E-02 0. -1.
        1   -1    0    0  501    0  0.00000000000E+00  0.00000000000E+00 -0.11429131370E+04  0.11429131370E+04  0.50400001928E-02 0.  1.
    10030    2    1    2    0    0  0.00000000000E+00  0.00000000000E+00  0.22365993697E+03  0.25094862109E+04  0.24994994049E+04 0.  0.
        2    1    3    3  502    0  0.54170177622E+03 -0.14213240000E+03 -0.10098769849E+04  0.11547700889E+04  0.25500000920E-02 0.  1.
       -2    1    3    3    0  502 -0.54170177622E+03  0.14213240000E+03  0.12335369219E+04  0.13547161220E+04  0.25500000920E-02 0. -1.
</event>
<event>
 5   0  0.3837524E-07  0.2500847E+04  0.7818609E-02  0.8402684E-01
        1   -1    0    0  501    0  0.00000000000E+00  0.00000000000E+00  0.11537572516E+04  0.11537572516E+04  0.50400001928E-02 0. -1.
       -1   -1    0    0    0  501  0.00000000000E+00  0.00000000000E+00 -0.13551892835E+04  0.13551892835E+04  0.50400001928E-02 0.  1.
    10030    2    1    2    0    0  0.00000000000E+00  0.00000000000E+00 -0.20143203189E+03  0.25089465351E+04  0.25008474268E+04 0.  0.
        5    1    3    3  502    0 -0.32107676190E+03  0.10058312352E+04 -0.77277398784E+03  0.13084297791E+04  0.46999998093E+01 0.  1.
       -5    1    3    3    0  502  0.32107676190E+03 -0.10058312352E+04  0.57134195595E+03  0.12005167559E+04  0.46999998093E+01 0. -1.
</event>
<event>
 5   0  0.3873231E-07  0.2499557E+04  0.7818609E-02  0.8403143E-01
        1   -1    0    0  501    0  0.00000000000E+00  0.00000000000E+00  0.99151597697E+03  0.99151597699E+03  0.50400001928E-02 0. -1.
       -1   -1    0    0    0  501  0.00000000000E+00  0.00000000000E+00 -0.15753115601E+04  0.15753115601E+04  0.50400001928E-02 0.  1.
    10030    2    1    2    0    0  0.00000000000E+00  0.00000000000E+00 -0.58379558316E+03  0.25668275371E+04  0.24995572253E+04 0.  0.
        2    1    3    3  502    0  0.71069344546E+03 -0.10278222751E+04 -0.27028919009E+03  0.12784991392E+04  0.25500000920E-02 0. -1.
       -2    1    3    3    0  502 -0.71069344546E+03  0.10278222751E+04 -0.31350639307E+03  0.12883283980E+04  0.25500000920E-02 0.  1.
</event>
<event>
 5   0  0.3214375E-07  0.2500355E+04  0.7818609E-02  0.8402859E-01
        3   -1    0    0  501    0  0.00000000000E+00  0.00000000000E+00  0.13198936020E+04  0.13198936059E+04  0.10100000352E+00 0. -1.
       -3   -1    0    0    0  501  0.00000000000E+00  0.00000000000E+00 -0.11841435366E+04  0.11841435409E+04  0.10100000352E+00 0.  1.
    10030    2    1    2    0    0  0.00000000000E+00  0.00000000000E+00  0.13575006545E+03  0.25040371468E+04  0.25003547652E+04 0.  0.
        5    1    3    3  502    0 -0.31729428387E+03 -0.26496536498E+03 -0.11137096420E+04  0.11879619370E+04  0.46999998093E+01 0.  1.
       -5    1    3    3    0  502  0.31729428387E+03  0.26496536498E+03  0.12494597074E+04  0.13160752097E+04  0.46999998093E+01 0. -1.
</event>
<event>
 5   0  0.9508784E-07  0.2500033E+04  0.7818609E-02  0.8402974E-01
       -2   -1    0    0    0  501  0.00000000000E+00  0.00000000000E+00  0.95683250323E+03  0.95683250324E+03  0.25500000920E-02 0.  1.
        2   -1    0    0  501    0  0.00000000000E+00  0.00000000000E+00 -0.16330348736E+04  0.16330348736E+04  0.25500000920E-02 0. -1.
    10030    2    1    2    0    0  0.00000000000E+00  0.00000000000E+00 -0.67620237033E+03  0.25898673768E+04  0.25000326765E+04 0.  0.
        2    1    3    3  502    0 -0.36882428768E+03 -0.46264634503E+03  0.80258703279E+03  0.99710528078E+03  0.25500000920E-02 0.  1.
       -2    1    3    3    0  502  0.36882428768E+03  0.46264634503E+03 -0.14787894031E+04  0.15927620960E+04  0.25500000920E-02 0. -1.
</event>
<event>
 5   0  0.9768582E-07  0.2499271E+04  0.7818609E-02  0.8403245E-01
        2   -1    0    0  501    0  0.00000000000E+00  0.00000000000E+00  0.12910507860E+04  0.12910507860E+04  0.25500000920E-02 0. -1.
       -2   -1    0    0    0  501  0.00000000000E+00  0.00000000000E+00 -0.12095484931E+04  0.12095484931E+04  0.25500000920E-02 0.  1.
    10030    2    1    2    0    0  0.00000000000E+00  0.00000000000E+00  0.81502292991E+02  0.25005992791E+04  0.24992707198E+04 0.  0.
        3    1    3    3  502    0  0.54979682295E+03 -0.75090322985E+03 -0.79363239334E+03  0.12231044899E+04  0.10100000352E+00 0.  1.
       -3    1    3    3    0  502 -0.54979682295E+03  0.75090322985E+03  0.87513468633E+03  0.12774947892E+04  0.10100000352E+00 0. -1.
</event>
<event>
 5   0  0.9508784E-07  0.2500354E+04  0.7818609E-02  0.8402859E-01
       -2   -1    0    0    0  501  0.00000000000E+00  0.00000000000E+00  0.69473151372E+03  0.69473151373E+03  0.25500000920E-02 0. -1.
        2   -1    0    0  501    0  0.00000000000E+00  0.00000000000E+00 -0.22497069694E+04  0.22497069694E+04  0.25500000920E-02 0.  1.
    10030    2    1    2    0    0  0.00000000000E+00  0.00000000000E+00 -0.15549754556E+04  0.29444384831E+04  0.25003538376E+04 0.  0.
        2    1    3    3  502    0  0.40337819860E+03 -0.10475922899E+04 -0.12950458224E+03  0.11300154927E+04  0.25500000920E-02 0. -1.
       -2    1    3    3    0  502 -0.40337819860E+03  0.10475922899E+04 -0.14254708734E+04  0.18144229904E+04  0.25500000920E-02 0.  1.
</event>
<event>
 5   0  0.3972587E-07  0.2501098E+04  0.7818609E-02  0.8402594E-01
        1   -1    0    0  501    0  0.00000000000E+00  0.00000000000E+00  0.15315068147E+04  0.15315068147E+04  0.50400001928E-02 0. -1.
       -1   -1    0    0    0  501  0.00000000000E+00  0.00000000000E+00 -0.10211335557E+04  0.10211335557E+04  0.50400001928E-02 0.  1.
    10030    2    1    2    0    0  0.00000000000E+00  0.00000000000E+00  0.51037325898E+03  0.25526403704E+04  0.25010981583E+04 0.  0.
        3    1    3    3  502    0  0.69791391788E+03  0.89660534474E+03 -0.27796546866E+03  0.11697221007E+04  0.10100000352E+00 0.  1.
       -3    1    3    3    0  502 -0.69791391788E+03 -0.89660534474E+03  0.78833872764E+03  0.13829182697E+04  0.10100000352E+00 0. -1.
</event>
<event>
 5   0  0.3837524E-07  0.2499537E+04  0.7818609E-02  0.8403151E-01
        1   -1    0    0  501    0  0.00000000000E+00  0.00000000000E+00  0.16665050852E+04  0.16665050852E+04  0.50400001928E-02 0.  1.
       -1   -1    0    0    0  501  0.00000000000E+00  0.00000000000E+00 -0.93724363469E+03  0.93724363470E+03  0.50400001928E-02 0. -1.
    10030    2    1    2    0    0  0.00000000000E+00  0.00000000000E+00  0.72926145049E+03  0.26037487199E+04  0.24995369838E+04 0.  0.
        5    1    3    3  502    0  0.46357964956E+03 -0.93026339511E+03 -0.35827913289E+03  0.10994007926E+04  0.46999998093E+01 0. -1.
       -5    1    3    3    0  502 -0.46357964956E+03  0.93026339511E+03  0.10875405834E+04  0.15043479273E+04  0.46999998093E+01 0.  1.
</event>
<event>
 5   0  0.9251138E-07  0.2499611E+04  0.7818609E-02  0.8403124E-01
        2   -1    0    0  501    0  0.00000000000E+00  0.00000000000E+00  0.17738030711E+04  0.17738030711E+04  0.25500000920E-02 0. -1.
       -2   -1    0    0    0  501  0.00000000000E+00  0.00000000000E+00 -0.88060126567E+03  0.88060126568E+03  0.25500000920E-02 0.  1.
    10030    2    1    2    0    0  0.00000000000E+00  0.00000000000E+00  0.89320180544E+03  0.26544043368E+04  0.24996105533E+04 0.  0.
        5    1    3    3  502    0 -0.22748036006E+03  0.29797583150E+03 -0.81947915633E+03  0.90116873449E+03  0.46999998093E+01 0.  1.
       -5    1    3    3    0  502  0.22748036006E+03 -0.29797583150E+03  0.17126809618E+04  0.17532356023E+04  0.46999998093E+01 0. -1.
</event>
<event>
 5   0  0.3837524E-07  0.2510469E+04  0.7818609E-02  0.8399266E-01
        1   -1    0    0  501    0  0.00000000000E+00  0.00000000000E+00  0.10414761595E+04  0.10414761595E+04  0.50400001928E-02 0.  1.
       -1   -1    0    0    0  501  0.00000000000E+00  0.00000000000E+00 -0.15128652538E+04  0.15128652538E+04  0.50400001928E-02 0. -1.
    10030    2    1    2    0    0  0.00000000000E+00  0.00000000000E+00 -0.47138909432E+03  0.25543414133E+04  0.25104685574E+04 0.  0.
        5    1    3    3  502    0 -0.34797104883E+03 -0.32780310627E+03 -0.14166034138E+04  0.14951006820E+04  0.46999998093E+01 0. -1.
       -5    1    3    3    0  502  0.34797104883E+03  0.32780310627E+03  0.94521431944E+03  0.10592407314E+04  0.46999998093E+01 0.  1.
</event>
<event>
 5   0  0.3873231E-07  0.2499966E+04  0.7818609E-02  0.8402998E-01
        1   -1    0    0  501    0  0.00000000000E+00  0.00000000000E+00  0.17850893021E+04  0.17850893021E+04  0.50400001928E-02 0. -1.
       -1   -1    0    0    0  501  0.00000000000E+00  0.00000000000E+00 -0.87528226628E+03  0.87528226629E+03  0.50400001928E-02 0.  1.
    10030    2    1    2    0    0  0.00000000000E+00  0.00000000000E+00  0.90980703585E+03  0.26603715684E+04  0.24999656077E+04 0.  0.
        2    1    3    3  502    0  0.62430299092E+03 -0.18328334748E+03 -0.68086832022E+03  0.94176890977E+03  0.25500000920E-02 0.  1.
       -2    1    3    3    0  502 -0.62430299092E+03  0.18328334748E+03  0.15906753561E+04  0.17186026587E+04  0.25500000920E-02 0. -1.
</event>
<event>
 5   0  0.9251138E-07  0.2499132E+04  0.7818609E-02  0.8403295E-01
        2   -1    0    0  501    0  0.00000000000E+00  0.00000000000E+00  0.14154507716E+04  0.14154507716E+04  0.25500000920E-02 0. -1.
       -2   -1    0    0    0  501  0.00000000000E+00  0.00000000000E+00 -0.11031225265E+04  0.11031225265E+04  0.25500000920E-02 0.  1.
    10030    2    1    2    0    0  0.00000000000E+00  0.00000000000E+00  0.31232824507E+03  0.25185732980E+04  0.24991323544E+04 0.  0.
        5    1    3    3  502    0 -0.87020742052E+03  0.81801707403E+02  0.10561063623E+04  0.13708884756E+04  0.46999998093E+01 0. -1.
       -5    1    3    3    0  502  0.87020742052E+03 -0.81801707403E+02 -0.74377811720E+03  0.11476848225E+04  0.46999998093E+01 0.  1.
</event>
<event>
 5   0  0.3991066E-07  0.2499218E+04  0.7818609E-02  0.8403264E-01
       -1   -1    0    0    0  501  0.00000000000E+00  0.00000000000E+00  0.16354606987E+04  0.16354606987E+04  0.50400001928E-02 0.  1.
        1   -1    0    0  501    0  0.00000000000E+00  0.00000000000E+00 -0.95479062433E+03  0.95479062434E+03  0.50400001928E-02 0. -1.
    10030    2    1    2    0    0  0.00000000000E+00  0.00000000000E+00  0.68067007441E+03  0.25902513231E+04  0.24992179110E+04 0.  0.
        1    1    3    3  502    0 -0.20279165717E+03 -0.12321207399E+04  0.29088369600E+03  0.12821307650E+04  0.50400001928E-02 0. -1.
       -1    1    3    3    0  502  0.20279165717E+03  0.12321207399E+04  0.38978637840E+03  0.13081205581E+04  0.50400001928E-02 0.  1.
</event>
<event>
 5   0  0.9768582E-07  0.2498206E+04  0.7818609E-02  0.8403625E-01
       -2   -1    0    0    0  501  0.00000000000E+00  0.00000000000E+00  0.97875967965E+03  0.97875967966E+03  0.25500000920E-02 0.  1.
        2   -1    0    0  501    0  0.00000000000E+00  0.00000000000E+00 -0.15941173421E+04  0.15941173421E+04  0.25500000920E-02 0. -1.
    10030    2    1    2    0    0  0.00000000000E+00  0.00000000000E+00 -0.61535766246E+03  0.25728770218E+04  0.24982055793E+04 0.  0.
        3    1    3    3  502    0  0.60686304444E+03 -0.55569337521E+02 -0.14306307331E+04  0.15550160805E+04  0.10100000352E+00 0. -1.
       -3    1    3    3    0  502 -0.60686304444E+03  0.55569337521E+02  0.81527307059E+03  0.10178609413E+04  0.10100000352E+00 0.  1.
</event>
<event>
 5   0  0.8997210E-07  0.2499442E+04  0.7818609E-02  0.8403184E-01
        2   -1    0    0  501    0  0.00000000000E+00  0.00000000000E+00  0.22295677268E+04  0.22295677268E+04  0.25500000920E-02 0. -1.
       -2   -1    0    0    0  501  0.00000000000E+00  0.00000000000E+00 -0.70049554866E+03  0.70049554867E+03  0.25500000920E-02 0.  1.
    10030    2    1    2    0    0  0.00000000000E+00  0.00000000000E+00  0.15290721782E+04  0.29300632755E+04  0.24994417521E+04 0.  0.
        1    1    3    3  502    0 -0.84463138080E+03  0.87166594601E+03  0.11134733541E+04  0.16471267714E+04  0.50400001928E-02 0.  1.
       -1    1    3    3    0  502  0.84463138080E+03 -0.87166594601E+03  0.41559882406E+03  0.12829365041E+04  0.50400001928E-02 0. -1.
</event>
<event>
 5   0  0.9768582E-07  0.2500792E+04  0.7818609E-02  0.8402704E-01
        2   -1    0    0  501    0  0.00000000000E+00  0.00000000000E+00  0.16922112802E+04  0.16922112802E+04  0.25500000920E-02 0. -1.
       -2   -1    0    0    0  501  0.00000000000E+00  0.00000000000E+00 -0.92393295285E+03  0.92393295285E+03  0.25500000920E-02 0.  1.
    10030    2    1    2    0    0  0.00000000000E+00  0.00000000000E+00  0.76827832738E+03  0.26161442331E+04  0.25007916866E+04 0.  0.
        3    1    3    3  502    0  0.83240006404E+01 -0.70098718251E+02  0.16901250834E+04  0.16915986306E+04  0.10100000352E+00 0. -1.
       -3    1    3    3    0  502 -0.83240006404E+01  0.70098718251E+02 -0.92184675602E+03  0.92454560248E+03  0.10100000352E+00 0.  1.
</event>
<event>
 5   0  0.3873231E-07  0.2497991E+04  0.7818609E-02  0.8403702E-01
       -1   -1    0    0    0  501  0.00000000000E+00  0.00000000000E+00  0.63106260100E+03  0.63106260102E+03  0.50400001928E-02 0.  1.
        1   -1    0    0  501    0  0.00000000000E+00  0.00000000000E+00 -0.24720045879E+04  0.24720045879E+04  0.50400001928E-02 0. -1.
    10030    2    1    2    0    0  0.00000000000E+00  0.00000000000E+00 -0.18409419869E+04  0.31030671889E+04  0.24979909087E+04 0.  0.
        2    1    3    3  502    0  0.36974565725E+03 -0.45494785726E+03  0.44952949557E+03  0.73875988743E+03  0.25500000920E-02 0.  1.
       -2    1    3    3    0  502 -0.36974565725E+03  0.45494785726E+03 -0.22904714824E+04  0.23643073015E+04  0.25500000920E-02 0. -1.
</event>
<event>
 5   0  0.9261602E-07  0.2499608E+04  0.7818609E-02  0.8403125E-01
       -2   -1    0    0    0  501  0.00000000000E+00  0.00000000000E+00  0.10215414143E+04  0.10215414144E+04  0.25500000920E-02 0. -1.
        2   -1    0    0  501    0  0.00000000000E+00  0.00000000000E+00 -0.15290720517E+04  0.15290720517E+04  0.25500000920E-02 0.  1.
    10030    2    1    2    0    0  0.00000000000E+00  0.00000000000E+00 -0.50753063733E+03  0.25506134660E+04  0.24996083104E+04 0.  0.
        4    1    3    3  502    0  0.11318513294E+04  0.44565791046E+02  0.28515481133E+03  0.11680703835E+04  0.12699999809E+01 0.  1.
       -4    1    3    3    0  502 -0.11318513294E+04 -0.44565791046E+02 -0.79268544866E+03  0.13825430825E+04  0.12699999809E+01 0. -1.
</event>
<event>
 5   0  0.3837524E-07  0.2499145E+04  0.7818609E-02  0.8403290E-01
        1   -1    0    0  501    0  0.00000000000E+00  0.00000000000E+00  0.18669961022E+04  0.18669961022E+04  0.50400001928E-02 0.  1.
       -1   -1    0    0    0  501  0.00000000000E+00  0.00000000000E+00 -0.83633375364E+03  0.83633375365E+03  0.50400001928E-02 0. -1.
    10030    2    1    2    0    0  0.00000000000E+00  0.00000000000E+00  0.10306623486E+04  0.27033298559E+04  0.24991453405E+04 0.  0.
        5    1    3    3  502    0 -0.22342450683E+03  0.61527633278E+03 -0.63602144947E+03  0.91270414161E+03  0.46999998093E+01 0. -1.
       -5    1    3    3    0  502  0.22342450683E+03 -0.61527633278E+03  0.16666837980E+04  0.17906257142E+04  0.46999998093E+01 0.  1.
</event>
<event>
 5   0  0.3214375E-07  0.2499751E+04  0.7818609E-02  0.8403074E-01
       -4   -1    0    0    0  501  0.00000000000E+00  0.00000000000E+00  0.13564660140E+04  0.13564666086E+04  0.12699999809E+01 0. -1.
        4   -1    0    0  501    0  0.00000000000E+00  0.00000000000E+00 -0.11516593633E+04  0.11516600635E+04  0.12699999809E+01 0.  1.
    10030    2    1    2    0    0  0.00000000000E+00  0.00000000000E+00  0.20480665074E+03  0.25081266721E+04  0.24997507154E+04 0.  0.
        5    1    3    3  502    0  0.12101535618E+04 -0.20487132597E+03  0.33925024260E+03  0.12734035968E+04  0.46999998093E+01 0.  1.
       -5    1    3    3    0  502 -0.12101535618E+04  0.20487132597E+03 -0.13444359187E+03  0.12347230753E+04  0.46999998093E+01 0. -1.
</event>
<event>
 5   0  0.3214375E-07  0.2497595E+04  0.7818609E-02  0.8403843E-01
       -3   -1    0    0    0  501  0.00000000000E+00  0.00000000000E+00  0.18808998333E+04  0.18808998360E+04  0.10100000352E+00 0. -1.
        3   -1    0    0  501    0  0.00000000000E+00  0.00000000000E+00 -0.82912184322E+03  0.82912184937E+03  0.10100000352E+00 0.  1.
    10030    2    1    2    0    0  0.00000000000E+00  0.00000000000E+00  0.10517779901E+04  0.27100216854E+04  0.24975949621E+04 0.  0.
        3    1    3    3  502    0  0.31053899879E+02 -0.82609288054E+03 -0.48972325432E+03  0.96084476790E+03  0.10100000352E+00 0.  1.
       -3    1    3    3    0  502 -0.31053899879E+02  0.82609288054E+03  0.15415012444E+04  0.17491769175E+04  0.10100000352E+00 0. -1.
</event>
<event>
 5   0  0.3873231E-07  0.2499790E+04  0.7818609E-02  0.8403060E-01
        1   -1    0    0  501    0  0.00000000000E+00  0.00000000000E+00  0.12547943469E+04  0.12547943469E+04  0.50400001928E-02 0. -1.
       -1   -1    0    0    0  501  0.00000000000E+00  0.00000000000E+00 -0.12450145118E+04  0.12450145118E+04  0.50400001928E-02 0.  1.
    10030    2    1    2    0    0  0.00000000000E+00  0.00000000000E+00  0.97798351063E+01  0.24998088587E+04  0.24997897281E+04 0.  0.
        2    1    3    3  502    0 -0.54818885948E+03 -0.54044015987E+03  0.98960582605E+03  0.12537568676E+04  0.25500000920E-02 0. -1.
       -2    1    3    3    0  502  0.54818885948E+03  0.54044015987E+03 -0.97982599095E+03  0.12460519911E+04  0.25500000920E-02 0.  1.
</event>
<event>
 5   0  0.3972587E-07  0.2499464E+04  0.7818609E-02  0.8403176E-01
       -1   -1    0    0    0  501  0.00000000000E+00  0.00000000000E+00  0.97513504066E+03  0.97513504067E+03  0.50400001928E-02 0.  1.
        1   -1    0    0  501    0  0.00000000000E+00  0.00000000000E+00 -0.16016553199E+04  0.16016553199E+04  0.50400001928E-02 0. -1.
    10030    2    1    2    0    0  0.00000000000E+00  0.00000000000E+00 -0.62652027923E+03  0.25767903606E+04  0.24994641230E+04 0.  0.
        3    1    3    3  502    0 -0.22608317256E+03  0.11476194311E+04 -0.76697351423E+03  0.13987109570E+04  0.10100000352E+00 0. -1.
       -3    1    3    3    0  502  0.22608317256E+03 -0.11476194311E+04  0.14045323500E+03  0.11780794035E+04  0.10100000352E+00 0.  1.
</event>
<event>
 5   0  0.3837524E-07  0.2499677E+04  0.7818609E-02  0.8403101E-01
       -1   -1    0    0    0  501  0.00000000000E+00  0.00000000000E+00  0.82108873983E+03  0.82108873985E+03  0.50400001928E-02 0.  1.
        1   -1    0    0  501    0  0.00000000000E+00  0.00000000000E+00 -0.19024692419E+04  0.19024692419E+04  0.50400001928E-02 0. -1.
    10030    2    1    2    0    0  0.00000000000E+00  0.00000000000E+00 -0.10813805020E+04  0.27235579817E+04  0.24996768370E+04 0.  0.
        5    1    3    3  502    0 -0.73909607871E+03 -0.91474254942E+03 -0.79639794434E+02  0.11787202943E+04  0.46999998093E+01 0.  1.
       -5    1    3    3    0  502  0.73909607871E+03  0.91474254942E+03 -0.10017407076E+04  0.15448376874E+04  0.46999998093E+01 0. -1.
</event>
<event>
 5   0  0.9251138E-07  0.2500676E+04  0.7818609E-02  0.8402745E-01
       -2   -1    0    0    0  501  0.00000000000E+00  0.00000000000E+00  0.98153220096E+03  0.98153220097E+03  0.25500000920E-02 0.  1.
        2   -1    0    0  501    0  0.00000000000E+00  0.00000000000E+00 -0.15927601797E+04  0.15927601797E+04  0.25500000920E-02 0. -1.
    10030    2    1    2    0    0  0.00000000000E+00  0.00000000000E+00 -0.61122797876E+03  0.25742923807E+04  0.25006762324E+04 0.  0.
        5    1    3    3  502    0 -0.11503841445E+04 -0.31327015919E+03  0.82036850086E+02  0.11951041827E+04  0.46999998093E+01 0.  1.
       -5    1    3    3    0  502  0.11503841445E+04  0.31327015919E+03 -0.69326482885E+03  0.13791881980E+04  0.46999998093E+01 0. -1.
</event>
<event>
 5   0  0.3991066E-07  0.2499665E+04  0.7818609E-02  0.8403105E-01
        1   -1    0    0  501    0  0.00000000000E+00  0.00000000000E+00  0.13649715988E+04  0.13649715988E+04  0.50400001928E-02 0.  1.
       -1   -1    0    0    0  501  0.00000000000E+00  0.00000000000E+00 -0.11444057686E+04  0.11444057686E+04  0.50400001928E-02 0. -1.
    10030    2    1    2    0    0  0.00000000000E+00  0.00000000000E+00  0.22056583017E+03  0.25093773674E+04  0.24996650749E+04 0.  0.
        1    1    3    3  502    0 -0.10987537918E+04  0.38941106946E+03 -0.34222393921E+03  0.12149148532E+04  0.50400001928E-02 0. -1.
       -1    1    3    3    0  502  0.10987537918E+04 -0.38941106946E+03  0.56278976938E+03  0.12944625142E+04  0.50400001928E-02 0.  1.
</event>
<event>
 5   0  0.3837524E-07  0.2498489E+04  0.7818609E-02  0.8403524E-01
       -1   -1    0    0    0  501  0.00000000000E+00  0.00000000000E+00  0.12114881424E+04  0.12114881424E+04  0.50400001928E-02 0. -1.
        1   -1    0    0  501    0  0.00000000000E+00  0.00000000000E+00 -0.12881773172E+04  0.12881773172E+04  0.50400001928E-02 0.  1.
    10030    2    1    2    0    0  0.00000000000E+00  0.00000000000E+00 -0.76689174878E+02  0.24996654596E+04  0.24984887793E+04 0.  0.
        5    1    3    3  502    0 -0.15993559361E+03 -0.11843810655E+04  0.32549074847E+03  0.12386703434E+04  0.46999998093E+01 0. -1.
       -5    1    3    3    0  502  0.15993559361E+03  0.11843810655E+04 -0.40217992335E+03  0.12609951162E+04  0.46999998093E+01 0.  1.
</event>
<event>
 5   0  0.3805418E-07  0.2500367E+04  0.7818609E-02  0.8402855E-01
       -1   -1    0    0    0  501  0.00000000000E+00  0.00000000000E+00  0.70988354924E+03  0.70988354926E+03  0.50400001928E-02 0. -1.
        1   -1    0    0  501    0  0.00000000000E+00  0.00000000000E+00 -0.22017123231E+04  0.22017123231E+04  0.50400001928E-02 0.  1.
    10030    2    1    2    0    0  0.00000000000E+00  0.00000000000E+00 -0.14918287738E+04  0.29115958723E+04  0.25003674597E+04 0.  0.
        4    1    3    3  502    0 -0.68626340909E+03  0.67204044721E+03  0.18592272833E+03  0.97834794585E+03  0.12699999809E+01 0. -1.
       -4    1    3    3    0  502  0.68626340909E+03 -0.67204044721E+03 -0.16777515022E+04  0.19332479265E+04  0.12699999809E+01 0.  1.
</event>
<event>
 5   0  0.3873231E-07  0.2499950E+04  0.7818609E-02  0.8403003E-01
       -1   -1    0    0    0  501  0.00000000000E+00  0.00000000000E+00  0.91381047892E+03  0.91381047894E+03  0.50400001928E-02 0. -1.
        1   -1    0    0  501    0  0.00000000000E+00  0.00000000000E+00 -0.17098051836E+04  0.17098051836E+04  0.50400001928E-02 0.  1.
    10030    2    1    2    0    0  0.00000000000E+00  0.00000000000E+00 -0.79599470466E+03  0.26236156625E+04  0.24999503145E+04 0.  0.
        2    1    3    3  502    0  0.70963590727E+03  0.89292103731E+03 -0.93471211126E+03  0.14746449846E+04  0.25500000920E-02 0.  1.
       -2    1    3    3    0  502 -0.70963590727E+03 -0.89292103731E+03  0.13871740660E+03  0.11489706779E+04  0.25500000920E-02 0. -1.
</event>
<event>
 5   0  0.9508784E-07  0.2499865E+04  0.7818609E-02  0.8403034E-01
       -2   -1    0    0    0  501  0.00000000000E+00  0.00000000000E+00  0.10307482037E+04  0.10307482037E+04  0.25500000920E-02 0.  1.
        2   -1    0    0  501    0  0.00000000000E+00  0.00000000000E+00 -0.15157253737E+04  0.15157253737E+04  0.25500000920E-02 0. -1.
    10030    2    1    2    0    0  0.00000000000E+00  0.00000000000E+00 -0.48497716997E+03  0.25464735774E+04  0.24998649613E+04 0.  0.
        2    1    3    3  502    0  0.10678281846E+04  0.23227605865E+03 -0.86053133363E+03  0.13909433401E+04  0.25500000920E-02 0. -1.
       -2    1    3    3    0  502 -0.10678281846E+04 -0.23227605865E+03  0.37555416366E+03  0.11555302372E+04  0.25500000920E-02 0.  1.
</event>
<event>
 5   0  0.9768582E-07  0.2499807E+04  0.7818609E-02  0.8403054E-01
       -2   -1    0    0    0  501  0.00000000000E+00  0.00000000000E+00  0.15969617503E+04  0.15969617503E+04  0.25500000920E-02 0. -1.
        2   -1    0    0  501    0  0.00000000000E+00  0.00000000000E+00 -0.97826953799E+03  0.97826953799E+03  0.25500000920E-02 0.  1.
    10030    2    1    2    0    0  0.00000000000E+00  0.00000000000E+00  0.61869221231E+03  0.25752312883E+04  0.24998072195E+04 0.  0.
        3    1    3    3  502    0 -0.92249571556E+03 -0.23275347114E+03 -0.52572026486E+03  0.10869932523E+04  0.10100000352E+00 0.  1.
       -3    1    3    3    0  502  0.92249571556E+03  0.23275347114E+03  0.11444124772E+04  0.14882380360E+04  0.10100000352E+00 0. -1.
</event>
<event>
 5   0  0.9261602E-07  0.2497101E+04  0.7818609E-02  0.8404019E-01
        2   -1    0    0  501    0  0.00000000000E+00  0.00000000000E+00  0.16607332608E+04  0.16607332608E+04  0.25500000920E-02 0. -1.
       -2   -1    0    0    0  501  0.00000000000E+00  0.00000000000E+00 -0.93866862010E+03  0.93866862010E+03  0.25500000920E-02 0.  1.
    10030    2    1    2    0    0  0.00000000000E+00  0.00000000000E+00  0.72206464071E+03  0.25994018809E+04  0.24971008776E+04 0.  0.
        4    1    3    3  502    0 -0.17288714063E+03 -0.11106776338E+04  0.92678838674E+03  0.14568572670E+04  0.12699999809E+01 0. -1.
       -4    1    3    3    0  502  0.17288714063E+03  0.11106776338E+04 -0.20472374604E+03  0.11425446139E+04  0.12699999809E+01 0.  1.
</event>
<event>
 5   0  0.3837524E-07  0.2495106E+04  0.7818609E-02  0.8404731E-01
        1   -1    0    0  501    0  0.00000000000E+00  0.00000000000E+00  0.15300628887E+04  0.15300628887E+04  0.50400001928E-02 0. -1.
       -1   -1    0    0    0  501  0.00000000000E+00  0.00000000000E+00 -0.10172056472E+04  0.10172056473E+04  0.50400001928E-02 0.  1.
    10030    2    1    2    0    0  0.00000000000E+00  0.00000000000E+00  0.51285724144E+03  0.25472685360E+04  0.24951060988E+04 0.  0.
        5    1    3    3  502    0  0.11149754603E+04  0.44249998720E+03 -0.93356454102E+02  0.12032098875E+04  0.46999998093E+01 0.  1.
       -5    1    3    3    0  502 -0.11149754603E+04 -0.44249998720E+03  0.60621369554E+03  0.13440586485E+04  0.46999998093E+01 0. -1.
</event>
<event>
 5   0  0.8997210E-07  0.2499939E+04  0.7818609E-02  0.8403007E-01
       -2   -1    0    0    0  501  0.00000000000E+00  0.00000000000E+00  0.13813067901E+04  0.13813067901E+04  0.25500000920E-02 0. -1.
        2   -1    0    0  501    0  0.00000000000E+00  0.00000000000E+00 -0.11311203176E+04  0.11311203176E+04  0.25500000920E-02 0.  1.
    10030    2    1    2    0    0  0.00000000000E+00  0.00000000000E+00  0.25018647257E+03  0.25124271077E+04  0.24999393394E+04 0.  0.
        1    1    3    3  502    0 -0.83068941842E+03 -0.61404707091E+03 -0.58221599395E+03  0.11857799875E+04  0.50400001928E-02 0.  1.
       -1    1    3    3    0  502  0.83068941842E+03  0.61404707091E+03  0.83240246652E+03  0.13266471202E+04  0.50400001928E-02 0. -1.
</event>
<event>
 5   0  0.9251138E-07  0.2501418E+04  0.7818609E-02  0.8402481E-01
       -2   -1    0    0    0  501  0.00000000000E+00  0.00000000000E+00  0.21567360796E+04  0.21567360796E+04  0.25500000920E-02 0. -1.
        2   -1    0    0  501    0  0.00000000000E+00  0.00000000000E+00 -0.72529640922E+03  0.72529640922E+03  0.25500000920E-02 0.  1.
    10030    2    1    2    0    0  0.00000000000E+00  0.00000000000E+00  0.14314396704E+04  0.28820324888E+04  0.25014179452E+04 0.  0.
        5    1    3    3  502    0 -0.50854820592E+03  0.96990256880E+03  0.19717662534E+02  0.10953278719E+04  0.46999998093E+01 0.  1.
       -5    1    3    3    0  502  0.50854820592E+03 -0.96990256880E+03  0.14117220078E+04  0.17867046169E+04  0.46999998093E+01 0. -1.
</event>
<event>
 5   0  0.3805418E-07  0.2499970E+04  0.7818609E-02  0.8402996E-01
       -1   -1    0    0    0  501  0.00000000000E+00  0.00000000000E+00  0.13193442332E+04  0.13193442332E+04  0.50400001928E-02 0. -1.
        1   -1    0    0  501    0  0.00000000000E+00  0.00000000000E+00 -0.11842722555E+04  0.11842722555E+04  0.50400001928E-02 0.  1.
    10030    2    1    2    0    0  0.00000000000E+00  0.00000000000E+00  0.13507197767E+03  0.25036164888E+04  0.24999702165E+04 0.  0.
        4    1    3    3  502    0  0.31542766686E+03 -0.83759058634E+03  0.94139595654E+03  0.12989536417E+04  0.12699999809E+01 0. -1.
       -4    1    3    3    0  502 -0.31542766686E+03  0.83759058634E+03 -0.80632397887E+03  0.12046628471E+04  0.12699999809E+01 0.  1.
</event>
<event>
 5   0  0.3873231E-07  0.2499623E+04  0.7818609E-02  0.8403120E-01
       -1   -1    0    0    0  501  0.00000000000E+00  0.00000000000E+00  0.61427987898E+03  0.61427987900E+03  0.50400001928E-02 0. -1.
        1   -1    0    0  501    0  0.00000000000E+00  0.00000000000E+00 -0.25428614544E+04  0.25428614544E+04  0.50400001928E-02 0.  1.
    10030    2    1    2    0    0  0.00000000000E+00  0.00000000000E+00 -0.19285815754E+04  0.31571413334E+04  0.24996228728E+04 0.  0.
        2    1    3    3  502    0 -0.67460554730E+03  0.52113090872E+03 -0.21186899347E+04  0.22837506667E+04  0.25500000920E-02 0.  1.
       -2    1    3    3    0  502  0.67460554730E+03 -0.52113090872E+03  0.19010835921E+03  0.87339066672E+03  0.25500000920E-02 0. -1.
</event>
<event>
 5   0  0.3873231E-07  0.2501506E+04  0.7818609E-02  0.8402449E-01
        1   -1    0    0  501    0  0.00000000000E+00  0.00000000000E+00  0.19238687353E+04  0.19238687353E+04  0.50400001928E-02 0. -1.
       -1   -1    0    0    0  501  0.00000000000E+00  0.00000000000E+00 -0.81314456416E+03  0.81314456417E+03  0.50400001928E-02 0.  1.
    10030    2    1    2    0    0  0.00000000000E+00  0.00000000000E+00  0.11107241711E+04  0.27370132994E+04  0.25015062696E+04 0.  0.
        2    1    3    3  502    0 -0.11243842424E+04 -0.53428123874E+03  0.68796174693E+03  0.14223177324E+04  0.25500000920E-02 0. -1.
       -2    1    3    3    0  502  0.11243842424E+04  0.53428123874E+03  0.42276242417E+03  0.13146955670E+04  0.25500000920E-02 0.  1.
</event>
<event>
 5   0  0.3972587E-07  0.2499415E+04  0.7818609E-02  0.8403194E-01
       -1   -1    0    0    0  501  0.00000000000E+00  0.00000000000E+00  0.11626711948E+04  0.11626711948E+04  0.50400001928E-02 0.  1.
        1   -1    0    0  501    0  0.00000000000E+00  0.00000000000E+00 -0.13432587143E+04  0.13432587143E+04  0.50400001928E-02 0. -1.
    10030    2    1    2    0    0  0.00000000000E+00  0.00000000000E+00 -0.18058751948E+03  0.25059299092E+04  0.24994145029E+04 0.  0.
        3    1    3    3  502    0  0.13165726851E+03  0.10638063049E+04  0.55383775866E+03  0.12065462129E+04  0.10100000352E+00 0.  1.
       -3    1    3    3    0  502 -0.13165726851E+03 -0.10638063049E+04 -0.73442527814E+03  0.12993836963E+04  0.10100000352E+00 0. -1.
</event>
<event>
 5   0  0.3873231E-07  0.2500219E+04  0.7818609E-02  0.8402907E-01
        1   -1    0    0  501    0  0.00000000000E+00  0.00000000000E+00  0.28042954917E+04  0.28042954917E+04  0.50400001928E-02 0. -1.
       -1   -1    0    0    0  501  0.00000000000E+00  0.00000000000E+00 -0.55727871995E+03  0.55727871997E+03  0.50400001928E-02 0.  1.
    10030    2    1    2    0    0  0.00000000000E+00  0.00000000000E+00  0.22470167718E+04  0.33615742117E+04  0.25002193520E+04 0.  0.
        2    1    3    3  502    0  0.56580434439E+03  0.65945652331E+03 -0.84875391525E+02  0.87305285886E+03  0.25500000920E-02 0.  1.
       -2    1    3    3    0  502 -0.56580434439E+03 -0.65945652331E+03  0.23318921633E+04  0.24885213528E+04  0.25500000920E-02 0. -1.
</event>
<event>
 5   0  0.9508784E-07  0.2498853E+04  0.7818609E-02  0.8403394E-01
        2   -1    0    0  501    0  0.00000000000E+00  0.00000000000E+00  0.12631173763E+04  0.12631173763E+04  0.25500000920E-02 0. -1.
       -2   -1    0    0    0  501  0.00000000000E+00  0.00000000000E+00 -0.12358837423E+04  0.12358837423E+04  0.25500000920E-02 0.  1.
    10030    2    1    2    0    0  0.00000000000E+00  0.00000000000E+00  0.27233633930E+02  0.24990011186E+04  0.24988527207E+04 0.  0.
        2    1    3    3  502    0  0.11179456644E+04  0.54152061125E+03 -0.12062657888E+03  0.12480376006E+04  0.25500000920E-02 0.  1.
       -2    1    3    3    0  502 -0.11179456644E+04 -0.54152061125E+03  0.14786021281E+03  0.12509635180E+04  0.25500000920E-02 0. -1.
</event>
<event>
 5   0  0.9508784E-07  0.2498918E+04  0.7818609E-02  0.8403371E-01
        2   -1    0    0  501    0  0.00000000000E+00  0.00000000000E+00  0.15392292279E+04  0.15392292279E+04  0.25500000920E-02 0.  1.
       -2   -1    0    0    0  501  0.00000000000E+00  0.00000000000E+00 -0.10142399581E+04  0.10142399581E+04  0.25500000920E-02 0. -1.
    10030    2    1    2    0    0  0.00000000000E+00  0.00000000000E+00  0.52498926982E+03  0.25534691860E+04  0.24989179959E+04 0.  0.
        2    1    3    3  502    0 -0.94406452324E+01 -0.12413908898E+04  0.40702965333E+03  0.13064507666E+04  0.25500000920E-02 0. -1.
       -2    1    3    3    0  502  0.94406452324E+01  0.12413908898E+04  0.11795961649E+03  0.12470184193E+04  0.25500000920E-02 0.  1.
</event>
<event>
 5   0  0.9768582E-07  0.2499908E+04  0.7818609E-02  0.8403018E-01
       -2   -1    0    0    0  501  0.00000000000E+00  0.00000000000E+00  0.94654344678E+03  0.94654344678E+03  0.25500000920E-02 0. -1.
        2   -1    0    0  501    0  0.00000000000E+00  0.00000000000E+00 -0.16506215100E+04  0.16506215100E+04  0.25500000920E-02 0.  1.
    10030    2    1    2    0    0  0.00000000000E+00  0.00000000000E+00 -0.70407806318E+03  0.25971649567E+04  0.24999079770E+04 0.  0.
        3    1    3    3  502    0 -0.95771326560E+03  0.35678002543E+03  0.39559551231E+03  0.10959025984E+04  0.10100000352E+00 0. -1.
       -3    1    3    3    0  502  0.95771326560E+03 -0.35678002543E+03 -0.10996735755E+04  0.15012623583E+04  0.10100000352E+00 0.  1.
</event>
<event>
 5   0  0.3991066E-07  0.2489785E+04  0.7818609E-02  0.8406634E-01
        1   -1    0    0  501    0  0.00000000000E+00  0.00000000000E+00  0.13935111781E+04  0.13935111781E+04  0.50400001928E-02 0. -1.
       -1   -1    0    0    0  501  0.00000000000E+00  0.00000000000E+00 -0.11121244592E+04  0.11121244593E+04  0.50400001928E-02 0.  1.
    10030    2    1    2    0    0  0.00000000000E+00  0.00000000000E+00  0.28138671887E+03  0.25056356374E+04  0.24897854248E+04 0.  0.
        1    1    3    3  502    0 -0.18606988747E+03 -0.12011921395E+04 -0.12985503367E+03  0.12224348199E+04  0.50400001928E-02 0.  1.
       -1    1    3    3    0  502  0.18606988747E+03  0.12011921395E+04  0.41124175254E+03  0.12832008175E+04  0.50400001928E-02 0. -1.
</event>
<event>
 5   0  0.3873231E-07  0.2501271E+04  0.7818609E-02  0.8402533E-01
        1   -1    0    0  501    0  0.00000000000E+00  0.00000000000E+00  0.26385318849E+04  0.26385318849E+04  0.50400001928E-02 0.  1.
       -1   -1    0    0    0  501  0.00000000000E+00  0.00000000000E+00 -0.59278752864E+03  0.59278752866E+03  0.50400001928E-02 0. -1.
    10030    2    1    2    0    0  0.00000000000E+00  0.00000000000E+00  0.20457443563E+04  0.32313194135E+04  0.25012707133E+04 0.  0.
        2    1    3    3  502    0 -0.73206682567E+03  0.21346122041E+03  0.23034555293E+04  0.24263954553E+04  0.25500000920E-02 0.  1.
       -2    1    3    3    0  502  0.73206682567E+03 -0.21346122041E+03 -0.25771117307E+03  0.80492395827E+03  0.25500000920E-02 0. -1.
</event>
<event>
 5   0  0.3873231E-07  0.2500176E+04  0.7818609E-02  0.8402923E-01
       -1   -1    0    0    0  501  0.00000000000E+00  0.00000000000E+00  0.12884682734E+04  0.12884682734E+04  0.50400001928E-02 0. -1.
        1   -1    0    0  501    0  0.00000000000E+00  0.00000000000E+00 -0.12128506237E+04  0.12128506237E+04  0.50400001928E-02 0.  1.
    10030    2    1    2    0    0  0.00000000000E+00  0.00000000000E+00  0.75617649728E+02  0.25013188971E+04  0.25001756331E+04 0.  0.
        2    1    3    3  502    0 -0.10688360214E+03  0.46250436747E+03 -0.11191736884E+04  0.12156825816E+04  0.25500000920E-02 0.  1.
       -2    1    3    3    0  502  0.10688360214E+03 -0.46250436747E+03  0.11947913381E+04  0.12856363156E+04  0.25500000920E-02 0. -1.
</event>
<event>
 5   0  0.9768582E-07  0.2499710E+04  0.7818609E-02  0.8403089E-01
       -2   -1    0    0    0  501  0.00000000000E+00  0.00000000000E+00  0.89153224797E+03  0.89153224798E+03  0.25500000920E-02 0. -1.
        2   -1    0    0  501    0  0.00000000000E+00  0.00000000000E+00 -0.17521944559E+04  0.17521944559E+04  0.25500000920E-02 0.  1.
    10030    2    1    2    0    0  0.00000000000E+00  0.00000000000E+00 -0.86066220790E+03  0.26437267039E+04  0.24997102729E+04 0.  0.
        3    1    3    3  502    0 -0.18989492517E+03  0.49441594263E+03  0.76698362318E+03  0.93207891048E+03  0.10100000352E+00 0. -1.
       -3    1    3    3    0  502  0.18989492517E+03 -0.49441594263E+03 -0.16276458311E+04  0.17116477934E+04  0.10100000352E+00 0.  1.
</event>
<event>
 5   0  0.9508784E-07  0.2494919E+04  0.7818609E-02  0.8404798E-01
       -2   -1    0    0    0  501  0.00000000000E+00  0.00000000000E+00  0.84218420234E+03  0.84218420235E+03  0.25500000920E-02 0. -1.
        2   -1    0    0  501    0  0.00000000000E+00  0.00000000000E+00 -0.18477613525E+04  0.18477613525E+04  0.25500000920E-02 0.  1.
    10030    2    1    2    0    0  0.00000000000E+00  0.00000000000E+00 -0.10055771502E+04  0.26899455549E+04  0.24949191737E+04 0.  0.
        2    1    3    3  502    0  0.38220016625E+03  0.10051914457E+03  0.77290700087E+03  0.86808196474E+03  0.25500000920E-02 0. -1.
       -2    1    3    3    0  502 -0.38220016625E+03 -0.10051914457E+03 -0.17784841511E+04  0.18218635901E+04  0.25500000920E-02 0.  1.
</event>
<event>
 5   0  0.9508784E-07  0.2499665E+04  0.7818609E-02  0.8403105E-01
       -2   -1    0    0    0  501  0.00000000000E+00  0.00000000000E+00  0.14252956149E+04  0.14252956149E+04  0.25500000920E-02 0. -1.
        2   -1    0    0  501    0  0.00000000000E+00  0.00000000000E+00 -0.10959700715E+04  0.10959700715E+04  0.25500000920E-02 0.  1.
    10030    2    1    2    0    0  0.00000000000E+00  0.00000000000E+00  0.32932554334E+03  0.25212656864E+04  0.24996650471E+04 0.  0.
        2    1    3    3  502    0 -0.34836689132E+03  0.10683153555E+04 -0.38726240631E+03  0.11885408538E+04  0.25500000920E-02 0.  1.
       -2    1    3    3    0  502  0.34836689132E+03 -0.10683153555E+04  0.71658794965E+03  0.13327248326E+04  0.25500000920E-02 0. -1.
</event>
<event>
 5   0  0.3805418E-07  0.2500349E+04  0.7818609E-02  0.8402861E-01
       -1   -1    0    0    0  501  0.00000000000E+00  0.00000000000E+00  0.72401502031E+03  0.72401502033E+03  0.50400001928E-02 0. -1.
        1   -1    0    0  501    0  0.00000000000E+00  0.00000000000E+00 -0.21587065405E+04  0.21587065405E+04  0.50400001928E-02 0.  1.
    10030    2    1    2    0    0  0.00000000000E+00  0.00000000000E+00 -0.14346915201E+04  0.28827215608E+04  0.25003487435E+04 0.  0.
        4    1    3    3  502    0  0.11051529921E+04 -0.13436419666E+03 -0.13731149075E+04  0.17677282131E+04  0.12699999809E+01 0. -1.
       -4    1    3    3    0  502 -0.11051529921E+04  0.13436419666E+03 -0.61576612609E+02  0.11149933477E+04  0.12699999809E+01 0.  1.
</event>
<event>
 5   0  0.3214375E-07  0.2502095E+04  0.7818609E-02  0.8402239E-01
        3   -1    0    0  501    0  0.00000000000E+00  0.00000000000E+00  0.93214646518E+03  0.93214647065E+03  0.10100000352E+00 0.  1.
       -3   -1    0    0    0  501  0.00000000000E+00  0.00000000000E+00 -0.16790498203E+04  0.16790498233E+04  0.10100000352E+00 0. -1.
    10030    2    1    2    0    0  0.00000000000E+00  0.00000000000E+00 -0.74690335510E+03  0.26111962940E+04  0.25020954146E+04 0.  0.
        2    1    3    3  502    0 -0.90792802383E+03  0.27963965392E+03  0.47603716120E+03  0.10626114113E+04  0.25500000920E-02 0.  1.
       -2    1    3    3    0  502  0.90792802383E+03 -0.27963965392E+03 -0.12229405163E+04  0.15485848827E+04  0.25500000920E-02 0. -1.
</event>
<event>
 5   0  0.8997210E-07  0.2493799E+04  0.7818609E-02  0.8405198E-01
       -2   -1    0    0    0  501  0.00000000000E+00  0.00000000000E+00  0.66875522651E+03  0.66875522651E+03  0.25500000920E-02 0. -1.
        2   -1    0    0  501    0  0.00000000000E+00  0.00000000000E+00 -0.23248546367E+04  0.23248546367E+04  0.25500000920E-02 0.  1.
    10030    2    1    2    0    0  0.00000000000E+00  0.00000000000E+00 -0.16560994102E+04  0.29936098632E+04  0.24937992615E+04 0.  0.
        1    1    3    3  502    0  0.15862471910E+03 -0.12331264727E+04 -0.94190630026E+03  0.15597917097E+04  0.50400001928E-02 0.  1.
       -1    1    3    3    0  502 -0.15862471910E+03  0.12331264727E+04 -0.71419310993E+03  0.14338181535E+04  0.50400001928E-02 0. -1.
</event>
<event>
 5   0  0.9768582E-07  0.2501190E+04  0.7818609E-02  0.8402562E-01
       -2   -1    0    0    0  501  0.00000000000E+00  0.00000000000E+00  0.12088180972E+04  0.12088180972E+04  0.25500000920E-02 0. -1.
        2   -1    0    0  501    0  0.00000000000E+00  0.00000000000E+00 -0.12938159293E+04  0.12938159293E+04  0.25500000920E-02 0.  1.
    10030    2    1    2    0    0  0.00000000000E+00  0.00000000000E+00 -0.84997832123E+02  0.25026340266E+04  0.25011902046E+04 0.  0.
        3    1    3    3  502    0 -0.18125006774E+03  0.34271965705E+03  0.11471700820E+04  0.12109118703E+04  0.10100000352E+00 0. -1.
       -3    1    3    3    0  502  0.18125006774E+03 -0.34271965705E+03 -0.12321679141E+04  0.12917221563E+04  0.10100000352E+00 0.  1.
</event>
<event>
 5   0  0.3873231E-07  0.2501204E+04  0.7818609E-02  0.8402557E-01
        1   -1    0    0  501    0  0.00000000000E+00  0.00000000000E+00  0.12407524819E+04  0.12407524819E+04  0.50400001928E-02 0.  1.
       -1   -1    0    0    0  501  0.00000000000E+00  0.00000000000E+00 -0.12605298038E+04  0.12605298039E+04  0.50400001928E-02 0. -1.
    10030    2    1    2    0    0  0.00000000000E+00  0.00000000000E+00 -0.19777321968E+02  0.25012822857E+04  0.25012040961E+04 0.  0.
        2    1    3    3  502    0  0.78777827612E+03  0.26036571085E+03  0.92588658604E+03  0.12432420866E+04  0.25500000920E-02 0.  1.
       -2    1    3    3    0  502 -0.78777827612E+03 -0.26036571085E+03 -0.94566390801E+03  0.12580401991E+04  0.25500000920E-02 0. -1.
</event>
<event>
 5   0  0.9768582E-07  0.2499239E+04  0.7818609E-02  0.8403257E-01
        2   -1    0    0  501    0  0.00000000000E+00  0.00000000000E+00  0.13534122272E+04  0.13534122272E+04  0.25500000920E-02 0.  1.
       -2   -1    0    0    0  501  0.00000000000E+00  0.00000000000E+00 -0.11537869423E+04  0.11537869423E+04  0.25500000920E-02 0. -1.
    10030    2    1    2    0    0  0.00000000000E+00  0.00000000000E+00  0.19962528497E+03  0.25071991695E+04  0.24992393685E+04 0.  0.
        3    1    3    3  502    0 -0.67722123785E+03  0.70275897295E+03  0.88271510215E+03  0.13159349303E+04  0.10100000352E+00 0.  1.
       -3    1    3    3    0  502  0.67722123785E+03 -0.70275897295E+03 -0.68308981718E+03  0.11912642392E+04  0.10100000352E+00 0. -1.
</event>
<event>
 5   0  0.9508784E-07  0.2499677E+04  0.7818609E-02  0.8403101E-01
       -2   -1    0    0    0  501  0.00000000000E+00  0.00000000000E+00  0.98283916028E+03  0.98283916028E+03  0.25500000920E-02 0. -1.
        2   -1    0    0  501    0  0.00000000000E+00  0.00000000000E+00 -0.15893709592E+04  0.15893709592E+04  0.25500000920E-02 0.  1.
    10030    2    1    2    0    0  0.00000000000E+00  0.00000000000E+00 -0.60653179891E+03  0.25722101195E+04  0.24996767942E+04 0.  0.
        2    1    3    3  502    0 -0.12429720075E+04 -0.11076092335E+03 -0.37491848994E+03  0.13030008702E+04  0.25500000920E-02 0. -1.
       -2    1    3    3    0  502  0.12429720075E+04  0.11076092335E+03 -0.23161330897E+03  0.12692092493E+04  0.25500000920E-02 0.  1.
</event>
<event>
 5   0  0.9768582E-07  0.2502812E+04  0.7818609E-02  0.8401985E-01
       -2   -1    0    0    0  501  0.00000000000E+00  0.00000000000E+00  0.54395476772E+03  0.54395476773E+03  0.25500000920E-02 0.  1.
        2   -1    0    0  501    0  0.00000000000E+00  0.00000000000E+00 -0.28789464439E+04  0.28789464439E+04  0.25500000920E-02 0. -1.
    10030    2    1    2    0    0  0.00000000000E+00  0.00000000000E+00 -0.23349916761E+04  0.34229012116E+04  0.25028117342E+04 0.  0.
        3    1    3    3  502    0  0.25622089297E+02 -0.16626093844E+03 -0.28634122892E+04  0.28683495497E+04  0.10100000352E+00 0. -1.
       -3    1    3    3    0  502 -0.25622089297E+02  0.16626093844E+03  0.52842061310E+03  0.55455166185E+03  0.10100000352E+00 0.  1.
</event>
<event>
 5   0  0.3837524E-07  0.2500212E+04  0.7818609E-02  0.8402910E-01
        1   -1    0    0  501    0  0.00000000000E+00  0.00000000000E+00  0.10571017908E+04  0.10571017908E+04  0.50400001928E-02 0. -1.
       -1   -1    0    0    0  501  0.00000000000E+00  0.00000000000E+00 -0.14783488054E+04  0.14783488054E+04  0.50400001928E-02 0.  1.
    10030    2    1    2    0    0  0.00000000000E+00  0.00000000000E+00 -0.42124701466E+03  0.25354505962E+04  0.25002121267E+04 0.  0.
        5    1    3    3  502    0 -0.51469896710E+03 -0.86051711538E+02 -0.13626019953E+04  0.14591182993E+04  0.46999998093E+01 0.  1.
       -5    1    3    3    0  502  0.51469896710E+03  0.86051711538E+02  0.94135498063E+03  0.10763322969E+04  0.46999998093E+01 0. -1.
</event>
<event>
 5   0  0.3837524E-07  0.2504160E+04  0.7818609E-02  0.8401505E-01
       -1   -1    0    0    0  501  0.00000000000E+00  0.00000000000E+00  0.10056254596E+04  0.10056254596E+04  0.50400001928E-02 0. -1.
        1   -1    0    0  501    0  0.00000000000E+00  0.00000000000E+00 -0.15589350391E+04  0.15589350391E+04  0.50400001928E-02 0.  1.
    10030    2    1    2    0    0  0.00000000000E+00  0.00000000000E+00 -0.55330957951E+03  0.25645604987E+04  0.25041603505E+04 0.  0.
        5    1    3    3  502    0 -0.62125555707E+01  0.28906027665E+03 -0.15242700409E+04  0.15514559894E+04  0.46999998093E+01 0.  1.
       -5    1    3    3    0  502  0.62125555707E+01 -0.28906027665E+03  0.97096046137E+03  0.10131045094E+04  0.46999998093E+01 0. -1.
</event>
<event>
 5   0  0.8997210E-07  0.2500549E+04  0.7818609E-02  0.8402790E-01
       -2   -1    0    0    0  501  0.00000000000E+00  0.00000000000E+00  0.16052896882E+04  0.16052896882E+04  0.25500000920E-02 0.  1.
        2   -1    0    0  501    0  0.00000000000E+00  0.00000000000E+00 -0.97377236232E+03  0.97377236232E+03  0.25500000920E-02 0. -1.
    10030    2    1    2    0    0  0.00000000000E+00  0.00000000000E+00  0.63151732590E+03  0.25790620505E+04  0.25005493252E+04 0.  0.
        1    1    3    3  502    0 -0.30688745591E+03  0.11201037324E+04  0.79330209554E+03  0.14064638271E+04  0.50400001928E-02 0.  1.
       -1    1    3    3    0  502  0.30688745591E+03 -0.11201037324E+04 -0.16178476964E+03  0.11725982235E+04  0.50400001928E-02 0. -1.
</event>
<event>
 5   0  0.3873231E-07  0.2499289E+04  0.7818609E-02  0.8403239E-01
       -1   -1    0    0    0  501  0.00000000000E+00  0.00000000000E+00  0.10945818173E+04  0.10945818173E+04  0.50400001928E-02 0.  1.
        1   -1    0    0  501    0  0.00000000000E+00  0.00000000000E+00 -0.14266736445E+04  0.14266736445E+04  0.50400001928E-02 0. -1.
    10030    2    1    2    0    0  0.00000000000E+00  0.00000000000E+00 -0.33209182719E+03  0.25212554618E+04  0.24992887232E+04 0.  0.
        2    1    3    3  502    0  0.79851565761E+03 -0.85322574084E+03  0.28055226442E+03  0.12018032257E+04  0.25500000920E-02 0.  1.
       -2    1    3    3    0  502 -0.79851565761E+03  0.85322574084E+03 -0.61264409161E+03  0.13194522361E+04  0.25500000920E-02 0. -1.
</event>
<event>
 5   0  0.9508784E-07  0.2498818E+04  0.7818609E-02  0.8403407E-01
       -2   -1    0    0    0  501  0.00000000000E+00  0.00000000000E+00  0.69355680385E+03  0.69355680385E+03  0.25500000920E-02 0.  1.
        2   -1    0    0  501    0  0.00000000000E+00  0.00000000000E+00 -0.22507506112E+04  0.22507506112E+04  0.25500000920E-02 0. -1.
    10030    2    1    2    0    0  0.00000000000E+00  0.00000000000E+00 -0.15571938074E+04  0.29443074151E+04  0.24988184409E+04 0.  0.
        2    1    3    3  502    0 -0.11155095318E+04  0.49752959873E+03 -0.46880523136E+03  0.13083101934E+04  0.25500000920E-02 0. -1.
       -2    1    3    3    0  502  0.11155095318E+04 -0.49752959873E+03 -0.10883885760E+04  0.16359972217E+04  0.25500000920E-02 0.  1.
</event>
<event>
 5   0  0.3991066E-07  0.2500609E+04  0.7818609E-02  0.8402769E-01
        1   -1    0    0  501    0  0.00000000000E+00  0.00000000000E+00  0.25367461563E+04  0.25367461563E+04  0.50400001928E-02 0.  1.
       -1   -1    0    0    0  501  0.00000000000E+00  0.00000000000E+00 -0.61624653195E+03  0.61624653197E+03  0.50400001928E-02 0. -1.
    10030    2    1    2    0    0  0.00000000000E+00  0.00000000000E+00  0.19204996244E+04  0.31529926883E+04  0.25006087429E+04 0.  0.
        1    1    3    3  502    0  0.97955328616E+03 -0.70366084666E+03  0.54473384285E+03  0.13234040151E+04  0.50400001928E-02 0.  1.
       -1    1    3    3    0  502 -0.97955328616E+03  0.70366084666E+03  0.13757657815E+04  0.18295886732E+04  0.50400001928E-02 0. -1.
</event>
<event>
 5   0  0.9261602E-07  0.2499782E+04  0.7818609E-02  0.8403063E-01
       -2   -1    0    0    0  501  0.00000000000E+00  0.00000000000E+00  0.89242836077E+03  0.89242836078E+03  0.25500000920E-02 0.  1.
        2   -1    0    0  501    0  0.00000000000E+00  0.00000000000E+00 -0.17505355205E+04  0.17505355205E+04  0.25500000920E-02 0. -1.
    10030    2    1    2    0    0  0.00000000000E+00  0.00000000000E+00 -0.85810715968E+03  0.26429638812E+04  0.24997820265E+04 0.  0.
        4    1    3    3  502    0  0.82787110038E+03 -0.25986606691E+03 -0.13802069807E+04  0.16302987009E+04  0.12699999809E+01 0. -1.
       -4    1    3    3    0  502 -0.82787110038E+03  0.25986606691E+03  0.52209982100E+03  0.10126651804E+04  0.12699999809E+01 0.  1.
</event>
<event>
 5   0  0.3805418E-07  0.2502602E+04  0.7818609E-02  0.8402059E-01
        1   -1    0    0  501    0  0.00000000000E+00  0.00000000000E+00  0.17280179110E+04  0.17280179110E+04  0.50400001928E-02 0. -1.
       -1   -1    0    0    0  501  0.00000000000E+00  0.00000000000E+00 -0.90609821317E+03  0.90609821318E+03  0.50400001928E-02 0.  1.
    10030    2    1    2    0    0  0.00000000000E+00  0.00000000000E+00  0.82191969784E+03  0.26341161242E+04  0.25026017993E+04 0.  0.
        4    1    3    3  502    0 -0.11069202082E+04  0.25760255577E+03 -0.14011963428E+03  0.11451054750E+04  0.12699999809E+01 0. -1.
       -4    1    3    3    0  502  0.11069202082E+04 -0.25760255577E+03  0.96203933211E+03  0.14890106492E+04  0.12699999809E+01 0.  1.
</event>
<event>
 5   0  0.9251138E-07  0.2500111E+04  0.7818609E-02  0.8402946E-01
       -2   -1    0    0    0  501  0.00000000000E+00  0.00000000000E+00  0.18078453102E+04  0.18078453102E+04  0.25500000920E-02 0.  1.
        2   -1    0    0  501    0  0.00000000000E+00  0.00000000000E+00 -0.86436507088E+03  0.86436507088E+03  0.25500000920E-02 0. -1.
    10030    2    1    2    0    0  0.00000000000E+00  0.00000000000E+00  0.94348023936E+03  0.26722103811E+04  0.25001106693E+04 0.  0.
        5    1    3    3  502    0 -0.10332711003E+04 -0.15137125801E+03  0.12060970098E+04  0.15953853802E+04  0.46999998093E+01 0.  1.
       -5    1    3    3    0  502  0.10332711003E+04  0.15137125801E+03 -0.26261677044E+03  0.10768250009E+04  0.46999998093E+01 0. -1.
</event>
<event>
 5   0  0.3805418E-07  0.2502362E+04  0.7818609E-02  0.8402144E-01
        1   -1    0    0  501    0  0.00000000000E+00  0.00000000000E+00  0.52130180944E+03  0.52130180946E+03  0.50400001928E-02 0. -1.
       -1   -1    0    0    0  501  0.00000000000E+00  0.00000000000E+00 -0.30029709529E+04  0.30029709529E+04  0.50400001928E-02 0.  1.
    10030    2    1    2    0    0  0.00000000000E+00  0.00000000000E+00 -0.24816691435E+04  0.35242727624E+04  0.25023622372E+04 0.  0.
        4    1    3    3  502    0  0.88084122227E+03  0.66887189062E+03 -0.20646837908E+04  0.23422620762E+04  0.12699999809E+01 0.  1.
       -4    1    3    3    0  502 -0.88084122227E+03 -0.66887189062E+03 -0.41698535269E+03  0.11820106861E+04  0.12699999809E+01 0. -1.
</event>
<event>
 5   0  0.3837524E-07  0.2500266E+04  0.7818609E-02  0.8402891E-01
        1   -1    0    0  501    0  0.00000000000E+00  0.00000000000E+00  0.14037023069E+04  0.14037023069E+04  0.50400001928E-02 0. -1.
       -1   -1    0    0    0  501  0.00000000000E+00  0.00000000000E+00 -0.11133645088E+04  0.11133645088E+04  0.50400001928E-02 0.  1.
    10030    2    1    2    0    0  0.00000000000E+00  0.00000000000E+00  0.29033779811E+03  0.25170668158E+04  0.25002658495E+04 0.  0.
        5    1    3    3  502    0  0.52800077436E+03 -0.99030157182E+03  0.69962218597E+03  0.13224883039E+04  0.46999998093E+01 0. -1.
       -5    1    3    3    0  502 -0.52800077436E+03  0.99030157182E+03 -0.40928438786E+03  0.11945785119E+04  0.46999998093E+01 0.  1.
</event>
<event>
 5   0  0.8997210E-07  0.2500775E+04  0.7818609E-02  0.8402709E-01
       -2   -1    0    0    0  501  0.00000000000E+00  0.00000000000E+00  0.87423209925E+03  0.87423209926E+03  0.25500000920E-02 0.  1.
        2   -1    0    0  501    0  0.00000000000E+00  0.00000000000E+00 -0.17883917174E+04  0.17883917174E+04  0.25500000920E-02 0. -1.
    10030    2    1    2    0    0  0.00000000000E+00  0.00000000000E+00 -0.91415961810E+03  0.26626238166E+04  0.25007754360E+04 0.  0.
        1    1    3    3  502    0  0.48819111145E+03 -0.23286611839E+03 -0.16573883635E+04  0.17434142875E+04  0.50400001928E-02 0. -1.
       -1    1    3    3    0  502 -0.48819111145E+03  0.23286611839E+03  0.74322874539E+03  0.91920952911E+03  0.50400001928E-02 0.  1.
</event>
<event>
 5   0  0.3972587E-07  0.2502474E+04  0.7818609E-02  0.8402105E-01
        1   -1    0    0  501    0  0.00000000000E+00  0.00000000000E+00  0.18635401971E+04  0.18635401971E+04  0.50400001928E-02 0. -1.
       -1   -1    0    0    0  501  0.00000000000E+00  0.00000000000E+00 -0.84011845454E+03  0.84011845455E+03  0.50400001928E-02 0.  1.
    10030    2    1    2    0    0  0.00000000000E+00  0.00000000000E+00  0.10234217425E+04  0.27036586516E+04  0.25024743838E+04 0.  0.
        3    1    3    3  502    0  0.39256894948E+03 -0.75699608618E+03  0.15009891740E+04  0.17263029761E+04  0.10100000352E+00 0. -1.
       -3    1    3    3    0  502 -0.39256894948E+03  0.75699608618E+03 -0.47756743152E+03  0.97735567550E+03  0.10100000352E+00 0.  1.
</event>
<event>
 5   0  0.8997210E-07  0.2498048E+04  0.7818609E-02  0.8403681E-01
       -2   -1    0    0    0  501  0.00000000000E+00  0.00000000000E+00  0.70618959127E+03  0.70618959127E+03  0.25500000920E-02 0. -1.
        2   -1    0    0  501    0  0.00000000000E+00  0.00000000000E+00 -0.22091254292E+04  0.22091254292E+04  0.25500000920E-02 0.  1.
    10030    2    1    2    0    0  0.00000000000E+00  0.00000000000E+00 -0.15029358379E+04  0.29153150205E+04  0.24980483453E+04 0.  0.
        1    1    3    3  502    0  0.78283720957E+03  0.76497381154E+03 -0.49262233204E+02  0.10956485735E+04  0.50400001928E-02 0. -1.
       -1    1    3    3    0  502 -0.78283720957E+03 -0.76497381154E+03 -0.14536736047E+04  0.18196664469E+04  0.50400001928E-02 0.  1.
</event>
<event>
 5   0  0.3972587E-07  0.2500136E+04  0.7818609E-02  0.8402937E-01
       -1   -1    0    0    0  501  0.00000000000E+00  0.00000000000E+00  0.11512840453E+04  0.11512840453E+04  0.50400001928E-02 0.  1.
        1   -1    0    0  501    0  0.00000000000E+00  0.00000000000E+00 -0.13573275647E+04  0.13573275647E+04  0.50400001928E-02 0. -1.
    10030    2    1    2    0    0  0.00000000000E+00  0.00000000000E+00 -0.20604351944E+03  0.25086116100E+04  0.25001356519E+04 0.  0.
        3    1    3    3  502    0  0.30311012105E+03 -0.11095360958E+04  0.38825376568E+03  0.12139551434E+04  0.10100000352E+00 0.  1.
       -3    1    3    3    0  502 -0.30311012105E+03  0.11095360958E+04 -0.59429728512E+03  0.12946564666E+04  0.10100000352E+00 0. -1.
</event>
<event>
 5   0  0.3837524E-07  0.2500746E+04  0.7818609E-02  0.8402720E-01
        1   -1    0    0  501    0  0.00000000000E+00  0.00000000000E+00  0.17065011040E+04  0.17065011040E+04  0.50400001928E-02 0.  1.
       -1   -1    0    0    0  501  0.00000000000E+00  0.00000000000E+00 -0.91616305077E+03  0.91616305078E+03  0.50400001928E-02 0. -1.
    10030    2    1    2    0    0  0.00000000000E+00  0.00000000000E+00  0.79033805318E+03  0.26226641547E+04  0.25007464946E+04 0.  0.
        5    1    3    3  502    0  0.83468950031E+03 -0.79545040039E+03  0.90244798639E+03  0.14642002457E+04  0.46999998093E+01 0.  1.
       -5    1    3    3    0  502 -0.83468950031E+03  0.79545040039E+03 -0.11210993321E+03  0.11584639090E+04  0.46999998093E+01 0. -1.
</event>
<event>
 5   0  0.9261602E-07  0.2503731E+04  0.7818609E-02  0.8401658E-01
        2   -1    0    0  501    0  0.00000000000E+00  0.00000000000E+00  0.22758050458E+04  0.22758050458E+04  0.25500000920E-02 0.  1.
       -2   -1    0    0    0  501  0.00000000000E+00  0.00000000000E+00 -0.68862106294E+03  0.68862106294E+03  0.25500000920E-02 0. -1.
    10030    2    1    2    0    0  0.00000000000E+00  0.00000000000E+00  0.15871839828E+04  0.29644261087E+04  0.25037310476E+04 0.  0.
        4    1    3    3  502    0  0.45533749976E+03  0.59661048782E+03 -0.39271169842E+03  0.84705395569E+03  0.12699999809E+01 0. -1.
       -4    1    3    3    0  502 -0.45533749976E+03 -0.59661048782E+03  0.19798956813E+04  0.21173721530E+04  0.12699999809E+01 0.  1.
</event>
<event>
 5   0  0.9508784E-07  0.2499618E+04  0.7818609E-02  0.8403122E-01
        2   -1    0    0  501    0  0.00000000000E+00  0.00000000000E+00  0.15213593545E+04  0.15213593545E+04  0.25500000920E-02 0.  1.
       -2   -1    0    0    0  501  0.00000000000E+00  0.00000000000E+00 -0.10267283707E+04  0.10267283707E+04  0.25500000920E-02 0. -1.
    10030    2    1    2    0    0  0.00000000000E+00  0.00000000000E+00  0.49463098375E+03  0.25480877252E+04  0.24996182199E+04 0.  0.
        2    1    3    3  502    0 -0.50948957947E+03  0.64691842526E+03  0.12057270036E+04  0.14600892739E+04  0.25500000920E-02 0.  1.
       -2    1    3    3    0  502  0.50948957947E+03 -0.64691842526E+03 -0.71109601989E+03  0.10879984513E+04  0.25500000920E-02 0. -1.
</event>
<event>
 5   0  0.3805418E-07  0.2498950E+04  0.7818609E-02  0.8403360E-01
       -1   -1    0    0    0  501  0.00000000000E+00  0.00000000000E+00  0.77978277005E+03  0.77978277007E+03  0.50400001928E-02 0. -1.
        1   -1    0    0  501    0  0.00000000000E+00  0.00000000000E+00 -0.20020796447E+04  0.20020796447E+04  0.50400001928E-02 0.  1.
    10030    2    1    2    0    0  0.00000000000E+00  0.00000000000E+00 -0.12222968746E+04  0.27818624148E+04  0.24989495483E+04 0.  0.
        4    1    3    3  502    0 -0.11087227127E+04 -0.13591668072E+03  0.12097797695E+02  0.11170887912E+04  0.12699999809E+01 0. -1.
       -4    1    3    3    0  502  0.11087227127E+04  0.13591668072E+03 -0.12343946723E+04  0.16647736236E+04  0.12699999809E+01 0.  1.
</event>
<event>
 5   0  0.9251138E-07  0.2507963E+04  0.7818609E-02  0.8400154E-01
       -2   -1    0    0    0  501  0.00000000000E+00  0.00000000000E+00  0.14786554700E+04  0.14786554700E+04  0.25500000920E-02 0. -1.
        2   -1    0    0  501    0  0.00000000000E+00  0.00000000000E+00 -0.10634455534E+04  0.10634455534E+04  0.25500000920E-02 0.  1.
    10030    2    1    2    0    0  0.00000000000E+00  0.00000000000E+00  0.41520991655E+03  0.25421010234E+04  0.25079629859E+04 0.  0.
        5    1    3    3  502    0  0.21267184894E+02  0.75117239122E+03  0.12251295306E+04  0.14372462250E+04  0.46999998093E+01 0. -1.
       -5    1    3    3    0  502 -0.21267184894E+02 -0.75117239122E+03 -0.80991961403E+03  0.11048547985E+04  0.46999998093E+01 0.  1.
</event>
<event>
 5   0  0.3991066E-07  0.2503597E+04  0.7818609E-02  0.8401705E-01
        1   -1    0    0  501    0  0.00000000000E+00  0.00000000000E+00  0.14573508685E+04  0.14573508685E+04  0.50400001928E-02 0. -1.
       -1   -1    0    0    0  501  0.00000000000E+00  0.00000000000E+00 -0.10752380183E+04  0.10752380183E+04  0.50400001928E-02 0.  1.
    10030    2    1    2    0    0  0.00000000000E+00  0.00000000000E+00  0.38211285016E+03  0.25325888868E+04  0.25035966607E+04 0.  0.
        1    1    3    3  502    0  0.10907919181E+04  0.10944492369E+03 -0.42025437249E+03  0.11740608747E+04  0.50400001928E-02 0.  1.
       -1    1    3    3    0  502 -0.10907919181E+04 -0.10944492369E+03  0.80236722265E+03  0.13585280122E+04  0.50400001928E-02 0. -1.
</event>
<event>
 5   0  0.9261602E-07  0.2498395E+04  0.7818609E-02  0.8403557E-01
        2   -1    0    0  501    0  0.00000000000E+00  0.00000000000E+00  0.14539370883E+04  0.14539370883E+04  0.25500000920E-02 0.  1.
       -2   -1    0    0    0  501  0.00000000000E+00  0.00000000000E+00 -0.10732889215E+04  0.10732889215E+04  0.25500000920E-02 0. -1.
    10030    2    1    2    0    0  0.00000000000E+00  0.00000000000E+00  0.38064816681E+03  0.25272260098E+04  0.24983951405E+04 0.  0.
        4    1    3    3  502    0 -0.34303914872E+02 -0.17542929132E+03  0.14409328492E+04  0.14519784033E+04  0.12699999809E+01 0.  1.
       -4    1    3    3    0  502  0.34303914872E+02  0.17542929132E+03 -0.10602846824E+04  0.10752476066E+04  0.12699999809E+01 0. -1.
</event>
<event>
 5   0  0.3873231E-07  0.2495765E+04  0.7818609E-02  0.8404496E-01
        1   -1    0    0  501    0  0.00000000000E+00  0.00000000000E+00  0.26123392965E+04  0.26123392965E+04  0.50400001928E-02 0. -1.
       -1   -1    0    0    0  501  0.00000000000E+00  0.00000000000E+00 -0.59609831099E+03  0.59609831102E+03  0.50400001928E-02 0.  1.
    10030    2    1    2    0    0  0.00000000000E+00  0.00000000000E+00  0.20162409855E+04  0.32084376075E+04  0.24957652473E+04 0.  0.
        2    1    3    3  502    0 -0.98247977467E+03 -0.29012800021E+03  0.19241796141E+04  0.21798871419E+04  0.25500000920E-02 0. -1.
       -2    1    3    3    0  502  0.98247977467E+03  0.29012800021E+03  0.92061371380E+02  0.10285504656E+04  0.25500000920E-02 0.  1.
</event>
<event>
 5   0  0.3873231E-07  0.2498805E+04  0.7818609E-02  0.8403411E-01
        1   -1    0    0  501    0  0.00000000000E+00  0.00000000000E+00  0.14819533891E+04  0.14819533891E+04  0.50400001928E-02 0.  1.
       -1   -1    0    0    0  501  0.00000000000E+00  0.00000000000E+00 -0.10533443113E+04  0.10533443113E+04  0.50400001928E-02 0. -1.
    10030    2    1    2    0    0  0.00000000000E+00  0.00000000000E+00  0.42860907777E+03  0.25352977004E+04  0.24988054522E+04 0.  0.
        2    1    3    3  502    0 -0.76503894348E+03 -0.44160950575E+03 -0.68217342214E+03  0.11160932392E+04  0.25500000920E-02 0. -1.
       -2    1    3    3    0  502  0.76503894348E+03  0.44160950575E+03  0.11107824999E+04  0.14192044612E+04  0.25500000920E-02 0.  1.
</event>
<event>
 5   0  0.9508784E-07  0.2499567E+04  0.7818609E-02  0.8403140E-01
       -2   -1    0    0    0  501  0.00000000000E+00  0.00000000000E+00  0.10113814483E+04  0.10113814483E+04  0.25500000920E-02 0.  1.
        2   -1    0    0  501    0  0.00000000000E+00  0.00000000000E+00 -0.15443809784E+04  0.15443809784E+04  0.25500000920E-02 0. -1.
    10030    2    1    2    0    0  0.00000000000E+00  0.00000000000E+00 -0.53299953012E+03  0.25557624267E+04  0.24995665789E+04 0.  0.
        2    1    3    3  502    0  0.10396687393E+04 -0.30076901821E+02  0.44200189993E+03  0.11301245007E+04  0.25500000920E-02 0.  1.
       -2    1    3    3    0  502 -0.10396687393E+04  0.30076901821E+02 -0.97500143005E+03  0.14256379260E+04  0.25500000920E-02 0. -1.
</event>
<event>
 5   0  0.3837524E-07  0.2500551E+04  0.7818609E-02  0.8402789E-01
        1   -1    0    0  501    0  0.00000000000E+00  0.00000000000E+00  0.15336979345E+04  0.15336979345E+04  0.50400001928E-02 0.  1.
       -1   -1    0    0    0  501  0.00000000000E+00  0.00000000000E+00 -0.10192283325E+04  0.10192283325E+04  0.50400001928E-02 0. -1.
    10030    2    1    2    0    0  0.00000000000E+00  0.00000000000E+00  0.51446960199E+03  0.25529262669E+04  0.25005506500E+04 0.  0.
        5    1    3    3  502    0  0.57224606666E+01 -0.87137755558E+03  0.11725822866E+04  0.14609253573E+04  0.46999998093E+01 0.  1.
       -5    1    3    3    0  502 -0.57224606666E+01  0.87137755558E+03 -0.65811268460E+03  0.10920009096E+04  0.46999998093E+01 0. -1.
</event>
<event>
 5   0  0.3805418E-07  0.2498463E+04  0.7818609E-02  0.8403533E-01
       -1   -1    0    0    0  501  0.00000000000E+00  0.00000000000E+00  0.10657677103E+04  0.10657677103E+04  0.50400001928E-02 0. -1.
        1   -1    0    0  501    0  0.00000000000E+00  0.00000000000E+00 -0.14642767790E+04  0.14642767790E+04  0.50400001928E-02 0.  1.
    10030    2    1    2    0    0  0.00000000000E+00  0.00000000000E+00 -0.39850906872E+03  0.25300444893E+04  0.24984626553E+04 0.  0.
        4    1    3    3  502    0 -0.79576876415E+03  0.76601969391E+03 -0.79019183190E+03  0.13581011897E+04  0.12699999809E+01 0.  1.
       -4    1    3    3    0  502  0.79576876415E+03 -0.76601969391E+03  0.39168276319E+03  0.11719432995E+04  0.12699999809E+01 0. -1.
</event>
<event>
 5   0  0.3837524E-07  0.2500413E+04  0.7818609E-02  0.8402839E-01
        1   -1    0    0  501    0  0.00000000000E+00  0.00000000000E+00  0.14830334668E+04  0.14830334668E+04  0.50400001928E-02 0. -1.
       -1   -1    0    0    0  501  0.00000000000E+00  0.00000000000E+00 -0.10539316371E+04  0.10539316371E+04  0.50400001928E-02 0.  1.
    10030    2    1    2    0    0  0.00000000000E+00  0.00000000000E+00  0.42910182967E+03  0.25369651039E+04  0.25004126776E+04 0.  0.
        5    1    3    3  502    0  0.38063571252E+03 -0.54189625335E+02 -0.99245022904E+03  0.10643305916E+04  0.46999998093E+01 0.  1.
       -5    1    3    3    0  502 -0.38063571252E+03  0.54189625335E+02  0.14215520587E+04  0.14726345123E+04  0.46999998093E+01 0. -1.
</event>
<event>
 5   0  0.9508784E-07  0.2500334E+04  0.7818609E-02  0.8402867E-01
        2   -1    0    0  501    0  0.00000000000E+00  0.00000000000E+00  0.17405933084E+04  0.17405933085E+04  0.25500000920E-02 0. -1.
       -2   -1    0    0    0  501  0.00000000000E+00  0.00000000000E+00 -0.89792207480E+03  0.89792207480E+03  0.25500000920E-02 0.  1.
    10030    2    1    2    0    0  0.00000000000E+00  0.00000000000E+00  0.84267123365E+03  0.26385153832E+04  0.25003337017E+04 0.  0.
        2    1    3    3  502    0  0.44295423373E+03  0.20611126552E+03 -0.79301151170E+03  0.93142770232E+03  0.25500000920E-02 0.  1.
       -2    1    3    3    0  502 -0.44295423373E+03 -0.20611126552E+03  0.16356827453E+04  0.17070876809E+04  0.25500000920E-02 0. -1.
</event>
<event>
 5   0  0.9508784E-07  0.2499602E+04  0.7818609E-02  0.8403127E-01
        2   -1    0    0  501    0  0.00000000000E+00  0.00000000000E+00  0.10389261242E+04  0.10389261242E+04  0.25500000920E-02 0. -1.
       -2   -1    0    0    0  501  0.00000000000E+00  0.00000000000E+00 -0.15034781404E+04  0.15034781404E+04  0.25500000920E-02 0.  1.
    10030    2    1    2    0    0  0.00000000000E+00  0.00000000000E+00 -0.46455201614E+03  0.25424042646E+04  0.24996021422E+04 0.  0.
        2    1    3    3  502    0 -0.25037754340E+02  0.21265642164E+03 -0.14846823139E+04  0.15000437381E+04  0.25500000920E-02 0.  1.
       -2    1    3    3    0  502  0.25037754340E+02 -0.21265642164E+03  0.10201302978E+04  0.10423605265E+04  0.25500000920E-02 0. -1.
</event>
<event>
 5   0  0.3991066E-07  0.2497829E+04  0.7818609E-02  0.8403759E-01
        1   -1    0    0  501    0  0.00000000000E+00  0.00000000000E+00  0.13546093368E+04  0.13546093368E+04  0.50400001928E-02 0.  1.
       -1   -1    0    0    0  501  0.00000000000E+00  0.00000000000E+00 -0.11514668409E+04  0.11514668410E+04  0.50400001928E-02 0. -1.
    10030    2    1    2    0    0  0.00000000000E+00  0.00000000000E+00  0.20314249581E+03  0.25060761777E+04  0.24978292446E+04 0.  0.
        1    1    3    3  502    0  0.35891270381E+03  0.65546427697E+01 -0.10985915943E+04  0.11557529076E+04  0.50400001928E-02 0. -1.
       -1    1    3    3    0  502 -0.35891270381E+03 -0.65546427697E+01  0.13017340902E+04  0.13503232701E+04  0.50400001928E-02 0.  1.
</event>
<event>
 5   0  0.9768582E-07  0.2498443E+04  0.7818609E-02  0.8403540E-01
       -2   -1    0    0    0  501  0.00000000000E+00  0.00000000000E+00  0.11163254658E+04  0.11163254658E+04  0.25500000920E-02 0.  1.
        2   -1    0    0  501    0  0.00000000000E+00  0.00000000000E+00 -0.13979389195E+04  0.13979389195E+04  0.25500000920E-02 0. -1.
    10030    2    1    2    0    0  0.00000000000E+00  0.00000000000E+00 -0.28161345370E+03  0.25142643853E+04  0.24984433678E+04 0.  0.
        3    1    3    3  502    0  0.41698260898E+03 -0.11329510855E+04  0.18232179084E+03  0.12209397626E+04  0.10100000352E+00 0.  1.
       -3    1    3    3    0  502 -0.41698260898E+03  0.11329510855E+04 -0.46393524454E+03  0.12933246227E+04  0.10100000352E+00 0. -1.
</event>
<event>
 5   0  0.9768582E-07  0.2499601E+04  0.7818609E-02  0.8403128E-01
       -2   -1    0    0    0  501  0.00000000000E+00  0.00000000000E+00  0.15096914624E+04  0.15096914624E+04  0.25500000920E-02 0. -1.
        2   -1    0    0  501    0  0.00000000000E+00  0.00000000000E+00 -0.10346496807E+04  0.10346496807E+04  0.25500000920E-02 0.  1.
    10030    2    1    2    0    0  0.00000000000E+00  0.00000000000E+00  0.47504178174E+03  0.25443411431E+04  0.24996013999E+04 0.  0.
        3    1    3    3  502    0  0.33081898206E+02  0.76326972557E+03 -0.76928682028E+03  0.10841943128E+04  0.10100000352E+00 0.  1.
       -3    1    3    3    0  502 -0.33081898206E+02 -0.76326972557E+03  0.12443286020E+04  0.14601468303E+04  0.10100000352E+00 0. -1.
</event>
<event>
 5   0  0.9261602E-07  0.2502012E+04  0.7818609E-02  0.8402269E-01
        2   -1    0    0  501    0  0.00000000000E+00  0.00000000000E+00  0.11767422196E+04  0.11767422196E+04  0.25500000920E-02 0.  1.
       -2   -1    0    0    0  501  0.00000000000E+00  0.00000000000E+00 -0.13299563327E+04  0.13299563327E+04  0.25500000920E-02 0. -1.
    10030    2    1    2    0    0  0.00000000000E+00  0.00000000000E+00 -0.15321411301E+03  0.25066985523E+04  0.25020118041E+04 0.  0.
        4    1    3    3  502    0 -0.70104568167E+03  0.65857638229E+03  0.72478269554E+03  0.12043668327E+04  0.12699999809E+01 0.  1.
       -4    1    3    3    0  502  0.70104568167E+03 -0.65857638229E+03 -0.87799680855E+03  0.13023317196E+04  0.12699999809E+01 0. -1.
</event>
<event>
 5   0  0.3805418E-07  0.2498744E+04  0.7818609E-02  0.8403433E-01
       -1   -1    0    0    0  501  0.00000000000E+00  0.00000000000E+00  0.53146114258E+03  0.53146114260E+03  0.50400001928E-02 0.  1.
        1   -1    0    0  501    0  0.00000000000E+00  0.00000000000E+00 -0.29370544395E+04  0.29370544395E+04  0.50400001928E-02 0. -1.
    10030    2    1    2    0    0  0.00000000000E+00  0.00000000000E+00 -0.24055932969E+04  0.34685155821E+04  0.24987439311E+04 0.  0.
        4    1    3    3  502    0  0.72221057375E+01  0.10939449378E+04 -0.20404582731E+04  0.23152190529E+04  0.12699999809E+01 0.  1.
       -4    1    3    3    0  502 -0.72221057375E+01 -0.10939449378E+04 -0.36513502387E+03  0.11532965292E+04  0.12699999809E+01 0. -1.
</event>
<event>
 5   0  0.3805418E-07  0.2502807E+04  0.7818609E-02  0.8401986E-01
       -1   -1    0    0    0  501  0.00000000000E+00  0.00000000000E+00  0.10578623022E+04  0.10578623022E+04  0.50400001928E-02 0. -1.
        1   -1    0    0  501    0  0.00000000000E+00  0.00000000000E+00 -0.14803536822E+04  0.14803536822E+04  0.50400001928E-02 0.  1.
    10030    2    1    2    0    0  0.00000000000E+00  0.00000000000E+00 -0.42249137995E+03  0.25382159844E+04  0.25028067079E+04 0.  0.
        4    1    3    3  502    0 -0.41571150167E+03  0.73262225058E+03 -0.11497885906E+04  0.14253304286E+04  0.12699999809E+01 0.  1.
       -4    1    3    3    0  502  0.41571150167E+03 -0.73262225058E+03  0.72729721069E+03  0.11128855558E+04  0.12699999809E+01 0. -1.
</event>
<event>
 5   0  0.9251138E-07  0.2496372E+04  0.7818609E-02  0.8404279E-01
       -2   -1    0    0    0  501  0.00000000000E+00  0.00000000000E+00  0.10966071409E+04  0.10966071409E+04  0.25500000920E-02 0.  1.
        2   -1    0    0  501    0  0.00000000000E+00  0.00000000000E+00 -0.14207172612E+04  0.14207172612E+04  0.25500000920E-02 0. -1.
    10030    2    1    2    0    0  0.00000000000E+00  0.00000000000E+00 -0.32411012033E+03  0.25173244022E+04  0.24963723231E+04 0.  0.
        5    1    3    3  502    0  0.49935103187E+03 -0.14340132756E+03  0.98238491698E+03  0.11113134611E+04  0.46999998093E+01 0.  1.
       -5    1    3    3    0  502 -0.49935103187E+03  0.14340132756E+03 -0.13064950373E+04  0.14060109410E+04  0.46999998093E+01 0. -1.
</event>
<event>
 5   0  0.3805418E-07  0.2497356E+04  0.7818609E-02  0.8403928E-01
        1   -1    0    0  501    0  0.00000000000E+00  0.00000000000E+00  0.10282711017E+04  0.10282711018E+04  0.50400001928E-02 0. -1.
       -1   -1    0    0    0  501  0.00000000000E+00  0.00000000000E+00 -0.15163283268E+04  0.15163283268E+04  0.50400001928E-02 0.  1.
    10030    2    1    2    0    0  0.00000000000E+00  0.00000000000E+00 -0.48805722505E+03  0.25445994285E+04  0.24973558811E+04 0.  0.
        4    1    3    3  502    0 -0.77173671155E+03 -0.97503415945E+03 -0.35987115485E+03  0.12945184530E+04  0.12699999809E+01 0.  1.
       -4    1    3    3    0  502  0.77173671155E+03  0.97503415945E+03 -0.12818607020E+03  0.12500809756E+04  0.12699999809E+01 0. -1.
</event>
<event>
 5   0  0.9768582E-07  0.2499687E+04  0.7818609E-02  0.8403097E-01
       -2   -1    0    0    0  501  0.00000000000E+00  0.00000000000E+00  0.11751164945E+04  0.11751164945E+04  0.25500000920E-02 0.  1.
        2   -1    0    0  501    0  0.00000000000E+00  0.00000000000E+00 -0.13293227319E+04  0.13293227319E+04  0.25500000920E-02 0. -1.
    10030    2    1    2    0    0  0.00000000000E+00  0.00000000000E+00 -0.15420623743E+03  0.25044392264E+04  0.24996872354E+04 0.  0.
        3    1    3    3  502    0 -0.15832899873E+03 -0.11234398079E+03  0.11599180106E+04  0.11760523132E+04  0.10100000352E+00 0.  1.
       -3    1    3    3    0  502  0.15832899873E+03  0.11234398079E+03 -0.13141242480E+04  0.13283869132E+04  0.10100000352E+00 0. -1.
</event>
<event>
 5   0  0.9768582E-07  0.2499681E+04  0.7818609E-02  0.8403099E-01
       -2   -1    0    0    0  501  0.00000000000E+00  0.00000000000E+00  0.66494350307E+03  0.66494350307E+03  0.25500000920E-02 0.  1.
        2   -1    0    0  501    0  0.00000000000E+00  0.00000000000E+00 -0.23492246546E+04  0.23492246547E+04  0.25500000920E-02 0. -1.
    10030    2    1    2    0    0  0.00000000000E+00  0.00000000000E+00 -0.16842811516E+04  0.30141681577E+04  0.24996813168E+04 0.  0.
        3    1    3    3  502    0  0.63692713014E+03 -0.10629134547E+04 -0.64532754234E+03  0.13971073074E+04  0.10100000352E+00 0.  1.
       -3    1    3    3    0  502 -0.63692713014E+03  0.10629134547E+04 -0.10389536092E+04  0.16170608503E+04  0.10100000352E+00 0. -1.
</event>
<event>
 5   0  0.3805418E-07  0.2499726E+04  0.7818609E-02  0.8403083E-01
       -1   -1    0    0    0  501  0.00000000000E+00  0.00000000000E+00  0.10472238084E+04  0.10472238084E+04  0.50400001928E-02 0.  1.
        1   -1    0    0  501    0  0.00000000000E+00  0.00000000000E+00 -0.14917126739E+04  0.14917126739E+04  0.50400001928E-02 0. -1.
    10030    2    1    2    0    0  0.00000000000E+00  0.00000000000E+00 -0.44448886552E+03  0.25389364824E+04  0.24997256069E+04 0.  0.
        4    1    3    3  502    0  0.53395012395E+03 -0.11072607924E+04  0.71887260474E+01  0.12293016261E+04  0.12699999809E+01 0.  1.
       -4    1    3    3    0  502 -0.53395012395E+03  0.11072607924E+04 -0.45167759157E+03  0.13096348563E+04  0.12699999809E+01 0. -1.
</event>
<event>
 5   0  0.3972587E-07  0.2491239E+04  0.7818609E-02  0.8406113E-01
        1   -1    0    0  501    0  0.00000000000E+00  0.00000000000E+00  0.15273437098E+04  0.15273437098E+04  0.50400001928E-02 0.  1.
       -1   -1    0    0    0  501  0.00000000000E+00  0.00000000000E+00 -0.10158603323E+04  0.10158603323E+04  0.50400001928E-02 0. -1.
    10030    2    1    2    0    0  0.00000000000E+00  0.00000000000E+00  0.51148337752E+03  0.25432040421E+04  0.24912389597E+04 0.  0.
        3    1    3    3  502    0 -0.12356731331E+03 -0.20772084740E+02  0.15208936582E+04  0.15260464902E+04  0.10100000352E+00 0.  1.
       -3    1    3    3    0  502  0.12356731331E+03  0.20772084740E+02 -0.10094102807E+04  0.10171575519E+04  0.10100000352E+00 0. -1.
</event>
<event>
 5   0  0.3805418E-07  0.2501561E+04  0.7818609E-02  0.8402430E-01
       -1   -1    0    0    0  501  0.00000000000E+00  0.00000000000E+00  0.61099072969E+03  0.61099072971E+03  0.50400001928E-02 0.  1.
        1   -1    0    0  501    0  0.00000000000E+00  0.00000000000E+00 -0.25605161704E+04  0.25605161704E+04  0.50400001928E-02 0. -1.
    10030    2    1    2    0    0  0.00000000000E+00  0.00000000000E+00 -0.19495254407E+04  0.31715069001E+04  0.25015608275E+04 0.  0.
        4    1    3    3  502    0  0.67395754929E+03 -0.17575278036E+03 -0.22919094995E+04  0.23954036372E+04  0.12699999809E+01 0. -1.
       -4    1    3    3    0  502 -0.67395754929E+03  0.17575278036E+03  0.34238405885E+03  0.77610326291E+03  0.12699999809E+01 0.  1.
</event>
<event>
 5   0  0.9251138E-07  0.2499863E+04  0.7818609E-02  0.8403034E-01
        2   -1    0    0  501    0  0.00000000000E+00  0.00000000000E+00  0.16837282959E+04  0.16837282959E+04  0.25500000920E-02 0.  1.
       -2   -1    0    0    0  501  0.00000000000E+00  0.00000000000E+00 -0.92789854944E+03  0.92789854944E+03  0.25500000920E-02 0. -1.
    10030    2    1    2    0    0  0.00000000000E+00  0.00000000000E+00  0.75582974646E+03  0.26116268453E+04  0.24998632310E+04 0.  0.
        5    1    3    3  502    0 -0.68914569273E+02  0.71969573114E+03  0.14431049978E+04  0.16140896158E+04  0.46999998093E+01 0.  1.
       -5    1    3    3    0  502  0.68914569273E+02 -0.71969573114E+03 -0.68727525130E+03  0.99753722954E+03  0.46999998093E+01 0. -1.
</event>
<event>
 5   0  0.3805418E-07  0.2499337E+04  0.7818609E-02  0.8403222E-01
       -1   -1    0    0    0  501  0.00000000000E+00  0.00000000000E+00  0.10097590749E+04  0.10097590749E+04  0.50400001928E-02 0.  1.
        1   -1    0    0  501    0  0.00000000000E+00  0.00000000000E+00 -0.15465781478E+04  0.15465781478E+04  0.50400001928E-02 0. -1.
    10030    2    1    2    0    0  0.00000000000E+00  0.00000000000E+00 -0.53681907285E+03  0.25563372227E+04  0.24993369679E+04 0.  0.
        4    1    3    3  502    0  0.51409676392E+03 -0.36801467775E+03  0.83410690341E+03  0.10466452240E+04  0.12699999809E+01 0.  1.
       -4    1    3    3    0  502 -0.51409676392E+03  0.36801467775E+03 -0.13709259763E+04  0.15096919987E+04  0.12699999809E+01 0. -1.
</event>
<event>
 5   0  0.3873231E-07  0.2502059E+04  0.7818609E-02  0.8402252E-01
       -1   -1    0    0    0  501  0.00000000000E+00  0.00000000000E+00  0.87000163409E+03  0.87000163410E+03  0.50400001928E-02 0.  1.
        1   -1    0    0  501    0  0.00000000000E+00  0.00000000000E+00 -0.17989336766E+04  0.17989336766E+04  0.50400001928E-02 0. -1.
    10030    2    1    2    0    0  0.00000000000E+00  0.00000000000E+00 -0.92893204251E+03  0.26689353107E+04  0.25020593425E+04 0.  0.
        2    1    3    3  502    0  0.39510281141E+03  0.74398419113E+03 -0.14510621672E+04  0.16778558107E+04  0.25500000920E-02 0. -1.
       -2    1    3    3    0  502 -0.39510281141E+03 -0.74398419113E+03  0.52213012472E+03  0.99107950004E+03  0.25500000920E-02 0.  1.
</event>
<event>
 5   0  0.3837524E-07  0.2500739E+04  0.7818609E-02  0.8402722E-01
        1   -1    0    0  501    0  0.00000000000E+00  0.00000000000E+00  0.16135769190E+04  0.16135769190E+04  0.50400001928E-02 0. -1.
       -1   -1    0    0    0  501  0.00000000000E+00  0.00000000000E+00 -0.96891788136E+03  0.96891788138E+03  0.50400001928E-02 0.  1.
    10030    2    1    2    0    0  0.00000000000E+00  0.00000000000E+00  0.64465903764E+03  0.25824948004E+04  0.25007387147E+04 0.  0.
        5    1    3    3  502    0 -0.27562054121E+03 -0.10251187407E+04  0.10046623282E+04  0.14615757246E+04  0.46999998093E+01 0. -1.
       -5    1    3    3    0  502  0.27562054121E+03  0.10251187407E+04 -0.36000329054E+03  0.11209190758E+04  0.46999998093E+01 0.  1.
</event>
<event>
 5   0  0.9508784E-07  0.2499956E+04  0.7818609E-02  0.8403001E-01
        2   -1    0    0  501    0  0.00000000000E+00  0.00000000000E+00  0.13751185194E+04  0.13751185194E+04  0.25500000920E-02 0.  1.
       -2   -1    0    0    0  501  0.00000000000E+00  0.00000000000E+00 -0.11362259448E+04  0.11362259448E+04  0.25500000920E-02 0. -1.
    10030    2    1    2    0    0  0.00000000000E+00  0.00000000000E+00  0.23889257459E+03  0.25113444643E+04  0.24999562708E+04 0.  0.
        2    1    3    3  502    0  0.12272464964E+04 -0.90442002399E+02  0.33983488135E+03  0.12766367790E+04  0.25500000920E-02 0.  1.
       -2    1    3    3    0  502 -0.12272464964E+04  0.90442002399E+02 -0.10094230676E+03  0.12347076853E+04  0.25500000920E-02 0. -1.
</event>
<event>
 5   0  0.9261602E-07  0.2499870E+04  0.7818609E-02  0.8403032E-01
        2   -1    0    0  501    0  0.00000000000E+00  0.00000000000E+00  0.13741420975E+04  0.13741420975E+04  0.25500000920E-02 0.  1.
       -2   -1    0    0    0  501  0.00000000000E+00  0.00000000000E+00 -0.11369549727E+04  0.11369549727E+04  0.25500000920E-02 0. -1.
    10030    2    1    2    0    0  0.00000000000E+00  0.00000000000E+00  0.23718712484E+03  0.25110970703E+04  0.24998701494E+04 0.  0.
        4    1    3    3  502    0 -0.70909049140E+03  0.96875904585E+03  0.46805346156E+03  0.12885569718E+04  0.12699999809E+01 0. -1.
       -4    1    3    3    0  502  0.70909049140E+03 -0.96875904585E+03 -0.23086633672E+03  0.12225400984E+04  0.12699999809E+01 0.  1.
</event>
<event>
 5   0  0.9768582E-07  0.2499847E+04  0.7818609E-02  0.8403040E-01
        2   -1    0    0  501    0  0.00000000000E+00  0.00000000000E+00  0.23652954491E+04  0.23652954491E+04  0.25500000920E-02 0.  1.
       -2   -1    0    0    0  501  0.00000000000E+00  0.00000000000E+00 -0.66051304838E+03  0.66051304839E+03  0.25500000920E-02 0. -1.
    10030    2    1    2    0    0  0.00000000000E+00  0.00000000000E+00  0.17047824007E+04  0.30258084974E+04  0.24998468012E+04 0.  0.
        3    1    3    3  502    0  0.11007345412E+04  0.54857474711E+03  0.58239462694E+03  0.13607844411E+04  0.10100000352E+00 0. -1.
       -3    1    3    3    0  502 -0.11007345412E+04 -0.54857474711E+03  0.11223877737E+04  0.16650240563E+04  0.10100000352E+00 0.  1.
</event>
<event>
 5   0  0.3805418E-07  0.2498764E+04  0.7818609E-02  0.8403426E-01
        1   -1    0    0  501    0  0.00000000000E+00  0.00000000000E+00  0.13456711350E+04  0.13456711350E+04  0.50400001928E-02 0.  1.
       -1   -1    0    0    0  501  0.00000000000E+00  0.00000000000E+00 -0.11599831973E+04  0.11599831973E+04  0.50400001928E-02 0. -1.
    10030    2    1    2    0    0  0.00000000000E+00  0.00000000000E+00  0.18568793778E+03  0.25056543323E+04  0.24987644192E+04 0.  0.
        4    1    3    3  502    0  0.22494744161E+03 -0.75983100396E+03  0.10614316563E+04  0.13246068398E+04  0.12699999809E+01 0.  1.
       -4    1    3    3    0  502 -0.22494744161E+03  0.75983100396E+03 -0.87574371856E+03  0.11810474925E+04  0.12699999809E+01 0. -1.
</event>
<event>
 5   0  0.3972587E-07  0.2494620E+04  0.7818609E-02  0.8404905E-01
       -1   -1    0    0    0  501  0.00000000000E+00  0.00000000000E+00  0.99723344884E+03  0.99723344885E+03  0.50400001928E-02 0. -1.
        1   -1    0    0  501    0  0.00000000000E+00  0.00000000000E+00 -0.15600984715E+04  0.15600984715E+04  0.50400001928E-02 0.  1.
    10030    2    1    2    0    0  0.00000000000E+00  0.00000000000E+00 -0.56286502269E+03  0.25573319204E+04  0.24946201148E+04 0.  0.
        3    1    3    3  502    0 -0.77532163444E+03  0.49760561455E+03 -0.11434318641E+04  0.14683907595E+04  0.10100000352E+00 0.  1.
       -3    1    3    3    0  502  0.77532163444E+03 -0.49760561455E+03  0.58056684138E+03  0.10889411609E+04  0.10100000352E+00 0. -1.
</event>
<event>
 5   0  0.3837524E-07  0.2499474E+04  0.7818609E-02  0.8403173E-01
       -1   -1    0    0    0  501  0.00000000000E+00  0.00000000000E+00  0.14461186363E+04  0.14461186363E+04  0.50400001928E-02 0.  1.
        1   -1    0    0  501    0  0.00000000000E+00  0.00000000000E+00 -0.10800236035E+04  0.10800236035E+04  0.50400001928E-02 0. -1.
    10030    2    1    2    0    0  0.00000000000E+00  0.00000000000E+00  0.36609503281E+03  0.25261422398E+04  0.24994737532E+04 0.  0.
        5    1    3    3  502    0  0.77965454186E+03  0.88733984602E+03 -0.22945796750E+03  0.12032897639E+04  0.46999998093E+01 0. -1.
       -5    1    3    3    0  502 -0.77965454186E+03 -0.88733984602E+03  0.59555300031E+03  0.13228524760E+04  0.46999998093E+01 0.  1.
</event>
<event>
 5   0  0.3837524E-07  0.2499775E+04  0.7818609E-02  0.8403066E-01
        1   -1    0    0  501    0  0.00000000000E+00  0.00000000000E+00  0.11804066502E+04  0.11804066502E+04  0.50400001928E-02 0.  1.
       -1   -1    0    0    0  501  0.00000000000E+00  0.00000000000E+00 -0.13234580139E+04  0.13234580139E+04  0.50400001928E-02 0. -1.
    10030    2    1    2    0    0  0.00000000000E+00  0.00000000000E+00 -0.14305136373E+03  0.25038646641E+04  0.24997749026E+04 0.  0.
        5    1    3    3  502    0 -0.11314531011E+04 -0.60706431602E+02 -0.59995411979E+03  0.12821226254E+04  0.46999998093E+01 0. -1.
       -5    1    3    3    0  502  0.11314531011E+04  0.60706431602E+02  0.45690275606E+03  0.12217420387E+04  0.46999998093E+01 0.  1.
</event>
<event>
 5   0  0.9508784E-07  0.2499675E+04  0.7818609E-02  0.8403101E-01
       -2   -1    0    0    0  501  0.00000000000E+00  0.00000000000E+00  0.65977514609E+03  0.65977514610E+03  0.25500000920E-02 0. -1.
        2   -1    0    0  501    0  0.00000000000E+00  0.00000000000E+00 -0.23676162717E+04  0.23676162717E+04  0.25500000920E-02 0.  1.
    10030    2    1    2    0    0  0.00000000000E+00  0.00000000000E+00 -0.17078411256E+04  0.30273914178E+04  0.24996754762E+04 0.  0.
        2    1    3    3  502    0  0.64904092484E+03 -0.97318804614E+03 -0.13870105278E+04  0.18144275405E+04  0.25500000920E-02 0.  1.
       -2    1    3    3    0  502 -0.64904092484E+03  0.97318804614E+03 -0.32083059778E+03  0.12129638773E+04  0.25500000920E-02 0. -1.
</event>
<event>
 5   0  0.9508784E-07  0.2497735E+04  0.7818609E-02  0.8403793E-01
       -2   -1    0    0    0  501  0.00000000000E+00  0.00000000000E+00  0.13259486943E+04  0.13259486943E+04  0.25500000920E-02 0. -1.
        2   -1    0    0  501    0  0.00000000000E+00  0.00000000000E+00 -0.11762669659E+04  0.11762669659E+04  0.25500000920E-02 0.  1.
    10030    2    1    2    0    0  0.00000000000E+00  0.00000000000E+00  0.14968172840E+03  0.25022156602E+04  0.24977346917E+04 0.  0.
        2    1    3    3  502    0 -0.11255957885E+04  0.26750865771E+02 -0.46648783489E+03  0.12187257231E+04  0.25500000920E-02 0.  1.
       -2    1    3    3    0  502  0.11255957885E+04 -0.26750865771E+02  0.61616956329E+03  0.12834899371E+04  0.25500000920E-02 0. -1.
</event>
<event>
 5   0  0.3972587E-07  0.2500772E+04  0.7818609E-02  0.8402711E-01
        1   -1    0    0  501    0  0.00000000000E+00  0.00000000000E+00  0.10057439852E+04  0.10057439852E+04  0.50400001928E-02 0. -1.
       -1   -1    0    0    0  501  0.00000000000E+00  0.00000000000E+00 -0.15545354468E+04  0.15545354468E+04  0.50400001928E-02 0.  1.
    10030    2    1    2    0    0  0.00000000000E+00  0.00000000000E+00 -0.54879146154E+03  0.25602794320E+04  0.25007716212E+04 0.  0.
        3    1    3    3  502    0 -0.71807211867E+03  0.50596996160E+03 -0.11854195270E+04  0.14754160887E+04  0.10100000352E+00 0.  1.
       -3    1    3    3    0  502  0.71807211867E+03 -0.50596996160E+03  0.63662806544E+03  0.10848633433E+04  0.10100000352E+00 0. -1.
</event>
<event>
 5   0  0.3991066E-07  0.2500893E+04  0.7818609E-02  0.8402667E-01
        1   -1    0    0  501    0  0.00000000000E+00  0.00000000000E+00  0.15240688861E+04  0.15240688862E+04  0.50400001928E-02 0.  1.
       -1   -1    0    0    0  501  0.00000000000E+00  0.00000000000E+00 -0.10259488211E+04  0.10259488211E+04  0.50400001928E-02 0. -1.
    10030    2    1    2    0    0  0.00000000000E+00  0.00000000000E+00  0.49812006509E+03  0.25500177072E+04  0.25008931820E+04 0.  0.
        1    1    3    3  502    0  0.85479376185E+02 -0.12304740716E+04  0.39490539088E+02  0.12340715811E+04  0.50400001928E-02 0.  1.
       -1    1    3    3    0  502 -0.85479376185E+02  0.12304740716E+04  0.45862952601E+03  0.13159461261E+04  0.50400001928E-02 0. -1.
</event>
<event>
 5   0  0.8997210E-07  0.2499922E+04  0.7818609E-02  0.8403013E-01
       -2   -1    0    0    0  501  0.00000000000E+00  0.00000000000E+00  0.10598112816E+04  0.10598112816E+04  0.25500000920E-02 0.  1.
        2   -1    0    0  501    0  0.00000000000E+00  0.00000000000E+00 -0.14742275047E+04  0.14742275047E+04  0.25500000920E-02 0. -1.
    10030    2    1    2    0    0  0.00000000000E+00  0.00000000000E+00 -0.41441622316E+03  0.25340387863E+04  0.24999223517E+04 0.  0.
        1    1    3    3  502    0 -0.60274170548E+03 -0.53850575620E+03  0.75928021002E+03  0.11089600761E+04  0.50400001928E-02 0.  1.
       -1    1    3    3    0  502  0.60274170548E+03  0.53850575620E+03 -0.11736964332E+04  0.14250787102E+04  0.50400001928E-02 0. -1.
</event>
<event>
 5   0  0.9251138E-07  0.2500047E+04  0.7818609E-02  0.8402969E-01
        2   -1    0    0  501    0  0.00000000000E+00  0.00000000000E+00  0.91068535992E+03  0.91068535992E+03  0.25500000920E-02 0. -1.
       -2   -1    0    0    0  501  0.00000000000E+00  0.00000000000E+00 -0.17158049459E+04  0.17158049459E+04  0.25500000920E-02 0.  1.
    10030    2    1    2    0    0  0.00000000000E+00  0.00000000000E+00 -0.80511958596E+03  0.26264903058E+04  0.25000467553E+04 0.  0.
        5    1    3    3  502    0 -0.48626241696E+03  0.36144355166E+03  0.74610219354E+03  0.96113638595E+03  0.46999998093E+01 0. -1.
       -5    1    3    3    0  502  0.48626241696E+03 -0.36144355166E+03 -0.15512217795E+04  0.16653539199E+04  0.46999998093E+01 0.  1.
</event>
<event>
 5   0  0.3873231E-07  0.2499837E+04  0.7818609E-02  0.8403044E-01
        1   -1    0    0  501    0  0.00000000000E+00  0.00000000000E+00  0.13454740234E+04  0.13454740234E+04  0.50400001928E-02 0. -1.
       -1   -1    0    0    0  501  0.00000000000E+00  0.00000000000E+00 -0.11611489963E+04  0.11611489963E+04  0.50400001928E-02 0.  1.
    10030    2    1    2    0    0  0.00000000000E+00  0.00000000000E+00  0.18432502705E+03  0.25066230197E+04  0.24998366441E+04 0.  0.
        2    1    3    3  502    0  0.47501317811E+02 -0.66774948043E+03  0.11505610712E+04  0.13311410603E+04  0.25500000920E-02 0. -1.
       -2    1    3    3    0  502 -0.47501317811E+02  0.66774948043E+03 -0.96623604417E+03  0.11754819594E+04  0.25500000920E-02 0.  1.
</event>
<event>
 5   0  0.3873231E-07  0.2500088E+04  0.7818609E-02  0.8402954E-01
        1   -1    0    0  501    0  0.00000000000E+00  0.00000000000E+00  0.12504428286E+04  0.12504428286E+04  0.50400001928E-02 0.  1.
       -1   -1    0    0    0  501  0.00000000000E+00  0.00000000000E+00 -0.12496456640E+04  0.12496456640E+04  0.50400001928E-02 0. -1.
    10030    2    1    2    0    0  0.00000000000E+00  0.00000000000E+00  0.79716456683E+00  0.25000884926E+04  0.25000883656E+04 0.  0.
        2    1    3    3  502    0  0.60173554848E+02 -0.62540783259E+03 -0.10802747096E+04  0.12496996687E+04  0.25500000920E-02 0. -1.
       -2    1    3    3    0  502 -0.60173554848E+02  0.62540783259E+03  0.10810718742E+04  0.12503888239E+04  0.25500000920E-02 0.  1.
</event>
<event>
 5   0  0.3972587E-07  0.2499088E+04  0.7818609E-02  0.8403310E-01
        1   -1    0    0  501    0  0.00000000000E+00  0.00000000000E+00  0.88322576523E+03  0.88322576525E+03  0.50400001928E-02 0.  1.
       -1   -1    0    0    0  501  0.00000000000E+00  0.00000000000E+00 -0.17677929359E+04  0.17677929359E+04  0.50400001928E-02 0. -1.
    10030    2    1    2    0    0  0.00000000000E+00  0.00000000000E+00 -0.88456717067E+03  0.26510187012E+04  0.24990880486E+04 0.  0.
        3    1    3    3  502    0  0.66878399614E+03 -0.10202238873E+04 -0.72934844657E+03  0.14212944735E+04  0.10100000352E+00 0. -1.
       -3    1    3    3    0  502 -0.66878399614E+03  0.10202238873E+04 -0.15521872410E+03  0.12297242277E+04  0.10100000352E+00 0.  1.
</event>
<event>
 5   0  0.9768582E-07  0.2499887E+04  0.7818609E-02  0.8403026E-01
       -2   -1    0    0    0  501  0.00000000000E+00  0.00000000000E+00  0.88909377707E+03  0.88909377707E+03  0.25500000920E-02 0.  1.
        2   -1    0    0  501    0  0.00000000000E+00  0.00000000000E+00 -0.17572483752E+04  0.17572483752E+04  0.25500000920E-02 0. -1.
    10030    2    1    2    0    0  0.00000000000E+00  0.00000000000E+00 -0.86815459810E+03  0.26463421522E+04  0.24998868735E+04 0.  0.
        3    1    3    3  502    0  0.53242384437E+03 -0.35848589940E+03  0.70131163336E+03  0.95069727432E+03  0.10100000352E+00 0.  1.
       -3    1    3    3    0  502 -0.53242384437E+03  0.35848589940E+03 -0.15694662315E+04  0.16956448779E+04  0.10100000352E+00 0. -1.
</event>
<event>
 5   0  0.3837524E-07  0.2502941E+04  0.7818609E-02  0.8401939E-01
        1   -1    0    0  501    0  0.00000000000E+00  0.00000000000E+00  0.15622929649E+04  0.15622929649E+04  0.50400001928E-02 0. -1.
       -1   -1    0    0    0  501  0.00000000000E+00  0.00000000000E+00 -0.10024867762E+04  0.10024867762E+04  0.50400001928E-02 0.  1.
    10030    2    1    2    0    0  0.00000000000E+00  0.00000000000E+00  0.55980618870E+03  0.25647797411E+04  0.25029407007E+04 0.  0.
        5    1    3    3  502    0 -0.30121970915E+03  0.56896607891E+03  0.13795904764E+04  0.15224150830E+04  0.46999998093E+01 0. -1.
       -5    1    3    3    0  502  0.30121970915E+03 -0.56896607891E+03 -0.81978428774E+03  0.10423646581E+04  0.46999998093E+01 0.  1.
</event>
<event>
 5   0  0.3873231E-07  0.2495699E+04  0.7818609E-02  0.8404519E-01
        1   -1    0    0  501    0  0.00000000000E+00  0.00000000000E+00  0.12211676304E+04  0.12211676304E+04  0.50400001928E-02 0. -1.
       -1   -1    0    0    0  501  0.00000000000E+00  0.00000000000E+00 -0.12751146544E+04  0.12751146544E+04  0.50400001928E-02 0.  1.
    10030    2    1    2    0    0  0.00000000000E+00  0.00000000000E+00 -0.53947024053E+02  0.24962822848E+04  0.24956992936E+04 0.  0.
        2    1    3    3  502    0  0.11209246362E+04  0.29093065657E+03 -0.49185735537E+03  0.12581877225E+04  0.25500000920E-02 0. -1.
       -2    1    3    3    0  502 -0.11209246362E+04 -0.29093065657E+03  0.43791033132E+03  0.12380945623E+04  0.25500000920E-02 0.  1.
</event>
<event>
 5   0  0.8997210E-07  0.2502133E+04  0.7818609E-02  0.8402226E-01
       -2   -1    0    0    0  501  0.00000000000E+00  0.00000000000E+00  0.66395491353E+03  0.66395491354E+03  0.25500000920E-02 0. -1.
        2   -1    0    0  501    0  0.00000000000E+00  0.00000000000E+00 -0.23573398099E+04  0.23573398099E+04  0.25500000920E-02 0.  1.
    10030    2    1    2    0    0  0.00000000000E+00  0.00000000000E+00 -0.16933848963E+04  0.30212947234E+04  0.25021329698E+04 0.  0.
        1    1    3    3  502    0  0.14714796189E+03  0.11058953734E+04 -0.15302949890E+04  0.18937950926E+04  0.50400001928E-02 0.  1.
       -1    1    3    3    0  502 -0.14714796189E+03 -0.11058953734E+04 -0.16308990735E+03  0.11274996308E+04  0.50400001928E-02 0. -1.
</event>
<event>
 5   0  0.9251138E-07  0.2499697E+04  0.7818609E-02  0.8403093E-01
       -2   -1    0    0    0  501  0.00000000000E+00  0.00000000000E+00  0.10070242010E+04  0.10070242010E+04  0.25500000920E-02 0.  1.
        2   -1    0    0  501    0  0.00000000000E+00  0.00000000000E+00 -0.15512252222E+04  0.15512252222E+04  0.25500000920E-02 0. -1.
    10030    2    1    2    0    0  0.00000000000E+00  0.00000000000E+00 -0.54420102126E+03  0.25582494232E+04  0.24996970536E+04 0.  0.
        5    1    3    3  502    0 -0.51095235116E+02  0.69313220884E+03  0.79100789621E+03  0.10529760509E+04  0.46999998093E+01 0.  1.
       -5    1    3    3    0  502  0.51095235116E+02 -0.69313220884E+03 -0.13352089175E+04  0.15052733723E+04  0.46999998093E+01 0. -1.
</event>
<event>
 5   0  0.9251138E-07  0.2500305E+04  0.7818609E-02  0.8402877E-01
       -2   -1    0    0    0  501  0.00000000000E+00  0.00000000000E+00  0.11422838108E+04  0.11422838108E+04  0.25500000920E-02 0. -1.
        2   -1    0    0  501    0  0.00000000000E+00  0.00000000000E+00 -0.13682074357E+04  0.13682074357E+04  0.25500000920E-02 0.  1.
    10030    2    1    2    0    0  0.00000000000E+00  0.00000000000E+00 -0.22592362491E+03  0.25104912465E+04  0.25003049443E+04 0.  0.
        5    1    3    3  502    0  0.59779553220E+03 -0.25368005511E+03  0.95963461580E+03  0.11587207405E+04  0.46999998093E+01 0. -1.
       -5    1    3    3    0  502 -0.59779553220E+03  0.25368005511E+03 -0.11855582407E+04  0.13517705060E+04  0.46999998093E+01 0.  1.
</event>
<event>
 5   0  0.9251138E-07  0.2499709E+04  0.7818609E-02  0.8403089E-01
       -2   -1    0    0    0  501  0.00000000000E+00  0.00000000000E+00  0.12084206884E+04  0.12084206884E+04  0.25500000920E-02 0.  1.
        2   -1    0    0  501    0  0.00000000000E+00  0.00000000000E+00 -0.12927084789E+04  0.12927084789E+04  0.25500000920E-02 0. -1.
    10030    2    1    2    0    0  0.00000000000E+00  0.00000000000E+00 -0.84287790538E+02  0.25011291673E+04  0.24997085189E+04 0.  0.
        5    1    3    3  502    0  0.95071312955E+03  0.76780103679E+03  0.22018766664E+03  0.12417240375E+04  0.46999998093E+01 0. -1.
       -5    1    3    3    0  502 -0.95071312955E+03 -0.76780103679E+03 -0.30447545718E+03  0.12594051297E+04  0.46999998093E+01 0.  1.
</event>
<event>
 5   0  0.9508784E-07  0.2506551E+04  0.7818609E-02  0.8400656E-01
        2   -1    0    0  501    0  0.00000000000E+00  0.00000000000E+00  0.64701317363E+03  0.64701317364E+03  0.25500000920E-02 0. -1.
       -2   -1    0    0    0  501  0.00000000000E+00  0.00000000000E+00 -0.24276150999E+04  0.24276150999E+04  0.25500000920E-02 0.  1.
    10030    2    1    2    0    0  0.00000000000E+00  0.00000000000E+00 -0.17806019262E+04  0.30746282735E+04  0.25065505781E+04 0.  0.
        2    1    3    3  502    0  0.11985263997E+04  0.18987564951E+03 -0.50594899315E+03  0.13147253237E+04  0.25500000920E-02 0. -1.
       -2    1    3    3    0  502 -0.11985263997E+04 -0.18987564951E+03 -0.12746529331E+04  0.17599029498E+04  0.25500000920E-02 0.  1.
</event>
<event>
 5   0  0.9261602E-07  0.2499569E+04  0.7818609E-02  0.8403139E-01
       -2   -1    0    0    0  501  0.00000000000E+00  0.00000000000E+00  0.80770774436E+03  0.80770774437E+03  0.25500000920E-02 0.  1.
        2   -1    0    0  501    0  0.00000000000E+00  0.00000000000E+00 -0.19338192091E+04  0.19338192091E+04  0.25500000920E-02 0. -1.
    10030    2    1    2    0    0  0.00000000000E+00  0.00000000000E+00 -0.11261114648E+04  0.27415269535E+04  0.24995685639E+04 0.  0.
        4    1    3    3  502    0  0.90779955722E+03  0.31265917905E+03 -0.14405666181E+04  0.17312104414E+04  0.12699999809E+01 0. -1.
       -4    1    3    3    0  502 -0.90779955722E+03 -0.31265917905E+03  0.31445515330E+03  0.10103165121E+04  0.12699999809E+01 0.  1.
</event>
<event>
 5   0  0.9768582E-07  0.2487192E+04  0.7818609E-02  0.8407563E-01
        2   -1    0    0  501    0  0.00000000000E+00  0.00000000000E+00  0.12663994694E+04  0.12663994694E+04  0.25500000920E-02 0. -1.
       -2   -1    0    0    0  501  0.00000000000E+00  0.00000000000E+00 -0.12212030131E+04  0.12212030131E+04  0.25500000920E-02 0.  1.
    10030    2    1    2    0    0  0.00000000000E+00  0.00000000000E+00  0.45196456266E+02  0.24876024825E+04  0.24871918686E+04 0.  0.
        3    1    3    3  502    0  0.39119825353E+03  0.94890939963E+03  0.72490053520E+03  0.12565611479E+04  0.10100000352E+00 0. -1.
       -3    1    3    3    0  502 -0.39119825353E+03 -0.94890939963E+03 -0.67970407893E+03  0.12310413346E+04  0.10100000352E+00 0.  1.
</event>
<event>
 5   0  0.9251138E-07  0.2498636E+04  0.7818609E-02  0.8403472E-01
       -2   -1    0    0    0  501  0.00000000000E+00  0.00000000000E+00  0.66674504635E+03  0.66674504635E+03  0.25500000920E-02 0. -1.
        2   -1    0    0  501    0  0.00000000000E+00  0.00000000000E+00 -0.23409178277E+04  0.23409178277E+04  0.25500000920E-02 0.  1.
    10030    2    1    2    0    0  0.00000000000E+00  0.00000000000E+00 -0.16741727813E+04  0.30076628740E+04  0.24986359203E+04 0.  0.
        5    1    3    3  502    0  0.35586314510E+03  0.10521041721E+04 -0.15256442836E+04  0.18871073995E+04  0.46999998093E+01 0.  1.
       -5    1    3    3    0  502 -0.35586314510E+03 -0.10521041721E+04 -0.14852849768E+03  0.11205554746E+04  0.46999998093E+01 0. -1.
</event>
<event>
 5   0  0.8997210E-07  0.2500310E+04  0.7818609E-02  0.8402875E-01
       -2   -1    0    0    0  501  0.00000000000E+00  0.00000000000E+00  0.62356429727E+03  0.62356429727E+03  0.25500000920E-02 0. -1.
        2   -1    0    0  501    0  0.00000000000E+00  0.00000000000E+00 -0.25063782787E+04  0.25063782787E+04  0.25500000920E-02 0.  1.
    10030    2    1    2    0    0  0.00000000000E+00  0.00000000000E+00 -0.18828139815E+04  0.31299425760E+04  0.25003103888E+04 0.  0.
        1    1    3    3  502    0 -0.77978553155E+03  0.10608542589E+03 -0.21573945798E+04  0.22964474664E+04  0.50400001928E-02 0. -1.
       -1    1    3    3    0  502  0.77978553155E+03 -0.10608542589E+03  0.27458059832E+03  0.83349510965E+03  0.50400001928E-02 0.  1.
</event>
<event>
 5   0  0.3214375E-07  0.2500207E+04  0.7818609E-02  0.8402912E-01
        3   -1    0    0  501    0  0.00000000000E+00  0.00000000000E+00  0.12460817362E+04  0.12460817403E+04  0.10100000352E+00 0. -1.
       -3   -1    0    0    0  501  0.00000000000E+00  0.00000000000E+00 -0.12541382416E+04  0.12541382457E+04  0.10100000352E+00 0.  1.
    10030    2    1    2    0    0  0.00000000000E+00  0.00000000000E+00 -0.80565053865E+01  0.25002199859E+04  0.25002070056E+04 0.  0.
        1    1    3    3  502    0 -0.22890120379E+03 -0.16721871951E+03  0.12135169411E+04  0.12461866744E+04  0.50400001928E-02 0. -1.
       -1    1    3    3    0  502  0.22890120379E+03  0.16721871951E+03 -0.12215734465E+04  0.12540333115E+04  0.50400001928E-02 0.  1.
</event>
<event>
 5   0  0.8997210E-07  0.2500513E+04  0.7818609E-02  0.8402803E-01
        2   -1    0    0  501    0  0.00000000000E+00  0.00000000000E+00  0.14352497550E+04  0.14352497550E+04  0.25500000920E-02 0.  1.
       -2   -1    0    0    0  501  0.00000000000E+00  0.00000000000E+00 -0.10891073409E+04  0.10891073409E+04  0.25500000920E-02 0. -1.
    10030    2    1    2    0    0  0.00000000000E+00  0.00000000000E+00  0.34614241416E+03  0.25243570959E+04  0.25005127828E+04 0.  0.
        1    1    3    3  502    0  0.41672174973E+03  0.84875319557E+03 -0.65271550144E+03  0.11489458340E+04  0.50400001928E-02 0. -1.
       -1    1    3    3    0  502 -0.41672174973E+03 -0.84875319557E+03  0.99885791559E+03  0.13754112619E+04  0.50400001928E-02 0.  1.
</event>
<event>
 5   0  0.3873231E-07  0.2499255E+04  0.7818609E-02  0.8403251E-01
        1   -1    0    0  501    0  0.00000000000E+00  0.00000000000E+00  0.16750733834E+04  0.16750733834E+04  0.50400001928E-02 0. -1.
       -1   -1    0    0    0  501  0.00000000000E+00  0.00000000000E+00 -0.93223916678E+03  0.93223916679E+03  0.50400001928E-02 0.  1.
    10030    2    1    2    0    0  0.00000000000E+00  0.00000000000E+00  0.74283421662E+03  0.26073125502E+04  0.24992551012E+04 0.  0.
        2    1    3    3  502    0 -0.44067615445E+02 -0.18320383462E+03 -0.91733324819E+03  0.93648592515E+03  0.25500000920E-02 0.  1.
       -2    1    3    3    0  502  0.44067615445E+02  0.18320383462E+03  0.16601674648E+04  0.16708266251E+04  0.25500000920E-02 0. -1.
</event>
<event>
 5   0  0.9768582E-07  0.2494538E+04  0.7818609E-02  0.8404934E-01
        2   -1    0    0  501    0  0.00000000000E+00  0.00000000000E+00  0.17676166326E+04  0.17676166326E+04  0.25500000920E-02 0.  1.
       -2   -1    0    0    0  501  0.00000000000E+00  0.00000000000E+00 -0.88010013037E+03  0.88010013038E+03  0.25500000920E-02 0. -1.
    10030    2    1    2    0    0  0.00000000000E+00  0.00000000000E+00  0.88751650227E+03  0.26477167630E+04  0.24945377358E+04 0.  0.
        3    1    3    3  502    0  0.56919283636E+03  0.73898441961E+03  0.13226132336E+04  0.16184511835E+04  0.10100000352E+00 0.  1.
       -3    1    3    3    0  502 -0.56919283636E+03 -0.73898441961E+03 -0.43509673134E+03  0.10292655795E+04  0.10100000352E+00 0. -1.
</event>
<event>
 5   0  0.3805418E-07  0.2499872E+04  0.7818609E-02  0.8403031E-01
       -1   -1    0    0    0  501  0.00000000000E+00  0.00000000000E+00  0.53368886858E+03  0.53368886860E+03  0.50400001928E-02 0. -1.
        1   -1    0    0  501    0  0.00000000000E+00  0.00000000000E+00 -0.29274350525E+04  0.29274350525E+04  0.50400001928E-02 0.  1.
    10030    2    1    2    0    0  0.00000000000E+00  0.00000000000E+00 -0.23937461839E+04  0.34611239211E+04  0.24998715975E+04 0.  0.
        4    1    3    3  502    0  0.11700229351E+04 -0.34978393344E+03 -0.82786412406E+03  0.14753518528E+04  0.12699999809E+01 0. -1.
       -4    1    3    3    0  502 -0.11700229351E+04  0.34978393344E+03 -0.15658820598E+04  0.19857720682E+04  0.12699999809E+01 0.  1.
</event>
<event>
 5   0  0.3991066E-07  0.2498983E+04  0.7818609E-02  0.8403348E-01
        1   -1    0    0  501    0  0.00000000000E+00  0.00000000000E+00  0.10693425661E+04  0.10693425661E+04  0.50400001928E-02 0.  1.
       -1   -1    0    0    0  501  0.00000000000E+00  0.00000000000E+00 -0.14599891960E+04  0.14599891960E+04  0.50400001928E-02 0. -1.
    10030    2    1    2    0    0  0.00000000000E+00  0.00000000000E+00 -0.39064662986E+03  0.25293317621E+04  0.24989826677E+04 0.  0.
        1    1    3    3  502    0  0.72856247882E+03 -0.51492971089E+03  0.69009941013E+03  0.11279153730E+04  0.50400001928E-02 0.  1.
       -1    1    3    3    0  502 -0.72856247882E+03  0.51492971089E+03 -0.10807460400E+04  0.14014163891E+04  0.50400001928E-02 0. -1.
</event>
<event>
 5   0  0.3837524E-07  0.2500088E+04  0.7818609E-02  0.8402954E-01
        1   -1    0    0  501    0  0.00000000000E+00  0.00000000000E+00  0.14937817312E+04  0.14937817312E+04  0.50400001928E-02 0.  1.
       -1   -1    0    0    0  501  0.00000000000E+00  0.00000000000E+00 -0.10460763678E+04  0.10460763678E+04  0.50400001928E-02 0. -1.
    10030    2    1    2    0    0  0.00000000000E+00  0.00000000000E+00  0.44770536339E+03  0.25398580990E+04  0.25000878126E+04 0.  0.
        5    1    3    3  502    0  0.94463662752E+03  0.30420854986E+03  0.99601358635E+03  0.14060392434E+04  0.46999998093E+01 0.  1.
       -5    1    3    3    0  502 -0.94463662752E+03 -0.30420854986E+03 -0.54830822295E+03  0.11338188556E+04  0.46999998093E+01 0. -1.
</event>
<event>
 5   0  0.9261602E-07  0.2499056E+04  0.7818609E-02  0.8403322E-01
       -2   -1    0    0    0  501  0.00000000000E+00  0.00000000000E+00  0.14243198095E+04  0.14243198095E+04  0.25500000920E-02 0.  1.
        2   -1    0    0  501    0  0.00000000000E+00  0.00000000000E+00 -0.10961869272E+04  0.10961869272E+04  0.25500000920E-02 0. -1.
    10030    2    1    2    0    0  0.00000000000E+00  0.00000000000E+00  0.32813288225E+03  0.25205067367E+04  0.24990564262E+04 0.  0.
        4    1    3    3  502    0  0.53106341675E+02 -0.11443317437E+04 -0.33921940547E+03  0.11947329581E+04  0.12699999809E+01 0. -1.
       -4    1    3    3    0  502 -0.53106341675E+02  0.11443317437E+04  0.66735228771E+03  0.13257737786E+04  0.12699999809E+01 0.  1.
</event>
<event>
 5   0  0.3873231E-07  0.2509163E+04  0.7818609E-02  0.8399728E-01
       -1   -1    0    0    0  501  0.00000000000E+00  0.00000000000E+00  0.10453632025E+04  0.10453632025E+04  0.50400001928E-02 0.  1.
        1   -1    0    0  501    0  0.00000000000E+00  0.00000000000E+00 -0.15056727303E+04  0.15056727303E+04  0.50400001928E-02 0. -1.
    10030    2    1    2    0    0  0.00000000000E+00  0.00000000000E+00 -0.46030952778E+03  0.25510359328E+04  0.25091631014E+04 0.  0.
        2    1    3    3  502    0  0.25891595569E+03  0.60382227726E+03 -0.13167921059E+04  0.14715910657E+04  0.25500000920E-02 0. -1.
       -2    1    3    3    0  502 -0.25891595569E+03 -0.60382227726E+03  0.85648257808E+03  0.10794448671E+04  0.25500000920E-02 0.  1.
</event>
<event>
 5   0  0.9508784E-07  0.2501164E+04  0.7818609E-02  0.8402571E-01
       -2   -1    0    0    0  501  0.00000000000E+00  0.00000000000E+00  0.71731209386E+03  0.71731209386E+03  0.25500000920E-02 0.  1.
        2   -1    0    0  501    0  0.00000000000E+00  0.00000000000E+00 -0.21802998816E+04  0.21802998816E+04  0.25500000920E-02 0. -1.
    10030    2    1    2    0    0  0.00000000000E+00  0.00000000000E+00 -0.14629877877E+04  0.28976119755E+04  0.25011641076E+04 0.  0.
        2    1    3    3  502    0 -0.21851071007E+03 -0.10909171796E+04 -0.13930686617E+04  0.17828313211E+04  0.25500000920E-02 0. -1.
       -2    1    3    3    0  502  0.21851071007E+03  0.10909171796E+04 -0.69919126080E+02  0.11147806544E+04  0.25500000920E-02 0.  1.
</event>
<event>
 5   0  0.8997210E-07  0.2504121E+04  0.7818609E-02  0.8401519E-01
        2   -1    0    0  501    0  0.00000000000E+00  0.00000000000E+00  0.12240025703E+04  0.12240025703E+04  0.25500000920E-02 0. -1.
       -2   -1    0    0    0  501  0.00000000000E+00  0.00000000000E+00 -0.12807616617E+04  0.12807616617E+04  0.25500000920E-02 0.  1.
    10030    2    1    2    0    0  0.00000000000E+00  0.00000000000E+00 -0.56759091328E+02  0.25047642320E+04  0.25041210561E+04 0.  0.
        1    1    3    3  502    0  0.74546214970E+03 -0.33006361200E+03 -0.97888661368E+03  0.12739210364E+04  0.50400001928E-02 0.  1.
       -1    1    3    3    0  502 -0.74546214970E+03  0.33006361200E+03  0.92212752235E+03  0.12308431956E+04  0.50400001928E-02 0. -1.
</event>
<event>
 5   0  0.9251138E-07  0.2514060E+04  0.7818609E-02  0.8397994E-01
       -2   -1    0    0    0  501  0.00000000000E+00  0.00000000000E+00  0.12704441576E+04  0.12704441576E+04  0.25500000920E-02 0.  1.
        2   -1    0    0  501    0  0.00000000000E+00  0.00000000000E+00 -0.12437578933E+04  0.12437578933E+04  0.25500000920E-02 0. -1.
    10030    2    1    2    0    0  0.00000000000E+00  0.00000000000E+00  0.26686264255E+02  0.25142020509E+04  0.25140604201E+04 0.  0.
        5    1    3    3  502    0  0.93634257083E+03 -0.53982661430E+03  0.65521468624E+03  0.12639139838E+04  0.46999998093E+01 0.  1.
       -5    1    3    3    0  502 -0.93634257083E+03  0.53982661430E+03 -0.62852842199E+03  0.12502880671E+04  0.46999998093E+01 0. -1.
</event>
<event>
 5   0  0.3873231E-07  0.2498098E+04  0.7818609E-02  0.8403663E-01
        1   -1    0    0  501    0  0.00000000000E+00  0.00000000000E+00  0.16152815258E+04  0.16152815258E+04  0.50400001928E-02 0.  1.
       -1   -1    0    0    0  501  0.00000000000E+00  0.00000000000E+00 -0.96585254181E+03  0.96585254183E+03  0.50400001928E-02 0. -1.
    10030    2    1    2    0    0  0.00000000000E+00  0.00000000000E+00  0.64942898400E+03  0.25811340676E+04  0.24980982907E+04 0.  0.
        2    1    3    3  502    0  0.10069378751E+04 -0.56661785980E+03 -0.16555098278E+03  0.11672132673E+04  0.25500000920E-02 0. -1.
       -2    1    3    3    0  502 -0.10069378751E+04  0.56661785980E+03  0.81497996678E+03  0.14139208004E+04  0.25500000920E-02 0.  1.
</event>
<event>
 5   0  0.3805418E-07  0.2497783E+04  0.7818609E-02  0.8403776E-01
        1   -1    0    0  501    0  0.00000000000E+00  0.00000000000E+00  0.11874290891E+04  0.11874290891E+04  0.50400001928E-02 0. -1.
       -1   -1    0    0    0  501  0.00000000000E+00  0.00000000000E+00 -0.13135356305E+04  0.13135356305E+04  0.50400001928E-02 0.  1.
    10030    2    1    2    0    0  0.00000000000E+00  0.00000000000E+00 -0.12610654145E+03  0.25009647196E+04  0.24977833511E+04 0.  0.
        4    1    3    3  502    0  0.95945174370E+03  0.63819653369E+03  0.41910584500E+03  0.12261703741E+04  0.12699999809E+01 0. -1.
       -4    1    3    3    0  502 -0.95945174370E+03 -0.63819653369E+03 -0.54521238645E+03  0.12747943455E+04  0.12699999809E+01 0.  1.
</event>
<event>
 5   0  0.9261602E-07  0.2499747E+04  0.7818609E-02  0.8403076E-01
        2   -1    0    0  501    0  0.00000000000E+00  0.00000000000E+00  0.85938158061E+03  0.85938158061E+03  0.25500000920E-02 0. -1.
       -2   -1    0    0    0  501  0.00000000000E+00  0.00000000000E+00 -0.18178004042E+04  0.18178004042E+04  0.25500000920E-02 0.  1.
    10030    2    1    2    0    0  0.00000000000E+00  0.00000000000E+00 -0.95841882359E+03  0.26771819848E+04  0.24997473349E+04 0.  0.
        4    1    3    3  502    0  0.21146997606E+03 -0.95836163589E+03  0.34968147461E+03  0.10418518717E+04  0.12699999809E+01 0. -1.
       -4    1    3    3    0  502 -0.21146997606E+03  0.95836163589E+03 -0.13081002982E+04  0.16353301131E+04  0.12699999809E+01 0.  1.
</event>
<event>
 5   0  0.9768582E-07  0.2501178E+04  0.7818609E-02  0.8402566E-01
        2   -1    0    0  501    0  0.00000000000E+00  0.00000000000E+00  0.17713156778E+04  0.17713156778E+04  0.25500000920E-02 0. -1.
       -2   -1    0    0    0  501  0.00000000000E+00  0.00000000000E+00 -0.88294451203E+03  0.88294451203E+03  0.25500000920E-02 0.  1.
    10030    2    1    2    0    0  0.00000000000E+00  0.00000000000E+00  0.88837116573E+03  0.26542601898E+04  0.25011784876E+04 0.  0.
        3    1    3    3  502    0  0.10278421318E+03  0.72533215536E+03  0.15197784166E+04  0.16871270776E+04  0.10100000352E+00 0. -1.
       -3    1    3    3    0  502 -0.10278421318E+03 -0.72533215536E+03 -0.63140725088E+03  0.96713311222E+03  0.10100000352E+00 0.  1.
</event>
<event>
 5   0  0.3991066E-07  0.2500245E+04  0.7818609E-02  0.8402898E-01
        1   -1    0    0  501    0  0.00000000000E+00  0.00000000000E+00  0.90855840848E+03  0.90855840849E+03  0.50400001928E-02 0.  1.
       -1   -1    0    0    0  501  0.00000000000E+00  0.00000000000E+00 -0.17200943124E+04  0.17200943124E+04  0.50400001928E-02 0. -1.
    10030    2    1    2    0    0  0.00000000000E+00  0.00000000000E+00 -0.81153590395E+03  0.26286527209E+04  0.25002449088E+04 0.  0.
        1    1    3    3  502    0 -0.11560373072E+04 -0.13386679694E+03  0.74259145606E+02  0.11661290648E+04  0.50400001928E-02 0.  1.
       -1    1    3    3    0  502  0.11560373072E+04  0.13386679694E+03 -0.88579504955E+03  0.14625236562E+04  0.50400001928E-02 0. -1.
</event>
<event>
 5   0  0.3972587E-07  0.2499944E+04  0.7818609E-02  0.8403005E-01
       -1   -1    0    0    0  501  0.00000000000E+00  0.00000000000E+00  0.16231310050E+04  0.16231310050E+04  0.50400001928E-02 0. -1.
        1   -1    0    0  501    0  0.00000000000E+00  0.00000000000E+00 -0.96260266400E+03  0.96260266401E+03  0.50400001928E-02 0.  1.
    10030    2    1    2    0    0  0.00000000000E+00  0.00000000000E+00  0.66052834103E+03  0.25857336690E+04  0.24999441830E+04 0.  0.
        3    1    3    3  502    0  0.68308903530E+02  0.29370182462E+03 -0.92441909636E+03  0.97235669587E+03  0.10100000352E+00 0.  1.
       -3    1    3    3    0  502 -0.68308903530E+02 -0.29370182462E+03  0.15849474374E+04  0.16133769732E+04  0.10100000352E+00 0. -1.
</event>
<event>
 5   0  0.3873231E-07  0.2507298E+04  0.7818609E-02  0.8400390E-01
        1   -1    0    0  501    0  0.00000000000E+00  0.00000000000E+00  0.16153275837E+04  0.16153275837E+04  0.50400001928E-02 0. -1.
       -1   -1    0    0    0  501  0.00000000000E+00  0.00000000000E+00 -0.97295153914E+03  0.97295153915E+03  0.50400001928E-02 0.  1.
    10030    2    1    2    0    0  0.00000000000E+00  0.00000000000E+00  0.64237604456E+03  0.25882791229E+04  0.25072977157E+04 0.  0.
        2    1    3    3  502    0  0.11927455065E+04  0.23836980693E+03  0.77814297809E+01  0.12163562631E+04  0.25500000920E-02 0.  1.
       -2    1    3    3    0  502 -0.11927455065E+04 -0.23836980693E+03  0.63459461478E+03  0.13719228598E+04  0.25500000920E-02 0. -1.
</event>
<event>
 5   0  0.3873231E-07  0.2497773E+04  0.7818609E-02  0.8403779E-01
       -1   -1    0    0    0  501  0.00000000000E+00  0.00000000000E+00  0.13684610813E+04  0.13684610813E+04  0.50400001928E-02 0. -1.
        1   -1    0    0  501    0  0.00000000000E+00  0.00000000000E+00 -0.11397601479E+04  0.11397601479E+04  0.50400001928E-02 0.  1.
    10030    2    1    2    0    0  0.00000000000E+00  0.00000000000E+00  0.22870093340E+03  0.25082212292E+04  0.24977729316E+04 0.  0.
        2    1    3    3  502    0  0.66506456801E+03 -0.26178086364E+03 -0.91408069782E+03  0.11603377191E+04  0.25500000920E-02 0.  1.
       -2    1    3    3    0  502 -0.66506456801E+03  0.26178086364E+03  0.11427816312E+04  0.13478835101E+04  0.25500000920E-02 0. -1.
</event>
<event>
 5   0  0.9251138E-07  0.2501229E+04  0.7818609E-02  0.8402548E-01
       -2   -1    0    0    0  501  0.00000000000E+00  0.00000000000E+00  0.11733568058E+04  0.11733568058E+04  0.25500000920E-02 0.  1.
        2   -1    0    0  501    0  0.00000000000E+00  0.00000000000E+00 -0.13329590405E+04  0.13329590405E+04  0.25500000920E-02 0. -1.
    10030    2    1    2    0    0  0.00000000000E+00  0.00000000000E+00 -0.15960223472E+03  0.25063158463E+04  0.25012289476E+04 0.  0.
        5    1    3    3  502    0  0.81031318736E+03  0.75819525454E+03  0.49804054193E+03  0.12163609567E+04  0.46999998093E+01 0.  1.
       -5    1    3    3    0  502 -0.81031318736E+03 -0.75819525454E+03 -0.65764277665E+03  0.12899548896E+04  0.46999998093E+01 0. -1.
</event>
<event>
 5   0  0.3837524E-07  0.2498126E+04  0.7818609E-02  0.8403654E-01
        1   -1    0    0  501    0  0.00000000000E+00  0.00000000000E+00  0.13364336783E+04  0.13364336783E+04  0.50400001928E-02 0.  1.
       -1   -1    0    0    0  501  0.00000000000E+00  0.00000000000E+00 -0.11674039931E+04  0.11674039931E+04  0.50400001928E-02 0. -1.
    10030    2    1    2    0    0  0.00000000000E+00  0.00000000000E+00  0.16902968518E+03  0.25038376714E+04  0.24981257075E+04 0.  0.
        5    1    3    3  502    0 -0.11930309441E+03  0.78530654150E+02  0.13282129132E+04  0.13358787089E+04  0.46999998093E+01 0.  1.
       -5    1    3    3    0  502  0.11930309441E+03 -0.78530654150E+02 -0.11591832280E+04  0.11679589625E+04  0.46999998093E+01 0. -1.
</event>
<event>
 5   0  0.3972587E-07  0.2499903E+04  0.7818609E-02  0.8403020E-01
        1   -1    0    0  501    0  0.00000000000E+00  0.00000000000E+00  0.46488018925E+03  0.46488018928E+03  0.50400001928E-02 0.  1.
       -1   -1    0    0    0  501  0.00000000000E+00  0.00000000000E+00 -0.33608204248E+04  0.33608204248E+04  0.50400001928E-02 0. -1.
    10030    2    1    2    0    0  0.00000000000E+00  0.00000000000E+00 -0.28959402356E+04  0.38257006141E+04  0.24999030663E+04 0.  0.
        3    1    3    3  502    0 -0.24147459680E+03  0.67724112028E+03  0.11673255283E+03  0.72841747301E+03  0.10100000352E+00 0.  1.
       -3    1    3    3    0  502  0.24147459680E+03 -0.67724112028E+03 -0.30126727884E+04  0.30972831411E+04  0.10100000352E+00 0. -1.
</event>
<event>
 5   0  0.3837524E-07  0.2499861E+04  0.7818609E-02  0.8403035E-01
        1   -1    0    0  501    0  0.00000000000E+00  0.00000000000E+00  0.10093456400E+04  0.10093456400E+04  0.50400001928E-02 0.  1.
       -1   -1    0    0    0  501  0.00000000000E+00  0.00000000000E+00 -0.15478605433E+04  0.15478605433E+04  0.50400001928E-02 0. -1.
    10030    2    1    2    0    0  0.00000000000E+00  0.00000000000E+00 -0.53851490329E+03  0.25572061834E+04  0.24998610288E+04 0.  0.
        5    1    3    3  502    0  0.47506384613E+03  0.48771873592E+03  0.80300011997E+03  0.10527993664E+04  0.46999998093E+01 0.  1.
       -5    1    3    3    0  502 -0.47506384613E+03 -0.48771873592E+03 -0.13415150233E+04  0.15044068170E+04  0.46999998093E+01 0. -1.
</event>
<event>
 5   0  0.3805418E-07  0.2499880E+04  0.7818609E-02  0.8403028E-01
        1   -1    0    0  501    0  0.00000000000E+00  0.00000000000E+00  0.23669245119E+04  0.23669245119E+04  0.50400001928E-02 0. -1.
       -1   -1    0    0    0  501  0.00000000000E+00  0.00000000000E+00 -0.66007580129E+03  0.66007580131E+03  0.50400001928E-02 0.  1.
    10030    2    1    2    0    0  0.00000000000E+00  0.00000000000E+00  0.17068487106E+04  0.30270003132E+04  0.24998796721E+04 0.  0.
        4    1    3    3  502    0  0.12169731187E+04  0.27380707589E+03  0.75690371473E+03  0.14590746152E+04  0.12699999809E+01 0.  1.
       -4    1    3    3    0  502 -0.12169731187E+04 -0.27380707589E+03  0.94994499584E+03  0.15679256980E+04  0.12699999809E+01 0. -1.
</event>
<event>
 5   0  0.9508784E-07  0.2500446E+04  0.7818609E-02  0.8402827E-01
        2   -1    0    0  501    0  0.00000000000E+00  0.00000000000E+00  0.12960338424E+04  0.12960338424E+04  0.25500000920E-02 0.  1.
       -2   -1    0    0    0  501  0.00000000000E+00  0.00000000000E+00 -0.12060311616E+04  0.12060311616E+04  0.25500000920E-02 0. -1.
    10030    2    1    2    0    0  0.00000000000E+00  0.00000000000E+00  0.90002680816E+02  0.25020650040E+04  0.25004457206E+04 0.  0.
        2    1    3    3  502    0 -0.10030461084E+04  0.47609909098E+02 -0.70025543736E+03  0.12242246022E+04  0.25500000920E-02 0. -1.
       -2    1    3    3    0  502  0.10030461084E+04 -0.47609909098E+02  0.79025811818E+03  0.12778404018E+04  0.25500000920E-02 0.  1.
</event>
<event>
 5   0  0.8997210E-07  0.2500840E+04  0.7818609E-02  0.8402686E-01
        2   -1    0    0  501    0  0.00000000000E+00  0.00000000000E+00  0.13188562866E+04  0.13188562866E+04  0.25500000920E-02 0. -1.
       -2   -1    0    0    0  501  0.00000000000E+00  0.00000000000E+00 -0.11855352189E+04  0.11855352189E+04  0.25500000920E-02 0.  1.
    10030    2    1    2    0    0  0.00000000000E+00  0.00000000000E+00  0.13332106772E+03  0.25043915055E+04  0.25008403199E+04 0.  0.
        1    1    3    3  502    0 -0.91540247966E+03 -0.84992547273E+03  0.98740379937E+01  0.12491727285E+04  0.50400001928E-02 0.  1.
       -1    1    3    3    0  502  0.91540247966E+03  0.84992547273E+03  0.12344702972E+03  0.12552187770E+04  0.50400001928E-02 0. -1.
</event>
<event>
 5   0  0.3837524E-07  0.2500408E+04  0.7818609E-02  0.8402840E-01
        1   -1    0    0  501    0  0.00000000000E+00  0.00000000000E+00  0.13206748587E+04  0.13206748588E+04  0.50400001928E-02 0.  1.
       -1   -1    0    0    0  501  0.00000000000E+00  0.00000000000E+00 -0.11834936232E+04  0.11834936232E+04  0.50400001928E-02 0. -1.
    10030    2    1    2    0    0  0.00000000000E+00  0.00000000000E+00  0.13718123554E+03  0.25041684820E+04  0.25004081856E+04 0.  0.
        5    1    3    3  502    0  0.48461104559E+02 -0.43577023248E+03 -0.11039578714E+04  0.11878506834E+04  0.46999998093E+01 0. -1.
       -5    1    3    3    0  502 -0.48461104559E+02  0.43577023248E+03  0.12411391069E+04  0.13163177986E+04  0.46999998093E+01 0.  1.
</event>
<event>
 5   0  0.3873231E-07  0.2501616E+04  0.7818609E-02  0.8402410E-01
        1   -1    0    0  501    0  0.00000000000E+00  0.00000000000E+00  0.14201716046E+04  0.14201716046E+04  0.50400001928E-02 0. -1.
       -1   -1    0    0    0  501  0.00000000000E+00  0.00000000000E+00 -0.11016421208E+04  0.11016421208E+04  0.50400001928E-02 0.  1.
    10030    2    1    2    0    0  0.00000000000E+00  0.00000000000E+00  0.31852948378E+03  0.25218137255E+04  0.25016161644E+04 0.  0.
        2    1    3    3  502    0 -0.42994075720E+03 -0.33436219798E+03  0.12943548277E+04  0.14042797278E+04  0.25500000920E-02 0.  1.
       -2    1    3    3    0  502  0.42994075720E+03  0.33436219798E+03 -0.97582534387E+03  0.11175339976E+04  0.25500000920E-02 0. -1.
</event>
<event>
 5   0  0.3972587E-07  0.2498632E+04  0.7818609E-02  0.8403473E-01
        1   -1    0    0  501    0  0.00000000000E+00  0.00000000000E+00  0.24444843990E+04  0.24444843990E+04  0.50400001928E-02 0. -1.
       -1   -1    0    0    0  501  0.00000000000E+00  0.00000000000E+00 -0.63849469081E+03  0.63849469083E+03  0.50400001928E-02 0.  1.
    10030    2    1    2    0    0  0.00000000000E+00  0.00000000000E+00  0.18059897082E+04  0.30829790898E+04  0.24986318741E+04 0.  0.
        3    1    3    3  502    0 -0.81234508540E+03 -0.94559274453E+03  0.80169653256E+03  0.14821496270E+04  0.10100000352E+00 0. -1.
       -3    1    3    3    0  502  0.81234508540E+03  0.94559274453E+03  0.10042931756E+04  0.16008294628E+04  0.10100000352E+00 0.  1.
</event>
<event>
 5   0  0.9508784E-07  0.2499880E+04  0.7818609E-02  0.8403028E-01
       -2   -1    0    0    0  501  0.00000000000E+00  0.00000000000E+00  0.77367642750E+03  0.77367642750E+03  0.25500000920E-02 0. -1.
        2   -1    0    0  501    0  0.00000000000E+00  0.00000000000E+00 -0.20193847981E+04  0.20193847981E+04  0.25500000920E-02 0.  1.
    10030    2    1    2    0    0  0.00000000000E+00  0.00000000000E+00 -0.12457083706E+04  0.27930612256E+04  0.24998803302E+04 0.  0.
        2    1    3    3  502    0 -0.98397107433E+02  0.33377806068E+03  0.71846611778E+03  0.79830028620E+03  0.25500000920E-02 0. -1.
       -2    1    3    3    0  502  0.98397107433E+02 -0.33377806068E+03 -0.19641744884E+04  0.19947609394E+04  0.25500000920E-02 0.  1.
</event>
<event>
 5   0  0.8997210E-07  0.2499955E+04  0.7818609E-02  0.8403002E-01
       -2   -1    0    0    0  501  0.00000000000E+00  0.00000000000E+00  0.83337412007E+03  0.83337412008E+03  0.25500000920E-02 0. -1.
        2   -1    0    0  501    0  0.00000000000E+00  0.00000000000E+00 -0.18748401550E+04  0.18748401550E+04  0.25500000920E-02 0.  1.
    10030    2    1    2    0    0  0.00000000000E+00  0.00000000000E+00 -0.10414660350E+04  0.27082142751E+04  0.24999546112E+04 0.  0.
        1    1    3    3  502    0 -0.90985973702E+03  0.84914048495E+03 -0.39458974518E+03  0.13055977065E+04  0.50400001928E-02 0.  1.
       -1    1    3    3    0  502  0.90985973702E+03 -0.84914048495E+03 -0.64687628979E+03  0.14026165686E+04  0.50400001928E-02 0. -1.
</event>
<event>
 5   0  0.3991066E-07  0.2500932E+04  0.7818609E-02  0.8402654E-01
        1   -1    0    0  501    0  0.00000000000E+00  0.00000000000E+00  0.15759724905E+04  0.15759724906E+04  0.50400001928E-02 0. -1.
       -1   -1    0    0    0  501  0.00000000000E+00  0.00000000000E+00 -0.99219053789E+03  0.99219053790E+03  0.50400001928E-02 0.  1.
    10030    2    1    2    0    0  0.00000000000E+00  0.00000000000E+00  0.58378195265E+03  0.25681630285E+04  0.25009318208E+04 0.  0.
        1    1    3    3  502    0  0.88229061793E+03  0.86162171972E+03  0.79357882426E+02  0.12357695562E+04  0.50400001928E-02 0.  1.
       -1    1    3    3    0  502 -0.88229061793E+03 -0.86162171972E+03  0.50442407023E+03  0.13323934723E+04  0.50400001928E-02 0. -1.
</event>
<event>
 5   0  0.9508784E-07  0.2499667E+04  0.7818609E-02  0.8403104E-01
       -2   -1    0    0    0  501  0.00000000000E+00  0.00000000000E+00  0.11774207318E+04  0.11774207318E+04  0.25500000920E-02 0.  1.
        2   -1    0    0  501    0  0.00000000000E+00  0.00000000000E+00 -0.13266993322E+04  0.13266993322E+04  0.25500000920E-02 0. -1.
    10030    2    1    2    0    0  0.00000000000E+00  0.00000000000E+00 -0.14927860042E+03  0.25041200640E+04  0.24996666167E+04 0.  0.
        2    1    3    3  502    0 -0.14717856695E+03 -0.98424980997E+03 -0.83207768200E+03  0.12972133548E+04  0.25500000920E-02 0. -1.
       -2    1    3    3    0  502  0.14717856695E+03  0.98424980997E+03  0.68279908158E+03  0.12069067092E+04  0.25500000920E-02 0.  1.
</event>
<event>
 5   0  0.3805418E-07  0.2509036E+04  0.7818609E-02  0.8399773E-01
       -1   -1    0    0    0  501  0.00000000000E+00  0.00000000000E+00  0.13509563869E+04  0.13509563870E+04  0.50400001928E-02 0.  1.
        1   -1    0    0  501    0  0.00000000000E+00  0.00000000000E+00 -0.11649643386E+04  0.11649643386E+04  0.50400001928E-02 0. -1.
    10030    2    1    2    0    0  0.00000000000E+00  0.00000000000E+00  0.18599204833E+03  0.25159207256E+04  0.25090364795E+04 0.  0.
        4    1    3    3  502    0 -0.28151326181E+02 -0.87018784846E+03 -0.81269590973E+03  0.11910061475E+04  0.12699999809E+01 0. -1.
       -4    1    3    3    0  502  0.28151326181E+02  0.87018784846E+03  0.99868795806E+03  0.13249145781E+04  0.12699999809E+01 0.  1.
</event>
<event>
 5   0  0.3972587E-07  0.2499997E+04  0.7818609E-02  0.8402986E-01
       -1   -1    0    0    0  501  0.00000000000E+00  0.00000000000E+00  0.10652581678E+04  0.10652581678E+04  0.50400001928E-02 0. -1.
        1   -1    0    0  501    0  0.00000000000E+00  0.00000000000E+00 -0.14667773996E+04  0.14667773996E+04  0.50400001928E-02 0.  1.
    10030    2    1    2    0    0  0.00000000000E+00  0.00000000000E+00 -0.40151923181E+03  0.25320355673E+04  0.24999972842E+04 0.  0.
        3    1    3    3  502    0 -0.28769535701E+03  0.11942387191E+03 -0.14268376897E+04  0.14604439334E+04  0.10100000352E+00 0.  1.
       -3    1    3    3    0  502  0.28769535701E+03 -0.11942387191E+03  0.10253184579E+04  0.10715916339E+04  0.10100000352E+00 0. -1.
</event>
<event>
 5   0  0.9251138E-07  0.2500872E+04  0.7818609E-02  0.8402675E-01
        2   -1    0    0  501    0  0.00000000000E+00  0.00000000000E+00  0.19588496089E+04  0.19588496089E+04  0.25500000920E-02 0. -1.
       -2   -1    0    0    0  501  0.00000000000E+00  0.00000000000E+00 -0.79821856055E+03  0.79821856055E+03  0.25500000920E-02 0.  1.
    10030    2    1    2    0    0  0.00000000000E+00  0.00000000000E+00  0.11606310483E+04  0.27570681694E+04  0.25008719401E+04 0.  0.
        5    1    3    3  502    0  0.24403212148E+03 -0.79347480466E+03  0.16112109732E+04  0.18125056778E+04  0.46999998093E+01 0. -1.
       -5    1    3    3    0  502 -0.24403212148E+03  0.79347480466E+03 -0.45057992484E+03  0.94456249164E+03  0.46999998093E+01 0.  1.
</event>
<event>
 5   0  0.9508784E-07  0.2500366E+04  0.7818609E-02  0.8402855E-01
       -2   -1    0    0    0  501  0.00000000000E+00  0.00000000000E+00  0.50283205038E+03  0.50283205039E+03  0.25500000920E-02 0.  1.
        2   -1    0    0  501    0  0.00000000000E+00  0.00000000000E+00 -0.31083104039E+04  0.31083104039E+04  0.25500000920E-02 0. -1.
    10030    2    1    2    0    0  0.00000000000E+00  0.00000000000E+00 -0.26054783536E+04  0.36111424543E+04  0.25003664481E+04 0.  0.
        2    1    3    3  502    0  0.54242456778E+03  0.10018770098E+04 -0.20461764693E+04  0.23419692777E+04  0.25500000920E-02 0. -1.
       -2    1    3    3    0  502 -0.54242456778E+03 -0.10018770098E+04 -0.55930188426E+03  0.12691731766E+04  0.25500000920E-02 0.  1.
</event>
<event>
 5   0  0.3214375E-07  0.2500504E+04  0.7818609E-02  0.8402806E-01
        3   -1    0    0  501    0  0.00000000000E+00  0.00000000000E+00  0.13860017895E+04  0.13860017932E+04  0.10100000352E+00 0. -1.
       -3   -1    0    0    0  501  0.00000000000E+00  0.00000000000E+00 -0.11277977565E+04  0.11277977610E+04  0.10100000352E+00 0.  1.
    10030    2    1    2    0    0  0.00000000000E+00  0.00000000000E+00  0.25820403297E+03  0.25137995542E+04  0.25005037245E+04 0.  0.
        4    1    3    3  502    0 -0.10446885480E+04  0.23085016768E+02 -0.56100345282E+03  0.11860158377E+04  0.12699999809E+01 0.  1.
       -4    1    3    3    0  502  0.10446885480E+04 -0.23085016768E+02  0.81920748579E+03  0.13277837165E+04  0.12699999809E+01 0. -1.
</event>
<event>
 5   0  0.3837524E-07  0.2500553E+04  0.7818609E-02  0.8402788E-01
       -1   -1    0    0    0  501  0.00000000000E+00  0.00000000000E+00  0.12412080656E+04  0.12412080656E+04  0.50400001928E-02 0. -1.
        1   -1    0    0  501    0  0.00000000000E+00  0.00000000000E+00 -0.12594113365E+04  0.12594113365E+04  0.50400001928E-02 0.  1.
    10030    2    1    2    0    0  0.00000000000E+00  0.00000000000E+00 -0.18203270921E+02  0.25006194021E+04  0.25005531458E+04 0.  0.
        5    1    3    3  502    0  0.11905561374E+04  0.36842138053E+03 -0.10916021471E+03  0.12510380780E+04  0.46999998093E+01 0.  1.
       -5    1    3    3    0  502 -0.11905561374E+04 -0.36842138053E+03  0.90956943784E+02  0.12495813241E+04  0.46999998093E+01 0. -1.
</event>
<event>
 5   0  0.3873231E-07  0.2499888E+04  0.7818609E-02  0.8403025E-01
       -1   -1    0    0    0  501  0.00000000000E+00  0.00000000000E+00  0.10613994197E+04  0.10613994197E+04  0.50400001928E-02 0.  1.
        1   -1    0    0  501    0  0.00000000000E+00  0.00000000000E+00 -0.14719810313E+04  0.14719810313E+04  0.50400001928E-02 0. -1.
    10030    2    1    2    0    0  0.00000000000E+00  0.00000000000E+00 -0.41058161163E+03  0.25333804511E+04  0.24998878475E+04 0.  0.
        2    1    3    3  502    0  0.11210565997E+04  0.41768264982E+03  0.16168385812E+03  0.12072151282E+04  0.25500000920E-02 0.  1.
       -2    1    3    3    0  502 -0.11210565997E+04 -0.41768264982E+03 -0.57226546976E+03  0.13261653229E+04  0.25500000920E-02 0. -1.
</event>
<event>
 5   0  0.3991066E-07  0.2501365E+04  0.7818609E-02  0.8402500E-01
        1   -1    0    0  501    0  0.00000000000E+00  0.00000000000E+00  0.11554804827E+04  0.11554804827E+04  0.50400001928E-02 0. -1.
       -1   -1    0    0    0  501  0.00000000000E+00  0.00000000000E+00 -0.13537278613E+04  0.13537278614E+04  0.50400001928E-02 0.  1.
    10030    2    1    2    0    0  0.00000000000E+00  0.00000000000E+00 -0.19824737864E+03  0.25092083441E+04  0.25013645258E+04 0.  0.
        1    1    3    3  502    0 -0.17956357724E+03  0.93682320384E+03  0.71231666629E+03  0.11904939423E+04  0.50400001928E-02 0. -1.
       -1    1    3    3    0  502  0.17956357724E+03 -0.93682320384E+03 -0.91056404493E+03  0.13187144018E+04  0.50400001928E-02 0.  1.
</event>
<event>
 5   0  0.9508784E-07  0.2503655E+04  0.7818609E-02  0.8401685E-01
       -2   -1    0    0    0  501  0.00000000000E+00  0.00000000000E+00  0.10470664405E+04  0.10470664405E+04  0.25500000920E-02 0.  1.
        2   -1    0    0  501    0  0.00000000000E+00  0.00000000000E+00 -0.14966309035E+04  0.14966309035E+04  0.25500000920E-02 0. -1.
    10030    2    1    2    0    0  0.00000000000E+00  0.00000000000E+00 -0.44956446304E+03  0.25436973440E+04  0.25036549226E+04 0.  0.
        2    1    3    3  502    0  0.74157619033E+03 -0.10081621854E+04 -0.19703695794E+03  0.12669450662E+04  0.25500000920E-02 0.  1.
       -2    1    3    3    0  502 -0.74157619033E+03  0.10081621854E+04 -0.25252750510E+03  0.12767522778E+04  0.25500000920E-02 0. -1.
</event>
<event>
 5   0  0.3991066E-07  0.2498595E+04  0.7818609E-02  0.8403486E-01
       -1   -1    0    0    0  501  0.00000000000E+00  0.00000000000E+00  0.92210702804E+03  0.92210702805E+03  0.50400001928E-02 0.  1.
        1   -1    0    0  501    0  0.00000000000E+00  0.00000000000E+00 -0.16925849470E+04  0.16925849470E+04  0.50400001928E-02 0. -1.
    10030    2    1    2    0    0  0.00000000000E+00  0.00000000000E+00 -0.77047791899E+03  0.26146919751E+04  0.24985951855E+04 0.  0.
        1    1    3    3  502    0  0.53324183739E+03  0.28664183415E+03  0.75834844896E+03  0.97036218408E+03  0.50400001928E-02 0.  1.
       -1    1    3    3    0  502 -0.53324183739E+03 -0.28664183415E+03 -0.15288263680E+04  0.16443297910E+04  0.50400001928E-02 0. -1.
</event>
<event>
 5   0  0.9251138E-07  0.2500366E+04  0.7818609E-02  0.8402855E-01
        2   -1    0    0  501    0  0.00000000000E+00  0.00000000000E+00  0.11253509521E+04  0.11253509521E+04  0.25500000920E-02 0.  1.
       -2   -1    0    0    0  501  0.00000000000E+00  0.00000000000E+00 -0.13888624467E+04  0.13888624467E+04  0.25500000920E-02 0. -1.
    10030    2    1    2    0    0  0.00000000000E+00  0.00000000000E+00 -0.26351149466E+03  0.25142133988E+04  0.25003661145E+04 0.  0.
        5    1    3    3  502    0 -0.86491096720E+03 -0.12376699775E+03  0.76736982660E+03  0.11628704965E+04  0.46999998093E+01 0.  1.
       -5    1    3    3    0  502  0.86491096720E+03  0.12376699775E+03 -0.10308813213E+04  0.13513429022E+04  0.46999998093E+01 0. -1.
</event>
<event>
 5   0  0.3972587E-07  0.2500235E+04  0.7818609E-02  0.8402902E-01
       -1   -1    0    0    0  501  0.00000000000E+00  0.00000000000E+00  0.11847423126E+04  0.11847423126E+04  0.50400001928E-02 0.  1.
        1   -1    0    0  501    0  0.00000000000E+00  0.00000000000E+00 -0.13190997726E+04  0.13190997726E+04  0.50400001928E-02 0. -1.
    10030    2    1    2    0    0  0.00000000000E+00  0.00000000000E+00 -0.13435745999E+03  0.25038420853E+04  0.25002346412E+04 0.  0.
        3    1    3    3  502    0 -0.15437107418E+03  0.56943260885E+03  0.10365500307E+04  0.11926943871E+04  0.10100000352E+00 0.  1.
       -3    1    3    3    0  502  0.15437107418E+03 -0.56943260885E+03 -0.11709074907E+04  0.13111476982E+04  0.10100000352E+00 0. -1.
</event>
<event>
 5   0  0.3214375E-07  0.2499815E+04  0.7818609E-02  0.8403051E-01
        3   -1    0    0  501    0  0.00000000000E+00  0.00000000000E+00  0.12227040557E+04  0.12227040599E+04  0.10100000352E+00 0.  1.
       -3   -1    0    0    0  501  0.00000000000E+00  0.00000000000E+00 -0.12777165118E+04  0.12777165158E+04  0.10100000352E+00 0. -1.
    10030    2    1    2    0    0  0.00000000000E+00  0.00000000000E+00 -0.55012456105E+02  0.25004205757E+04  0.24998153302E+04 0.  0.
        2    1    3    3  502    0 -0.81945583611E+02 -0.97121789553E+03 -0.81018522889E+03  0.12674302286E+04  0.25500000920E-02 0. -1.
       -2    1    3    3    0  502  0.81945583611E+02  0.97121789553E+03  0.75517277278E+03  0.12329903471E+04  0.25500000920E-02 0.  1.
</event>
<event>
 5   0  0.3837524E-07  0.2500463E+04  0.7818609E-02  0.8402820E-01
       -1   -1    0    0    0  501  0.00000000000E+00  0.00000000000E+00  0.10937185095E+04  0.10937185095E+04  0.50400001928E-02 0.  1.
        1   -1    0    0  501    0  0.00000000000E+00  0.00000000000E+00 -0.14291422948E+04  0.14291422948E+04  0.50400001928E-02 0. -1.
    10030    2    1    2    0    0  0.00000000000E+00  0.00000000000E+00 -0.33542378534E+03  0.25228608044E+04  0.25004634615E+04 0.  0.
        5    1    3    3  502    0  0.40843856537E+03  0.99284958417E+03 -0.81414171922E+03  0.13473756668E+04  0.46999998093E+01 0. -1.
       -5    1    3    3    0  502 -0.40843856537E+03 -0.99284958417E+03  0.47871793387E+03  0.11754851376E+04  0.46999998093E+01 0.  1.
</event>
<event>
 5   0  0.9508784E-07  0.2500337E+04  0.7818609E-02  0.8402865E-01
        2   -1    0    0  501    0  0.00000000000E+00  0.00000000000E+00  0.12037056808E+04  0.12037056808E+04  0.25500000920E-02 0. -1.
       -2   -1    0    0    0  501  0.00000000000E+00  0.00000000000E+00 -0.12984252848E+04  0.12984252849E+04  0.25500000920E-02 0.  1.
    10030    2    1    2    0    0  0.00000000000E+00  0.00000000000E+00 -0.94719604043E+02  0.25021309657E+04  0.25003374904E+04 0.  0.
        2    1    3    3  502    0 -0.44306710755E+02  0.71151887485E+03 -0.10750821859E+04  0.12899705036E+04  0.25500000920E-02 0.  1.
       -2    1    3    3    0  502  0.44306710755E+02 -0.71151887485E+03  0.98036258181E+03  0.12121604620E+04  0.25500000920E-02 0. -1.
</event>
<event>
 5   0  0.3214375E-07  0.2499426E+04  0.7818609E-02  0.8403190E-01
       -3   -1    0    0    0  501  0.00000000000E+00  0.00000000000E+00  0.26629151761E+04  0.26629151780E+04  0.10100000352E+00 0.  1.
        3   -1    0    0  501    0  0.00000000000E+00  0.00000000000E+00 -0.58649365018E+03  0.58649365888E+03  0.10100000352E+00 0. -1.
    10030    2    1    2    0    0  0.00000000000E+00  0.00000000000E+00  0.20764215259E+04  0.32494088369E+04  0.24994262213E+04 0.  0.
        4    1    3    3  502    0  0.17737725662E+03 -0.67469979760E+03  0.23862055465E+04  0.24860935283E+04  0.12699999809E+01 0.  1.
       -4    1    3    3    0  502 -0.17737725662E+03  0.67469979760E+03 -0.30978402062E+03  0.76331530863E+03  0.12699999809E+01 0. -1.
</event>
<event>
 5   0  0.3991066E-07  0.2500563E+04  0.7818609E-02  0.8402785E-01
        1   -1    0    0  501    0  0.00000000000E+00  0.00000000000E+00  0.13480680354E+04  0.13480680354E+04  0.50400001928E-02 0.  1.
       -1   -1    0    0    0  501  0.00000000000E+00  0.00000000000E+00 -0.11595881343E+04  0.11595881343E+04  0.50400001928E-02 0. -1.
    10030    2    1    2    0    0  0.00000000000E+00  0.00000000000E+00  0.18847990111E+03  0.25076561697E+04  0.25005628951E+04 0.  0.
        1    1    3    3  502    0  0.91524122552E+03  0.57459491501E+03 -0.53633453070E+03  0.12064329845E+04  0.50400001928E-02 0.  1.
       -1    1    3    3    0  502 -0.91524122552E+03 -0.57459491501E+03  0.72481443181E+03  0.13012231852E+04  0.50400001928E-02 0. -1.
</event>
<event>
 5   0  0.9508784E-07  0.2500172E+04  0.7818609E-02  0.8402924E-01
        2   -1    0    0  501    0  0.00000000000E+00  0.00000000000E+00  0.17916123836E+04  0.17916123836E+04  0.25500000920E-02 0.  1.
       -2   -1    0    0    0  501  0.00000000000E+00  0.00000000000E+00 -0.87223924541E+03  0.87223924541E+03  0.25500000920E-02 0. -1.
    10030    2    1    2    0    0  0.00000000000E+00  0.00000000000E+00  0.91937313822E+03  0.26638516290E+04  0.25001717010E+04 0.  0.
        2    1    3    3  502    0 -0.49480264738E+03 -0.10326148115E+04  0.99411344053E+03  0.15163721645E+04  0.25500000920E-02 0.  1.
       -2    1    3    3    0  502  0.49480264738E+03  0.10326148115E+04 -0.74740302308E+02  0.11474794645E+04  0.25500000920E-02 0. -1.
</event>
<event>
 5   0  0.3873231E-07  0.2500155E+04  0.7818609E-02  0.8402930E-01
        1   -1    0    0  501    0  0.00000000000E+00  0.00000000000E+00  0.19560694017E+04  0.19560694017E+04  0.50400001928E-02 0.  1.
       -1   -1    0    0    0  501  0.00000000000E+00  0.00000000000E+00 -0.79889455952E+03  0.79889455953E+03  0.50400001928E-02 0. -1.
    10030    2    1    2    0    0  0.00000000000E+00  0.00000000000E+00  0.11571748421E+04  0.27549639612E+04  0.25001545577E+04 0.  0.
        2    1    3    3  502    0  0.79057518050E+03  0.95234776632E+03  0.38545986114E+03  0.12963620978E+04  0.25500000920E-02 0.  1.
       -2    1    3    3    0  502 -0.79057518050E+03 -0.95234776632E+03  0.77171498100E+03  0.14586018634E+04  0.25500000920E-02 0. -1.
</event>
<event>
 5   0  0.3873231E-07  0.2497220E+04  0.7818609E-02  0.8403977E-01
        1   -1    0    0  501    0  0.00000000000E+00  0.00000000000E+00  0.14540717590E+04  0.14540717591E+04  0.50400001928E-02 0. -1.
       -1   -1    0    0    0  501  0.00000000000E+00  0.00000000000E+00 -0.10721798500E+04  0.10721798500E+04  0.50400001928E-02 0.  1.
    10030    2    1    2    0    0  0.00000000000E+00  0.00000000000E+00  0.38189190906E+03  0.25262516090E+04  0.24972196063E+04 0.  0.
        2    1    3    3  502    0  0.20327746183E+03 -0.16338444013E+03  0.14262110788E+04  0.14498600771E+04  0.25500000920E-02 0. -1.
       -2    1    3    3    0  502 -0.20327746183E+03  0.16338444013E+03 -0.10443191698E+04  0.10763915320E+04  0.25500000920E-02 0.  1.
</event>
<event>
 5   0  0.3805418E-07  0.2501252E+04  0.7818609E-02  0.8402540E-01
        1   -1    0    0  501    0  0.00000000000E+00  0.00000000000E+00  0.90686952982E+03  0.90686952984E+03  0.50400001928E-02 0.  1.
       -1   -1    0    0    0  501  0.00000000000E+00  0.00000000000E+00 -0.17246856879E+04  0.17246856879E+04  0.50400001928E-02 0. -1.
    10030    2    1    2    0    0  0.00000000000E+00  0.00000000000E+00 -0.81781615806E+03  0.26315552177E+04  0.25012516058E+04 0.  0.
        4    1    3    3  502    0  0.98528306323E+02 -0.33918155305E+03  0.85330442811E+03  0.92351611411E+03  0.12699999809E+01 0.  1.
       -4    1    3    3    0  502 -0.98528306323E+02  0.33918155305E+03 -0.16711205862E+04  0.17080391036E+04  0.12699999809E+01 0. -1.
</event>
<event>
 5   0  0.3805418E-07  0.2500065E+04  0.7818609E-02  0.8402962E-01
        1   -1    0    0  501    0  0.00000000000E+00  0.00000000000E+00  0.13010159862E+04  0.13010159862E+04  0.50400001928E-02 0.  1.
       -1   -1    0    0    0  501  0.00000000000E+00  0.00000000000E+00 -0.12010471446E+04  0.12010471446E+04  0.50400001928E-02 0. -1.
    10030    2    1    2    0    0  0.00000000000E+00  0.00000000000E+00  0.99968841557E+02  0.25020631308E+04  0.25000652274E+04 0.  0.
        4    1    3    3  502    0 -0.31892388843E+03  0.64675486674E+03  0.10718663185E+04  0.12918604111E+04  0.12699999809E+01 0.  1.
       -4    1    3    3    0  502  0.31892388843E+03 -0.64675486674E+03 -0.97189747691E+03  0.12102027197E+04  0.12699999809E+01 0. -1.
</event>
<event>
 5   0  0.3837524E-07  0.2516663E+04  0.7818609E-02  0.8397073E-01
        1   -1    0    0  501    0  0.00000000000E+00  0.00000000000E+00  0.11167330273E+04  0.11167330273E+04  0.50400001928E-02 0. -1.
       -1   -1    0    0    0  501  0.00000000000E+00  0.00000000000E+00 -0.14178839173E+04  0.14178839173E+04  0.50400001928E-02 0.  1.
    10030    2    1    2    0    0  0.00000000000E+00  0.00000000000E+00 -0.30115089000E+03  0.25346169446E+04  0.25166627103E+04 0.  0.
        5    1    3    3  502    0 -0.26116051315E+03 -0.59353913743E+03 -0.12366388466E+04  0.13963492572E+04  0.46999998093E+01 0.  1.
       -5    1    3    3    0  502  0.26116051315E+03  0.59353913743E+03  0.93548795656E+03  0.11382676874E+04  0.46999998093E+01 0. -1.
</event>
<event>
 5   0  0.3972587E-07  0.2501537E+04  0.7818609E-02  0.8402438E-01
        1   -1    0    0  501    0  0.00000000000E+00  0.00000000000E+00  0.16397470633E+04  0.16397470633E+04  0.50400001928E-02 0. -1.
       -1   -1    0    0    0  501  0.00000000000E+00  0.00000000000E+00 -0.95406311384E+03  0.95406311386E+03  0.50400001928E-02 0.  1.
    10030    2    1    2    0    0  0.00000000000E+00  0.00000000000E+00  0.68568394946E+03  0.25938101772E+04  0.25015372787E+04 0.  0.
        3    1    3    3  502    0  0.56812982281E+02 -0.35114455558E+03  0.15861946671E+04  0.16255902762E+04  0.10100000352E+00 0. -1.
       -3    1    3    3    0  502 -0.56812982281E+02  0.35114455558E+03 -0.90051071764E+03  0.96821990099E+03  0.10100000352E+00 0.  1.
</event>
<event>
 5   0  0.9251138E-07  0.2499547E+04  0.7818609E-02  0.8403147E-01
       -2   -1    0    0    0  501  0.00000000000E+00  0.00000000000E+00  0.18635831568E+04  0.18635831568E+04  0.25500000920E-02 0. -1.
        2   -1    0    0  501    0  0.00000000000E+00  0.00000000000E+00 -0.83813477807E+03  0.83813477808E+03  0.25500000920E-02 0.  1.
    10030    2    1    2    0    0  0.00000000000E+00  0.00000000000E+00  0.10254483788E+04  0.27017179349E+04  0.24995470434E+04 0.  0.
        5    1    3    3  502    0 -0.85540509424E+03  0.90794529563E+03  0.43019942292E+03  0.13195363461E+04  0.46999998093E+01 0. -1.
       -5    1    3    3    0  502  0.85540509424E+03 -0.90794529563E+03  0.59524895583E+03  0.13821815888E+04  0.46999998093E+01 0.  1.
</event>
<event>
 5   0  0.3837524E-07  0.2499461E+04  0.7818609E-02  0.8403178E-01
        1   -1    0    0  501    0  0.00000000000E+00  0.00000000000E+00  0.16620279233E+04  0.16620279233E+04  0.50400001928E-02 0. -1.
       -1   -1    0    0    0  501  0.00000000000E+00  0.00000000000E+00 -0.93971091328E+03  0.93971091329E+03  0.50400001928E-02 0.  1.
    10030    2    1    2    0    0  0.00000000000E+00  0.00000000000E+00  0.72231701001E+03  0.26017388366E+04  0.24994605640E+04 0.  0.
        5    1    3    3  502    0  0.11081918678E+04 -0.16402334858E+03  0.93772943445E+03  0.14609419759E+04  0.46999998093E+01 0. -1.
       -5    1    3    3    0  502 -0.11081918678E+04  0.16402334858E+03 -0.21541242444E+03  0.11407968607E+04  0.46999998093E+01 0.  1.
</event>
<event>
 5   0  0.8997210E-07  0.2499408E+04  0.7818609E-02  0.8403196E-01
        2   -1    0    0  501    0  0.00000000000E+00  0.00000000000E+00  0.17042907429E+04  0.17042907429E+04  0.25500000920E-02 0. -1.
       -2   -1    0    0    0  501  0.00000000000E+00  0.00000000000E+00 -0.91636982778E+03  0.91636982778E+03  0.25500000920E-02 0.  1.
    10030    2    1    2    0    0  0.00000000000E+00  0.00000000000E+00  0.78792091511E+03  0.26206605707E+04  0.24994084216E+04 0.  0.
        1    1    3    3  502    0 -0.84895993855E+03  0.87431266827E+02  0.13511456496E+04  0.15981150679E+04  0.50400001928E-02 0. -1.
       -1    1    3    3    0  502  0.84895993855E+03 -0.87431266827E+02 -0.56322473451E+03  0.10225455028E+04  0.50400001928E-02 0.  1.
</event>
<event>
 5   0  0.3972587E-07  0.2500375E+04  0.7818609E-02  0.8402852E-01
        1   -1    0    0  501    0  0.00000000000E+00  0.00000000000E+00  0.13832138995E+04  0.13832138995E+04  0.50400001928E-02 0. -1.
       -1   -1    0    0    0  501  0.00000000000E+00  0.00000000000E+00 -0.11299547342E+04  0.11299547342E+04  0.50400001928E-02 0.  1.
    10030    2    1    2    0    0  0.00000000000E+00  0.00000000000E+00  0.25325916527E+03  0.25131686337E+04  0.25003752471E+04 0.  0.
        3    1    3    3  502    0 -0.11996534830E+04 -0.15962340003E+03 -0.18853653917E+03  0.12248241286E+04  0.10100000352E+00 0.  1.
       -3    1    3    3    0  502  0.11996534830E+04  0.15962340003E+03  0.44179570444E+03  0.12883445051E+04  0.10100000352E+00 0. -1.
</event>
<event>
 5   0  0.3873231E-07  0.2500536E+04  0.7818609E-02  0.8402795E-01
       -1   -1    0    0    0  501  0.00000000000E+00  0.00000000000E+00  0.92071781785E+03  0.92071781786E+03  0.50400001928E-02 0.  1.
        1   -1    0    0  501    0  0.00000000000E+00  0.00000000000E+00 -0.16977732561E+04  0.16977732561E+04  0.50400001928E-02 0. -1.
    10030    2    1    2    0    0  0.00000000000E+00  0.00000000000E+00 -0.77705543823E+03  0.26184910739E+04  0.25005360126E+04 0.  0.
        2    1    3    3  502    0 -0.36843057640E+03  0.90432434955E+03  0.42908924106E+03  0.10666120174E+04  0.25500000920E-02 0.  1.
       -2    1    3    3    0  502  0.36843057640E+03 -0.90432434955E+03 -0.12061446793E+04  0.15518790566E+04  0.25500000920E-02 0. -1.
</event>
<event>
 5   0  0.8997210E-07  0.2496658E+04  0.7818609E-02  0.8404177E-01
        2   -1    0    0  501    0  0.00000000000E+00  0.00000000000E+00  0.17233317740E+04  0.17233317740E+04  0.25500000920E-02 0. -1.
       -2   -1    0    0    0  501  0.00000000000E+00  0.00000000000E+00 -0.90425153217E+03  0.90425153218E+03  0.25500000920E-02 0.  1.
    10030    2    1    2    0    0  0.00000000000E+00  0.00000000000E+00  0.81908024181E+03  0.26275833062E+04  0.24966580840E+04 0.  0.
        1    1    3    3  502    0 -0.76544530720E+03 -0.21585163046E+03 -0.60311679676E+03  0.99812239493E+03  0.50400001928E-02 0.  1.
       -1    1    3    3    0  502  0.76544530720E+03  0.21585163046E+03  0.14221970386E+04  0.16294609112E+04  0.50400001928E-02 0. -1.
</event>
<event>
 5   0  0.9768582E-07  0.2498677E+04  0.7818609E-02  0.8403457E-01
        2   -1    0    0  501    0  0.00000000000E+00  0.00000000000E+00  0.26851353271E+04  0.26851353271E+04  0.25500000920E-02 0. -1.
       -2   -1    0    0    0  501  0.00000000000E+00  0.00000000000E+00 -0.58129177398E+03  0.58129177399E+03  0.25500000920E-02 0.  1.
    10030    2    1    2    0    0  0.00000000000E+00  0.00000000000E+00  0.21038435531E+04  0.32664271011E+04  0.24986773122E+04 0.  0.
        3    1    3    3  502    0  0.82860580468E+03  0.82119733495E+03  0.16363930057E+04  0.20096603499E+04  0.10100000352E+00 0. -1.
       -3    1    3    3    0  502 -0.82860580468E+03 -0.82119733495E+03  0.46745054738E+03  0.12567667512E+04  0.10100000352E+00 0.  1.
</event>
<event>
 5   0  0.8997210E-07  0.2499575E+04  0.7818609E-02  0.8403137E-01
        2   -1    0    0  501    0  0.00000000000E+00  0.00000000000E+00  0.15130887773E+04  0.15130887773E+04  0.25500000920E-02 0. -1.
       -2   -1    0    0    0  501  0.00000000000E+00  0.00000000000E+00 -0.10323045904E+04  0.10323045904E+04  0.25500000920E-02 0.  1.
    10030    2    1    2    0    0  0.00000000000E+00  0.00000000000E+00  0.48078418684E+03  0.25453933677E+04  0.24995747563E+04 0.  0.
        1    1    3    3  502    0 -0.87805522169E+03 -0.98677815796E+02 -0.65969358360E+03  0.11026848634E+04  0.50400001928E-02 0.  1.
       -1    1    3    3    0  502  0.87805522169E+03  0.98677815796E+02  0.11404777704E+04  0.14427085044E+04  0.50400001928E-02 0. -1.
</event>
<event>
 5   0  0.9768582E-07  0.2499925E+04  0.7818609E-02  0.8403012E-01
        2   -1    0    0  501    0  0.00000000000E+00  0.00000000000E+00  0.15201266778E+04  0.15201266778E+04  0.25500000920E-02 0. -1.
       -2   -1    0    0    0  501  0.00000000000E+00  0.00000000000E+00 -0.10278129350E+04  0.10278129350E+04  0.25500000920E-02 0.  1.
    10030    2    1    2    0    0  0.00000000000E+00  0.00000000000E+00  0.49231374287E+03  0.25479396128E+04  0.24999246887E+04 0.  0.
        3    1    3    3  502    0 -0.51955422913E+03  0.10573829637E+04  0.67180286275E+03  0.13562132670E+04  0.10100000352E+00 0. -1.
       -3    1    3    3    0  502  0.51955422913E+03 -0.10573829637E+04 -0.17948911988E+03  0.11917263458E+04  0.10100000352E+00 0.  1.
</event>
<event>
 5   0  0.9508784E-07  0.2497206E+04  0.7818609E-02  0.8403982E-01
       -2   -1    0    0    0  501  0.00000000000E+00  0.00000000000E+00  0.18511319137E+04  0.18511319137E+04  0.25500000920E-02 0.  1.
        2   -1    0    0  501    0  0.00000000000E+00  0.00000000000E+00 -0.84219222863E+03  0.84219222863E+03  0.25500000920E-02 0. -1.
    10030    2    1    2    0    0  0.00000000000E+00  0.00000000000E+00  0.10089396850E+04  0.26933241423E+04  0.24972055677E+04 0.  0.
        2    1    3    3  502    0 -0.77816618512E+03 -0.18994768480E+03  0.15374938758E+04  0.17336407220E+04  0.25500000920E-02 0.  1.
       -2    1    3    3    0  502  0.77816618512E+03  0.18994768480E+03 -0.52855419080E+03  0.95968342032E+03  0.25500000920E-02 0. -1.
</event>
<event>
 5   0  0.8997210E-07  0.2500150E+04  0.7818609E-02  0.8402932E-01
       -2   -1    0    0    0  501  0.00000000000E+00  0.00000000000E+00  0.49229923973E+03  0.49229923973E+03  0.25500000920E-02 0. -1.
        2   -1    0    0  501    0  0.00000000000E+00  0.00000000000E+00 -0.31742637637E+04  0.31742637637E+04  0.25500000920E-02 0.  1.
    10030    2    1    2    0    0  0.00000000000E+00  0.00000000000E+00 -0.26819645240E+04  0.36665630035E+04  0.25001501056E+04 0.  0.
        1    1    3    3  502    0  0.74922041850E+03  0.99859720539E+03 -0.14355713324E+04  0.19024701482E+04  0.50400001928E-02 0.  1.
       -1    1    3    3    0  502 -0.74922041850E+03 -0.99859720539E+03 -0.12463931916E+04  0.17640928553E+04  0.50400001928E-02 0. -1.
</event>
<event>
 5   0  0.3837524E-07  0.2503359E+04  0.7818609E-02  0.8401790E-01
        1   -1    0    0  501    0  0.00000000000E+00  0.00000000000E+00  0.13597172456E+04  0.13597172457E+04  0.50400001928E-02 0.  1.
       -1   -1    0    0    0  501  0.00000000000E+00  0.00000000000E+00 -0.11522258992E+04  0.11522258992E+04  0.50400001928E-02 0. -1.
    10030    2    1    2    0    0  0.00000000000E+00  0.00000000000E+00  0.20749134645E+03  0.25119431449E+04  0.25033588844E+04 0.  0.
        5    1    3    3  502    0  0.41992683318E+03 -0.77455560262E+03 -0.78834986549E+03  0.11822827611E+04  0.46999998093E+01 0. -1.
       -5    1    3    3    0  502 -0.41992683318E+03  0.77455560262E+03  0.99584121194E+03  0.13296603838E+04  0.46999998093E+01 0.  1.
</event>
<event>
 5   0  0.3837524E-07  0.2499569E+04  0.7818609E-02  0.8403139E-01
       -1   -1    0    0    0  501  0.00000000000E+00  0.00000000000E+00  0.60910018036E+03  0.60910018038E+03  0.50400001928E-02 0. -1.
        1   -1    0    0  501    0  0.00000000000E+00  0.00000000000E+00 -0.25643760355E+04  0.25643760355E+04  0.50400001928E-02 0.  1.
    10030    2    1    2    0    0  0.00000000000E+00  0.00000000000E+00 -0.19552758552E+04  0.31734762159E+04  0.24995694876E+04 0.  0.
        5    1    3    3  502    0  0.66862563158E+03  0.91044921439E+03 -0.29870941047E+03  0.11684294626E+04  0.46999998093E+01 0. -1.
       -5    1    3    3    0  502 -0.66862563158E+03 -0.91044921439E+03 -0.16565664447E+04  0.20050467533E+04  0.46999998093E+01 0.  1.
</event>
<event>
 5   0  0.9508784E-07  0.2497215E+04  0.7818609E-02  0.8403978E-01
        2   -1    0    0  501    0  0.00000000000E+00  0.00000000000E+00  0.28127396380E+04  0.28127396380E+04  0.25500000920E-02 0.  1.
       -2   -1    0    0    0  501  0.00000000000E+00  0.00000000000E+00 -0.55427121186E+03  0.55427121186E+03  0.25500000920E-02 0. -1.
    10030    2    1    2    0    0  0.00000000000E+00  0.00000000000E+00  0.22584684262E+04  0.33670108499E+04  0.24972149349E+04 0.  0.
        2    1    3    3  502    0  0.24553242823E+03  0.30565517943E+03  0.27275940547E+04  0.27556270773E+04  0.25500000920E-02 0.  1.
       -2    1    3    3    0  502 -0.24553242823E+03 -0.30565517943E+03 -0.46912562852E+03  0.61138377258E+03  0.25500000920E-02 0. -1.
</event>
<event>
 5   0  0.3972587E-07  0.2500174E+04  0.7818609E-02  0.8402924E-01
       -1   -1    0    0    0  501  0.00000000000E+00  0.00000000000E+00  0.70614742845E+03  0.70614742847E+03  0.50400001928E-02 0.  1.
        1   -1    0    0  501    0  0.00000000000E+00  0.00000000000E+00 -0.22130186879E+04  0.22130186879E+04  0.50400001928E-02 0. -1.
    10030    2    1    2    0    0  0.00000000000E+00  0.00000000000E+00 -0.15068712594E+04  0.29191661163E+04  0.25001739584E+04 0.  0.
        3    1    3    3  502    0  0.82331932641E+03  0.59233919614E+03  0.99778412159E+02  0.10191546390E+04  0.10100000352E+00 0.  1.
       -3    1    3    3    0  502 -0.82331932641E+03 -0.59233919614E+03 -0.16066496716E+04  0.19000114773E+04  0.10100000352E+00 0. -1.
</event>
<event>
 5   0  0.3837524E-07  0.2499257E+04  0.7818609E-02  0.8403250E-01
       -1   -1    0    0    0  501  0.00000000000E+00  0.00000000000E+00  0.67998344505E+03  0.67998344507E+03  0.50400001928E-02 0. -1.
        1   -1    0    0  501    0  0.00000000000E+00  0.00000000000E+00 -0.22964841518E+04  0.22964841518E+04  0.50400001928E-02 0.  1.
    10030    2    1    2    0    0  0.00000000000E+00  0.00000000000E+00 -0.16165007067E+04  0.29764675968E+04  0.24992568536E+04 0.  0.
        5    1    3    3  502    0  0.77635805783E+03  0.39833468443E+03  0.25705741225E+03  0.90967189578E+03  0.46999998093E+01 0. -1.
       -5    1    3    3    0  502 -0.77635805783E+03 -0.39833468443E+03 -0.18735581190E+04  0.20667957011E+04  0.46999998093E+01 0.  1.
</event>
<event>
 5   0  0.9251138E-07  0.2500270E+04  0.7818609E-02  0.8402889E-01
        2   -1    0    0  501    0  0.00000000000E+00  0.00000000000E+00  0.20870453865E+04  0.20870453865E+04  0.25500000920E-02 0.  1.
       -2   -1    0    0    0  501  0.00000000000E+00  0.00000000000E+00 -0.74882791970E+03  0.74882791970E+03  0.25500000920E-02 0. -1.
    10030    2    1    2    0    0  0.00000000000E+00  0.00000000000E+00  0.13382174668E+04  0.28358733062E+04  0.25002702695E+04 0.  0.
        5    1    3    3  502    0  0.45763127051E+03  0.10753038997E+04  0.11726733401E+04  0.16555632604E+04  0.46999998093E+01 0.  1.
       -5    1    3    3    0  502 -0.45763127051E+03 -0.10753038997E+04  0.16554412672E+03  0.11803100459E+04  0.46999998093E+01 0. -1.
</event>
<event>
 5   0  0.9768582E-07  0.2500298E+04  0.7818609E-02  0.8402879E-01
       -2   -1    0    0    0  501  0.00000000000E+00  0.00000000000E+00  0.13466065920E+04  0.13466065920E+04  0.25500000920E-02 0. -1.
        2   -1    0    0  501    0  0.00000000000E+00  0.00000000000E+00 -0.11606007155E+04  0.11606007155E+04  0.25500000920E-02 0.  1.
    10030    2    1    2    0    0  0.00000000000E+00  0.00000000000E+00  0.18600587652E+03  0.25072073075E+04  0.25002980416E+04 0.  0.
        3    1    3    3  502    0  0.17356349583E+01 -0.10208102444E+04 -0.63066714916E+03  0.11999156765E+04  0.10100000352E+00 0.  1.
       -3    1    3    3    0  502 -0.17356349583E+01  0.10208102444E+04  0.81667302568E+03  0.13072916310E+04  0.10100000352E+00 0. -1.
</event>
<event>
 5   0  0.3837524E-07  0.2510368E+04  0.7818609E-02  0.8399301E-01
       -1   -1    0    0    0  501  0.00000000000E+00  0.00000000000E+00  0.96441639046E+03  0.96441639048E+03  0.50400001928E-02 0. -1.
        1   -1    0    0  501    0  0.00000000000E+00  0.00000000000E+00 -0.16336173498E+04  0.16336173498E+04  0.50400001928E-02 0.  1.
    10030    2    1    2    0    0  0.00000000000E+00  0.00000000000E+00 -0.66920095930E+03  0.25980337403E+04  0.25103683777E+04 0.  0.
        5    1    3    3  502    0 -0.23381924057E+03 -0.10270285326E+04 -0.10410858697E+04  0.14809932215E+04  0.46999998093E+01 0.  1.
       -5    1    3    3    0  502  0.23381924057E+03  0.10270285326E+04  0.37188491035E+03  0.11170405188E+04  0.46999998093E+01 0. -1.
</event>
<event>
 5   0  0.9508784E-07  0.2500376E+04  0.7818609E-02  0.8402852E-01
       -2   -1    0    0    0  501  0.00000000000E+00  0.00000000000E+00  0.13794657245E+04  0.13794657245E+04  0.25500000920E-02 0. -1.
        2   -1    0    0  501    0  0.00000000000E+00  0.00000000000E+00 -0.11330254258E+04  0.11330254258E+04  0.25500000920E-02 0.  1.
    10030    2    1    2    0    0  0.00000000000E+00  0.00000000000E+00  0.24644029863E+03  0.25124911503E+04  0.25003757636E+04 0.  0.
        2    1    3    3  502    0  0.20326082109E+03 -0.75810256906E+03 -0.85460095692E+03  0.11603349784E+04  0.25500000920E-02 0.  1.
       -2    1    3    3    0  502 -0.20326082109E+03  0.75810256906E+03  0.11010412556E+04  0.13521561718E+04  0.25500000920E-02 0. -1.
</event>
<event>
 5   0  0.3991066E-07  0.2499751E+04  0.7818609E-02  0.8403074E-01
       -1   -1    0    0    0  501  0.00000000000E+00  0.00000000000E+00  0.89854283534E+03  0.89854283535E+03  0.50400001928E-02 0.  1.
        1   -1    0    0  501    0  0.00000000000E+00  0.00000000000E+00 -0.17385802270E+04  0.17385802270E+04  0.50400001928E-02 0. -1.
    10030    2    1    2    0    0  0.00000000000E+00  0.00000000000E+00 -0.84003739164E+03  0.26371230623E+04  0.24997510329E+04 0.  0.
        1    1    3    3  502    0 -0.88858864646E+03  0.27767898230E+03  0.45977358844E+03  0.10383097575E+04  0.50400001928E-02 0.  1.
       -1    1    3    3    0  502  0.88858864646E+03 -0.27767898230E+03 -0.12998109801E+04  0.15988133049E+04  0.50400001928E-02 0. -1.
</event>
<event>
 5   0  0.3214375E-07  0.2500341E+04  0.7818609E-02  0.8402864E-01
        3   -1    0    0  501    0  0.00000000000E+00  0.00000000000E+00  0.16254738906E+04  0.16254738937E+04  0.10100000352E+00 0.  1.
       -3   -1    0    0    0  501  0.00000000000E+00  0.00000000000E+00 -0.96152066748E+03  0.96152067278E+03  0.10100000352E+00 0. -1.
    10030    2    1    2    0    0  0.00000000000E+00  0.00000000000E+00  0.66395322308E+03  0.25869945665E+04  0.25003413776E+04 0.  0.
        5    1    3    3  502    0  0.12048845117E+04 -0.31731764028E+03  0.22612012364E+03  0.12663291719E+04  0.46999998093E+01 0. -1.
       -5    1    3    3    0  502 -0.12048845117E+04  0.31731764028E+03  0.43783309944E+03  0.13206653945E+04  0.46999998093E+01 0.  1.
</event>
<event>
 5   0  0.8997210E-07  0.2500269E+04  0.7818609E-02  0.8402890E-01
        2   -1    0    0  501    0  0.00000000000E+00  0.00000000000E+00  0.26685427474E+04  0.26685427474E+04  0.25500000920E-02 0.  1.
       -2   -1    0    0    0  501  0.00000000000E+00  0.00000000000E+00 -0.58565146272E+03  0.58565146272E+03  0.25500000920E-02 0. -1.
    10030    2    1    2    0    0  0.00000000000E+00  0.00000000000E+00  0.20828912847E+04  0.32541942101E+04  0.25002687562E+04 0.  0.
        1    1    3    3  502    0 -0.54544906291E+02 -0.93756002519E+03 -0.32494184856E+02  0.93970730534E+03  0.50400001928E-02 0. -1.
       -1    1    3    3    0  502  0.54544906291E+02  0.93756002519E+03  0.21153854695E+04  0.23144869048E+04  0.50400001928E-02 0.  1.
</event>
<event>
 5   0  0.3873231E-07  0.2499878E+04  0.7818609E-02  0.8403029E-01
       -1   -1    0    0    0  501  0.00000000000E+00  0.00000000000E+00  0.99434187607E+03  0.99434187608E+03  0.50400001928E-02 0.  1.
        1   -1    0    0  501    0  0.00000000000E+00  0.00000000000E+00 -0.15712381061E+04  0.15712381062E+04  0.50400001928E-02 0. -1.
    10030    2    1    2    0    0  0.00000000000E+00  0.00000000000E+00 -0.57689623008E+03  0.25655799822E+04  0.24998782740E+04 0.  0.
        2    1    3    3  502    0  0.42045196364E+02 -0.97265071338E+03 -0.10929711180E+04  0.14636950070E+04  0.25500000920E-02 0. -1.
       -2    1    3    3    0  502 -0.42045196364E+02  0.97265071338E+03  0.51607488788E+03  0.11018849752E+04  0.25500000920E-02 0.  1.
</event>
<event>
 5   0  0.3972587E-07  0.2500148E+04  0.7818609E-02  0.8402933E-01
       -1   -1    0    0    0  501  0.00000000000E+00  0.00000000000E+00  0.10874242613E+04  0.10874242613E+04  0.50400001928E-02 0. -1.
        1   -1    0    0  501    0  0.00000000000E+00  0.00000000000E+00 -0.14370518566E+04  0.14370518566E+04  0.50400001928E-02 0.  1.
    10030    2    1    2    0    0  0.00000000000E+00  0.00000000000E+00 -0.34962759525E+03  0.25244761179E+04  0.25001480385E+04 0.  0.
        3    1    3    3  502    0  0.58952661610E+03  0.86808522061E+03  0.51118762518E+03  0.11672302171E+04  0.10100000352E+00 0. -1.
       -3    1    3    3    0  502 -0.58952661610E+03 -0.86808522061E+03 -0.86081522043E+03  0.13572459008E+04  0.10100000352E+00 0.  1.
</event>
<event>
 5   0  0.3837524E-07  0.2500151E+04  0.7818609E-02  0.8402932E-01
        1   -1    0    0  501    0  0.00000000000E+00  0.00000000000E+00  0.62835171410E+03  0.62835171412E+03  0.50400001928E-02 0.  1.
       -1   -1    0    0    0  501  0.00000000000E+00  0.00000000000E+00 -0.24869658966E+04  0.24869658966E+04  0.50400001928E-02 0. -1.
    10030    2    1    2    0    0  0.00000000000E+00  0.00000000000E+00 -0.18586141825E+04  0.31153176107E+04  0.25001514227E+04 0.  0.
        5    1    3    3  502    0 -0.15996178191E+03 -0.11681380265E+04 -0.14468806374E+04  0.18664457907E+04  0.46999998093E+01 0. -1.
       -5    1    3    3    0  502  0.15996178191E+03  0.11681380265E+04 -0.41173354510E+03  0.12488718200E+04  0.46999998093E+01 0.  1.
</event>
<event>
 5   0  0.3873231E-07  0.2500152E+04  0.7818609E-02  0.8402932E-01
        1   -1    0    0  501    0  0.00000000000E+00  0.00000000000E+00  0.20815580887E+04  0.20815580887E+04  0.50400001928E-02 0. -1.
       -1   -1    0    0    0  501  0.00000000000E+00  0.00000000000E+00 -0.75073065024E+03  0.75073065026E+03  0.50400001928E-02 0.  1.
    10030    2    1    2    0    0  0.00000000000E+00  0.00000000000E+00  0.13308274385E+04  0.28322887390E+04  0.25001515614E+04 0.  0.
        2    1    3    3  502    0  0.10415702535E+03 -0.74060893180E+03  0.18001503509E+04  0.19493310549E+04  0.25500000920E-02 0. -1.
       -2    1    3    3    0  502 -0.10415702535E+03  0.74060893180E+03 -0.46932291240E+03  0.88295768410E+03  0.25500000920E-02 0.  1.
</event>
<event>
 5   0  0.9261602E-07  0.2500333E+04  0.7818609E-02  0.8402867E-01
        2   -1    0    0  501    0  0.00000000000E+00  0.00000000000E+00  0.27619606021E+04  0.27619606021E+04  0.25500000920E-02 0. -1.
       -2   -1    0    0    0  501  0.00000000000E+00  0.00000000000E+00 -0.56587223124E+03  0.56587223125E+03  0.25500000920E-02 0.  1.
    10030    2    1    2    0    0  0.00000000000E+00  0.00000000000E+00  0.21960883709E+04  0.33278328334E+04  0.25003334246E+04 0.  0.
        4    1    3    3  502    0  0.20927043204E+03 -0.22606150696E+03 -0.51456511097E+03  0.59973059367E+03  0.12699999809E+01 0.  1.
       -4    1    3    3    0  502 -0.20927043204E+03  0.22606150696E+03  0.27106534818E+04  0.27281022397E+04  0.12699999809E+01 0. -1.
</event>
<event>
 5   0  0.3805418E-07  0.2489778E+04  0.7818609E-02  0.8406636E-01
       -1   -1    0    0    0  501  0.00000000000E+00  0.00000000000E+00  0.12579527659E+04  0.12579527659E+04  0.50400001928E-02 0.  1.
        1   -1    0    0  501    0  0.00000000000E+00  0.00000000000E+00 -0.12319610208E+04  0.12319610208E+04  0.50400001928E-02 0. -1.
    10030    2    1    2    0    0  0.00000000000E+00  0.00000000000E+00  0.25991745103E+02  0.24899137867E+04  0.24897781215E+04 0.  0.
        4    1    3    3  502    0  0.78102389240E+03  0.71563272778E+03 -0.64096531991E+03  0.12381303145E+04  0.12699999809E+01 0.  1.
       -4    1    3    3    0  502 -0.78102389240E+03 -0.71563272778E+03  0.66695706501E+03  0.12517834721E+04  0.12699999809E+01 0. -1.
</event>
<event>
 5   0  0.3837524E-07  0.2499896E+04  0.7818609E-02  0.8403023E-01
        1   -1    0    0  501    0  0.00000000000E+00  0.00000000000E+00  0.17885927009E+04  0.17885927009E+04  0.50400001928E-02 0.  1.
       -1   -1    0    0    0  501  0.00000000000E+00  0.00000000000E+00 -0.87351891009E+03  0.87351891010E+03  0.50400001928E-02 0. -1.
    10030    2    1    2    0    0  0.00000000000E+00  0.00000000000E+00  0.91507379083E+03  0.26621116110E+04  0.24998956352E+04 0.  0.
        5    1    3    3  502    0 -0.66488068662E+03 -0.99884846611E+03  0.83037412807E+03  0.14592148122E+04  0.46999998093E+01 0.  1.
       -5    1    3    3    0  502  0.66488068662E+03  0.99884846611E+03  0.84699662766E+02  0.12028967988E+04  0.46999998093E+01 0. -1.
</event>
<event>
 5   0  0.3214375E-07  0.2500059E+04  0.7818609E-02  0.8402965E-01
        4   -1    0    0  501    0  0.00000000000E+00  0.00000000000E+00  0.18424714354E+04  0.18424718731E+04  0.12699999809E+01 0. -1.
       -4   -1    0    0    0  501  0.00000000000E+00  0.00000000000E+00 -0.84808446675E+03  0.84808541765E+03  0.12699999809E+01 0.  1.
    10030    2    1    2    0    0  0.00000000000E+00  0.00000000000E+00  0.99438696864E+03  0.26905572907E+04  0.25000586176E+04 0.  0.
        5    1    3    3  502    0 -0.63831221476E+03 -0.49748265762E+02  0.16526077615E+04  0.17723012940E+04  0.46999998093E+01 0. -1.
       -5    1    3    3    0  502  0.63831221476E+03  0.49748265762E+02 -0.65822079282E+03  0.91825599674E+03  0.46999998093E+01 0.  1.
</event>
<event>
 5   0  0.8997210E-07  0.2499943E+04  0.7818609E-02  0.8403006E-01
        2   -1    0    0  501    0  0.00000000000E+00  0.00000000000E+00  0.15772251617E+04  0.15772251617E+04  0.25500000920E-02 0. -1.
       -2   -1    0    0    0  501  0.00000000000E+00  0.00000000000E+00 -0.99061840877E+03  0.99061840877E+03  0.25500000920E-02 0.  1.
    10030    2    1    2    0    0  0.00000000000E+00  0.00000000000E+00  0.58660675297E+03  0.25678435705E+04  0.24999426233E+04 0.  0.
        1    1    3    3  502    0 -0.27688012635E+03  0.77838483476E+03 -0.67019484616E+03  0.10638170365E+04  0.50400001928E-02 0.  1.
       -1    1    3    3    0  502  0.27688012635E+03 -0.77838483476E+03  0.12568015991E+04  0.15040265340E+04  0.50400001928E-02 0. -1.
</event>
<event>
 5   0  0.9768582E-07  0.2500441E+04  0.7818609E-02  0.8402829E-01
       -2   -1    0    0    0  501  0.00000000000E+00  0.00000000000E+00  0.11827801834E+04  0.11827801834E+04  0.25500000920E-02 0. -1.
        2   -1    0    0  501    0  0.00000000000E+00  0.00000000000E+00 -0.13215058689E+04  0.13215058689E+04  0.25500000920E-02 0.  1.
    10030    2    1    2    0    0  0.00000000000E+00  0.00000000000E+00 -0.13872568546E+03  0.25042860523E+04  0.25004407243E+04 0.  0.
        3    1    3    3  502    0  0.64913469585E+03  0.10217074259E+04 -0.38255612045E+03  0.12694924628E+04  0.10100000352E+00 0.  1.
       -3    1    3    3    0  502 -0.64913469585E+03 -0.10217074259E+04  0.24383043499E+03  0.12347935895E+04  0.10100000352E+00 0. -1.
</event>
<event>
 5   0  0.9768582E-07  0.2500250E+04  0.7818609E-02  0.8402896E-01
        2   -1    0    0  501    0  0.00000000000E+00  0.00000000000E+00  0.27437541343E+04  0.27437541343E+04  0.25500000920E-02 0. -1.
       -2   -1    0    0    0  501  0.00000000000E+00  0.00000000000E+00 -0.56958932155E+03  0.56958932156E+03  0.25500000920E-02 0.  1.
    10030    2    1    2    0    0  0.00000000000E+00  0.00000000000E+00  0.21741648128E+04  0.33133434559E+04  0.25002504322E+04 0.  0.
        3    1    3    3  502    0 -0.90350832686E+03  0.85691370092E+03  0.94080083389E+03  0.15606840189E+04  0.10100000352E+00 0.  1.
       -3    1    3    3    0  502  0.90350832686E+03 -0.85691370092E+03  0.12333639789E+04  0.17526594370E+04  0.10100000352E+00 0. -1.
</event>
<event>
 5   0  0.3805418E-07  0.2498630E+04  0.7818609E-02  0.8403474E-01
        1   -1    0    0  501    0  0.00000000000E+00  0.00000000000E+00  0.16879591930E+04  0.16879591930E+04  0.50400001928E-02 0.  1.
       -1   -1    0    0    0  501  0.00000000000E+00  0.00000000000E+00 -0.92465957314E+03  0.92465957316E+03  0.50400001928E-02 0. -1.
    10030    2    1    2    0    0  0.00000000000E+00  0.00000000000E+00  0.76329961986E+03  0.26126187662E+04  0.24986297260E+04 0.  0.
        4    1    3    3  502    0 -0.72882330568E+03  0.22497851196E+02 -0.67907366307E+03  0.99640966323E+03  0.12699999809E+01 0. -1.
       -4    1    3    3    0  502  0.72882330568E+03 -0.22497851196E+02  0.14423732829E+04  0.16162091029E+04  0.12699999809E+01 0.  1.
</event>
<event>
 5   0  0.8997210E-07  0.2499308E+04  0.7818609E-02  0.8403232E-01
        2   -1    0    0  501    0  0.00000000000E+00  0.00000000000E+00  0.13980669923E+04  0.13980669923E+04  0.25500000920E-02 0. -1.
       -2   -1    0    0    0  501  0.00000000000E+00  0.00000000000E+00 -0.11169958282E+04  0.11169958283E+04  0.25500000920E-02 0.  1.
    10030    2    1    2    0    0  0.00000000000E+00  0.00000000000E+00  0.28107116406E+03  0.25150628206E+04  0.24993079026E+04 0.  0.
        1    1    3    3  502    0  0.87254938787E+03  0.86961950300E+03 -0.70679114188E+02  0.12339270852E+04  0.50400001928E-02 0. -1.
       -1    1    3    3    0  502 -0.87254938787E+03 -0.86961950300E+03  0.35175027824E+03  0.12811357354E+04  0.50400001928E-02 0.  1.
</event>
<event>
 5   0  0.3873231E-07  0.2500031E+04  0.7818609E-02  0.8402975E-01
       -1   -1    0    0    0  501  0.00000000000E+00  0.00000000000E+00  0.13536690741E+04  0.13536690741E+04  0.50400001928E-02 0.  1.
        1   -1    0    0  501    0  0.00000000000E+00  0.00000000000E+00 -0.11542986149E+04  0.11542986149E+04  0.50400001928E-02 0. -1.
    10030    2    1    2    0    0  0.00000000000E+00  0.00000000000E+00  0.19937045916E+03  0.25079676890E+04  0.25000306696E+04 0.  0.
        2    1    3    3  502    0  0.56174108762E+03 -0.47123092923E+03  0.11152859583E+04  0.13347188494E+04  0.25500000920E-02 0.  1.
       -2    1    3    3    0  502 -0.56174108762E+03  0.47123092923E+03 -0.91591549910E+03  0.11732488396E+04  0.25500000920E-02 0. -1.
</event>
<event>
 5   0  0.3991066E-07  0.2498723E+04  0.7818609E-02  0.8403441E-01
        1   -1    0    0  501    0  0.00000000000E+00  0.00000000000E+00  0.16189142648E+04  0.16189142648E+04  0.50400001928E-02 0.  1.
       -1   -1    0    0    0  501  0.00000000000E+00  0.00000000000E+00 -0.96416733654E+03  0.96416733655E+03  0.50400001928E-02 0. -1.
    10030    2    1    2    0    0  0.00000000000E+00  0.00000000000E+00  0.65474692829E+03  0.25830816014E+04  0.24987230778E+04 0.  0.
        1    1    3    3  502    0  0.41682483272E+03 -0.11552226643E+04  0.56451263641E+03  0.13516496817E+04  0.50400001928E-02 0. -1.
       -1    1    3    3    0  502 -0.41682483272E+03  0.11552226643E+04  0.90234291871E+02  0.12314319197E+04  0.50400001928E-02 0.  1.
</event>
<event>
 5   0  0.3837524E-07  0.2496433E+04  0.7818609E-02  0.8404257E-01
       -1   -1    0    0    0  501  0.00000000000E+00  0.00000000000E+00  0.12992854907E+04  0.12992854907E+04  0.50400001928E-02 0.  1.
        1   -1    0    0  501    0  0.00000000000E+00  0.00000000000E+00 -0.11991551614E+04  0.11991551614E+04  0.50400001928E-02 0. -1.
    10030    2    1    2    0    0  0.00000000000E+00  0.00000000000E+00  0.10013032934E+03  0.24984406521E+04  0.24964333777E+04 0.  0.
        5    1    3    3  502    0 -0.88665907863E+03  0.20817737448E+03  0.90428567862E+03  0.12834550321E+04  0.46999998093E+01 0.  1.
       -5    1    3    3    0  502  0.88665907863E+03 -0.20817737448E+03 -0.80415534928E+03  0.12149856200E+04  0.46999998093E+01 0. -1.
</event>
<event>
 5   0  0.9508784E-07  0.2502526E+04  0.7818609E-02  0.8402086E-01
        2   -1    0    0  501    0  0.00000000000E+00  0.00000000000E+00  0.84440271322E+03  0.84440271322E+03  0.25500000920E-02 0.  1.
       -2   -1    0    0    0  501  0.00000000000E+00  0.00000000000E+00 -0.18541613971E+04  0.18541613971E+04  0.25500000920E-02 0. -1.
    10030    2    1    2    0    0  0.00000000000E+00  0.00000000000E+00 -0.10097586838E+04  0.26985641103E+04  0.25025258555E+04 0.  0.
        2    1    3    3  502    0 -0.90847727114E+03  0.39500062397E+03  0.31939736576E+03  0.10408511528E+04  0.25500000920E-02 0.  1.
       -2    1    3    3    0  502  0.90847727114E+03 -0.39500062397E+03 -0.13291560496E+04  0.16577129574E+04  0.25500000920E-02 0. -1.
</event>
<event>
 5   0  0.8997210E-07  0.2501403E+04  0.7818609E-02  0.8402486E-01
        2   -1    0    0  501    0  0.00000000000E+00  0.00000000000E+00  0.13270717052E+04  0.13270717052E+04  0.25500000920E-02 0. -1.
       -2   -1    0    0    0  501  0.00000000000E+00  0.00000000000E+00 -0.11787266774E+04  0.11787266774E+04  0.25500000920E-02 0.  1.
    10030    2    1    2    0    0  0.00000000000E+00  0.00000000000E+00  0.14834502779E+03  0.25057983825E+04  0.25014034634E+04 0.  0.
        1    1    3    3  502    0  0.96972433670E+03 -0.16171714019E+03  0.84866549001E+03  0.12987497205E+04  0.50400001928E-02 0. -1.
       -1    1    3    3    0  502 -0.96972433670E+03  0.16171714019E+03 -0.70032046222E+03  0.12070486620E+04  0.50400001928E-02 0.  1.
</event>
<event>
 5   0  0.9251138E-07  0.2502215E+04  0.7818609E-02  0.8402197E-01
       -2   -1    0    0    0  501  0.00000000000E+00  0.00000000000E+00  0.13698992123E+04  0.13698992123E+04  0.25500000920E-02 0. -1.
        2   -1    0    0  501    0  0.00000000000E+00  0.00000000000E+00 -0.11426169128E+04  0.11426169128E+04  0.25500000920E-02 0.  1.
    10030    2    1    2    0    0  0.00000000000E+00  0.00000000000E+00  0.22728229952E+03  0.25125161251E+04  0.25022150257E+04 0.  0.
        5    1    3    3  502    0 -0.20055603733E+03  0.72088287095E+03  0.11204419142E+04  0.13473332961E+04  0.46999998093E+01 0. -1.
       -5    1    3    3    0  502  0.20055603733E+03 -0.72088287095E+03 -0.89315961464E+03  0.11651828290E+04  0.46999998093E+01 0.  1.
</event>
<event>
 5   0  0.3214375E-07  0.2500193E+04  0.7818609E-02  0.8402917E-01
        3   -1    0    0  501    0  0.00000000000E+00  0.00000000000E+00  0.84613496862E+03  0.84613497465E+03  0.10100000352E+00 0. -1.
       -3   -1    0    0    0  501  0.00000000000E+00  0.00000000000E+00 -0.18469176617E+04  0.18469176645E+04  0.10100000352E+00 0.  1.
    10030    2    1    2    0    0  0.00000000000E+00  0.00000000000E+00 -0.10007826931E+04  0.26930526391E+04  0.25001932962E+04 0.  0.
        1    1    3    3  502    0 -0.10919932150E+04 -0.50209030243E+03 -0.13007242019E+03  0.12089097104E+04  0.50400001928E-02 0. -1.
       -1    1    3    3    0  502  0.10919932150E+04  0.50209030243E+03 -0.87071027289E+03  0.14841429287E+04  0.50400001928E-02 0.  1.
</event>
<event>
 5   0  0.3214375E-07  0.2501053E+04  0.7818609E-02  0.8402611E-01
       -4   -1    0    0    0  501  0.00000000000E+00  0.00000000000E+00  0.19243950616E+04  0.19243954807E+04  0.12699999809E+01 0.  1.
        4   -1    0    0  501    0  0.00000000000E+00  0.00000000000E+00 -0.81262638949E+03  0.81262738189E+03  0.12699999809E+01 0. -1.
    10030    2    1    2    0    0  0.00000000000E+00  0.00000000000E+00  0.11117686721E+04  0.27370228626E+04  0.25010526923E+04 0.  0.
        3    1    3    3  502    0 -0.77214201526E+03 -0.71182360118E+03 -0.18708067339E+03  0.10667217629E+04  0.10100000352E+00 0. -1.
       -3    1    3    3    0  502  0.77214201526E+03  0.71182360118E+03  0.12988493455E+04  0.16703010996E+04  0.10100000352E+00 0.  1.
</event>
<event>
 5   0  0.9261602E-07  0.2498499E+04  0.7818609E-02  0.8403521E-01
       -2   -1    0    0    0  501  0.00000000000E+00  0.00000000000E+00  0.17618922264E+04  0.17618922264E+04  0.25500000920E-02 0.  1.
        2   -1    0    0  501    0  0.00000000000E+00  0.00000000000E+00 -0.88576586139E+03  0.88576586140E+03  0.25500000920E-02 0. -1.
    10030    2    1    2    0    0  0.00000000000E+00  0.00000000000E+00  0.87612636499E+03  0.26476580878E+04  0.24984987377E+04 0.  0.
        4    1    3    3  502    0  0.18952663381E+03  0.35733166170E+03  0.16905797341E+04  0.17382944836E+04  0.12699999809E+01 0.  1.
       -4    1    3    3    0  502 -0.18952663381E+03 -0.35733166170E+03 -0.81445336909E+03  0.90936360423E+03  0.12699999809E+01 0. -1.
</event>
<event>
 5   0  0.8997210E-07  0.2501420E+04  0.7818609E-02  0.8402480E-01
       -2   -1    0    0    0  501  0.00000000000E+00  0.00000000000E+00  0.10816074580E+04  0.10816074580E+04  0.25500000920E-02 0. -1.
        2   -1    0    0  501    0  0.00000000000E+00  0.00000000000E+00 -0.14462510227E+04  0.14462510227E+04  0.25500000920E-02 0.  1.
    10030    2    1    2    0    0  0.00000000000E+00  0.00000000000E+00 -0.36464356471E+03  0.25278584808E+04  0.25014203104E+04 0.  0.
        1    1    3    3  502    0 -0.35922309230E+03 -0.13814708695E+03  0.10202768904E+04  0.10904543919E+04  0.50400001928E-02 0. -1.
       -1    1    3    3    0  502  0.35922309230E+03  0.13814708695E+03 -0.13849204551E+04  0.14374040889E+04  0.50400001928E-02 0.  1.
</event>
<event>
 5   0  0.3991066E-07  0.2500084E+04  0.7818609E-02  0.8402956E-01
       -1   -1    0    0    0  501  0.00000000000E+00  0.00000000000E+00  0.11779415829E+04  0.11779415829E+04  0.50400001928E-02 0. -1.
        1   -1    0    0  501    0  0.00000000000E+00  0.00000000000E+00 -0.13265558263E+04  0.13265558263E+04  0.50400001928E-02 0.  1.
    10030    2    1    2    0    0  0.00000000000E+00  0.00000000000E+00 -0.14861424338E+03  0.25044974092E+04  0.25000842144E+04 0.  0.
        1    1    3    3  502    0 -0.86871930063E+03 -0.30430760136E+03 -0.92157129706E+03  0.13025244701E+04  0.50400001928E-02 0.  1.
       -1    1    3    3    0  502  0.86871930063E+03  0.30430760136E+03  0.77295705368E+03  0.12019729391E+04  0.50400001928E-02 0. -1.
</event>
<event>
 5   0  0.3837524E-07  0.2501879E+04  0.7818609E-02  0.8402316E-01
       -1   -1    0    0    0  501  0.00000000000E+00  0.00000000000E+00  0.10034783153E+04  0.10034783154E+04  0.50400001928E-02 0.  1.
        1   -1    0    0  501    0  0.00000000000E+00  0.00000000000E+00 -0.15594259639E+04  0.15594259639E+04  0.50400001928E-02 0. -1.
    10030    2    1    2    0    0  0.00000000000E+00  0.00000000000E+00 -0.55594764854E+03  0.25629042792E+04  0.25018794049E+04 0.  0.
        5    1    3    3  502    0  0.90531994812E+02 -0.11781563565E+04 -0.69857311129E+03  0.13726889394E+04  0.46999998093E+01 0.  1.
       -5    1    3    3    0  502 -0.90531994812E+02  0.11781563565E+04  0.14262546275E+03  0.11902153398E+04  0.46999998093E+01 0. -1.
</event>
<event>
 5   0  0.9251138E-07  0.2501880E+04  0.7818609E-02  0.8402316E-01
        2   -1    0    0  501    0  0.00000000000E+00  0.00000000000E+00  0.11824396939E+04  0.11824396939E+04  0.25500000920E-02 0.  1.
       -2   -1    0    0    0  501  0.00000000000E+00  0.00000000000E+00 -0.13234089102E+04  0.13234089102E+04  0.25500000920E-02 0. -1.
    10030    2    1    2    0    0  0.00000000000E+00  0.00000000000E+00 -0.14096921632E+03  0.25058486041E+04  0.25018802743E+04 0.  0.
        5    1    3    3  502    0 -0.72060994601E+02  0.83217304483E+03  0.86218752842E+03  0.12004558249E+04  0.46999998093E+01 0.  1.
       -5    1    3    3    0  502  0.72060994601E+02 -0.83217304483E+03 -0.10031567447E+04  0.13053927792E+04  0.46999998093E+01 0. -1.
</event>
<event>
 5   0  0.9251138E-07  0.2502134E+04  0.7818609E-02  0.8402226E-01
        2   -1    0    0  501    0  0.00000000000E+00  0.00000000000E+00  0.19752653325E+04  0.19752653325E+04  0.25500000920E-02 0.  1.
       -2   -1    0    0    0  501  0.00000000000E+00  0.00000000000E+00 -0.79238368625E+03  0.79238368626E+03  0.25500000920E-02 0. -1.
    10030    2    1    2    0    0  0.00000000000E+00  0.00000000000E+00  0.11828816463E+04  0.27676490188E+04  0.25021335100E+04 0.  0.
        5    1    3    3  502    0  0.12137824582E+04  0.11757369353E+03  0.90047002839E+03  0.15159023027E+04  0.46999998093E+01 0.  1.
       -5    1    3    3    0  502 -0.12137824582E+04 -0.11757369353E+03  0.28241161786E+03  0.12517467161E+04  0.46999998093E+01 0. -1.
</event>
<event>
 5   0  0.9251138E-07  0.2500194E+04  0.7818609E-02  0.8402916E-01
       -2   -1    0    0    0  501  0.00000000000E+00  0.00000000000E+00  0.11899908484E+04  0.11899908484E+04  0.25500000920E-02 0.  1.
        2   -1    0    0  501    0  0.00000000000E+00  0.00000000000E+00 -0.13132394915E+04  0.13132394915E+04  0.25500000920E-02 0. -1.
    10030    2    1    2    0    0  0.00000000000E+00  0.00000000000E+00 -0.12324864306E+03  0.25032303400E+04  0.25001943738E+04 0.  0.
        5    1    3    3  502    0 -0.17976112369E+03 -0.90320240303E+03 -0.90801007431E+03  0.12932876816E+04  0.46999998093E+01 0. -1.
       -5    1    3    3    0  502  0.17976112369E+03  0.90320240303E+03  0.78476143125E+03  0.12099426583E+04  0.46999998093E+01 0.  1.
</event>
<event>
 5   0  0.9261602E-07  0.2499086E+04  0.7818609E-02  0.8403311E-01
       -2   -1    0    0    0  501  0.00000000000E+00  0.00000000000E+00  0.70815046568E+03  0.70815046568E+03  0.25500000920E-02 0.  1.
        2   -1    0    0  501    0  0.00000000000E+00  0.00000000000E+00 -0.22048386885E+04  0.22048386885E+04  0.25500000920E-02 0. -1.
    10030    2    1    2    0    0  0.00000000000E+00  0.00000000000E+00 -0.14966882228E+04  0.29129891542E+04  0.24990858681E+04 0.  0.
        4    1    3    3  502    0  0.92583098678E+03 -0.77067050931E+03 -0.36129466654E+03  0.12576293170E+04  0.12699999809E+01 0.  1.
       -4    1    3    3    0  502 -0.92583098678E+03  0.77067050931E+03 -0.11353935563E+04  0.16553598372E+04  0.12699999809E+01 0. -1.
</event>
<event>
 5   0  0.9261602E-07  0.2499987E+04  0.7818609E-02  0.8402990E-01
        2   -1    0    0  501    0  0.00000000000E+00  0.00000000000E+00  0.73673158583E+03  0.73673158583E+03  0.25500000920E-02 0.  1.
       -2   -1    0    0    0  501  0.00000000000E+00  0.00000000000E+00 -0.21208314994E+04  0.21208314994E+04  0.25500000920E-02 0. -1.
    10030    2    1    2    0    0  0.00000000000E+00  0.00000000000E+00 -0.13840999136E+04  0.28575630852E+04  0.24999868430E+04 0.  0.
        4    1    3    3  502    0 -0.77457087144E+03 -0.39737611772E+03 -0.17173522544E+04  0.19254007875E+04  0.12699999809E+01 0. -1.
       -4    1    3    3    0  502  0.77457087144E+03  0.39737611772E+03  0.33325234082E+03  0.93216229777E+03  0.12699999809E+01 0.  1.
</event>
<event>
 5   0  0.3837524E-07  0.2499646E+04  0.7818609E-02  0.8403111E-01
        1   -1    0    0  501    0  0.00000000000E+00  0.00000000000E+00  0.68804305281E+03  0.68804305283E+03  0.50400001928E-02 0.  1.
       -1   -1    0    0    0  501  0.00000000000E+00  0.00000000000E+00 -0.22702912854E+04  0.22702912854E+04  0.50400001928E-02 0. -1.
    10030    2    1    2    0    0  0.00000000000E+00  0.00000000000E+00 -0.15822482326E+04  0.29583343382E+04  0.24996464925E+04 0.  0.
        5    1    3    3  502    0 -0.12222840477E+03  0.12359505781E+04 -0.62576210868E+03  0.13907242433E+04  0.46999998093E+01 0.  1.
       -5    1    3    3    0  502  0.12222840477E+03 -0.12359505781E+04 -0.95648612391E+03  0.15676100949E+04  0.46999998093E+01 0. -1.
</event>
<event>
 5   0  0.9768582E-07  0.2498798E+04  0.7818609E-02  0.8403414E-01
        2   -1    0    0  501    0  0.00000000000E+00  0.00000000000E+00  0.10215907822E+04  0.10215907822E+04  0.25500000920E-02 0.  1.
       -2   -1    0    0    0  501  0.00000000000E+00  0.00000000000E+00 -0.15280073093E+04  0.15280073093E+04  0.25500000920E-02 0. -1.
    10030    2    1    2    0    0  0.00000000000E+00  0.00000000000E+00 -0.50641652716E+03  0.25495980915E+04  0.24987982570E+04 0.  0.
        3    1    3    3  502    0  0.39766316453E+03  0.37518293072E+02 -0.14611056488E+04  0.15147188986E+04  0.10100000352E+00 0. -1.
       -3    1    3    3    0  502 -0.39766316453E+03 -0.37518293072E+02  0.95468912162E+03  0.10348791929E+04  0.10100000352E+00 0.  1.
</event>
<event>
 5   0  0.9508784E-07  0.2500059E+04  0.7818609E-02  0.8402964E-01
        2   -1    0    0  501    0  0.00000000000E+00  0.00000000000E+00  0.88660287232E+03  0.88660287232E+03  0.25500000920E-02 0.  1.
       -2   -1    0    0    0  501  0.00000000000E+00  0.00000000000E+00 -0.17624282535E+04  0.17624282535E+04  0.25500000920E-02 0. -1.
    10030    2    1    2    0    0  0.00000000000E+00  0.00000000000E+00 -0.87582538122E+03  0.26490311259E+04  0.25000591608E+04 0.  0.
        2    1    3    3  502    0 -0.26800176836E+03  0.59120450499E+03  0.69402533420E+03  0.95027305501E+03  0.25500000920E-02 0.  1.
       -2    1    3    3    0  502  0.26800176836E+03 -0.59120450499E+03 -0.15698507154E+04  0.16987580708E+04  0.25500000920E-02 0. -1.
</event>
<event>
 5   0  0.3972587E-07  0.2500951E+04  0.7818609E-02  0.8402647E-01
       -1   -1    0    0    0  501  0.00000000000E+00  0.00000000000E+00  0.10637703286E+04  0.10637703287E+04  0.50400001928E-02 0. -1.
        1   -1    0    0  501    0  0.00000000000E+00  0.00000000000E+00 -0.14699499924E+04  0.14699499924E+04  0.50400001928E-02 0.  1.
    10030    2    1    2    0    0  0.00000000000E+00  0.00000000000E+00 -0.40617966375E+03  0.25337203211E+04  0.25009511683E+04 0.  0.
        3    1    3    3  502    0 -0.10329565533E+04 -0.50282118828E+03 -0.70338285776E+03  0.13470619300E+04  0.10100000352E+00 0.  1.
       -3    1    3    3    0  502  0.10329565533E+04  0.50282118828E+03  0.29720319401E+03  0.11866583911E+04  0.10100000352E+00 0. -1.
</event>
<event>
 5   0  0.9251138E-07  0.2499821E+04  0.7818609E-02  0.8403049E-01
       -2   -1    0    0    0  501  0.00000000000E+00  0.00000000000E+00  0.78061323290E+03  0.78061323291E+03  0.25500000920E-02 0. -1.
        2   -1    0    0  501    0  0.00000000000E+00  0.00000000000E+00 -0.20013452784E+04  0.20013452784E+04  0.25500000920E-02 0.  1.
    10030    2    1    2    0    0  0.00000000000E+00  0.00000000000E+00 -0.12207320455E+04  0.27819585113E+04  0.24998212800E+04 0.  0.
        5    1    3    3  502    0 -0.42981802769E+03  0.10678664614E+03  0.69035494385E+03  0.82021885081E+03  0.46999998093E+01 0. -1.
       -5    1    3    3    0  502  0.42981802769E+03 -0.10678664614E+03 -0.19110869894E+04  0.19617396605E+04  0.46999998093E+01 0.  1.
</event>
<event>
 5   0  0.9508784E-07  0.2499949E+04  0.7818609E-02  0.8403004E-01
       -2   -1    0    0    0  501  0.00000000000E+00  0.00000000000E+00  0.11575074858E+04  0.11575074858E+04  0.25500000920E-02 0. -1.
        2   -1    0    0  501    0  0.00000000000E+00  0.00000000000E+00 -0.13498279084E+04  0.13498279084E+04  0.25500000920E-02 0.  1.
    10030    2    1    2    0    0  0.00000000000E+00  0.00000000000E+00 -0.19232042261E+03  0.25073353941E+04  0.24999487262E+04 0.  0.
        2    1    3    3  502    0  0.37203738173E+03  0.79702617866E+03 -0.98691352900E+03  0.13219912468E+04  0.25500000920E-02 0.  1.
       -2    1    3    3    0  502 -0.37203738173E+03 -0.79702617866E+03  0.79459310639E+03  0.11853441473E+04  0.25500000920E-02 0. -1.
</event>
<event>
 5   0  0.3991066E-07  0.2495804E+04  0.7818609E-02  0.8404482E-01
        1   -1    0    0  501    0  0.00000000000E+00  0.00000000000E+00  0.10089463469E+04  0.10089463470E+04  0.50400001928E-02 0. -1.
       -1   -1    0    0    0  501  0.00000000000E+00  0.00000000000E+00 -0.15434509425E+04  0.15434509425E+04  0.50400001928E-02 0.  1.
    10030    2    1    2    0    0  0.00000000000E+00  0.00000000000E+00 -0.53450459558E+03  0.25523972895E+04  0.24958038306E+04 0.  0.
        1    1    3    3  502    0 -0.50027120220E+03 -0.51232798929E+03 -0.13124385818E+04  0.14950740034E+04  0.50400001928E-02 0.  1.
       -1    1    3    3    0  502  0.50027120220E+03  0.51232798929E+03  0.77793398627E+03  0.10573232861E+04  0.50400001928E-02 0. -1.
</event>
<event>
 5   0  0.9251138E-07  0.2501553E+04  0.7818609E-02  0.8402432E-01
        2   -1    0    0  501    0  0.00000000000E+00  0.00000000000E+00  0.13296201179E+04  0.13296201179E+04  0.25500000920E-02 0.  1.
       -2   -1    0    0    0  501  0.00000000000E+00  0.00000000000E+00 -0.11766083221E+04  0.11766083221E+04  0.25500000920E-02 0. -1.
    10030    2    1    2    0    0  0.00000000000E+00  0.00000000000E+00  0.15301179576E+03  0.25062284400E+04  0.25015531943E+04 0.  0.
        5    1    3    3  502    0 -0.35468878439E+02  0.44380060431E+02 -0.11753061363E+04  0.11766878240E+04  0.46999998093E+01 0. -1.
       -5    1    3    3    0  502  0.35468878439E+02 -0.44380060431E+02  0.13283179320E+04  0.13295406160E+04  0.46999998093E+01 0.  1.
</event>
<event>
 5   0  0.9251138E-07  0.2503815E+04  0.7818609E-02  0.8401628E-01
        2   -1    0    0  501    0  0.00000000000E+00  0.00000000000E+00  0.20802140016E+04  0.20802140016E+04  0.25500000920E-02 0. -1.
       -2   -1    0    0    0  501  0.00000000000E+00  0.00000000000E+00 -0.75341896515E+03  0.75341896516E+03  0.25500000920E-02 0.  1.
    10030    2    1    2    0    0  0.00000000000E+00  0.00000000000E+00  0.13267950365E+04  0.28336329668E+04  0.25038152331E+04 0.  0.
        5    1    3    3  502    0 -0.75733905144E+03  0.77174555381E+03 -0.50664191188E+02  0.10824705949E+04  0.46999998093E+01 0.  1.
       -5    1    3    3    0  502  0.75733905144E+03 -0.77174555381E+03  0.13774592277E+04  0.17511623718E+04  0.46999998093E+01 0. -1.
</event>
<event>
 5   0  0.9768582E-07  0.2497629E+04  0.7818609E-02  0.8403831E-01
        2   -1    0    0  501    0  0.00000000000E+00  0.00000000000E+00  0.14150814943E+04  0.14150814943E+04  0.25500000920E-02 0. -1.
       -2   -1    0    0    0  501  0.00000000000E+00  0.00000000000E+00 -0.11020834239E+04  0.11020834239E+04  0.25500000920E-02 0.  1.
    10030    2    1    2    0    0  0.00000000000E+00  0.00000000000E+00  0.31299807044E+03  0.25171649182E+04  0.24976291625E+04 0.  0.
        3    1    3    3  502    0 -0.28428442994E+03 -0.11943565653E+04 -0.73833114260E+02  0.12299416983E+04  0.10100000352E+00 0. -1.
       -3    1    3    3    0  502  0.28428442994E+03  0.11943565653E+04  0.38683118470E+03  0.12872232199E+04  0.10100000352E+00 0.  1.
</event>
<event>
 5   0  0.3873231E-07  0.2498864E+04  0.7818609E-02  0.8403390E-01
        1   -1    0    0  501    0  0.00000000000E+00  0.00000000000E+00  0.72369638175E+03  0.72369638177E+03  0.50400001928E-02 0. -1.
       -1   -1    0    0    0  501  0.00000000000E+00  0.00000000000E+00 -0.21570922865E+04  0.21570922865E+04  0.50400001928E-02 0.  1.
    10030    2    1    2    0    0  0.00000000000E+00  0.00000000000E+00 -0.14333959048E+04  0.28807886683E+04  0.24988636481E+04 0.  0.
        2    1    3    3  502    0 -0.59315088564E+03 -0.73126806126E+03 -0.16635006227E+04  0.19114955590E+04  0.25500000920E-02 0.  1.
       -2    1    3    3    0  502  0.59315088564E+03  0.73126806126E+03  0.23010471787E+03  0.96929310930E+03  0.25500000920E-02 0. -1.
</event>
<event>
 5   0  0.3837524E-07  0.2499574E+04  0.7818609E-02  0.8403137E-01
       -1   -1    0    0    0  501  0.00000000000E+00  0.00000000000E+00  0.66694408403E+03  0.66694408405E+03  0.50400001928E-02 0. -1.
        1   -1    0    0  501    0  0.00000000000E+00  0.00000000000E+00 -0.23419773198E+04  0.23419773198E+04  0.50400001928E-02 0.  1.
    10030    2    1    2    0    0  0.00000000000E+00  0.00000000000E+00 -0.16750332358E+04  0.30089214038E+04  0.24995742985E+04 0.  0.
        5    1    3    3  502    0 -0.12268144903E+03  0.98766020357E+03 -0.17474789782E+04  0.20110266743E+04  0.46999998093E+01 0.  1.
       -5    1    3    3    0  502  0.12268144903E+03 -0.98766020357E+03  0.72445742410E+02  0.99789472954E+03  0.46999998093E+01 0. -1.
</event>
<event>
 5   0  0.9508784E-07  0.2499414E+04  0.7818609E-02  0.8403194E-01
       -2   -1    0    0    0  501  0.00000000000E+00  0.00000000000E+00  0.12868072393E+04  0.12868072393E+04  0.25500000920E-02 0. -1.
        2   -1    0    0  501    0  0.00000000000E+00  0.00000000000E+00 -0.12136766086E+04  0.12136766086E+04  0.25500000920E-02 0.  1.
    10030    2    1    2    0    0  0.00000000000E+00  0.00000000000E+00  0.73130630662E+02  0.25004838479E+04  0.24994142083E+04 0.  0.
        2    1    3    3  502    0  0.75677519151E+03 -0.70277129127E+02 -0.95588759623E+03  0.12212160587E+04  0.25500000920E-02 0.  1.
       -2    1    3    3    0  502 -0.75677519151E+03  0.70277129127E+02  0.10290182269E+04  0.12792677893E+04  0.25500000920E-02 0. -1.
</event>
<event>
 5   0  0.8997210E-07  0.2499997E+04  0.7818609E-02  0.8402987E-01
        2   -1    0    0  501    0  0.00000000000E+00  0.00000000000E+00  0.10746742636E+04  0.10746742636E+04  0.25500000920E-02 0.  1.
       -2   -1    0    0    0  501  0.00000000000E+00  0.00000000000E+00 -0.14539253847E+04  0.14539253847E+04  0.25500000920E-02 0. -1.
    10030    2    1    2    0    0  0.00000000000E+00  0.00000000000E+00 -0.37925112110E+03  0.25285996482E+04  0.24999969536E+04 0.  0.
        1    1    3    3  502    0  0.62979136580E+03  0.98868368283E+03  0.24934873249E+03  0.11984604205E+04  0.50400001928E-02 0.  1.
       -1    1    3    3    0  502 -0.62979136580E+03 -0.98868368283E+03 -0.62859985358E+03  0.13301392277E+04  0.50400001928E-02 0. -1.
</event>
<event>
 5   0  0.3873231E-07  0.2499737E+04  0.7818609E-02  0.8403079E-01
        1   -1    0    0  501    0  0.00000000000E+00  0.00000000000E+00  0.22032204144E+04  0.22032204144E+04  0.50400001928E-02 0.  1.
       -1   -1    0    0    0  501  0.00000000000E+00  0.00000000000E+00 -0.70903996954E+03  0.70903996956E+03  0.50400001928E-02 0. -1.
    10030    2    1    2    0    0  0.00000000000E+00  0.00000000000E+00  0.14941804449E+04  0.29122603840E+04  0.24997370546E+04 0.  0.
        2    1    3    3  502    0  0.38661965413E+03 -0.23360933420E+03 -0.61061493497E+03  0.75953846301E+03  0.25500000920E-02 0. -1.
       -2    1    3    3    0  502 -0.38661965413E+03  0.23360933420E+03  0.21047953798E+04  0.21527219210E+04  0.25500000920E-02 0.  1.
</event>
<event>
 5   0  0.3972587E-07  0.2500080E+04  0.7818609E-02  0.8402957E-01
       -1   -1    0    0    0  501  0.00000000000E+00  0.00000000000E+00  0.70153840944E+03  0.70153840946E+03  0.50400001928E-02 0.  1.
        1   -1    0    0  501    0  0.00000000000E+00  0.00000000000E+00 -0.22273911166E+04  0.22273911166E+04  0.50400001928E-02 0. -1.
    10030    2    1    2    0    0  0.00000000000E+00  0.00000000000E+00 -0.15258527072E+04  0.29289295261E+04  0.25000803357E+04 0.  0.
        3    1    3    3  502    0 -0.92715414565E+03  0.81434722361E+03 -0.52913497521E+03  0.13426689996E+04  0.10100000352E+00 0.  1.
       -3    1    3    3    0  502  0.92715414565E+03 -0.81434722361E+03 -0.99671773198E+03  0.15862605265E+04  0.10100000352E+00 0. -1.
</event>
<event>
 5   0  0.9508784E-07  0.2500519E+04  0.7818609E-02  0.8402801E-01
       -2   -1    0    0    0  501  0.00000000000E+00  0.00000000000E+00  0.14071211104E+04  0.14071211104E+04  0.25500000920E-02 0. -1.
        2   -1    0    0  501    0  0.00000000000E+00  0.00000000000E+00 -0.11108846199E+04  0.11108846199E+04  0.25500000920E-02 0.  1.
    10030    2    1    2    0    0  0.00000000000E+00  0.00000000000E+00  0.29623649058E+03  0.25180057303E+04  0.25005193060E+04 0.  0.
        2    1    3    3  502    0  0.54420802612E+02 -0.39771391316E+03  0.13404641012E+04  0.13992790955E+04  0.25500000920E-02 0. -1.
       -2    1    3    3    0  502 -0.54420802612E+02  0.39771391316E+03 -0.10442276107E+04  0.11187266348E+04  0.25500000920E-02 0.  1.
</event>
<event>
 5   0  0.3991066E-07  0.2499926E+04  0.7818609E-02  0.8403012E-01
        1   -1    0    0  501    0  0.00000000000E+00  0.00000000000E+00  0.17570948677E+04  0.17570948677E+04  0.50400001928E-02 0.  1.
       -1   -1    0    0    0  501  0.00000000000E+00  0.00000000000E+00 -0.88919932084E+03  0.88919932086E+03  0.50400001928E-02 0. -1.
    10030    2    1    2    0    0  0.00000000000E+00  0.00000000000E+00  0.86789554686E+03  0.26462941886E+04  0.24999260493E+04 0.  0.
        1    1    3    3  502    0  0.87456539158E+03 -0.89933516940E+02  0.13744820421E+04  0.16316107213E+04  0.50400001928E-02 0.  1.
       -1    1    3    3    0  502 -0.87456539158E+03  0.89933516940E+02 -0.50658649525E+03  0.10146834673E+04  0.50400001928E-02 0. -1.
</event>
<event>
 5   0  0.3991066E-07  0.2500241E+04  0.7818609E-02  0.8402900E-01
        1   -1    0    0  501    0  0.00000000000E+00  0.00000000000E+00  0.15791749366E+04  0.15791749366E+04  0.50400001928E-02 0.  1.
       -1   -1    0    0    0  501  0.00000000000E+00  0.00000000000E+00 -0.98963188391E+03  0.98963188393E+03  0.50400001928E-02 0. -1.
    10030    2    1    2    0    0  0.00000000000E+00  0.00000000000E+00  0.58954305265E+03  0.25688068205E+04  0.25002414824E+04 0.  0.
        1    1    3    3  502    0  0.56341859229E+03  0.35072871368E+03 -0.79369176088E+03  0.10346002861E+04  0.50400001928E-02 0. -1.
       -1    1    3    3    0  502 -0.56341859229E+03 -0.35072871368E+03  0.13832348135E+04  0.15342065344E+04  0.50400001928E-02 0.  1.
</event>
<event>
 5   0  0.3873231E-07  0.2501418E+04  0.7818609E-02  0.8402481E-01
       -1   -1    0    0    0  501  0.00000000000E+00  0.00000000000E+00  0.80092778389E+03  0.80092778391E+03  0.50400001928E-02 0. -1.
        1   -1    0    0  501    0  0.00000000000E+00  0.00000000000E+00 -0.19530756985E+04  0.19530756985E+04  0.50400001928E-02 0.  1.
    10030    2    1    2    0    0  0.00000000000E+00  0.00000000000E+00 -0.11521479146E+04  0.27540034824E+04  0.25014176708E+04 0.  0.
        2    1    3    3  502    0  0.10679805354E+04 -0.25264084781E+03 -0.12365342768E+04  0.16533078478E+04  0.25500000920E-02 0.  1.
       -2    1    3    3    0  502 -0.10679805354E+04  0.25264084781E+03  0.84386362166E+02  0.11006956346E+04  0.25500000920E-02 0. -1.
</event>
<event>
 5   0  0.9261602E-07  0.2495575E+04  0.7818609E-02  0.8404564E-01
       -2   -1    0    0    0  501  0.00000000000E+00  0.00000000000E+00  0.11111487252E+04  0.11111487252E+04  0.25500000920E-02 0. -1.
        2   -1    0    0  501    0  0.00000000000E+00  0.00000000000E+00 -0.14012289336E+04  0.14012289336E+04  0.25500000920E-02 0.  1.
    10030    2    1    2    0    0  0.00000000000E+00  0.00000000000E+00 -0.29008020840E+03  0.25123776588E+04  0.24955750787E+04 0.  0.
        4    1    3    3  502    0  0.86183523836E+03 -0.10972367103E+03 -0.10467114474E+04  0.13602961917E+04  0.12699999809E+01 0.  1.
       -4    1    3    3    0  502 -0.86183523836E+03  0.10972367103E+03  0.75663123904E+03  0.11520814671E+04  0.12699999809E+01 0. -1.
</event>
<event>
 5   0  0.9251138E-07  0.2499492E+04  0.7818609E-02  0.8403166E-01
       -2   -1    0    0    0  501  0.00000000000E+00  0.00000000000E+00  0.77199768550E+03  0.77199768550E+03  0.25500000920E-02 0.  1.
        2   -1    0    0  501    0  0.00000000000E+00  0.00000000000E+00 -0.20231480799E+04  0.20231480799E+04  0.25500000920E-02 0. -1.
    10030    2    1    2    0    0  0.00000000000E+00  0.00000000000E+00 -0.12511503944E+04  0.27951457654E+04  0.24994924566E+04 0.  0.
        5    1    3    3  502    0 -0.11232125597E+04  0.49590062040E+03 -0.88620926017E+03  0.15142367128E+04  0.46999998093E+01 0.  1.
       -5    1    3    3    0  502  0.11232125597E+04 -0.49590062040E+03 -0.36494113421E+03  0.12809090526E+04  0.46999998093E+01 0. -1.
</event>
<event>
 5   0  0.9261602E-07  0.2500918E+04  0.7818609E-02  0.8402659E-01
        2   -1    0    0  501    0  0.00000000000E+00  0.00000000000E+00  0.95063321929E+03  0.95063321929E+03  0.25500000920E-02 0.  1.
       -2   -1    0    0    0  501  0.00000000000E+00  0.00000000000E+00 -0.16448480904E+04  0.16448480904E+04  0.25500000920E-02 0. -1.
    10030    2    1    2    0    0  0.00000000000E+00  0.00000000000E+00 -0.69421487112E+03  0.25954813097E+04  0.25009176199E+04 0.  0.
        4    1    3    3  502    0 -0.90835464155E+02 -0.52980529052E+03  0.82460938612E+03  0.98434088607E+03  0.12699999809E+01 0.  1.
       -4    1    3    3    0  502  0.90835464155E+02  0.52980529052E+03 -0.15188242572E+04  0.16111404236E+04  0.12699999809E+01 0. -1.
</event>
<event>
 5   0  0.8997210E-07  0.2500854E+04  0.7818609E-02  0.8402681E-01
        2   -1    0    0  501    0  0.00000000000E+00  0.00000000000E+00  0.27217911078E+04  0.27217911078E+04  0.25500000920E-02 0.  1.
       -2   -1    0    0    0  501  0.00000000000E+00  0.00000000000E+00 -0.57446287323E+03  0.57446287323E+03  0.25500000920E-02 0. -1.
    10030    2    1    2    0    0  0.00000000000E+00  0.00000000000E+00  0.21473282345E+04  0.32962539810E+04  0.25008542061E+04 0.  0.
        1    1    3    3  502    0 -0.25007489237E+03 -0.71442921832E+03  0.23855200439E+04  0.25027289985E+04  0.50400001928E-02 0.  1.
       -1    1    3    3    0  502  0.25007489237E+03  0.71442921832E+03 -0.23819180940E+03  0.79352498252E+03  0.50400001928E-02 0. -1.
</event>
<event>
 5   0  0.9251138E-07  0.2500002E+04  0.7818609E-02  0.8402985E-01
        2   -1    0    0  501    0  0.00000000000E+00  0.00000000000E+00  0.20060531749E+04  0.20060531749E+04  0.25500000920E-02 0. -1.
       -2   -1    0    0    0  501  0.00000000000E+00  0.00000000000E+00 -0.77889382885E+03  0.77889382885E+03  0.25500000920E-02 0.  1.
    10030    2    1    2    0    0  0.00000000000E+00  0.00000000000E+00  0.12271593460E+04  0.27849470037E+04  0.25000019506E+04 0.  0.
        5    1    3    3  502    0  0.11055199151E+04  0.50118103757E+03  0.94614198340E+03  0.15390137939E+04  0.46999998093E+01 0. -1.
       -5    1    3    3    0  502 -0.11055199151E+04 -0.50118103757E+03  0.28101736265E+03  0.12459332098E+04  0.46999998093E+01 0.  1.
</event>
<event>
 5   0  0.9768582E-07  0.2499525E+04  0.7818609E-02  0.8403155E-01
       -2   -1    0    0    0  501  0.00000000000E+00  0.00000000000E+00  0.67966275658E+03  0.67966275659E+03  0.25500000920E-02 0.  1.
        2   -1    0    0  501    0  0.00000000000E+00  0.00000000000E+00 -0.22980610350E+04  0.22980610350E+04  0.25500000920E-02 0. -1.
    10030    2    1    2    0    0  0.00000000000E+00  0.00000000000E+00 -0.16183982784E+04  0.29777237916E+04  0.24995251532E+04 0.  0.
        3    1    3    3  502    0 -0.66806475785E+03  0.74957524492E+03  0.77297453760E+02  0.10070493906E+04  0.10100000352E+00 0.  1.
       -3    1    3    3    0  502  0.66806475785E+03 -0.74957524492E+03 -0.16956957321E+04  0.19706744010E+04  0.10100000352E+00 0. -1.
</event>
<event>
 5   0  0.9261602E-07  0.2500451E+04  0.7818609E-02  0.8402825E-01
       -2   -1    0    0    0  501  0.00000000000E+00  0.00000000000E+00  0.95071261628E+03  0.95071261628E+03  0.25500000920E-02 0. -1.
        2   -1    0    0  501    0  0.00000000000E+00  0.00000000000E+00 -0.16440973972E+04  0.16440973972E+04  0.25500000920E-02 0.  1.
    10030    2    1    2    0    0  0.00000000000E+00  0.00000000000E+00 -0.69338478096E+03  0.25948100135E+04  0.25004512696E+04 0.  0.
        4    1    3    3  502    0 -0.31167772520E+03  0.19069333724E+03  0.89406734449E+03  0.96584935815E+03  0.12699999809E+01 0. -1.
       -4    1    3    3    0  502  0.31167772520E+03 -0.19069333724E+03 -0.15874521255E+04  0.16289606554E+04  0.12699999809E+01 0.  1.
</event>
<event>
 5   0  0.3972587E-07  0.2499328E+04  0.7818609E-02  0.8403225E-01
       -1   -1    0    0    0  501  0.00000000000E+00  0.00000000000E+00  0.81267798520E+03  0.81267798522E+03  0.50400001928E-02 0. -1.
        1   -1    0    0  501    0  0.00000000000E+00  0.00000000000E+00 -0.19216229708E+04  0.19216229708E+04  0.50400001928E-02 0.  1.
    10030    2    1    2    0    0  0.00000000000E+00  0.00000000000E+00 -0.11089449856E+04  0.27343009560E+04  0.24993284572E+04 0.  0.
        3    1    3    3  502    0 -0.73323889301E+03 -0.90813261723E+03 -0.10428938658E+04  0.15652385602E+04  0.10100000352E+00 0.  1.
       -3    1    3    3    0  502  0.73323889301E+03  0.90813261723E+03 -0.66051119756E+02  0.11690623958E+04  0.10100000352E+00 0. -1.
</event>
<event>
 5   0  0.3873231E-07  0.2502800E+04  0.7818609E-02  0.8401989E-01
       -1   -1    0    0    0  501  0.00000000000E+00  0.00000000000E+00  0.90703679206E+03  0.90703679207E+03  0.50400001928E-02 0. -1.
        1   -1    0    0  501    0  0.00000000000E+00  0.00000000000E+00 -0.17265025625E+04  0.17265025625E+04  0.50400001928E-02 0.  1.
    10030    2    1    2    0    0  0.00000000000E+00  0.00000000000E+00 -0.81946577043E+03  0.26335393546E+04  0.25027995092E+04 0.  0.
        2    1    3    3  502    0  0.21185726052E+02  0.12372510594E+04 -0.21354681387E+03  0.12557234014E+04  0.25500000920E-02 0.  1.
       -2    1    3    3    0  502 -0.21185726052E+02 -0.12372510594E+04 -0.60591895656E+03  0.13778159532E+04  0.25500000920E-02 0. -1.
</event>
<event>
 5   0  0.3837524E-07  0.2499873E+04  0.7818609E-02  0.8403031E-01
        1   -1    0    0  501    0  0.00000000000E+00  0.00000000000E+00  0.12047792319E+04  0.12047792319E+04  0.50400001928E-02 0.  1.
       -1   -1    0    0    0  501  0.00000000000E+00  0.00000000000E+00 -0.12967868362E+04  0.12967868362E+04  0.50400001928E-02 0. -1.
    10030    2    1    2    0    0  0.00000000000E+00  0.00000000000E+00 -0.92007604322E+02  0.25015660681E+04  0.24998734756E+04 0.  0.
        5    1    3    3  502    0 -0.19221054008E+03  0.14214032661E+03 -0.12736885746E+04  0.12959372821E+04  0.46999998093E+01 0. -1.
       -5    1    3    3    0  502  0.19221054008E+03 -0.14214032661E+03  0.11816809703E+04  0.12056287860E+04  0.46999998093E+01 0.  1.
</event>
<event>
 5   0  0.9261602E-07  0.2500144E+04  0.7818609E-02  0.8402934E-01
        2   -1    0    0  501    0  0.00000000000E+00  0.00000000000E+00  0.30297499638E+04  0.30297499638E+04  0.25500000920E-02 0.  1.
       -2   -1    0    0    0  501  0.00000000000E+00  0.00000000000E+00 -0.51577873172E+03  0.51577873173E+03  0.25500000920E-02 0. -1.
    10030    2    1    2    0    0  0.00000000000E+00  0.00000000000E+00  0.25139712321E+04  0.35455286955E+04  0.25001444708E+04 0.  0.
        4    1    3    3  502    0  0.20444994419E+03  0.59562502025E+02 -0.48986649031E+03  0.53415190962E+03  0.12699999809E+01 0. -1.
       -4    1    3    3    0  502 -0.20444994419E+03 -0.59562502025E+02  0.30038377224E+04  0.30113767859E+04  0.12699999809E+01 0.  1.
</event>
<event>
 5   0  0.3991066E-07  0.2507120E+04  0.7818609E-02  0.8400453E-01
        1   -1    0    0  501    0  0.00000000000E+00  0.00000000000E+00  0.12144600597E+04  0.12144600597E+04  0.50400001928E-02 0. -1.
       -1   -1    0    0    0  501  0.00000000000E+00  0.00000000000E+00 -0.12939186505E+04  0.12939186505E+04  0.50400001928E-02 0.  1.
    10030    2    1    2    0    0  0.00000000000E+00  0.00000000000E+00 -0.79458590740E+02  0.25083787102E+04  0.25071198787E+04 0.  0.
        1    1    3    3  502    0 -0.84702365860E+03 -0.15174609566E+02 -0.96417005230E+03  0.12834731149E+04  0.50400001928E-02 0.  1.
       -1    1    3    3    0  502  0.84702365860E+03  0.15174609566E+02  0.88471146157E+03  0.12249055952E+04  0.50400001928E-02 0. -1.
</event>
<event>
 5   0  0.3837524E-07  0.2500972E+04  0.7818609E-02  0.8402639E-01
       -1   -1    0    0    0  501  0.00000000000E+00  0.00000000000E+00  0.13663490585E+04  0.13663490585E+04  0.50400001928E-02 0.  1.
        1   -1    0    0  501    0  0.00000000000E+00  0.00000000000E+00 -0.11444475348E+04  0.11444475348E+04  0.50400001928E-02 0. -1.
    10030    2    1    2    0    0  0.00000000000E+00  0.00000000000E+00  0.22190152373E+03  0.25107965933E+04  0.25009716605E+04 0.  0.
        5    1    3    3  502    0  0.10238753909E+04  0.18647496818E+03 -0.58502511660E+03  0.11938886911E+04  0.46999998093E+01 0. -1.
       -5    1    3    3    0  502 -0.10238753909E+04 -0.18647496818E+03  0.80692664034E+03  0.13169079021E+04  0.46999998093E+01 0.  1.
</event>
<event>
 5   0  0.3991066E-07  0.2497823E+04  0.7818609E-02  0.8403761E-01
        1   -1    0    0  501    0  0.00000000000E+00  0.00000000000E+00  0.13086786401E+04  0.13086786401E+04  0.50400001928E-02 0.  1.
       -1   -1    0    0    0  501  0.00000000000E+00  0.00000000000E+00 -0.11918741559E+04  0.11918741559E+04  0.50400001928E-02 0. -1.
    10030    2    1    2    0    0  0.00000000000E+00  0.00000000000E+00  0.11680448425E+03  0.25005527960E+04  0.24978232520E+04 0.  0.
        1    1    3    3  502    0 -0.10925377344E+04 -0.18094730305E+03  0.63644088934E+03  0.12772774300E+04  0.50400001928E-02 0.  1.
       -1    1    3    3    0  502  0.10925377344E+04  0.18094730305E+03 -0.51963640509E+03  0.12232753660E+04  0.50400001928E-02 0. -1.
</event>
<event>
 5   0  0.3873231E-07  0.2504218E+04  0.7818609E-02  0.8401484E-01
       -1   -1    0    0    0  501  0.00000000000E+00  0.00000000000E+00  0.10063855921E+04  0.10063855921E+04  0.50400001928E-02 0.  1.
        1   -1    0    0  501    0  0.00000000000E+00  0.00000000000E+00 -0.15578291254E+04  0.15578291254E+04  0.50400001928E-02 0. -1.
    10030    2    1    2    0    0  0.00000000000E+00  0.00000000000E+00 -0.55144353326E+03  0.25642147175E+04  0.25042178713E+04 0.  0.
        2    1    3    3  502    0 -0.10482277591E+04 -0.68209052930E+03 -0.21303526178E+03  0.12686264020E+04  0.25500000920E-02 0. -1.
       -2    1    3    3    0  502  0.10482277591E+04  0.68209052930E+03 -0.33840827149E+03  0.12955883155E+04  0.25500000920E-02 0.  1.
</event>
<event>
 5   0  0.9251138E-07  0.2500986E+04  0.7818609E-02  0.8402634E-01
       -2   -1    0    0    0  501  0.00000000000E+00  0.00000000000E+00  0.92350471952E+03  0.92350471952E+03  0.25500000920E-02 0.  1.
        2   -1    0    0  501    0  0.00000000000E+00  0.00000000000E+00 -0.16932587798E+04  0.16932587798E+04  0.25500000920E-02 0. -1.
    10030    2    1    2    0    0  0.00000000000E+00  0.00000000000E+00 -0.76975406028E+03  0.26167634993E+04  0.25009857853E+04 0.  0.
        5    1    3    3  502    0  0.11926817756E+04  0.18661036630E+03 -0.43591226985E+02  0.12079882167E+04  0.46999998093E+01 0. -1.
       -5    1    3    3    0  502 -0.11926817756E+04 -0.18661036630E+03 -0.72616283330E+03  0.14087752827E+04  0.46999998093E+01 0.  1.
</event>
<event>
 5   0  0.9261602E-07  0.2500006E+04  0.7818609E-02  0.8402983E-01
        2   -1    0    0  501    0  0.00000000000E+00  0.00000000000E+00  0.16258921500E+04  0.16258921500E+04  0.25500000920E-02 0. -1.
       -2   -1    0    0    0  501  0.00000000000E+00  0.00000000000E+00 -0.96101544040E+03  0.96101544040E+03  0.25500000920E-02 0.  1.
    10030    2    1    2    0    0  0.00000000000E+00  0.00000000000E+00  0.66487670965E+03  0.25869075904E+04  0.25000059685E+04 0.  0.
        4    1    3    3  502    0  0.10115532248E+04  0.52215298650E+03  0.86674183987E+03  0.14307783539E+04  0.12699999809E+01 0. -1.
       -4    1    3    3    0  502 -0.10115532248E+04 -0.52215298650E+03 -0.20186513022E+03  0.11561292366E+04  0.12699999809E+01 0.  1.
</event>
<event>
 5   0  0.3972587E-07  0.2498294E+04  0.7818609E-02  0.8403594E-01
       -1   -1    0    0    0  501  0.00000000000E+00  0.00000000000E+00  0.88378525307E+03  0.88378525308E+03  0.50400001928E-02 0. -1.
        1   -1    0    0  501    0  0.00000000000E+00  0.00000000000E+00 -0.17655513055E+04  0.17655513055E+04  0.50400001928E-02 0.  1.
    10030    2    1    2    0    0  0.00000000000E+00  0.00000000000E+00 -0.88176605244E+03  0.26493365586E+04  0.24982939838E+04 0.  0.
        3    1    3    3  502    0  0.10771205758E+04 -0.82686642656E+02 -0.11059707961E+04  0.15460262700E+04  0.10100000352E+00 0.  1.
       -3    1    3    3    0  502 -0.10771205758E+04  0.82686642656E+02  0.22420474362E+03  0.11033102886E+04  0.10100000352E+00 0. -1.
</event>
<event>
 5   0  0.3873231E-07  0.2499934E+04  0.7818609E-02  0.8403009E-01
        1   -1    0    0  501    0  0.00000000000E+00  0.00000000000E+00  0.16764197389E+04  0.16764197389E+04  0.50400001928E-02 0.  1.
       -1   -1    0    0    0  501  0.00000000000E+00  0.00000000000E+00 -0.93199623384E+03  0.93199623385E+03  0.50400001928E-02 0. -1.
    10030    2    1    2    0    0  0.00000000000E+00  0.00000000000E+00  0.74442350510E+03  0.26084159728E+04  0.24999335056E+04 0.  0.
        2    1    3    3  502    0 -0.20311870657E+03 -0.51067929214E+03  0.15435890182E+04  0.16385107889E+04  0.25500000920E-02 0.  1.
       -2    1    3    3    0  502  0.20311870657E+03  0.51067929214E+03 -0.79916551308E+03  0.96990518386E+03  0.25500000920E-02 0. -1.
</event>
<event>
 5   0  0.9261602E-07  0.2502173E+04  0.7818609E-02  0.8402212E-01
        2   -1    0    0  501    0  0.00000000000E+00  0.00000000000E+00  0.11572271627E+04  0.11572271627E+04  0.25500000920E-02 0. -1.
       -2   -1    0    0    0  501  0.00000000000E+00  0.00000000000E+00 -0.13525584269E+04  0.13525584269E+04  0.25500000920E-02 0.  1.
    10030    2    1    2    0    0  0.00000000000E+00  0.00000000000E+00 -0.19533126423E+03  0.25097855896E+04  0.25021729363E+04 0.  0.
        4    1    3    3  502    0 -0.43201696854E+03  0.72714446952E+03 -0.10223369178E+04  0.13268579905E+04  0.12699999809E+01 0. -1.
       -4    1    3    3    0  502  0.43201696854E+03 -0.72714446952E+03  0.82700565357E+03  0.11829275991E+04  0.12699999809E+01 0.  1.
</event>
<event>
 5   0  0.3991066E-07  0.2509574E+04  0.7818609E-02  0.8399583E-01
       -1   -1    0    0    0  501  0.00000000000E+00  0.00000000000E+00  0.96220966164E+03  0.96220966165E+03  0.50400001928E-02 0. -1.
        1   -1    0    0  501    0  0.00000000000E+00  0.00000000000E+00 -0.16363284009E+04  0.16363284009E+04  0.50400001928E-02 0.  1.
    10030    2    1    2    0    0  0.00000000000E+00  0.00000000000E+00 -0.67411873927E+03  0.25985380626E+04  0.25095744635E+04 0.  0.
        1    1    3    3  502    0  0.34108158009E+03  0.89334785994E+03  0.50419742292E+03  0.10810282533E+04  0.50400001928E-02 0. -1.
       -1    1    3    3    0  502 -0.34108158009E+03 -0.89334785994E+03 -0.11783161622E+04  0.15175098093E+04  0.50400001928E-02 0.  1.
</event>
<event>
 5   0  0.8997210E-07  0.2500442E+04  0.7818609E-02  0.8402828E-01
       -2   -1    0    0    0  501  0.00000000000E+00  0.00000000000E+00  0.14728883785E+04  0.14728883785E+04  0.25500000920E-02 0.  1.
        2   -1    0    0  501    0  0.00000000000E+00  0.00000000000E+00 -0.10612155256E+04  0.10612155256E+04  0.25500000920E-02 0. -1.
    10030    2    1    2    0    0  0.00000000000E+00  0.00000000000E+00  0.41167285289E+03  0.25341039042E+04  0.25004415729E+04 0.  0.
        1    1    3    3  502    0 -0.58357912196E+02  0.47042528181E+03 -0.96660722219E+03  0.10765849310E+04  0.50400001928E-02 0. -1.
       -1    1    3    3    0  502  0.58357912196E+02 -0.47042528181E+03  0.13782800751E+04  0.14575189732E+04  0.50400001928E-02 0.  1.
</event>
<event>
 5   0  0.3991066E-07  0.2499489E+04  0.7818609E-02  0.8403167E-01
       -1   -1    0    0    0  501  0.00000000000E+00  0.00000000000E+00  0.60682614960E+03  0.60682614962E+03  0.50400001928E-02 0.  1.
        1   -1    0    0  501    0  0.00000000000E+00  0.00000000000E+00 -0.25738209626E+04  0.25738209626E+04  0.50400001928E-02 0. -1.
    10030    2    1    2    0    0  0.00000000000E+00  0.00000000000E+00 -0.19669948130E+04  0.31806471122E+04  0.24994894395E+04 0.  0.
        1    1    3    3  502    0 -0.68343499825E+02 -0.11358597840E+03  0.59785442647E+03  0.61237449631E+03  0.50400001928E-02 0.  1.
       -1    1    3    3    0  502  0.68343499825E+02  0.11358597840E+03 -0.25648492395E+04  0.25682726159E+04  0.50400001928E-02 0. -1.
</event>
<event>
 5   0  0.3991066E-07  0.2500059E+04  0.7818609E-02  0.8402965E-01
        1   -1    0    0  501    0  0.00000000000E+00  0.00000000000E+00  0.19355108885E+04  0.19355108885E+04  0.50400001928E-02 0. -1.
       -1   -1    0    0    0  501  0.00000000000E+00  0.00000000000E+00 -0.80731851298E+03  0.80731851300E+03  0.50400001928E-02 0.  1.
    10030    2    1    2    0    0  0.00000000000E+00  0.00000000000E+00  0.11281923755E+04  0.27428294015E+04  0.25000590172E+04 0.  0.
        1    1    3    3  502    0 -0.73311465041E+03 -0.63804914487E+03  0.14265707128E+04  0.17261714285E+04  0.50400001928E-02 0. -1.
       -1    1    3    3    0  502  0.73311465041E+03  0.63804914487E+03 -0.29837833727E+03  0.10166579730E+04  0.50400001928E-02 0.  1.
</event>
<event>
 5   0  0.9768582E-07  0.2501017E+04  0.7818609E-02  0.8402623E-01
        2   -1    0    0  501    0  0.00000000000E+00  0.00000000000E+00  0.15870084073E+04  0.15870084073E+04  0.25500000920E-02 0. -1.
       -2   -1    0    0    0  501  0.00000000000E+00  0.00000000000E+00 -0.98535819534E+03  0.98535819534E+03  0.25500000920E-02 0.  1.
    10030    2    1    2    0    0  0.00000000000E+00  0.00000000000E+00  0.60165021195E+03  0.25723666026E+04  0.25010171852E+04 0.  0.
        3    1    3    3  502    0 -0.61224770468E+03 -0.10289112185E+04 -0.70395461139E+02  0.11993586113E+04  0.10100000352E+00 0.  1.
       -3    1    3    3    0  502  0.61224770468E+03  0.10289112185E+04  0.67204567309E+03  0.13730079913E+04  0.10100000352E+00 0. -1.
</event>
<event>
 5   0  0.3837524E-07  0.2499683E+04  0.7818609E-02  0.8403099E-01
       -1   -1    0    0    0  501  0.00000000000E+00  0.00000000000E+00  0.11631270152E+04  0.11631270152E+04  0.50400001928E-02 0.  1.
        1   -1    0    0  501    0  0.00000000000E+00  0.00000000000E+00 -0.13430203285E+04  0.13430203285E+04  0.50400001928E-02 0. -1.
    10030    2    1    2    0    0  0.00000000000E+00  0.00000000000E+00 -0.17989331336E+03  0.25061473437E+04  0.24996825607E+04 0.  0.
        5    1    3    3  502    0 -0.46076066052E+03  0.44164883900E+02  0.10740167693E+04  0.11695234218E+04  0.46999998093E+01 0.  1.
       -5    1    3    3    0  502  0.46076066052E+03 -0.44164883900E+02 -0.12539100827E+04  0.13366239220E+04  0.46999998093E+01 0. -1.
</event>
<event>
 5   0  0.9768582E-07  0.2499641E+04  0.7818609E-02  0.8403114E-01
       -2   -1    0    0    0  501  0.00000000000E+00  0.00000000000E+00  0.10417329242E+04  0.10417329242E+04  0.25500000920E-02 0.  1.
        2   -1    0    0  501    0  0.00000000000E+00  0.00000000000E+00 -0.14994736316E+04  0.14994736316E+04  0.25500000920E-02 0. -1.
    10030    2    1    2    0    0  0.00000000000E+00  0.00000000000E+00 -0.45774070743E+03  0.25412065558E+04  0.24996408150E+04 0.  0.
        3    1    3    3  502    0  0.42187440873E+02 -0.82861578351E+03  0.72137413941E+03  0.10994382912E+04  0.10100000352E+00 0.  1.
       -3    1    3    3    0  502 -0.42187440873E+02  0.82861578351E+03 -0.11791148468E+04  0.14417682647E+04  0.10100000352E+00 0. -1.
</event>
<event>
 5   0  0.9261602E-07  0.2498993E+04  0.7818609E-02  0.8403344E-01
        2   -1    0    0  501    0  0.00000000000E+00  0.00000000000E+00  0.16459727140E+04  0.16459727140E+04  0.25500000920E-02 0. -1.
       -2   -1    0    0    0  501  0.00000000000E+00  0.00000000000E+00 -0.94852246231E+03  0.94852246231E+03  0.25500000920E-02 0.  1.
    10030    2    1    2    0    0  0.00000000000E+00  0.00000000000E+00  0.69745025168E+03  0.25944951763E+04  0.24989934706E+04 0.  0.
        4    1    3    3  502    0  0.96500604474E+03 -0.67935060760E+03 -0.77432616826E+02  0.11826881827E+04  0.12699999809E+01 0. -1.
       -4    1    3    3    0  502 -0.96500604474E+03  0.67935060760E+03  0.77488286850E+03  0.14118069936E+04  0.12699999809E+01 0.  1.
</event>
<event>
 5   0  0.9768582E-07  0.2500421E+04  0.7818609E-02  0.8402836E-01
       -2   -1    0    0    0  501  0.00000000000E+00  0.00000000000E+00  0.93801174607E+03  0.93801174607E+03  0.25500000920E-02 0. -1.
        2   -1    0    0  501    0  0.00000000000E+00  0.00000000000E+00 -0.16663181827E+04  0.16663181827E+04  0.25500000920E-02 0.  1.
    10030    2    1    2    0    0  0.00000000000E+00  0.00000000000E+00 -0.72830643664E+03  0.26043299288E+04  0.25004207870E+04 0.  0.
        3    1    3    3  502    0 -0.17018672949E+03  0.56216513134E+03 -0.15136622915E+04  0.16236276361E+04  0.10100000352E+00 0.  1.
       -3    1    3    3    0  502  0.17018672949E+03 -0.56216513134E+03  0.78535585490E+03  0.98070229265E+03  0.10100000352E+00 0. -1.
</event>
<event>
 5   0  0.8997210E-07  0.2500479E+04  0.7818609E-02  0.8402815E-01
       -2   -1    0    0    0  501  0.00000000000E+00  0.00000000000E+00  0.62547885382E+03  0.62547885382E+03  0.25500000920E-02 0.  1.
        2   -1    0    0  501    0  0.00000000000E+00  0.00000000000E+00 -0.24990436757E+04  0.24990436757E+04  0.25500000920E-02 0. -1.
    10030    2    1    2    0    0  0.00000000000E+00  0.00000000000E+00 -0.18735648218E+04  0.31245225295E+04  0.25004791332E+04 0.  0.
        1    1    3    3  502    0 -0.85173134949E+03 -0.44187819764E+03  0.64742959033E+02  0.96171424240E+03  0.50400001928E-02 0.  1.
       -1    1    3    3    0  502  0.85173134949E+03  0.44187819764E+03 -0.19383077809E+04  0.21628082871E+04  0.50400001928E-02 0. -1.
</event>
<event>
 5   0  0.3873231E-07  0.2497216E+04  0.7818609E-02  0.8403978E-01
       -1   -1    0    0    0  501  0.00000000000E+00  0.00000000000E+00  0.10652319309E+04  0.10652319310E+04  0.50400001928E-02 0. -1.
        1   -1    0    0  501    0  0.00000000000E+00  0.00000000000E+00 -0.14635517317E+04  0.14635517317E+04  0.50400001928E-02 0.  1.
    10030    2    1    2    0    0  0.00000000000E+00  0.00000000000E+00 -0.39831980073E+03  0.25287836626E+04  0.24972160797E+04 0.  0.
        2    1    3    3  502    0  0.12390672866E+04  0.13802944081E+03 -0.12986853109E+03  0.12534774440E+04  0.25500000920E-02 0.  1.
       -2    1    3    3    0  502 -0.12390672866E+04 -0.13802944081E+03 -0.26845126964E+03  0.12753062187E+04  0.25500000920E-02 0. -1.
</event>
<event>
 5   0  0.3805418E-07  0.2501785E+04  0.7818609E-02  0.8402350E-01
        1   -1    0    0  501    0  0.00000000000E+00  0.00000000000E+00  0.10012596741E+04  0.10012596741E+04  0.50400001928E-02 0. -1.
       -1   -1    0    0    0  501  0.00000000000E+00  0.00000000000E+00 -0.15627637805E+04  0.15627637805E+04  0.50400001928E-02 0.  1.
    10030    2    1    2    0    0  0.00000000000E+00  0.00000000000E+00 -0.56150410645E+03  0.25640234546E+04  0.25017852454E+04 0.  0.
        4    1    3    3  502    0 -0.34056506794E+03  0.56001030811E+03  0.81118009689E+03  0.10428858390E+04  0.12699999809E+01 0. -1.
       -4    1    3    3    0  502  0.34056506794E+03 -0.56001030811E+03 -0.13726842033E+04  0.15211376156E+04  0.12699999809E+01 0.  1.
</event>
<event>
 5   0  0.9251138E-07  0.2500217E+04  0.7818609E-02  0.8402908E-01
       -2   -1    0    0    0  501  0.00000000000E+00  0.00000000000E+00  0.74496158368E+03  0.74496158368E+03  0.25500000920E-02 0.  1.
        2   -1    0    0  501    0  0.00000000000E+00  0.00000000000E+00 -0.20977885469E+04  0.20977885469E+04  0.25500000920E-02 0. -1.
    10030    2    1    2    0    0  0.00000000000E+00  0.00000000000E+00 -0.13528269632E+04  0.28427501306E+04  0.25002174930E+04 0.  0.
        5    1    3    3  502    0 -0.37532549352E+03  0.84172407784E+03 -0.16367461661E+04  0.18783846122E+04  0.46999998093E+01 0. -1.
       -5    1    3    3    0  502  0.37532549352E+03 -0.84172407784E+03  0.28391920283E+03  0.96436551837E+03  0.46999998093E+01 0.  1.
</event>
<event>
 5   0  0.3991066E-07  0.2499567E+04  0.7818609E-02  0.8403140E-01
       -1   -1    0    0    0  501  0.00000000000E+00  0.00000000000E+00  0.12442911124E+04  0.12442911124E+04  0.50400001928E-02 0.  1.
        1   -1    0    0  501    0  0.00000000000E+00  0.00000000000E+00 -0.12552997289E+04  0.12552997289E+04  0.50400001928E-02 0. -1.
    10030    2    1    2    0    0  0.00000000000E+00  0.00000000000E+00 -0.11008616567E+02  0.24995908413E+04  0.24995665993E+04 0.  0.
        1    1    3    3  502    0  0.11003429182E+04  0.54409971366E+03  0.22935805580E+03  0.12487610475E+04  0.50400001928E-02 0. -1.
       -1    1    3    3    0  502 -0.11003429182E+04 -0.54409971366E+03 -0.24036667236E+03  0.12508297938E+04  0.50400001928E-02 0.  1.
</event>
<event>
 5   0  0.3805418E-07  0.2499892E+04  0.7818609E-02  0.8403024E-01
        1   -1    0    0  501    0  0.00000000000E+00  0.00000000000E+00  0.21488391851E+04  0.21488391852E+04  0.50400001928E-02 0. -1.
       -1   -1    0    0    0  501  0.00000000000E+00  0.00000000000E+00 -0.72707391414E+03  0.72707391416E+03  0.50400001928E-02 0.  1.
    10030    2    1    2    0    0  0.00000000000E+00  0.00000000000E+00  0.14217652710E+04  0.28759130993E+04  0.24998919315E+04 0.  0.
        4    1    3    3  502    0 -0.98402323944E+01  0.12349508977E+04  0.93265553372E+03  0.15475944260E+04  0.12699999809E+01 0. -1.
       -4    1    3    3    0  502  0.98402323944E+01 -0.12349508977E+04  0.48910973729E+03  0.13283186733E+04  0.12699999809E+01 0.  1.
</event>
<event>
 5   0  0.3837524E-07  0.2500863E+04  0.7818609E-02  0.8402678E-01
       -1   -1    0    0    0  501  0.00000000000E+00  0.00000000000E+00  0.77285626363E+03  0.77285626365E+03  0.50400001928E-02 0.  1.
        1   -1    0    0  501    0  0.00000000000E+00  0.00000000000E+00 -0.20231181094E+04  0.20231181094E+04  0.50400001928E-02 0. -1.
    10030    2    1    2    0    0  0.00000000000E+00  0.00000000000E+00 -0.12502618458E+04  0.27959743730E+04  0.25008634532E+04 0.  0.
        5    1    3    3  502    0  0.39244972267E+03  0.64945978098E+03  0.48599966556E+03  0.90112849076E+03  0.46999998093E+01 0.  1.
       -5    1    3    3    0  502 -0.39244972267E+03 -0.64945978098E+03 -0.17362615113E+04  0.18948458823E+04  0.46999998093E+01 0. -1.
</event>
<event>
 5   0  0.9261602E-07  0.2498820E+04  0.7818609E-02  0.8403406E-01
       -2   -1    0    0    0  501  0.00000000000E+00  0.00000000000E+00  0.76860611152E+03  0.76860611152E+03  0.25500000920E-02 0.  1.
        2   -1    0    0  501    0  0.00000000000E+00  0.00000000000E+00 -0.20309827840E+04  0.20309827840E+04  0.25500000920E-02 0. -1.
    10030    2    1    2    0    0  0.00000000000E+00  0.00000000000E+00 -0.12623766725E+04  0.27995888955E+04  0.24988203458E+04 0.  0.
        4    1    3    3  502    0  0.74348020676E+03  0.89175866308E+03 -0.11482917525E+04  0.16329641431E+04  0.12699999809E+01 0. -1.
       -4    1    3    3    0  502 -0.74348020676E+03 -0.89175866308E+03 -0.11408492000E+03  0.11666247524E+04  0.12699999809E+01 0.  1.
</event>
<event>
 5   0  0.3991066E-07  0.2499907E+04  0.7818609E-02  0.8403019E-01
        1   -1    0    0  501    0  0.00000000000E+00  0.00000000000E+00  0.16949666522E+04  0.16949666522E+04  0.50400001928E-02 0.  1.
       -1   -1    0    0    0  501  0.00000000000E+00  0.00000000000E+00 -0.92177878808E+03  0.92177878810E+03  0.50400001928E-02 0. -1.
    10030    2    1    2    0    0  0.00000000000E+00  0.00000000000E+00  0.77318786410E+03  0.26167454403E+04  0.24999074435E+04 0.  0.
        1    1    3    3  502    0 -0.62748384285E+03  0.83802540662E+03  0.11014177399E+04  0.15195866520E+04  0.50400001928E-02 0.  1.
       -1    1    3    3    0  502  0.62748384285E+03 -0.83802540662E+03 -0.32822987584E+03  0.10971587882E+04  0.50400001928E-02 0. -1.
</event>
<event>
 5   0  0.9508784E-07  0.2499152E+04  0.7818609E-02  0.8403288E-01
       -2   -1    0    0    0  501  0.00000000000E+00  0.00000000000E+00  0.12081426320E+04  0.12081426320E+04  0.25500000920E-02 0.  1.
        2   -1    0    0  501    0  0.00000000000E+00  0.00000000000E+00 -0.12924304600E+04  0.12924304600E+04  0.25500000920E-02 0. -1.
    10030    2    1    2    0    0  0.00000000000E+00  0.00000000000E+00 -0.84287828017E+02  0.25005730920E+04  0.24991521263E+04 0.  0.
        2    1    3    3  502    0 -0.58955400535E+03  0.69614741358E+03  0.81230017070E+03  0.12214854539E+04  0.25500000920E-02 0.  1.
       -2    1    3    3    0  502  0.58955400535E+03 -0.69614741358E+03 -0.89658799872E+03  0.12790876382E+04  0.25500000920E-02 0. -1.
</event>
<event>
 5   0  0.9251138E-07  0.2516832E+04  0.7818609E-02  0.8397014E-01
       -2   -1    0    0    0  501  0.00000000000E+00  0.00000000000E+00  0.99827338828E+03  0.99827338828E+03  0.25500000920E-02 0.  1.
        2   -1    0    0  501    0  0.00000000000E+00  0.00000000000E+00 -0.15863495691E+04  0.15863495691E+04  0.25500000920E-02 0. -1.
    10030    2    1    2    0    0  0.00000000000E+00  0.00000000000E+00 -0.58807618081E+03  0.25846229574E+04  0.25168317857E+04 0.  0.
        5    1    3    3  502    0  0.32550154950E+03 -0.11626010443E+04  0.70481962773E+02  0.12093726655E+04  0.46999998093E+01 0.  1.
       -5    1    3    3    0  502 -0.32550154950E+03  0.11626010443E+04 -0.65855814359E+03  0.13752502919E+04  0.46999998093E+01 0. -1.
</event>
<event>
 5   0  0.3972587E-07  0.2494045E+04  0.7818609E-02  0.8405110E-01
       -1   -1    0    0    0  501  0.00000000000E+00  0.00000000000E+00  0.24027904549E+04  0.24027904549E+04  0.50400001928E-02 0. -1.
        1   -1    0    0  501    0  0.00000000000E+00  0.00000000000E+00 -0.64719106732E+03  0.64719106734E+03  0.50400001928E-02 0.  1.
    10030    2    1    2    0    0  0.00000000000E+00  0.00000000000E+00  0.17555993875E+04  0.30499815222E+04  0.24940445217E+04 0.  0.
        3    1    3    3  502    0  0.12839345698E+03  0.35569746409E+03 -0.57538033013E+03  0.68852603456E+03  0.10100000352E+00 0.  1.
       -3    1    3    3    0  502 -0.12839345698E+03 -0.35569746409E+03  0.23309797177E+04  0.23614554876E+04  0.10100000352E+00 0. -1.
</event>
<event>
 5   0  0.3837524E-07  0.2500086E+04  0.7818609E-02  0.8402955E-01
       -1   -1    0    0    0  501  0.00000000000E+00  0.00000000000E+00  0.10201461547E+04  0.10201461547E+04  0.50400001928E-02 0.  1.
        1   -1    0    0  501    0  0.00000000000E+00  0.00000000000E+00 -0.15317486647E+04  0.15317486647E+04  0.50400001928E-02 0. -1.
    10030    2    1    2    0    0  0.00000000000E+00  0.00000000000E+00 -0.51160251002E+03  0.25518948194E+04  0.25000860067E+04 0.  0.
        5    1    3    3  502    0 -0.10597646917E+04  0.18933352699E+03  0.39268880565E+03  0.11459384688E+04  0.46999998093E+01 0.  1.
       -5    1    3    3    0  502  0.10597646917E+04 -0.18933352699E+03 -0.90429131567E+03  0.14059563506E+04  0.46999998093E+01 0. -1.
</event>
<event>
 5   0  0.9508784E-07  0.2500700E+04  0.7818609E-02  0.8402736E-01
        2   -1    0    0  501    0  0.00000000000E+00  0.00000000000E+00  0.13843860612E+04  0.13843860612E+04  0.25500000920E-02 0.  1.
       -2   -1    0    0    0  501  0.00000000000E+00  0.00000000000E+00 -0.11292913430E+04  0.11292913430E+04  0.25500000920E-02 0. -1.
    10030    2    1    2    0    0  0.00000000000E+00  0.00000000000E+00  0.25509471820E+03  0.25136774042E+04  0.25007000574E+04 0.  0.
        2    1    3    3  502    0  0.11914293111E+04  0.12025914871E+03  0.48914900013E+03  0.12935350055E+04  0.25500000920E-02 0.  1.
       -2    1    3    3    0  502 -0.11914293111E+04 -0.12025914871E+03 -0.23405428193E+03  0.12201423987E+04  0.25500000920E-02 0. -1.
</event>
<event>
 5   0  0.3805418E-07  0.2496517E+04  0.7818609E-02  0.8404228E-01
       -1   -1    0    0    0  501  0.00000000000E+00  0.00000000000E+00  0.86028243283E+03  0.86028243285E+03  0.50400001928E-02 0.  1.
        1   -1    0    0  501    0  0.00000000000E+00  0.00000000000E+00 -0.18112062233E+04  0.18112062233E+04  0.50400001928E-02 0. -1.
    10030    2    1    2    0    0  0.00000000000E+00  0.00000000000E+00 -0.95092379043E+03  0.26714886561E+04  0.24965166902E+04 0.  0.
        4    1    3    3  502    0 -0.22062668056E+03  0.52320584812E+03 -0.16650047478E+04  0.17591654029E+04  0.12699999809E+01 0. -1.
       -4    1    3    3    0  502  0.22062668056E+03 -0.52320584812E+03  0.71408095740E+03  0.91232325319E+03  0.12699999809E+01 0.  1.
</event>
<event>
 5   0  0.9768582E-07  0.2500527E+04  0.7818609E-02  0.8402798E-01
        2   -1    0    0  501    0  0.00000000000E+00  0.00000000000E+00  0.10048202057E+04  0.10048202057E+04  0.25500000920E-02 0. -1.
       -2   -1    0    0    0  501  0.00000000000E+00  0.00000000000E+00 -0.15556597909E+04  0.15556597909E+04  0.25500000920E-02 0.  1.
    10030    2    1    2    0    0  0.00000000000E+00  0.00000000000E+00 -0.55083958523E+03  0.25604799966E+04  0.25005266574E+04 0.  0.
        3    1    3    3  502    0 -0.85980203262E+03  0.61017742504E+03  0.41269101785E+03  0.11322057727E+04  0.10100000352E+00 0. -1.
       -3    1    3    3    0  502  0.85980203262E+03 -0.61017742504E+03 -0.96353060308E+03  0.14282742239E+04  0.10100000352E+00 0.  1.
</event>
<event>
 5   0  0.9251138E-07  0.2499915E+04  0.7818609E-02  0.8403016E-01
        2   -1    0    0  501    0  0.00000000000E+00  0.00000000000E+00  0.10415442340E+04  0.10415442340E+04  0.25500000920E-02 0. -1.
       -2   -1    0    0    0  501  0.00000000000E+00  0.00000000000E+00 -0.15000747903E+04  0.15000747903E+04  0.25500000920E-02 0.  1.
    10030    2    1    2    0    0  0.00000000000E+00  0.00000000000E+00 -0.45853055629E+03  0.25416190242E+04  0.24999153972E+04 0.  0.
        5    1    3    3  502    0  0.21162123936E+03  0.96797190719E+03 -0.10039602933E+04  0.14105713462E+04  0.46999998093E+01 0.  1.
       -5    1    3    3    0  502 -0.21162123936E+03 -0.96797190719E+03  0.54542973702E+03  0.11310476781E+04  0.46999998093E+01 0. -1.
</event>
<event>
 5   0  0.8997210E-07  0.2500016E+04  0.7818609E-02  0.8402980E-01
       -2   -1    0    0    0  501  0.00000000000E+00  0.00000000000E+00  0.10683673861E+04  0.10683673861E+04  0.25500000920E-02 0.  1.
        2   -1    0    0  501    0  0.00000000000E+00  0.00000000000E+00 -0.14625309986E+04  0.14625309986E+04  0.25500000920E-02 0. -1.
    10030    2    1    2    0    0  0.00000000000E+00  0.00000000000E+00 -0.39416361251E+03  0.25308983846E+04  0.25000163359E+04 0.  0.
        1    1    3    3  502    0 -0.64948209738E+03 -0.76666104386E+03  0.55569232844E+03  0.11482117030E+04  0.50400001928E-02 0.  1.
       -1    1    3    3    0  502  0.64948209738E+03  0.76666104386E+03 -0.94985594095E+03  0.13826866816E+04  0.50400001928E-02 0. -1.
</event>
<event>
 5   0  0.3805418E-07  0.2502759E+04  0.7818609E-02  0.8402003E-01
       -1   -1    0    0    0  501  0.00000000000E+00  0.00000000000E+00  0.14716945206E+04  0.14716945206E+04  0.50400001928E-02 0. -1.
        1   -1    0    0  501    0  0.00000000000E+00  0.00000000000E+00 -0.10640456629E+04  0.10640456629E+04  0.50400001928E-02 0.  1.
    10030    2    1    2    0    0  0.00000000000E+00  0.00000000000E+00  0.40764885768E+03  0.25357401836E+04  0.25027586155E+04 0.  0.
        4    1    3    3  502    0 -0.70126153063E+03  0.42701064187E+03  0.11606437304E+04  0.14216895950E+04  0.12699999809E+01 0. -1.
       -4    1    3    3    0  502  0.70126153063E+03 -0.42701064187E+03 -0.75299487275E+03  0.11140505886E+04  0.12699999809E+01 0.  1.
</event>
<event>
 5   0  0.8997210E-07  0.2500597E+04  0.7818609E-02  0.8402773E-01
       -2   -1    0    0    0  501  0.00000000000E+00  0.00000000000E+00  0.12559195494E+04  0.12559195494E+04  0.25500000920E-02 0.  1.
        2   -1    0    0  501    0  0.00000000000E+00  0.00000000000E+00 -0.12447026585E+04  0.12447026585E+04  0.25500000920E-02 0. -1.
    10030    2    1    2    0    0  0.00000000000E+00  0.00000000000E+00  0.11216890872E+02  0.25006222079E+04  0.25005970503E+04 0.  0.
        1    1    3    3  502    0 -0.27688587898E+03 -0.10003854828E+03 -0.12095469403E+04  0.12448603544E+04  0.50400001928E-02 0. -1.
       -1    1    3    3    0  502  0.27688587898E+03  0.10003854828E+03  0.12207638312E+04  0.12557618535E+04  0.50400001928E-02 0.  1.
</event>
<event>
 5   0  0.3805418E-07  0.2499293E+04  0.7818609E-02  0.8403237E-01
       -1   -1    0    0    0  501  0.00000000000E+00  0.00000000000E+00  0.80215370023E+03  0.80215370025E+03  0.50400001928E-02 0. -1.
        1   -1    0    0  501    0  0.00000000000E+00  0.00000000000E+00 -0.19467793331E+04  0.19467793331E+04  0.50400001928E-02 0.  1.
    10030    2    1    2    0    0  0.00000000000E+00  0.00000000000E+00 -0.11446256329E+04  0.27489330333E+04  0.24992928965E+04 0.  0.
        4    1    3    3  502    0 -0.69265385511E+03 -0.10145118437E+04 -0.82459421894E+03  0.14795137319E+04  0.12699999809E+01 0.  1.
       -4    1    3    3    0  502  0.69265385511E+03  0.10145118437E+04 -0.32003141392E+03  0.12694193014E+04  0.12699999809E+01 0. -1.
</event>
<event>
 5   0  0.9261602E-07  0.2500342E+04  0.7818609E-02  0.8402864E-01
        2   -1    0    0  501    0  0.00000000000E+00  0.00000000000E+00  0.12551724390E+04  0.12551724391E+04  0.25500000920E-02 0. -1.
       -2   -1    0    0    0  501  0.00000000000E+00  0.00000000000E+00 -0.12451894972E+04  0.12451894972E+04  0.25500000920E-02 0.  1.
    10030    2    1    2    0    0  0.00000000000E+00  0.00000000000E+00  0.99829418650E+01  0.25003619362E+04  0.25003420072E+04 0.  0.
        4    1    3    3  502    0 -0.10417103873E+04 -0.59832662578E+03 -0.34109024280E+03  0.12487992027E+04  0.12699999809E+01 0.  1.
       -4    1    3    3    0  502  0.10417103873E+04  0.59832662578E+03  0.35107318467E+03  0.12515627335E+04  0.12699999809E+01 0. -1.
</event>
<event>
 5   0  0.3991066E-07  0.2498984E+04  0.7818609E-02  0.8403348E-01
       -1   -1    0    0    0  501  0.00000000000E+00  0.00000000000E+00  0.75604114524E+03  0.75604114526E+03  0.50400001928E-02 0.  1.
        1   -1    0    0  501    0  0.00000000000E+00  0.00000000000E+00 -0.20650062720E+04  0.20650062720E+04  0.50400001928E-02 0. -1.
    10030    2    1    2    0    0  0.00000000000E+00  0.00000000000E+00 -0.13089651268E+04  0.28210474173E+04  0.24989835588E+04 0.  0.
        1    1    3    3  502    0 -0.12143841846E+04 -0.28786719361E+03 -0.72252720043E+03  0.14420963991E+04  0.50400001928E-02 0. -1.
       -1    1    3    3    0  502  0.12143841846E+04  0.28786719361E+03 -0.58643792633E+03  0.13789510181E+04  0.50400001928E-02 0.  1.
</event>
<event>
 5   0  0.9251138E-07  0.2500047E+04  0.7818609E-02  0.8402969E-01
       -2   -1    0    0    0  501  0.00000000000E+00  0.00000000000E+00  0.85274739048E+03  0.85274739048E+03  0.25500000920E-02 0. -1.
        2   -1    0    0  501    0  0.00000000000E+00  0.00000000000E+00 -0.18323818220E+04  0.18323818220E+04  0.25500000920E-02 0.  1.
    10030    2    1    2    0    0  0.00000000000E+00  0.00000000000E+00 -0.97963443150E+03  0.26851292125E+04  0.25000470532E+04 0.  0.
        5    1    3    3  502    0 -0.36671726334E+03  0.26392015095E+02 -0.17729853341E+04  0.18107117868E+04  0.46999998093E+01 0.  1.
       -5    1    3    3    0  502  0.36671726334E+03 -0.26392015095E+02  0.79335090262E+03  0.87441742570E+03  0.46999998093E+01 0. -1.
</event>
<event>
 5   0  0.9251138E-07  0.2501208E+04  0.7818609E-02  0.8402555E-01
        2   -1    0    0  501    0  0.00000000000E+00  0.00000000000E+00  0.27165467020E+04  0.27165467020E+04  0.25500000920E-02 0. -1.
       -2   -1    0    0    0  501  0.00000000000E+00  0.00000000000E+00 -0.57573492390E+03  0.57573492390E+03  0.25500000920E-02 0.  1.
    10030    2    1    2    0    0  0.00000000000E+00  0.00000000000E+00  0.21408117781E+04  0.32922816259E+04  0.25012083550E+04 0.  0.
        5    1    3    3  502    0 -0.82701646726E+03 -0.24914599894E+02 -0.16395808536E+03  0.84349351993E+03  0.46999998093E+01 0.  1.
       -5    1    3    3    0  502  0.82701646726E+03  0.24914599894E+02  0.23047698634E+04  0.24487881059E+04  0.46999998093E+01 0. -1.
</event>
<event>
 5   0  0.9508784E-07  0.2500022E+04  0.7818609E-02  0.8402978E-01
       -2   -1    0    0    0  501  0.00000000000E+00  0.00000000000E+00  0.62633613748E+03  0.62633613748E+03  0.25500000920E-02 0. -1.
        2   -1    0    0  501    0  0.00000000000E+00  0.00000000000E+00 -0.24947110833E+04  0.24947110833E+04  0.25500000920E-02 0.  1.
    10030    2    1    2    0    0  0.00000000000E+00  0.00000000000E+00 -0.18683749458E+04  0.31210472208E+04  0.25000221631E+04 0.  0.
        2    1    3    3  502    0 -0.10034288864E+04  0.53944569411E+03 -0.15764281034E+04  0.19449927383E+04  0.25500000920E-02 0.  1.
       -2    1    3    3    0  502  0.10034288864E+04 -0.53944569411E+03 -0.29194684241E+03  0.11760544825E+04  0.25500000920E-02 0. -1.
</event>
<event>
 5   0  0.9508784E-07  0.2497122E+04  0.7818609E-02  0.8404012E-01
        2   -1    0    0  501    0  0.00000000000E+00  0.00000000000E+00  0.19164211644E+04  0.19164211644E+04  0.25500000920E-02 0.  1.
       -2   -1    0    0    0  501  0.00000000000E+00  0.00000000000E+00 -0.81344562274E+03  0.81344562274E+03  0.25500000920E-02 0. -1.
    10030    2    1    2    0    0  0.00000000000E+00  0.00000000000E+00  0.11029755416E+04  0.27298667871E+04  0.24971218693E+04 0.  0.
        2    1    3    3  502    0  0.38803430357E+03  0.24671729202E+03 -0.71750854388E+03  0.85220804588E+03  0.25500000920E-02 0. -1.
       -2    1    3    3    0  502 -0.38803430357E+03 -0.24671729202E+03  0.18204840855E+04  0.18776587412E+04  0.25500000920E-02 0.  1.
</event>
<event>
 5   0  0.8997210E-07  0.2501027E+04  0.7818609E-02  0.8402620E-01
       -2   -1    0    0    0  501  0.00000000000E+00  0.00000000000E+00  0.15248265019E+04  0.15248265019E+04  0.25500000920E-02 0.  1.
        2   -1    0    0  501    0  0.00000000000E+00  0.00000000000E+00 -0.10255487632E+04  0.10255487632E+04  0.25500000920E-02 0. -1.
    10030    2    1    2    0    0  0.00000000000E+00  0.00000000000E+00  0.49927773870E+03  0.25503752652E+04  0.25010269356E+04 0.  0.
        1    1    3    3  502    0  0.88554527285E+03  0.88210361725E+03  0.21032017895E+03  0.12674903548E+04  0.50400001928E-02 0. -1.
       -1    1    3    3    0  502 -0.88554527285E+03 -0.88210361725E+03  0.28895755975E+03  0.12828849103E+04  0.50400001928E-02 0.  1.
</event>
<event>
 5   0  0.3972587E-07  0.2499701E+04  0.7818609E-02  0.8403092E-01
        1   -1    0    0  501    0  0.00000000000E+00  0.00000000000E+00  0.14861116024E+04  0.14861116024E+04  0.50400001928E-02 0.  1.
       -1   -1    0    0    0  501  0.00000000000E+00  0.00000000000E+00 -0.10511502603E+04  0.10511502603E+04  0.50400001928E-02 0. -1.
    10030    2    1    2    0    0  0.00000000000E+00  0.00000000000E+00  0.43496134206E+03  0.25372618627E+04  0.24997012603E+04 0.  0.
        3    1    3    3  502    0 -0.10208462696E+04 -0.63062184358E+03 -0.13751091318E+03  0.12077749282E+04  0.10100000352E+00 0. -1.
       -3    1    3    3    0  502  0.10208462696E+04  0.63062184358E+03  0.57247225524E+03  0.13294869345E+04  0.10100000352E+00 0.  1.
</event>
<event>
 5   0  0.3972587E-07  0.2504526E+04  0.7818609E-02  0.8401375E-01
        1   -1    0    0  501    0  0.00000000000E+00  0.00000000000E+00  0.17002721271E+04  0.17002721271E+04  0.50400001928E-02 0. -1.
       -1   -1    0    0    0  501  0.00000000000E+00  0.00000000000E+00 -0.92230064585E+03  0.92230064586E+03  0.50400001928E-02 0.  1.
    10030    2    1    2    0    0  0.00000000000E+00  0.00000000000E+00  0.77797148126E+03  0.26225727730E+04  0.25045255686E+04 0.  0.
        3    1    3    3  502    0  0.17443100674E+03  0.93946466345E+03  0.12365444930E+04  0.15627099294E+04  0.10100000352E+00 0. -1.
       -3    1    3    3    0  502 -0.17443100674E+03 -0.93946466345E+03 -0.45857301173E+03  0.10598628436E+04  0.10100000352E+00 0.  1.
</event>
<event>
 5   0  0.9768582E-07  0.2500617E+04  0.7818609E-02  0.8402766E-01
       -2   -1    0    0    0  501  0.00000000000E+00  0.00000000000E+00  0.78397646805E+03  0.78397646806E+03  0.25500000920E-02 0.  1.
        2   -1    0    0  501    0  0.00000000000E+00  0.00000000000E+00 -0.19940279059E+04  0.19940279059E+04  0.25500000920E-02 0. -1.
    10030    2    1    2    0    0  0.00000000000E+00  0.00000000000E+00 -0.12100514379E+04  0.27780043740E+04  0.25006166878E+04 0.  0.
        3    1    3    3  502    0 -0.10370107536E+04  0.67468056664E+03 -0.80587264600E+03  0.14764876910E+04  0.10100000352E+00 0. -1.
       -3    1    3    3    0  502  0.10370107536E+04 -0.67468056664E+03 -0.40417879185E+03  0.13015166829E+04  0.10100000352E+00 0.  1.
</event>
<event>
 5   0  0.3991066E-07  0.2504942E+04  0.7818609E-02  0.8401227E-01
       -1   -1    0    0    0  501  0.00000000000E+00  0.00000000000E+00  0.10486613318E+04  0.10486613318E+04  0.50400001928E-02 0. -1.
        1   -1    0    0  501    0  0.00000000000E+00  0.00000000000E+00 -0.14958914538E+04  0.14958914538E+04  0.50400001928E-02 0.  1.
    10030    2    1    2    0    0  0.00000000000E+00  0.00000000000E+00 -0.44723012200E+03  0.25445527856E+04  0.25049419348E+04 0.  0.
        1    1    3    3  502    0  0.10988665712E+04 -0.56103028602E+03 -0.44247693680E+03  0.13107435152E+04  0.50400001928E-02 0. -1.
       -1    1    3    3    0  502 -0.10988665712E+04  0.56103028602E+03 -0.47531851998E+01  0.12338092704E+04  0.50400001928E-02 0.  1.
</event>
<event>
 5   0  0.9508784E-07  0.2499516E+04  0.7818609E-02  0.8403158E-01
        2   -1    0    0  501    0  0.00000000000E+00  0.00000000000E+00  0.23454077200E+04  0.23454077200E+04  0.25500000920E-02 0. -1.
       -2   -1    0    0    0  501  0.00000000000E+00  0.00000000000E+00 -0.66593737774E+03  0.66593737775E+03  0.25500000920E-02 0.  1.
    10030    2    1    2    0    0  0.00000000000E+00  0.00000000000E+00  0.16794703422E+04  0.30113450977E+04  0.24995156865E+04 0.  0.
        2    1    3    3  502    0 -0.59563306085E+03  0.75315691371E+03 -0.12398452536E+03  0.96819225486E+03  0.25500000920E-02 0.  1.
       -2    1    3    3    0  502  0.59563306085E+03 -0.75315691371E+03  0.18034548676E+04  0.20431528429E+04  0.25500000920E-02 0. -1.
</event>
<event>
 5   0  0.3805418E-07  0.2499354E+04  0.7818609E-02  0.8403216E-01
        1   -1    0    0  501    0  0.00000000000E+00  0.00000000000E+00  0.13940490116E+04  0.13940490116E+04  0.50400001928E-02 0. -1.
       -1   -1    0    0    0  501  0.00000000000E+00  0.00000000000E+00 -0.11202568010E+04  0.11202568010E+04  0.50400001928E-02 0.  1.
    10030    2    1    2    0    0  0.00000000000E+00  0.00000000000E+00  0.27379221062E+03  0.25143058126E+04  0.24993542255E+04 0.  0.
        4    1    3    3  502    0 -0.37326329582E+03  0.18939167951E+03  0.13214359903E+04  0.13861419068E+04  0.12699999809E+01 0. -1.
       -4    1    3    3    0  502  0.37326329582E+03 -0.18939167951E+03 -0.10476437797E+04  0.11281639058E+04  0.12699999809E+01 0.  1.
</event>
<event>
 5   0  0.3991066E-07  0.2498303E+04  0.7818609E-02  0.8403590E-01
       -1   -1    0    0    0  501  0.00000000000E+00  0.00000000000E+00  0.10968311103E+04  0.10968311104E+04  0.50400001928E-02 0.  1.
        1   -1    0    0  501    0  0.00000000000E+00  0.00000000000E+00 -0.14226256428E+04  0.14226256428E+04  0.50400001928E-02 0. -1.
    10030    2    1    2    0    0  0.00000000000E+00  0.00000000000E+00 -0.32579453248E+03  0.25194567532E+04  0.24983034751E+04 0.  0.
        1    1    3    3  502    0  0.76970089100E+03  0.64376166114E+03 -0.91318016929E+03  0.13567485248E+04  0.50400001928E-02 0. -1.
       -1    1    3    3    0  502 -0.76970089100E+03 -0.64376166114E+03  0.58738563682E+03  0.11627082284E+04  0.50400001928E-02 0.  1.
</event>
<event>
 5   0  0.3873231E-07  0.2499781E+04  0.7818609E-02  0.8403064E-01
       -1   -1    0    0    0  501  0.00000000000E+00  0.00000000000E+00  0.77535969517E+03  0.77535969518E+03  0.50400001928E-02 0. -1.
        1   -1    0    0  501    0  0.00000000000E+00  0.00000000000E+00 -0.20148406919E+04  0.20148406919E+04  0.50400001928E-02 0.  1.
    10030    2    1    2    0    0  0.00000000000E+00  0.00000000000E+00 -0.12394809968E+04  0.27902003871E+04  0.24997810022E+04 0.  0.
        2    1    3    3  502    0  0.23061102766E+03  0.26013566618E+03 -0.19597929932E+04  0.19903870445E+04  0.25500000920E-02 0.  1.
       -2    1    3    3    0  502 -0.23061102766E+03 -0.26013566618E+03  0.72031199639E+03  0.79981334262E+03  0.25500000920E-02 0. -1.
</event>
<event>
 5   0  0.3972587E-07  0.2499858E+04  0.7818609E-02  0.8403036E-01
       -1   -1    0    0    0  501  0.00000000000E+00  0.00000000000E+00  0.95161204119E+03  0.95161204120E+03  0.50400001928E-02 0.  1.
        1   -1    0    0  501    0  0.00000000000E+00  0.00000000000E+00 -0.16417635754E+04  0.16417635754E+04  0.50400001928E-02 0. -1.
    10030    2    1    2    0    0  0.00000000000E+00  0.00000000000E+00 -0.69015153422E+03  0.25933756166E+04  0.24998575857E+04 0.  0.
        3    1    3    3  502    0 -0.79560431441E+03 -0.19452254447E+03  0.63443684610E+03  0.10360189995E+04  0.10100000352E+00 0.  1.
       -3    1    3    3    0  502  0.79560431441E+03  0.19452254447E+03 -0.13245883803E+04  0.15573566171E+04  0.10100000352E+00 0. -1.
</event>
<event>
 5   0  0.9261602E-07  0.2499915E+04  0.7818609E-02  0.8403016E-01
        2   -1    0    0  501    0  0.00000000000E+00  0.00000000000E+00  0.12896680363E+04  0.12896680363E+04  0.25500000920E-02 0. -1.
       -2   -1    0    0    0  501  0.00000000000E+00  0.00000000000E+00 -0.12114694256E+04  0.12114694256E+04  0.25500000920E-02 0.  1.
    10030    2    1    2    0    0  0.00000000000E+00  0.00000000000E+00  0.78198610689E+02  0.25011374619E+04  0.24999147147E+04 0.  0.
        4    1    3    3  502    0  0.12026049564E+04 -0.34078129959E+03  0.38000110815E+02  0.12505343644E+04  0.12699999809E+01 0.  1.
       -4    1    3    3    0  502 -0.12026049564E+04  0.34078129959E+03  0.40198499874E+02  0.12506030975E+04  0.12699999809E+01 0. -1.
</event>
<event>
 5   0  0.9261602E-07  0.2500718E+04  0.7818609E-02  0.8402730E-01
        2   -1    0    0  501    0  0.00000000000E+00  0.00000000000E+00  0.17957035274E+04  0.17957035274E+04  0.25500000920E-02 0.  1.
       -2   -1    0    0    0  501  0.00000000000E+00  0.00000000000E+00 -0.87063260309E+03  0.87063260310E+03  0.25500000920E-02 0. -1.
    10030    2    1    2    0    0  0.00000000000E+00  0.00000000000E+00  0.92507092431E+03  0.26663361305E+04  0.25007183260E+04 0.  0.
        4    1    3    3  502    0 -0.78255909861E+03  0.95287359683E+03  0.68370928311E+03  0.14099031283E+04  0.12699999809E+01 0. -1.
       -4    1    3    3    0  502  0.78255909861E+03 -0.95287359683E+03  0.24136164119E+03  0.12564330022E+04  0.12699999809E+01 0.  1.
</event>
<event>
 5   0  0.3873231E-07  0.2499658E+04  0.7818609E-02  0.8403107E-01
        1   -1    0    0  501    0  0.00000000000E+00  0.00000000000E+00  0.15236293378E+04  0.15236293378E+04  0.50400001928E-02 0. -1.
       -1   -1    0    0    0  501  0.00000000000E+00  0.00000000000E+00 -0.10252316602E+04  0.10252316602E+04  0.50400001928E-02 0.  1.
    10030    2    1    2    0    0  0.00000000000E+00  0.00000000000E+00  0.49839767768E+03  0.25488609980E+04  0.24996584051E+04 0.  0.
        2    1    3    3  502    0 -0.94585387771E+03 -0.66368336733E+03 -0.23657945760E+03  0.11794426691E+04  0.25500000920E-02 0.  1.
       -2    1    3    3    0  502  0.94585387771E+03  0.66368336733E+03  0.73497713528E+03  0.13694183289E+04  0.25500000920E-02 0. -1.
</event>
<event>
 5   0  0.9261602E-07  0.2501161E+04  0.7818609E-02  0.8402572E-01
        2   -1    0    0  501    0  0.00000000000E+00  0.00000000000E+00  0.14261716144E+04  0.14261716144E+04  0.25500000920E-02 0.  1.
       -2   -1    0    0    0  501  0.00000000000E+00  0.00000000000E+00 -0.10966079500E+04  0.10966079500E+04  0.25500000920E-02 0. -1.
    10030    2    1    2    0    0  0.00000000000E+00  0.00000000000E+00  0.32956366434E+03  0.25227795644E+04  0.25011606350E+04 0.  0.
        4    1    3    3  502    0 -0.11864276256E+04  0.39390618439E+03  0.19938469774E+03  0.12659101324E+04  0.12699999809E+01 0. -1.
       -4    1    3    3    0  502  0.11864276256E+04 -0.39390618439E+03  0.13017896660E+03  0.12568694320E+04  0.12699999809E+01 0.  1.
</event>
<event>
 5   0  0.8997210E-07  0.2499615E+04  0.7818609E-02  0.8403123E-01
       -2   -1    0    0    0  501  0.00000000000E+00  0.00000000000E+00  0.85627681316E+03  0.85627681316E+03  0.25500000920E-02 0.  1.
        2   -1    0    0  501    0  0.00000000000E+00  0.00000000000E+00 -0.18241985922E+04  0.18241985922E+04  0.25500000920E-02 0. -1.
    10030    2    1    2    0    0  0.00000000000E+00  0.00000000000E+00 -0.96792177909E+03  0.26804754054E+04  0.24996151361E+04 0.  0.
        1    1    3    3  502    0  0.82944595415E+03  0.23050294988E+03  0.48763483703E+03  0.98939372095E+03  0.50400001928E-02 0.  1.
       -1    1    3    3    0  502 -0.82944595415E+03 -0.23050294988E+03 -0.14555566161E+04  0.16910816845E+04  0.50400001928E-02 0. -1.
</event>
<event>
 5   0  0.9261602E-07  0.2500099E+04  0.7818609E-02  0.8402950E-01
       -2   -1    0    0    0  501  0.00000000000E+00  0.00000000000E+00  0.97989003217E+03  0.97989003218E+03  0.25500000920E-02 0. -1.
        2   -1    0    0  501    0  0.00000000000E+00  0.00000000000E+00 -0.15946928119E+04  0.15946928119E+04  0.25500000920E-02 0.  1.
    10030    2    1    2    0    0  0.00000000000E+00  0.00000000000E+00 -0.61480277974E+03  0.25745828441E+04  0.25000988707E+04 0.  0.
        4    1    3    3  502    0  0.50745925222E+03 -0.11271958491E+04 -0.11602449845E+03  0.12415911856E+04  0.12699999809E+01 0. -1.
       -4    1    3    3    0  502 -0.50745925222E+03  0.11271958491E+04 -0.49877828129E+03  0.13329916585E+04  0.12699999809E+01 0.  1.
</event>
<event>
 5   0  0.3972587E-07  0.2498606E+04  0.7818609E-02  0.8403482E-01
        1   -1    0    0  501    0  0.00000000000E+00  0.00000000000E+00  0.25001407207E+04  0.25001407207E+04  0.50400001928E-02 0. -1.
       -1   -1    0    0    0  501  0.00000000000E+00  0.00000000000E+00 -0.62426811314E+03  0.62426811316E+03  0.50400001928E-02 0.  1.
    10030    2    1    2    0    0  0.00000000000E+00  0.00000000000E+00  0.18758726075E+04  0.31244088338E+04  0.24986061157E+04 0.  0.
        3    1    3    3  502    0 -0.46126829326E+03 -0.10352254965E+04  0.15952290108E+04  0.19568382340E+04  0.10100000352E+00 0. -1.
       -3    1    3    3    0  502  0.46126829326E+03  0.10352254965E+04  0.28064359672E+03  0.11675705998E+04  0.10100000352E+00 0.  1.
</event>
<event>
 5   0  0.9251138E-07  0.2500145E+04  0.7818609E-02  0.8402934E-01
       -2   -1    0    0    0  501  0.00000000000E+00  0.00000000000E+00  0.94444547595E+03  0.94444547595E+03  0.25500000920E-02 0. -1.
        2   -1    0    0  501    0  0.00000000000E+00  0.00000000000E+00 -0.16546022452E+04  0.16546022452E+04  0.25500000920E-02 0.  1.
    10030    2    1    2    0    0  0.00000000000E+00  0.00000000000E+00 -0.71015676928E+03  0.25990477212E+04  0.25001452798E+04 0.  0.
        5    1    3    3  502    0 -0.10162052722E+04 -0.30109921888E+03 -0.10441149564E+04  0.14877943497E+04  0.46999998093E+01 0.  1.
       -5    1    3    3    0  502  0.10162052722E+04  0.30109921888E+03  0.33395818708E+03  0.11112533715E+04  0.46999998093E+01 0. -1.
</event>
<event>
 5   0  0.3837524E-07  0.2500305E+04  0.7818609E-02  0.8402877E-01
        1   -1    0    0  501    0  0.00000000000E+00  0.00000000000E+00  0.12355822365E+04  0.12355822365E+04  0.50400001928E-02 0. -1.
       -1   -1    0    0    0  501  0.00000000000E+00  0.00000000000E+00 -0.12648943174E+04  0.12648943174E+04  0.50400001928E-02 0.  1.
    10030    2    1    2    0    0  0.00000000000E+00  0.00000000000E+00 -0.29312080983E+02  0.25004765539E+04  0.25003047411E+04 0.  0.
        5    1    3    3  502    0 -0.30344682765E+03 -0.78032902080E+03 -0.94308695066E+03  0.12611218991E+04  0.46999998093E+01 0.  1.
       -5    1    3    3    0  502  0.30344682765E+03  0.78032902080E+03  0.91377486967E+03  0.12393546548E+04  0.46999998093E+01 0. -1.
</event>
<event>
 5   0  0.3972587E-07  0.2498358E+04  0.7818609E-02  0.8403571E-01
       -1   -1    0    0    0  501  0.00000000000E+00  0.00000000000E+00  0.11094048000E+04  0.11094048000E+04  0.50400001928E-02 0. -1.
        1   -1    0    0  501    0  0.00000000000E+00  0.00000000000E+00 -0.14065631776E+04  0.14065631776E+04  0.50400001928E-02 0.  1.
    10030    2    1    2    0    0  0.00000000000E+00  0.00000000000E+00 -0.29715837762E+03  0.25159679776E+04  0.24983578132E+04 0.  0.
        3    1    3    3  502    0 -0.54954032734E+03  0.75489662897E+03 -0.98423814736E+03  0.13566828048E+04  0.10100000352E+00 0.  1.
       -3    1    3    3    0  502  0.54954032734E+03 -0.75489662897E+03  0.68707976974E+03  0.11592851728E+04  0.10100000352E+00 0. -1.
</event>
<event>
 5   0  0.9768582E-07  0.2501675E+04  0.7818609E-02  0.8402389E-01
       -2   -1    0    0    0  501  0.00000000000E+00  0.00000000000E+00  0.19653317548E+04  0.19653317548E+04  0.25500000920E-02 0.  1.
        2   -1    0    0  501    0  0.00000000000E+00  0.00000000000E+00 -0.79609695575E+03  0.79609695575E+03  0.25500000920E-02 0. -1.
    10030    2    1    2    0    0  0.00000000000E+00  0.00000000000E+00  0.11692347991E+04  0.27614287106E+04  0.25016751404E+04 0.  0.
        3    1    3    3  502    0 -0.83112653752E+03 -0.23045533644E+03 -0.41537971508E+03  0.95729896133E+03  0.10100000352E+00 0. -1.
       -3    1    3    3    0  502  0.83112653752E+03  0.23045533644E+03  0.15846145141E+04  0.18041297492E+04  0.10100000352E+00 0.  1.
</event>
<event>
 5   0  0.3991066E-07  0.2499177E+04  0.7818609E-02  0.8403279E-01
        1   -1    0    0  501    0  0.00000000000E+00  0.00000000000E+00  0.10874800276E+04  0.10874800276E+04  0.50400001928E-02 0.  1.
       -1   -1    0    0    0  501  0.00000000000E+00  0.00000000000E+00 -0.14358618921E+04  0.14358618921E+04  0.50400001928E-02 0. -1.
    10030    2    1    2    0    0  0.00000000000E+00  0.00000000000E+00 -0.34838186453E+03  0.25233419198E+04  0.24991767686E+04 0.  0.
        1    1    3    3  502    0 -0.96137997363E+03 -0.73104198556E+02 -0.97678301159E+03  0.13724797737E+04  0.50400001928E-02 0. -1.
       -1    1    3    3    0  502  0.96137997363E+03  0.73104198556E+02  0.62840114706E+03  0.11508621460E+04  0.50400001928E-02 0.  1.
</event>
<event>
 5   0  0.3805418E-07  0.2500339E+04  0.7818609E-02  0.8402865E-01
        1   -1    0    0  501    0  0.00000000000E+00  0.00000000000E+00  0.19356355975E+04  0.19356355975E+04  0.50400001928E-02 0.  1.
       -1   -1    0    0    0  501  0.00000000000E+00  0.00000000000E+00 -0.80744729632E+03  0.80744729634E+03  0.50400001928E-02 0. -1.
    10030    2    1    2    0    0  0.00000000000E+00  0.00000000000E+00  0.11281883012E+04  0.27430828939E+04  0.25003389610E+04 0.  0.
        4    1    3    3  502    0  0.54392960106E+01 -0.29742474653E+03 -0.76805323824E+03  0.82364947366E+03  0.12699999809E+01 0. -1.
       -4    1    3    3    0  502 -0.54392960106E+01  0.29742474653E+03  0.18962415394E+04  0.19194334202E+04  0.12699999809E+01 0.  1.
</event>
<event>
 5   0  0.3837524E-07  0.2500361E+04  0.7818609E-02  0.8402857E-01
       -1   -1    0    0    0  501  0.00000000000E+00  0.00000000000E+00  0.89136859804E+03  0.89136859806E+03  0.50400001928E-02 0.  1.
        1   -1    0    0  501    0  0.00000000000E+00  0.00000000000E+00 -0.17534282602E+04  0.17534282602E+04  0.50400001928E-02 0. -1.
    10030    2    1    2    0    0  0.00000000000E+00  0.00000000000E+00 -0.86205966215E+03  0.26447968583E+04  0.25003606860E+04 0.  0.
        5    1    3    3  502    0 -0.17532742333E+03  0.37940526728E+03  0.81526860745E+03  0.91617304834E+03  0.46999998093E+01 0.  1.
       -5    1    3    3    0  502  0.17532742333E+03 -0.37940526728E+03 -0.16773282696E+04  0.17286238099E+04  0.46999998093E+01 0. -1.
</event>
<event>
 5   0  0.3805418E-07  0.2500869E+04  0.7818609E-02  0.8402676E-01
        1   -1    0    0  501    0  0.00000000000E+00  0.00000000000E+00  0.13040414314E+04  0.13040414315E+04  0.50400001928E-02 0.  1.
       -1   -1    0    0    0  501  0.00000000000E+00  0.00000000000E+00 -0.11990311937E+04  0.11990311937E+04  0.50400001928E-02 0. -1.
    10030    2    1    2    0    0  0.00000000000E+00  0.00000000000E+00  0.10501023779E+03  0.25030726251E+04  0.25008689323E+04 0.  0.
        4    1    3    3  502    0 -0.26778449498E+03 -0.11535826952E+04 -0.34925009268E+03  0.12346816637E+04  0.12699999809E+01 0. -1.
       -4    1    3    3    0  502  0.26778449498E+03  0.11535826952E+04  0.45426033047E+03  0.12683909615E+04  0.12699999809E+01 0.  1.
</event>
<event>
 5   0  0.3991066E-07  0.2499734E+04  0.7818609E-02  0.8403080E-01
        1   -1    0    0  501    0  0.00000000000E+00  0.00000000000E+00  0.13834055094E+04  0.13834055095E+04  0.50400001928E-02 0.  1.
       -1   -1    0    0    0  501  0.00000000000E+00  0.00000000000E+00 -0.11292191724E+04  0.11292191724E+04  0.50400001928E-02 0. -1.
    10030    2    1    2    0    0  0.00000000000E+00  0.00000000000E+00  0.25418633706E+03  0.25126246818E+04  0.24997344055E+04 0.  0.
        1    1    3    3  502    0  0.74368481423E+03 -0.99689737311E+03  0.27761788612E+01  0.12437359779E+04  0.50400001928E-02 0. -1.
       -1    1    3    3    0  502 -0.74368481423E+03  0.99689737311E+03  0.25141015819E+03  0.12688887040E+04  0.50400001928E-02 0.  1.
</event>
<event>
 5   0  0.9261602E-07  0.2500095E+04  0.7818609E-02  0.8402952E-01
       -2   -1    0    0    0  501  0.00000000000E+00  0.00000000000E+00  0.87375461060E+03  0.87375461060E+03  0.25500000920E-02 0.  1.
        2   -1    0    0  501    0  0.00000000000E+00  0.00000000000E+00 -0.17883957487E+04  0.17883957487E+04  0.25500000920E-02 0. -1.
    10030    2    1    2    0    0  0.00000000000E+00  0.00000000000E+00 -0.91464113808E+03  0.26621503593E+04  0.25000952230E+04 0.  0.
        4    1    3    3  502    0  0.62779209713E+03  0.97301995088E+03 -0.95872134752E+03  0.15033426014E+04  0.12699999809E+01 0. -1.
       -4    1    3    3    0  502 -0.62779209713E+03 -0.97301995088E+03  0.44080209439E+02  0.11588077579E+04  0.12699999809E+01 0.  1.
</event>
<event>
 5   0  0.3805418E-07  0.2501138E+04  0.7818609E-02  0.8402580E-01
        1   -1    0    0  501    0  0.00000000000E+00  0.00000000000E+00  0.16549162275E+04  0.16549162275E+04  0.50400001928E-02 0.  1.
       -1   -1    0    0    0  501  0.00000000000E+00  0.00000000000E+00 -0.94501620144E+03  0.94501620145E+03  0.50400001928E-02 0. -1.
    10030    2    1    2    0    0  0.00000000000E+00  0.00000000000E+00  0.70990002603E+03  0.25999324289E+04  0.25011378587E+04 0.  0.
        4    1    3    3  502    0 -0.67005983368E+03 -0.10513230295E+04  0.25277854056E+03  0.12720687468E+04  0.12699999809E+01 0.  1.
       -4    1    3    3    0  502  0.67005983368E+03  0.10513230295E+04  0.45712148547E+03  0.13278636822E+04  0.12699999809E+01 0. -1.
</event>
<event>
 5   0  0.3991066E-07  0.2500525E+04  0.7818609E-02  0.8402799E-01
        1   -1    0    0  501    0  0.00000000000E+00  0.00000000000E+00  0.44980880840E+03  0.44980880843E+03  0.50400001928E-02 0. -1.
       -1   -1    0    0    0  501  0.00000000000E+00  0.00000000000E+00 -0.34751566881E+04  0.34751566881E+04  0.50400001928E-02 0.  1.
    10030    2    1    2    0    0  0.00000000000E+00  0.00000000000E+00 -0.30253478797E+04  0.39249654965E+04  0.25005248161E+04 0.  0.
        1    1    3    3  502    0  0.74148214511E+03 -0.19194401364E+02  0.67146247452E+02  0.74476359681E+03  0.50400001928E-02 0. -1.
       -1    1    3    3    0  502 -0.74148214511E+03  0.19194401364E+02 -0.30924941271E+04  0.31802018997E+04  0.50400001928E-02 0.  1.
</event>
<event>
 5   0  0.3972587E-07  0.2501768E+04  0.7818609E-02  0.8402356E-01
       -1   -1    0    0    0  501  0.00000000000E+00  0.00000000000E+00  0.84064509929E+03  0.84064509931E+03  0.50400001928E-02 0. -1.
        1   -1    0    0  501    0  0.00000000000E+00  0.00000000000E+00 -0.18613210501E+04  0.18613210501E+04  0.50400001928E-02 0.  1.
    10030    2    1    2    0    0  0.00000000000E+00  0.00000000000E+00 -0.10206759508E+04  0.27019661494E+04  0.25017677102E+04 0.  0.
        3    1    3    3  502    0 -0.51075168968E+03 -0.10613963360E+04 -0.55597154311E+02  0.11792033431E+04  0.10100000352E+00 0. -1.
       -3    1    3    3    0  502  0.51075168968E+03  0.10613963360E+04 -0.96507879650E+03  0.15227628063E+04  0.10100000352E+00 0.  1.
</event>
<event>
 5   0  0.3972587E-07  0.2500669E+04  0.7818609E-02  0.8402747E-01
        1   -1    0    0  501    0  0.00000000000E+00  0.00000000000E+00  0.12394116455E+04  0.12394116455E+04  0.50400001928E-02 0.  1.
       -1   -1    0    0    0  501  0.00000000000E+00  0.00000000000E+00 -0.12613531829E+04  0.12613531829E+04  0.50400001928E-02 0. -1.
    10030    2    1    2    0    0  0.00000000000E+00  0.00000000000E+00 -0.21941537409E+02  0.25007648284E+04  0.25006685698E+04 0.  0.
        3    1    3    3  502    0 -0.98183391509E+03 -0.76491085525E+03 -0.13034604891E+03  0.12514298047E+04  0.10100000352E+00 0.  1.
       -3    1    3    3    0  502  0.98183391509E+03  0.76491085525E+03  0.10840451151E+03  0.12493350238E+04  0.10100000352E+00 0. -1.
</event>
<event>
 5   0  0.9261602E-07  0.2499717E+04  0.7818609E-02  0.8403086E-01
        2   -1    0    0  501    0  0.00000000000E+00  0.00000000000E+00  0.15041176787E+04  0.15041176787E+04  0.25500000920E-02 0. -1.
       -2   -1    0    0    0  501  0.00000000000E+00  0.00000000000E+00 -0.10385798744E+04  0.10385798744E+04  0.25500000920E-02 0.  1.
    10030    2    1    2    0    0  0.00000000000E+00  0.00000000000E+00  0.46553780426E+03  0.25426975531E+04  0.24997170639E+04 0.  0.
        4    1    3    3  502    0 -0.38774027459E+03  0.13386226438E+03  0.14336970612E+04  0.14912244977E+04  0.12699999809E+01 0. -1.
       -4    1    3    3    0  502  0.38774027459E+03 -0.13386226438E+03 -0.96815925698E+03  0.10514730554E+04  0.12699999809E+01 0.  1.
</event>
<event>
 5   0  0.3873231E-07  0.2496336E+04  0.7818609E-02  0.8404292E-01
        1   -1    0    0  501    0  0.00000000000E+00  0.00000000000E+00  0.11207072108E+04  0.11207072108E+04  0.50400001928E-02 0.  1.
       -1   -1    0    0    0  501  0.00000000000E+00  0.00000000000E+00 -0.13901249987E+04  0.13901249987E+04  0.50400001928E-02 0. -1.
    10030    2    1    2    0    0  0.00000000000E+00  0.00000000000E+00 -0.26941778792E+03  0.25108322095E+04  0.24963358027E+04 0.  0.
        2    1    3    3  502    0  0.17995371082E+03  0.46178732916E+03 -0.12869144503E+04  0.13790502811E+04  0.25500000920E-02 0. -1.
       -2    1    3    3    0  502 -0.17995371082E+03 -0.46178732916E+03  0.10174966624E+04  0.11317819284E+04  0.25500000920E-02 0.  1.
</event>
<event>
 5   0  0.3805418E-07  0.2489988E+04  0.7818609E-02  0.8406561E-01
       -1   -1    0    0    0  501  0.00000000000E+00  0.00000000000E+00  0.97942991551E+03  0.97942991553E+03  0.50400001928E-02 0. -1.
        1   -1    0    0  501    0  0.00000000000E+00  0.00000000000E+00 -0.15825640764E+04  0.15825640764E+04  0.50400001928E-02 0.  1.
    10030    2    1    2    0    0  0.00000000000E+00  0.00000000000E+00 -0.60313416092E+03  0.25619939920E+04  0.24899884335E+04 0.  0.
        4    1    3    3  502    0  0.75730328105E+03 -0.18846302150E+03 -0.12996612794E+04  0.15159642555E+04  0.12699999809E+01 0.  1.
       -4    1    3    3    0  502 -0.75730328105E+03  0.18846302150E+03  0.69652711845E+03  0.10460297365E+04  0.12699999809E+01 0. -1.
</event>
<event>
 5   0  0.9261602E-07  0.2502372E+04  0.7818609E-02  0.8402141E-01
       -2   -1    0    0    0  501  0.00000000000E+00  0.00000000000E+00  0.54887483765E+03  0.54887483766E+03  0.25500000920E-02 0. -1.
        2   -1    0    0  501    0  0.00000000000E+00  0.00000000000E+00 -0.28521377103E+04  0.28521377103E+04  0.25500000920E-02 0.  1.
    10030    2    1    2    0    0  0.00000000000E+00  0.00000000000E+00 -0.23032628726E+04  0.34010125480E+04  0.25023721727E+04 0.  0.
        4    1    3    3  502    0  0.63351349212E+03 -0.18957939277E+02  0.31455505436E+03  0.70756288999E+03  0.12699999809E+01 0. -1.
       -4    1    3    3    0  502 -0.63351349212E+03  0.18957939277E+02 -0.26178179270E+04  0.26934496580E+04  0.12699999809E+01 0.  1.
</event>
<event>
 5   0  0.9251138E-07  0.2499958E+04  0.7818609E-02  0.8403001E-01
       -2   -1    0    0    0  501  0.00000000000E+00  0.00000000000E+00  0.67862044128E+03  0.67862044128E+03  0.25500000920E-02 0. -1.
        2   -1    0    0  501    0  0.00000000000E+00  0.00000000000E+00 -0.23023875389E+04  0.23023875389E+04  0.25500000920E-02 0.  1.
    10030    2    1    2    0    0  0.00000000000E+00  0.00000000000E+00 -0.16237670976E+04  0.29810079802E+04  0.24999577978E+04 0.  0.
        5    1    3    3  502    0  0.11753580554E+04  0.41045315885E+03 -0.94513013830E+03  0.15630839460E+04  0.46999998093E+01 0.  1.
       -5    1    3    3    0  502 -0.11753580554E+04 -0.41045315885E+03 -0.67863695935E+03  0.14179240342E+04  0.46999998093E+01 0. -1.
</event>
<event>
 5   0  0.3805418E-07  0.2500366E+04  0.7818609E-02  0.8402855E-01
       -1   -1    0    0    0  501  0.00000000000E+00  0.00000000000E+00  0.80434220296E+03  0.80434220298E+03  0.50400001928E-02 0.  1.
        1   -1    0    0  501    0  0.00000000000E+00  0.00000000000E+00 -0.19431498647E+04  0.19431498647E+04  0.50400001928E-02 0. -1.
    10030    2    1    2    0    0  0.00000000000E+00  0.00000000000E+00 -0.11388076617E+04  0.27474920676E+04  0.25003659275E+04 0.  0.
        4    1    3    3  502    0 -0.96420013838E+03 -0.31820630512E+03  0.23208285416E+03  0.10415379127E+04  0.12699999809E+01 0.  1.
       -4    1    3    3    0  502  0.96420013838E+03  0.31820630512E+03 -0.13708905159E+04  0.17059541550E+04  0.12699999809E+01 0. -1.
</event>
<event>
 5   0  0.9261602E-07  0.2499506E+04  0.7818609E-02  0.8403162E-01
        2   -1    0    0  501    0  0.00000000000E+00  0.00000000000E+00  0.16367527348E+04  0.16367527348E+04  0.25500000920E-02 0.  1.
       -2   -1    0    0    0  501  0.00000000000E+00  0.00000000000E+00 -0.95425690901E+03  0.95425690902E+03  0.25500000920E-02 0. -1.
    10030    2    1    2    0    0  0.00000000000E+00  0.00000000000E+00  0.68249582583E+03  0.25910096439E+04  0.24995060357E+04 0.  0.
        4    1    3    3  502    0 -0.16862668165E+03  0.74744550834E+03  0.13646968865E+04  0.15650907164E+04  0.12699999809E+01 0.  1.
       -4    1    3    3    0  502  0.16862668165E+03 -0.74744550834E+03 -0.68220106063E+03  0.10259189275E+04  0.12699999809E+01 0. -1.
</event>
<event>
 5   0  0.9768582E-07  0.2499428E+04  0.7818609E-02  0.8403189E-01
        2   -1    0    0  501    0  0.00000000000E+00  0.00000000000E+00  0.15483010080E+04  0.15483010080E+04  0.25500000920E-02 0. -1.
       -2   -1    0    0    0  501  0.00000000000E+00  0.00000000000E+00 -0.10087091147E+04  0.10087091147E+04  0.25500000920E-02 0.  1.
    10030    2    1    2    0    0  0.00000000000E+00  0.00000000000E+00  0.53959189330E+03  0.25570101226E+04  0.24994282058E+04 0.  0.
        3    1    3    3  502    0 -0.55584939761E+03  0.10533848901E+03 -0.87020108400E+03  0.10379377086E+04  0.10100000352E+00 0.  1.
       -3    1    3    3    0  502  0.55584939761E+03 -0.10533848901E+03  0.14097929773E+04  0.15190724141E+04  0.10100000352E+00 0. -1.
</event>
<event>
 5   0  0.3837524E-07  0.2499615E+04  0.7818609E-02  0.8403123E-01
        1   -1    0    0  501    0  0.00000000000E+00  0.00000000000E+00  0.12379477264E+04  0.12379477264E+04  0.50400001928E-02 0. -1.
       -1   -1    0    0    0  501  0.00000000000E+00  0.00000000000E+00 -0.12617808779E+04  0.12617808779E+04  0.50400001928E-02 0.  1.
    10030    2    1    2    0    0  0.00000000000E+00  0.00000000000E+00 -0.23833151481E+02  0.24997286044E+04  0.24996149856E+04 0.  0.
        5    1    3    3  502    0  0.58148552158E+03 -0.11199740466E+03 -0.11125700052E+04  0.12603582574E+04  0.46999998093E+01 0.  1.
       -5    1    3    3    0  502 -0.58148552158E+03  0.11199740466E+03  0.10887368537E+04  0.12393703470E+04  0.46999998093E+01 0. -1.
</event>
<event>
 5   0  0.9508784E-07  0.2500101E+04  0.7818609E-02  0.8402950E-01
        2   -1    0    0  501    0  0.00000000000E+00  0.00000000000E+00  0.21357671692E+04  0.21357671692E+04  0.25500000920E-02 0. -1.
       -2   -1    0    0    0  501  0.00000000000E+00  0.00000000000E+00 -0.73164610138E+03  0.73164610138E+03  0.25500000920E-02 0.  1.
    10030    2    1    2    0    0  0.00000000000E+00  0.00000000000E+00  0.14041210679E+04  0.28674132706E+04  0.25001005762E+04 0.  0.
        2    1    3    3  502    0 -0.37651113481E+03  0.91485962309E+03  0.15784576042E+04  0.18628626285E+04  0.25500000920E-02 0. -1.
       -2    1    3    3    0  502  0.37651113481E+03 -0.91485962309E+03 -0.17433653633E+03  0.10045506421E+04  0.25500000920E-02 0.  1.
</event>
<event>
 5   0  0.3837524E-07  0.2499976E+04  0.7818609E-02  0.8402994E-01
        1   -1    0    0  501    0  0.00000000000E+00  0.00000000000E+00  0.18215834721E+04  0.18215834721E+04  0.50400001928E-02 0.  1.
       -1   -1    0    0    0  501  0.00000000000E+00  0.00000000000E+00 -0.85775350986E+03  0.85775350988E+03  0.50400001928E-02 0. -1.
    10030    2    1    2    0    0  0.00000000000E+00  0.00000000000E+00  0.96382996224E+03  0.26793369820E+04  0.24999756933E+04 0.  0.
        5    1    3    3  502    0  0.10120138260E+04 -0.36305191778E+03  0.11652051711E+04  0.15854664486E+04  0.46999998093E+01 0. -1.
       -5    1    3    3    0  502 -0.10120138260E+04  0.36305191778E+03 -0.20137520886E+03  0.10938705333E+04  0.46999998093E+01 0.  1.
</event>
<event>
 5   0  0.9508784E-07  0.2498691E+04  0.7818609E-02  0.8403452E-01
        2   -1    0    0  501    0  0.00000000000E+00  0.00000000000E+00  0.51600794585E+03  0.51600794585E+03  0.25500000920E-02 0. -1.
       -2   -1    0    0    0  501  0.00000000000E+00  0.00000000000E+00 -0.30248838498E+04  0.30248838498E+04  0.25500000920E-02 0.  1.
    10030    2    1    2    0    0  0.00000000000E+00  0.00000000000E+00 -0.25088759039E+04  0.35408917956E+04  0.24986909387E+04 0.  0.
        2    1    3    3  502    0  0.99090045496E+03 -0.20413886463E+03 -0.21568648155E+03  0.10344452842E+04  0.25500000920E-02 0. -1.
       -2    1    3    3    0  502 -0.99090045496E+03  0.20413886463E+03 -0.22931894224E+04  0.25064465114E+04  0.25500000920E-02 0.  1.
</event>
<event>
 5   0  0.3972587E-07  0.2494643E+04  0.7818609E-02  0.8404896E-01
       -1   -1    0    0    0  501  0.00000000000E+00  0.00000000000E+00  0.10359057978E+04  0.10359057979E+04  0.50400001928E-02 0. -1.
        1   -1    0    0  501    0  0.00000000000E+00  0.00000000000E+00 -0.15018847115E+04  0.15018847115E+04  0.50400001928E-02 0.  1.
    10030    2    1    2    0    0  0.00000000000E+00  0.00000000000E+00 -0.46597891363E+03  0.25377905094E+04  0.24946431251E+04 0.  0.
        3    1    3    3  502    0 -0.78646284581E+03  0.61144973427E+03  0.53060385881E+03  0.11286873130E+04  0.10100000352E+00 0. -1.
       -3    1    3    3    0  502  0.78646284581E+03 -0.61144973427E+03 -0.99658277245E+03  0.14091031963E+04  0.10100000352E+00 0.  1.
</event>
<event>
 5   0  0.9768582E-07  0.2500778E+04  0.7818609E-02  0.8402708E-01
        2   -1    0    0  501    0  0.00000000000E+00  0.00000000000E+00  0.22154483482E+04  0.22154483482E+04  0.25500000920E-02 0.  1.
       -2   -1    0    0    0  501  0.00000000000E+00  0.00000000000E+00 -0.70571409326E+03  0.70571409327E+03  0.25500000920E-02 0. -1.
    10030    2    1    2    0    0  0.00000000000E+00  0.00000000000E+00  0.15097342549E+04  0.29211624414E+04  0.25007783766E+04 0.  0.
        3    1    3    3  502    0  0.11248450604E+04 -0.32031537007E+03  0.23826151882E+03  0.11935857354E+04  0.10100000352E+00 0. -1.
       -3    1    3    3    0  502 -0.11248450604E+04  0.32031537007E+03  0.12714727361E+04  0.17275767060E+04  0.10100000352E+00 0.  1.
</event>
<event>
 5   0  0.3805418E-07  0.2499741E+04  0.7818609E-02  0.8403078E-01
        1   -1    0    0  501    0  0.00000000000E+00  0.00000000000E+00  0.17560766266E+04  0.17560766266E+04  0.50400001928E-02 0.  1.
       -1   -1    0    0    0  501  0.00000000000E+00  0.00000000000E+00 -0.88958337245E+03  0.88958337247E+03  0.50400001928E-02 0. -1.
    10030    2    1    2    0    0  0.00000000000E+00  0.00000000000E+00  0.86649325419E+03  0.26456599991E+04  0.24997412409E+04 0.  0.
        4    1    3    3  502    0 -0.66437742367E+03 -0.10569481858E+04  0.36940883352E+03  0.13019221665E+04  0.12699999809E+01 0. -1.
       -4    1    3    3    0  502  0.66437742367E+03  0.10569481858E+04  0.49708442066E+03  0.13437378326E+04  0.12699999809E+01 0.  1.
</event>
<event>
 5   0  0.3991066E-07  0.2503110E+04  0.7818609E-02  0.8401878E-01
       -1   -1    0    0    0  501  0.00000000000E+00  0.00000000000E+00  0.82108610147E+03  0.82108610149E+03  0.50400001928E-02 0.  1.
        1   -1    0    0  501    0  0.00000000000E+00  0.00000000000E+00 -0.19077045656E+04  0.19077045656E+04  0.50400001928E-02 0. -1.
    10030    2    1    2    0    0  0.00000000000E+00  0.00000000000E+00 -0.10866184641E+04  0.27287906671E+04  0.25031098294E+04 0.  0.
        1    1    3    3  502    0 -0.54728818102E+03  0.66094121313E+03  0.44988716178E+03  0.96889942649E+03  0.50400001928E-02 0.  1.
       -1    1    3    3    0  502  0.54728818102E+03 -0.66094121313E+03 -0.15365056259E+04  0.17598912406E+04  0.50400001928E-02 0. -1.
</event>
<event>
 5   0  0.9508784E-07  0.2498804E+04  0.7818609E-02  0.8403412E-01
       -2   -1    0    0    0  501  0.00000000000E+00  0.00000000000E+00  0.12592527820E+04  0.12592527820E+04  0.25500000920E-02 0.  1.
        2   -1    0    0  501    0  0.00000000000E+00  0.00000000000E+00 -0.12396279191E+04  0.12396279191E+04  0.25500000920E-02 0. -1.
    10030    2    1    2    0    0  0.00000000000E+00  0.00000000000E+00  0.19624862949E+02  0.24988807011E+04  0.24988036384E+04 0.  0.
        2    1    3    3  502    0  0.79021077889E+03  0.87069600715E+03 -0.41264620723E+03  0.12461225880E+04  0.25500000920E-02 0. -1.
       -2    1    3    3    0  502 -0.79021077889E+03 -0.87069600715E+03  0.43227107018E+03  0.12527581131E+04  0.25500000920E-02 0.  1.
</event>
<event>
 5   0  0.3972587E-07  0.2509832E+04  0.7818609E-02  0.8399491E-01
       -1   -1    0    0    0  501  0.00000000000E+00  0.00000000000E+00  0.10598740459E+04  0.10598740459E+04  0.50400001928E-02 0. -1.
        1   -1    0    0  501    0  0.00000000000E+00  0.00000000000E+00 -0.14858498534E+04  0.14858498534E+04  0.50400001928E-02 0.  1.
    10030    2    1    2    0    0  0.00000000000E+00  0.00000000000E+00 -0.42597580753E+03  0.25457238993E+04  0.25098316245E+04 0.  0.
        3    1    3    3  502    0 -0.11322735083E+04 -0.20866931419E+03  0.29337828330E+03  0.11881317299E+04  0.10100000352E+00 0.  1.
       -3    1    3    3    0  502  0.11322735083E+04  0.20866931419E+03 -0.71935409084E+03  0.13575921694E+04  0.10100000352E+00 0. -1.
</event>
<event>
 5   0  0.9261602E-07  0.2499747E+04  0.7818609E-02  0.8403076E-01
        2   -1    0    0  501    0  0.00000000000E+00  0.00000000000E+00  0.14445551224E+04  0.14445551224E+04  0.25500000920E-02 0.  1.
       -2   -1    0    0    0  501  0.00000000000E+00  0.00000000000E+00 -0.10814287546E+04  0.10814287546E+04  0.25500000920E-02 0. -1.
    10030    2    1    2    0    0  0.00000000000E+00  0.00000000000E+00  0.36312636777E+03  0.25259838770E+04  0.24997467448E+04 0.  0.
        4    1    3    3  502    0  0.61437669970E+03  0.10753680960E+04  0.35157461913E+03  0.12874321717E+04  0.12699999809E+01 0.  1.
       -4    1    3    3    0  502 -0.61437669970E+03 -0.10753680960E+04  0.11551748638E+02  0.12385517053E+04  0.12699999809E+01 0. -1.
</event>
<event>
 5   0  0.9768582E-07  0.2500924E+04  0.7818609E-02  0.8402656E-01
        2   -1    0    0  501    0  0.00000000000E+00  0.00000000000E+00  0.11980674717E+04  0.11980674717E+04  0.25500000920E-02 0. -1.
       -2   -1    0    0    0  501  0.00000000000E+00  0.00000000000E+00 -0.13051477319E+04  0.13051477319E+04  0.25500000920E-02 0.  1.
    10030    2    1    2    0    0  0.00000000000E+00  0.00000000000E+00 -0.10708026022E+03  0.25032152037E+04  0.25009238640E+04 0.  0.
        3    1    3    3  502    0 -0.83791159774E+02 -0.98065360298E+02  0.11913909140E+04  0.11983530754E+04  0.10100000352E+00 0. -1.
       -3    1    3    3    0  502  0.83791159774E+02  0.98065360298E+02 -0.12984711742E+04  0.13048621282E+04  0.10100000352E+00 0.  1.
</event>
<event>
 5   0  0.9251138E-07  0.2499868E+04  0.7818609E-02  0.8403033E-01
       -2   -1    0    0    0  501  0.00000000000E+00  0.00000000000E+00  0.10917389220E+04  0.10917389220E+04  0.25500000920E-02 0.  1.
        2   -1    0    0  501    0  0.00000000000E+00  0.00000000000E+00 -0.14310518328E+04  0.14310518328E+04  0.25500000920E-02 0. -1.
    10030    2    1    2    0    0  0.00000000000E+00  0.00000000000E+00 -0.33931291085E+03  0.25227907548E+04  0.24998679847E+04 0.  0.
        5    1    3    3  502    0  0.10502788306E+04 -0.66706862083E+03 -0.49202316118E+02  0.12451944124E+04  0.46999998093E+01 0.  1.
       -5    1    3    3    0  502 -0.10502788306E+04  0.66706862083E+03 -0.29011059473E+03  0.12775963424E+04  0.46999998093E+01 0. -1.
</event>
<event>
 5   0  0.3805418E-07  0.2499674E+04  0.7818609E-02  0.8403102E-01
       -1   -1    0    0    0  501  0.00000000000E+00  0.00000000000E+00  0.13210880771E+04  0.13210880771E+04  0.50400001928E-02 0. -1.
        1   -1    0    0  501    0  0.00000000000E+00  0.00000000000E+00 -0.11824289431E+04  0.11824289431E+04  0.50400001928E-02 0.  1.
    10030    2    1    2    0    0  0.00000000000E+00  0.00000000000E+00  0.13865913395E+03  0.25035170202E+04  0.24996742018E+04 0.  0.
        4    1    3    3  502    0 -0.54460426235E+03  0.37092378230E+03 -0.99433556842E+03  0.11928466332E+04  0.12699999809E+01 0.  1.
       -4    1    3    3    0  502  0.54460426235E+03 -0.37092378230E+03  0.11329947024E+04  0.13106703870E+04  0.12699999809E+01 0. -1.
</event>
<event>
 5   0  0.3972587E-07  0.2500696E+04  0.7818609E-02  0.8402738E-01
        1   -1    0    0  501    0  0.00000000000E+00  0.00000000000E+00  0.10328361887E+04  0.10328361887E+04  0.50400001928E-02 0. -1.
       -1   -1    0    0    0  501  0.00000000000E+00  0.00000000000E+00 -0.15136668119E+04  0.15136668119E+04  0.50400001928E-02 0.  1.
    10030    2    1    2    0    0  0.00000000000E+00  0.00000000000E+00 -0.48083062322E+03  0.25465030006E+04  0.25006957919E+04 0.  0.
        3    1    3    3  502    0  0.31175351917E+03  0.10510389400E+04  0.37184417343E+03  0.11576446819E+04  0.10100000352E+00 0. -1.
       -3    1    3    3    0  502 -0.31175351917E+03 -0.10510389400E+04 -0.85267479665E+03  0.13888583186E+04  0.10100000352E+00 0.  1.
</event>
<event>
 5   0  0.3837524E-07  0.2500100E+04  0.7818609E-02  0.8402950E-01
        1   -1    0    0  501    0  0.00000000000E+00  0.00000000000E+00  0.17323142248E+04  0.17323142248E+04  0.50400001928E-02 0. -1.
       -1   -1    0    0    0  501  0.00000000000E+00  0.00000000000E+00 -0.90204460218E+03  0.90204460219E+03  0.50400001928E-02 0.  1.
    10030    2    1    2    0    0  0.00000000000E+00  0.00000000000E+00  0.83026962260E+03  0.26343588270E+04  0.25000997546E+04 0.  0.
        5    1    3    3  502    0 -0.18894843579E+02  0.23813143998E+03  0.17080308320E+04  0.17246608394E+04  0.46999998093E+01 0. -1.
       -5    1    3    3    0  502  0.18894843579E+02 -0.23813143998E+03 -0.87776120943E+03  0.90969798757E+03  0.46999998093E+01 0.  1.
</event>
<event>
 5   0  0.9261602E-07  0.2501547E+04  0.7818609E-02  0.8402435E-01
       -2   -1    0    0    0  501  0.00000000000E+00  0.00000000000E+00  0.21811932420E+04  0.21811932420E+04  0.25500000920E-02 0.  1.
        2   -1    0    0  501    0  0.00000000000E+00  0.00000000000E+00 -0.71723795244E+03  0.71723795244E+03  0.25500000920E-02 0. -1.
    10030    2    1    2    0    0  0.00000000000E+00  0.00000000000E+00  0.14639552895E+04  0.28984311944E+04  0.25015471811E+04 0.  0.
        4    1    3    3  502    0  0.57773027577E+03 -0.37957057931E+03  0.19397539977E+04  0.20592458038E+04  0.12699999809E+01 0.  1.
       -4    1    3    3    0  502 -0.57773027577E+03  0.37957057931E+03 -0.47579870813E+03  0.83918539059E+03  0.12699999809E+01 0. -1.
</event>
<event>
 5   0  0.8997210E-07  0.2498900E+04  0.7818609E-02  0.8403377E-01
        2   -1    0    0  501    0  0.00000000000E+00  0.00000000000E+00  0.25861081916E+04  0.25861081916E+04  0.25500000920E-02 0. -1.
       -2   -1    0    0    0  501  0.00000000000E+00  0.00000000000E+00 -0.60365824047E+03  0.60365824048E+03  0.25500000920E-02 0.  1.
    10030    2    1    2    0    0  0.00000000000E+00  0.00000000000E+00  0.19824499511E+04  0.31897664320E+04  0.24989001746E+04 0.  0.
        1    1    3    3  502    0  0.25294707425E+03 -0.24713918046E+03 -0.53844275137E+03  0.64418987373E+03  0.50400001928E-02 0.  1.
       -1    1    3    3    0  502 -0.25294707425E+03  0.24713918046E+03  0.25208927025E+04  0.25455765583E+04  0.50400001928E-02 0. -1.
</event>
<event>
 5   0  0.9251138E-07  0.2501466E+04  0.7818609E-02  0.8402463E-01
       -2   -1    0    0    0  501  0.00000000000E+00  0.00000000000E+00  0.16366594577E+04  0.16366594577E+04  0.25500000920E-02 0. -1.
        2   -1    0    0  501    0  0.00000000000E+00  0.00000000000E+00 -0.95580870647E+03  0.95580870648E+03  0.25500000920E-02 0.  1.
    10030    2    1    2    0    0  0.00000000000E+00  0.00000000000E+00  0.68085075119E+03  0.25924681641E+04  0.25014662574E+04 0.  0.
        5    1    3    3  502    0  0.14734753894E+03  0.85072127604E+03 -0.59741112972E+03  0.10499333953E+04  0.46999998093E+01 0.  1.
       -5    1    3    3    0  502 -0.14734753894E+03 -0.85072127604E+03  0.12782618809E+04  0.15425347688E+04  0.46999998093E+01 0. -1.
</event>
<event>
 5   0  0.9261602E-07  0.2500330E+04  0.7818609E-02  0.8402868E-01
        2   -1    0    0  501    0  0.00000000000E+00  0.00000000000E+00  0.79682721472E+03  0.79682721472E+03  0.25500000920E-02 0.  1.
       -2   -1    0    0    0  501  0.00000000000E+00  0.00000000000E+00 -0.19614199472E+04  0.19614199472E+04  0.25500000920E-02 0. -1.
    10030    2    1    2    0    0  0.00000000000E+00  0.00000000000E+00 -0.11645927325E+04  0.27582471619E+04  0.25003302129E+04 0.  0.
        4    1    3    3  502    0  0.49876339781E+03  0.70366599355E+03 -0.15806349919E+04  0.18006441481E+04  0.12699999809E+01 0. -1.
       -4    1    3    3    0  502 -0.49876339781E+03 -0.70366599355E+03  0.41604225947E+03  0.95760301380E+03  0.12699999809E+01 0.  1.
</event>
<event>
 5   0  0.9508784E-07  0.2494548E+04  0.7818609E-02  0.8404930E-01
        2   -1    0    0  501    0  0.00000000000E+00  0.00000000000E+00  0.21416933296E+04  0.21416933296E+04  0.25500000920E-02 0.  1.
       -2   -1    0    0    0  501  0.00000000000E+00  0.00000000000E+00 -0.72638425899E+03  0.72638425900E+03  0.25500000920E-02 0. -1.
    10030    2    1    2    0    0  0.00000000000E+00  0.00000000000E+00  0.14153090706E+04  0.28680775886E+04  0.24945479127E+04 0.  0.
        2    1    3    3  502    0  0.11752881897E+04  0.38775059036E+03  0.88591766171E+03  0.15220062261E+04  0.25500000920E-02 0.  1.
       -2    1    3    3    0  502 -0.11752881897E+04 -0.38775059036E+03  0.52939140893E+03  0.13460713625E+04  0.25500000920E-02 0. -1.
</event>
<event>
 5   0  0.9251138E-07  0.2499716E+04  0.7818609E-02  0.8403087E-01
        2   -1    0    0  501    0  0.00000000000E+00  0.00000000000E+00  0.27241144534E+04  0.27241144534E+04  0.25500000920E-02 0.  1.
       -2   -1    0    0    0  501  0.00000000000E+00  0.00000000000E+00 -0.57345046030E+03  0.57345046030E+03  0.25500000920E-02 0. -1.
    10030    2    1    2    0    0  0.00000000000E+00  0.00000000000E+00  0.21506639931E+04  0.32975649137E+04  0.24997157336E+04 0.  0.
        5    1    3    3  502    0 -0.60705149320E+03 -0.32657666988E+03  0.24506694292E+04  0.25457742590E+04  0.46999998093E+01 0.  1.
       -5    1    3    3    0  502  0.60705149320E+03  0.32657666988E+03 -0.30000543613E+03  0.75179065464E+03  0.46999998093E+01 0. -1.
</event>
<event>
 5   0  0.9251138E-07  0.2499431E+04  0.7818609E-02  0.8403188E-01
       -2   -1    0    0    0  501  0.00000000000E+00  0.00000000000E+00  0.26216586365E+04  0.26216586365E+04  0.25500000920E-02 0. -1.
        2   -1    0    0  501    0  0.00000000000E+00  0.00000000000E+00 -0.59572526475E+03  0.59572526476E+03  0.25500000920E-02 0.  1.
    10030    2    1    2    0    0  0.00000000000E+00  0.00000000000E+00  0.20259333717E+04  0.32173839013E+04  0.24994305634E+04 0.  0.
        5    1    3    3  502    0  0.35935920569E+03  0.65585797600E+03 -0.27587364925E+03  0.79713053119E+03  0.46999998093E+01 0.  1.
       -5    1    3    3    0  502 -0.35935920569E+03 -0.65585797600E+03  0.23018070210E+04  0.24202533701E+04  0.46999998093E+01 0. -1.
</event>
<event>
 5   0  0.3873231E-07  0.2499422E+04  0.7818609E-02  0.8403191E-01
       -1   -1    0    0    0  501  0.00000000000E+00  0.00000000000E+00  0.85795804227E+03  0.85795804229E+03  0.50400001928E-02 0. -1.
        1   -1    0    0  501    0  0.00000000000E+00  0.00000000000E+00 -0.18203432927E+04  0.18203432927E+04  0.50400001928E-02 0.  1.
    10030    2    1    2    0    0  0.00000000000E+00  0.00000000000E+00 -0.96238525042E+03  0.26783013350E+04  0.24994224674E+04 0.  0.
        2    1    3    3  502    0  0.42677667558E+03 -0.51671859725E+03 -0.16115022876E+04  0.17453011380E+04  0.25500000920E-02 0.  1.
       -2    1    3    3    0  502 -0.42677667558E+03  0.51671859725E+03  0.64911703716E+03  0.93300019694E+03  0.25500000920E-02 0. -1.
</event>
<event>
 5   0  0.3873231E-07  0.2500202E+04  0.7818609E-02  0.8402914E-01
        1   -1    0    0  501    0  0.00000000000E+00  0.00000000000E+00  0.10506803728E+04  0.10506803728E+04  0.50400001928E-02 0.  1.
       -1   -1    0    0    0  501  0.00000000000E+00  0.00000000000E+00 -0.14873714836E+04  0.14873714836E+04  0.50400001928E-02 0. -1.
    10030    2    1    2    0    0  0.00000000000E+00  0.00000000000E+00 -0.43669111080E+03  0.25380518565E+04  0.25002016119E+04 0.  0.
        2    1    3    3  502    0  0.89817028871E+03  0.44201083148E+03  0.54176816298E+03  0.11382425862E+04  0.25500000920E-02 0. -1.
       -2    1    3    3    0  502 -0.89817028871E+03 -0.44201083148E+03 -0.97845927377E+03  0.13998092703E+04  0.25500000920E-02 0.  1.
</event>
<event>
 5   0  0.3214375E-07  0.2500434E+04  0.7818609E-02  0.8402831E-01
       -4   -1    0    0    0  501  0.00000000000E+00  0.00000000000E+00  0.91744668936E+03  0.91744756838E+03  0.12699999809E+01 0.  1.
        4   -1    0    0  501    0  0.00000000000E+00  0.00000000000E+00 -0.17036862648E+04  0.17036867382E+04  0.12699999809E+01 0. -1.
    10030    2    1    2    0    0  0.00000000000E+00  0.00000000000E+00 -0.78623957543E+03  0.26211343065E+04  0.25004344388E+04 0.  0.
        5    1    3    3  502    0  0.10113676417E+04 -0.54300744838E+03 -0.91230468988E+03  0.14663026743E+04  0.46999998093E+01 0. -1.
       -5    1    3    3    0  502 -0.10113676417E+04  0.54300744838E+03  0.12606511445E+03  0.11548316322E+04  0.46999998093E+01 0.  1.
</event>
<event>
 5   0  0.3837524E-07  0.2505630E+04  0.7818609E-02  0.8400983E-01
       -1   -1    0    0    0  501  0.00000000000E+00  0.00000000000E+00  0.11742028498E+04  0.11742028498E+04  0.50400001928E-02 0. -1.
        1   -1    0    0  501    0  0.00000000000E+00  0.00000000000E+00 -0.13366898174E+04  0.13366898174E+04  0.50400001928E-02 0.  1.
    10030    2    1    2    0    0  0.00000000000E+00  0.00000000000E+00 -0.16248696761E+03  0.25108926673E+04  0.25056296558E+04 0.  0.
        5    1    3    3  502    0  0.83649264999E+03  0.30753287642E+03 -0.96356235291E+03  0.13125436837E+04  0.46999998093E+01 0.  1.
       -5    1    3    3    0  502 -0.83649264999E+03 -0.30753287642E+03  0.80107538531E+03  0.11983489836E+04  0.46999998093E+01 0. -1.
</event>
<event>
 5   0  0.9768582E-07  0.2501131E+04  0.7818609E-02  0.8402583E-01
        2   -1    0    0  501    0  0.00000000000E+00  0.00000000000E+00  0.16287156347E+04  0.16287156347E+04  0.25500000920E-02 0.  1.
       -2   -1    0    0    0  501  0.00000000000E+00  0.00000000000E+00 -0.96021335709E+03  0.96021335709E+03  0.25500000920E-02 0. -1.
    10030    2    1    2    0    0  0.00000000000E+00  0.00000000000E+00  0.66850227759E+03  0.25889289918E+04  0.25011313499E+04 0.  0.
        3    1    3    3  502    0 -0.99510011632E+03 -0.43450692194E+03  0.97642733628E+03  0.14602845134E+04  0.10100000352E+00 0.  1.
       -3    1    3    3    0  502  0.99510011632E+03  0.43450692194E+03 -0.30792505868E+03  0.11286444784E+04  0.10100000352E+00 0. -1.
</event>
<event>
 5   0  0.3991066E-07  0.2495138E+04  0.7818609E-02  0.8404720E-01
        1   -1    0    0  501    0  0.00000000000E+00  0.00000000000E+00  0.25168313439E+04  0.25168313439E+04  0.50400001928E-02 0.  1.
       -1   -1    0    0    0  501  0.00000000000E+00  0.00000000000E+00 -0.61840775975E+03  0.61840775977E+03  0.50400001928E-02 0. -1.
    10030    2    1    2    0    0  0.00000000000E+00  0.00000000000E+00  0.18984235842E+04  0.31352391037E+04  0.24951376981E+04 0.  0.
        1    1    3    3  502    0  0.12320075446E+04  0.51323366842E+02  0.11874622711E+04  0.17118829759E+04  0.50400001928E-02 0.  1.
       -1    1    3    3    0  502 -0.12320075446E+04 -0.51323366842E+02  0.71096131307E+03  0.14233561278E+04  0.50400001928E-02 0. -1.
</event>
<event>
 5   0  0.3873231E-07  0.2503087E+04  0.7818609E-02  0.8401886E-01
       -1   -1    0    0    0  501  0.00000000000E+00  0.00000000000E+00  0.14585049671E+04  0.14585049671E+04  0.50400001928E-02 0.  1.
        1   -1    0    0  501    0  0.00000000000E+00  0.00000000000E+00 -0.10739501940E+04  0.10739501941E+04  0.50400001928E-02 0. -1.
    10030    2    1    2    0    0  0.00000000000E+00  0.00000000000E+00  0.38455477305E+03  0.25324551611E+04  0.25030874475E+04 0.  0.
        2    1    3    3  502    0  0.65878211916E+03  0.38426869281E+03  0.11962431394E+04  0.14186803577E+04  0.25500000920E-02 0.  1.
       -2    1    3    3    0  502 -0.65878211916E+03 -0.38426869281E+03 -0.81168836632E+03  0.11137748035E+04  0.25500000920E-02 0. -1.
</event>
<event>
 5   0  0.3837524E-07  0.2498737E+04  0.7818609E-02  0.8403436E-01
       -1   -1    0    0    0  501  0.00000000000E+00  0.00000000000E+00  0.23247912320E+04  0.23247912320E+04  0.50400001928E-02 0.  1.
        1   -1    0    0  501    0  0.00000000000E+00  0.00000000000E+00 -0.67142424567E+03  0.67142424569E+03  0.50400001928E-02 0. -1.
    10030    2    1    2    0    0  0.00000000000E+00  0.00000000000E+00  0.16533669863E+04  0.29962154777E+04  0.24987366402E+04 0.  0.
        5    1    3    3  502    0 -0.45865672953E+03 -0.91519146644E+00 -0.56681031050E+03  0.72915214544E+03  0.46999998093E+01 0. -1.
       -5    1    3    3    0  502  0.45865672953E+03  0.91519146644E+00  0.22201772968E+04  0.22670633322E+04  0.46999998093E+01 0.  1.
</event>
<event>
 5   0  0.9508784E-07  0.2499050E+04  0.7818609E-02  0.8403324E-01
       -2   -1    0    0    0  501  0.00000000000E+00  0.00000000000E+00  0.68562880039E+03  0.68562880040E+03  0.25500000920E-02 0.  1.
        2   -1    0    0  501    0  0.00000000000E+00  0.00000000000E+00 -0.22771984242E+04  0.22771984242E+04  0.25500000920E-02 0. -1.
    10030    2    1    2    0    0  0.00000000000E+00  0.00000000000E+00 -0.15915696238E+04  0.29628272246E+04  0.24990500786E+04 0.  0.
        2    1    3    3  502    0  0.12493758135E+04  0.10721248201E+02 -0.77674320831E+03  0.14711848559E+04  0.25500000920E-02 0.  1.
       -2    1    3    3    0  502 -0.12493758135E+04 -0.10721248201E+02 -0.81482641550E+03  0.14916423687E+04  0.25500000920E-02 0. -1.
</event>
<event>
 5   0  0.9261602E-07  0.2500186E+04  0.7818609E-02  0.8402919E-01
       -2   -1    0    0    0  501  0.00000000000E+00  0.00000000000E+00  0.15459027126E+04  0.15459027126E+04  0.25500000920E-02 0.  1.
        2   -1    0    0  501    0  0.00000000000E+00  0.00000000000E+00 -0.10108870315E+04  0.10108870315E+04  0.25500000920E-02 0. -1.
    10030    2    1    2    0    0  0.00000000000E+00  0.00000000000E+00  0.53501568107E+03  0.25567897441E+04  0.25001863964E+04 0.  0.
        4    1    3    3  502    0 -0.53105523585E+03  0.85719616436E+03 -0.48808824839E+03  0.11202841956E+04  0.12699999809E+01 0. -1.
       -4    1    3    3    0  502  0.53105523585E+03 -0.85719616436E+03  0.10231039295E+04  0.14365055486E+04  0.12699999809E+01 0.  1.
</event>
<event>
 5   0  0.3972587E-07  0.2500366E+04  0.7818609E-02  0.8402855E-01
        1   -1    0    0  501    0  0.00000000000E+00  0.00000000000E+00  0.14020678526E+04  0.14020678526E+04  0.50400001928E-02 0.  1.
       -1   -1    0    0    0  501  0.00000000000E+00  0.00000000000E+00 -0.11147514945E+04  0.11147514945E+04  0.50400001928E-02 0. -1.
    10030    2    1    2    0    0  0.00000000000E+00  0.00000000000E+00  0.28731635810E+03  0.25168193471E+04  0.25003657605E+04 0.  0.
        3    1    3    3  502    0  0.53904372631E+03  0.86478878893E+03  0.87266809076E+03  0.13416323622E+04  0.10100000352E+00 0.  1.
       -3    1    3    3    0  502 -0.53904372631E+03 -0.86478878893E+03 -0.58535173266E+03  0.11751869849E+04  0.10100000352E+00 0. -1.
</event>
<event>
 5   0  0.9508784E-07  0.2499181E+04  0.7818609E-02  0.8403277E-01
        2   -1    0    0  501    0  0.00000000000E+00  0.00000000000E+00  0.17417042445E+04  0.17417042445E+04  0.25500000920E-02 0.  1.
       -2   -1    0    0    0  501  0.00000000000E+00  0.00000000000E+00 -0.89652186887E+03  0.89652186887E+03  0.25500000920E-02 0. -1.
    10030    2    1    2    0    0  0.00000000000E+00  0.00000000000E+00  0.84518237565E+03  0.26382261134E+04  0.24991806212E+04 0.  0.
        2    1    3    3  502    0  0.65301117907E+03 -0.80577151399E+03  0.11583513119E+04  0.15548212420E+04  0.25500000920E-02 0.  1.
       -2    1    3    3    0  502 -0.65301117907E+03  0.80577151399E+03 -0.31316893624E+03  0.10834048714E+04  0.25500000920E-02 0. -1.
</event>
<event>
 5   0  0.3837524E-07  0.2500539E+04  0.7818609E-02  0.8402793E-01
        1   -1    0    0  501    0  0.00000000000E+00  0.00000000000E+00  0.13592192848E+04  0.13592192849E+04  0.50400001928E-02 0.  1.
       -1   -1    0    0    0  501  0.00000000000E+00  0.00000000000E+00 -0.11500530679E+04  0.11500530679E+04  0.50400001928E-02 0. -1.
    10030    2    1    2    0    0  0.00000000000E+00  0.00000000000E+00  0.20916621695E+03  0.25092723528E+04  0.25005393886E+04 0.  0.
        5    1    3    3  502    0  0.10980740429E+04  0.57345568815E+03  0.27409370976E+03  0.12687661257E+04  0.46999998093E+01 0. -1.
       -5    1    3    3    0  502 -0.10980740429E+04 -0.57345568815E+03 -0.64927492809E+02  0.12405062270E+04  0.46999998093E+01 0.  1.
</event>
<event>
 5   0  0.3805418E-07  0.2504418E+04  0.7818609E-02  0.8401413E-01
        1   -1    0    0  501    0  0.00000000000E+00  0.00000000000E+00  0.23645278703E+04  0.23645278703E+04  0.50400001928E-02 0. -1.
       -1   -1    0    0    0  501  0.00000000000E+00  0.00000000000E+00 -0.66314612432E+03  0.66314612434E+03  0.50400001928E-02 0.  1.
    10030    2    1    2    0    0  0.00000000000E+00  0.00000000000E+00  0.17013817460E+04  0.30276739947E+04  0.25044180906E+04 0.  0.
        4    1    3    3  502    0 -0.12285027732E+04  0.96171527835E+02  0.58156309674E+03  0.13626023906E+04  0.12699999809E+01 0. -1.
       -4    1    3    3    0  502  0.12285027732E+04 -0.96171527835E+02  0.11198186493E+04  0.16650716041E+04  0.12699999809E+01 0.  1.
</event>
<event>
 5   0  0.3873231E-07  0.2500880E+04  0.7818609E-02  0.8402672E-01
       -1   -1    0    0    0  501  0.00000000000E+00  0.00000000000E+00  0.81549700574E+03  0.81549700576E+03  0.50400001928E-02 0. -1.
        1   -1    0    0  501    0  0.00000000000E+00  0.00000000000E+00 -0.19173585287E+04  0.19173585287E+04  0.50400001928E-02 0.  1.
    10030    2    1    2    0    0  0.00000000000E+00  0.00000000000E+00 -0.11018615230E+04  0.27328555345E+04  0.25008799564E+04 0.  0.
        2    1    3    3  502    0 -0.60413218233E+03  0.10945914935E+04 -0.52664527807E+03  0.13566360898E+04  0.25500000920E-02 0. -1.
       -2    1    3    3    0  502  0.60413218233E+03 -0.10945914935E+04 -0.57521624489E+03  0.13762194446E+04  0.25500000920E-02 0.  1.
</event>
<event>
 5   0  0.3837524E-07  0.2500759E+04  0.7818609E-02  0.8402715E-01
       -1   -1    0    0    0  501  0.00000000000E+00  0.00000000000E+00  0.16472128297E+04  0.16472128297E+04  0.50400001928E-02 0. -1.
        1   -1    0    0  501    0  0.00000000000E+00  0.00000000000E+00 -0.94914816209E+03  0.94914816210E+03  0.50400001928E-02 0.  1.
    10030    2    1    2    0    0  0.00000000000E+00  0.00000000000E+00  0.69806466757E+03  0.25963609918E+04  0.25007591086E+04 0.  0.
        5    1    3    3  502    0 -0.10602215240E+04  0.23502101384E+03 -0.29443725058E+03  0.11251755159E+04  0.46999998093E+01 0.  1.
       -5    1    3    3    0  502  0.10602215240E+04 -0.23502101384E+03  0.99250191815E+03  0.14711854759E+04  0.46999998093E+01 0. -1.
</event>
<event>
 5   0  0.3991066E-07  0.2501890E+04  0.7818609E-02  0.8402313E-01
       -1   -1    0    0    0  501  0.00000000000E+00  0.00000000000E+00  0.91367210630E+03  0.91367210632E+03  0.50400001928E-02 0.  1.
        1   -1    0    0  501    0  0.00000000000E+00  0.00000000000E+00 -0.17127187773E+04  0.17127187773E+04  0.50400001928E-02 0. -1.
    10030    2    1    2    0    0  0.00000000000E+00  0.00000000000E+00 -0.79904667103E+03  0.26263908837E+04  0.25018899839E+04 0.  0.
        1    1    3    3  502    0  0.35170478425E+03  0.22081439726E+03  0.83920030890E+03  0.93632922190E+03  0.50400001928E-02 0.  1.
       -1    1    3    3    0  502 -0.35170478425E+03 -0.22081439726E+03 -0.16382469799E+04  0.16900616618E+04  0.50400001928E-02 0. -1.
</event>
<event>
 5   0  0.9768582E-07  0.2498991E+04  0.7818609E-02  0.8403345E-01
       -2   -1    0    0    0  501  0.00000000000E+00  0.00000000000E+00  0.11243069084E+04  0.11243069084E+04  0.25500000920E-02 0.  1.
        2   -1    0    0  501    0  0.00000000000E+00  0.00000000000E+00 -0.13886240483E+04  0.13886240483E+04  0.25500000920E-02 0. -1.
    10030    2    1    2    0    0  0.00000000000E+00  0.00000000000E+00 -0.26431713985E+03  0.25129309568E+04  0.24989914852E+04 0.  0.
        3    1    3    3  502    0  0.12453081270E+04 -0.68545615820E+02 -0.55915009683E+02  0.12484459664E+04  0.10100000352E+00 0. -1.
       -3    1    3    3    0  502 -0.12453081270E+04  0.68545615820E+02 -0.20840213017E+03  0.12644849903E+04  0.10100000352E+00 0.  1.
</event>
<event>
 5   0  0.9768582E-07  0.2500276E+04  0.7818609E-02  0.8402887E-01
        2   -1    0    0  501    0  0.00000000000E+00  0.00000000000E+00  0.23535451791E+04  0.23535451791E+04  0.25500000920E-02 0.  1.
       -2   -1    0    0    0  501  0.00000000000E+00  0.00000000000E+00 -0.66403853669E+03  0.66403853669E+03  0.25500000920E-02 0. -1.
    10030    2    1    2    0    0  0.00000000000E+00  0.00000000000E+00  0.16895066424E+04  0.30175837158E+04  0.25002757422E+04 0.  0.
        3    1    3    3  502    0  0.96668878149E+03 -0.74013342089E+03  0.11873089940E+04  0.17005844109E+04  0.10100000352E+00 0.  1.
       -3    1    3    3    0  502 -0.96668878149E+03  0.74013342089E+03  0.50219764840E+03  0.13169993049E+04  0.10100000352E+00 0. -1.
</event>
<event>
 5   0  0.3837524E-07  0.2499678E+04  0.7818609E-02  0.8403100E-01
        1   -1    0    0  501    0  0.00000000000E+00  0.00000000000E+00  0.16098221330E+04  0.16098221330E+04  0.50400001928E-02 0. -1.
       -1   -1    0    0    0  501  0.00000000000E+00  0.00000000000E+00 -0.97035437893E+03  0.97035437894E+03  0.50400001928E-02 0.  1.
    10030    2    1    2    0    0  0.00000000000E+00  0.00000000000E+00  0.63946775402E+03  0.25801765119E+04  0.24996783441E+04 0.  0.
        5    1    3    3  502    0  0.20666957131E+03  0.12319304330E+04  0.27703803709E+03  0.12795065718E+04  0.46999998093E+01 0. -1.
       -5    1    3    3    0  502 -0.20666957131E+03 -0.12319304330E+04  0.36242971693E+03  0.13006699401E+04  0.46999998093E+01 0.  1.
</event>
<event>
 5   0  0.3972587E-07  0.2500608E+04  0.7818609E-02  0.8402769E-01
        1   -1    0    0  501    0  0.00000000000E+00  0.00000000000E+00  0.10206247726E+04  0.10206247726E+04  0.50400001928E-02 0.  1.
       -1   -1    0    0    0  501  0.00000000000E+00  0.00000000000E+00 -0.15316697026E+04  0.15316697026E+04  0.50400001928E-02 0. -1.
    10030    2    1    2    0    0  0.00000000000E+00  0.00000000000E+00 -0.51104492997E+03  0.25522944752E+04  0.25006079596E+04 0.  0.
        3    1    3    3  502    0 -0.60810411356E+03  0.10236670803E+03 -0.13656574651E+04  0.14984291368E+04  0.10100000352E+00 0. -1.
       -3    1    3    3    0  502  0.60810411356E+03 -0.10236670803E+03  0.85461253518E+03  0.10538653383E+04  0.10100000352E+00 0.  1.
</event>
<event>
 5   0  0.3972587E-07  0.2500143E+04  0.7818609E-02  0.8402934E-01
        1   -1    0    0  501    0  0.00000000000E+00  0.00000000000E+00  0.13441450812E+04  0.13441450812E+04  0.50400001928E-02 0. -1.
       -1   -1    0    0    0  501  0.00000000000E+00  0.00000000000E+00 -0.11625821991E+04  0.11625821991E+04  0.50400001928E-02 0.  1.
    10030    2    1    2    0    0  0.00000000000E+00  0.00000000000E+00  0.18156288205E+03  0.25067272803E+04  0.25001433114E+04 0.  0.
        3    1    3    3  502    0 -0.11910376796E+04 -0.19204631349E+03  0.41909849201E+03  0.12771437260E+04  0.10100000352E+00 0. -1.
       -3    1    3    3    0  502  0.11910376796E+04  0.19204631349E+03 -0.23753560996E+03  0.12295835543E+04  0.10100000352E+00 0.  1.
</event>
<event>
 5   0  0.9508784E-07  0.2499049E+04  0.7818609E-02  0.8403325E-01
       -2   -1    0    0    0  501  0.00000000000E+00  0.00000000000E+00  0.98521263548E+03  0.98521263549E+03  0.25500000920E-02 0. -1.
        2   -1    0    0  501    0  0.00000000000E+00  0.00000000000E+00 -0.15847450618E+04  0.15847450618E+04  0.25500000920E-02 0.  1.
    10030    2    1    2    0    0  0.00000000000E+00  0.00000000000E+00 -0.59953242636E+03  0.25699576973E+04  0.24990485061E+04 0.  0.
        2    1    3    3  502    0 -0.85022001603E+03  0.88466602223E+03 -0.54269519655E+03  0.13416505219E+04  0.25500000920E-02 0. -1.
       -2    1    3    3    0  502  0.85022001603E+03 -0.88466602223E+03 -0.56837229817E+02  0.12283071754E+04  0.25500000920E-02 0.  1.
</event>
<event>
 5   0  0.9508784E-07  0.2497475E+04  0.7818609E-02  0.8403886E-01
        2   -1    0    0  501    0  0.00000000000E+00  0.00000000000E+00  0.19629040117E+04  0.19629040117E+04  0.25500000920E-02 0. -1.
       -2   -1    0    0    0  501  0.00000000000E+00  0.00000000000E+00 -0.79440722863E+03  0.79440722863E+03  0.25500000920E-02 0.  1.
    10030    2    1    2    0    0  0.00000000000E+00  0.00000000000E+00  0.11684967830E+04  0.27573112403E+04  0.24974748335E+04 0.  0.
        2    1    3    3  502    0  0.67376537468E+03  0.41092584535E+03 -0.48417756180E+03  0.92587674226E+03  0.25500000920E-02 0.  1.
       -2    1    3    3    0  502 -0.67376537468E+03 -0.41092584535E+03  0.16526743448E+04  0.18314344980E+04  0.25500000920E-02 0. -1.
</event>
<event>
 5   0  0.3805418E-07  0.2501429E+04  0.7818609E-02  0.8402477E-01
       -1   -1    0    0    0  501  0.00000000000E+00  0.00000000000E+00  0.84883261343E+03  0.84883261344E+03  0.50400001928E-02 0.  1.
        1   -1    0    0  501    0  0.00000000000E+00  0.00000000000E+00 -0.18428685725E+04  0.18428685725E+04  0.50400001928E-02 0. -1.
    10030    2    1    2    0    0  0.00000000000E+00  0.00000000000E+00 -0.99403595905E+03  0.26917011859E+04  0.25014291488E+04 0.  0.
        4    1    3    3  502    0 -0.10778789424E+04  0.49406397244E+03 -0.68799257452E+02  0.11877108967E+04  0.12699999809E+01 0.  1.
       -4    1    3    3    0  502  0.10778789424E+04 -0.49406397244E+03 -0.92523670160E+03  0.15039902893E+04  0.12699999809E+01 0. -1.
</event>
<event>
 5   0  0.8997210E-07  0.2500012E+04  0.7818609E-02  0.8402981E-01
        2   -1    0    0  501    0  0.00000000000E+00  0.00000000000E+00  0.15901359469E+04  0.15901359469E+04  0.25500000920E-02 0.  1.
       -2   -1    0    0    0  501  0.00000000000E+00  0.00000000000E+00 -0.98263000351E+03  0.98263000351E+03  0.25500000920E-02 0. -1.
    10030    2    1    2    0    0  0.00000000000E+00  0.00000000000E+00  0.60750594339E+03  0.25727659504E+04  0.25000122328E+04 0.  0.
        1    1    3    3  502    0  0.59097480536E+03  0.99781930146E+03 -0.17632110929E+03  0.11730233214E+04  0.50400001928E-02 0. -1.
       -1    1    3    3    0  502 -0.59097480536E+03 -0.99781930146E+03  0.78382705267E+03  0.13997426290E+04  0.50400001928E-02 0.  1.
</event>
<event>
 5   0  0.3214375E-07  0.2500271E+04  0.7818609E-02  0.8402889E-01
       -3   -1    0    0    0  501  0.00000000000E+00  0.00000000000E+00  0.11284825985E+04  0.11284826030E+04  0.10100000352E+00 0.  1.
        3   -1    0    0  501    0  0.00000000000E+00  0.00000000000E+00 -0.13849022921E+04  0.13849022958E+04  0.10100000352E+00 0. -1.
    10030    2    1    2    0    0  0.00000000000E+00  0.00000000000E+00 -0.25641969365E+03  0.25133848988E+04  0.25002705034E+04 0.  0.
        5    1    3    3  502    0  0.18668256713E+03  0.44644364766E+03 -0.12869282701E+04  0.13749068237E+04  0.46999998093E+01 0. -1.
       -5    1    3    3    0  502 -0.18668256713E+03 -0.44644364766E+03  0.10305085764E+04  0.11384780751E+04  0.46999998093E+01 0.  1.
</event>
<event>
 5   0  0.9251138E-07  0.2499639E+04  0.7818609E-02  0.8403114E-01
        2   -1    0    0  501    0  0.00000000000E+00  0.00000000000E+00  0.14946315778E+04  0.14946315778E+04  0.25500000920E-02 0. -1.
       -2   -1    0    0    0  501  0.00000000000E+00  0.00000000000E+00 -0.10451058258E+04  0.10451058258E+04  0.25500000920E-02 0.  1.
    10030    2    1    2    0    0  0.00000000000E+00  0.00000000000E+00  0.44952575201E+03  0.25397374036E+04  0.24996385094E+04 0.  0.
        5    1    3    3  502    0 -0.13100098510E+03 -0.21834047038E+03 -0.10184640138E+04  0.10498213450E+04  0.46999998093E+01 0.  1.
       -5    1    3    3    0  502  0.13100098510E+03  0.21834047038E+03  0.14679897658E+04  0.14899160586E+04  0.46999998093E+01 0. -1.
</event>
<event>
 5   0  0.9251138E-07  0.2503027E+04  0.7818609E-02  0.8401908E-01
        2   -1    0    0  501    0  0.00000000000E+00  0.00000000000E+00  0.90356609541E+03  0.90356609542E+03  0.25500000920E-02 0.  1.
       -2   -1    0    0    0  501  0.00000000000E+00  0.00000000000E+00 -0.17334498471E+04  0.17334498471E+04  0.25500000920E-02 0. -1.
    10030    2    1    2    0    0  0.00000000000E+00  0.00000000000E+00 -0.82988375166E+03  0.26370159425E+04  0.25030273749E+04 0.  0.
        5    1    3    3  502    0 -0.92979163945E+03  0.77477979898E+03 -0.75053427290E+03  0.14241207865E+04  0.46999998093E+01 0. -1.
       -5    1    3    3    0  502  0.92979163945E+03 -0.77477979898E+03 -0.79349478753E+02  0.12128951560E+04  0.46999998093E+01 0.  1.
</event>
<event>
 5   0  0.9508784E-07  0.2496677E+04  0.7818609E-02  0.8404170E-01
       -2   -1    0    0    0  501  0.00000000000E+00  0.00000000000E+00  0.70928447597E+03  0.70928447598E+03  0.25500000920E-02 0. -1.
        2   -1    0    0  501    0  0.00000000000E+00  0.00000000000E+00 -0.21970726358E+04  0.21970726358E+04  0.25500000920E-02 0.  1.
    10030    2    1    2    0    0  0.00000000000E+00  0.00000000000E+00 -0.14877881598E+04  0.29063571117E+04  0.24966774026E+04 0.  0.
        2    1    3    3  502    0  0.47493239613E+03 -0.69797520364E+03  0.32657468872E+03  0.90519677038E+03  0.25500000920E-02 0. -1.
       -2    1    3    3    0  502 -0.47493239613E+03  0.69797520364E+03 -0.18143628485E+04  0.20011603414E+04  0.25500000920E-02 0.  1.
</event>
<event>
 5   0  0.3837524E-07  0.2499762E+04  0.7818609E-02  0.8403070E-01
       -1   -1    0    0    0  501  0.00000000000E+00  0.00000000000E+00  0.93804331113E+03  0.93804331115E+03  0.50400001928E-02 0. -1.
        1   -1    0    0  501    0  0.00000000000E+00  0.00000000000E+00 -0.16653843536E+04  0.16653843536E+04  0.50400001928E-02 0.  1.
    10030    2    1    2    0    0  0.00000000000E+00  0.00000000000E+00 -0.72734104242E+03  0.26034276647E+04  0.24997621114E+04 0.  0.
        5    1    3    3  502    0  0.48539114427E+03 -0.62873083372E+03  0.64137438282E+03  0.10209261546E+04  0.46999998093E+01 0. -1.
       -5    1    3    3    0  502 -0.48539114427E+03  0.62873083372E+03 -0.13687154252E+04  0.15825015101E+04  0.46999998093E+01 0.  1.
</event>
<event>
 5   0  0.9768582E-07  0.2500782E+04  0.7818609E-02  0.8402707E-01
       -2   -1    0    0    0  501  0.00000000000E+00  0.00000000000E+00  0.86662152504E+03  0.86662152504E+03  0.25500000920E-02 0. -1.
        2   -1    0    0  501    0  0.00000000000E+00  0.00000000000E+00 -0.18041066066E+04  0.18041066066E+04  0.25500000920E-02 0.  1.
    10030    2    1    2    0    0  0.00000000000E+00  0.00000000000E+00 -0.93748508160E+03  0.26707281317E+04  0.25007819727E+04 0.  0.
        3    1    3    3  502    0  0.74851858005E+03  0.95846917982E+03 -0.77924891837E+03  0.14443587229E+04  0.10100000352E+00 0. -1.
       -3    1    3    3    0  502 -0.74851858005E+03 -0.95846917982E+03 -0.15823616323E+03  0.12263694088E+04  0.10100000352E+00 0.  1.
</event>
<event>
 5   0  0.3972587E-07  0.2499868E+04  0.7818609E-02  0.8403033E-01
       -1   -1    0    0    0  501  0.00000000000E+00  0.00000000000E+00  0.10307946009E+04  0.10307946010E+04  0.50400001928E-02 0. -1.
        1   -1    0    0  501    0  0.00000000000E+00  0.00000000000E+00 -0.15156608546E+04  0.15156608546E+04  0.50400001928E-02 0.  1.
    10030    2    1    2    0    0  0.00000000000E+00  0.00000000000E+00 -0.48486625364E+03  0.25464554556E+04  0.24998680172E+04 0.  0.
        3    1    3    3  502    0 -0.24691169843E+03  0.12225955135E+04 -0.15949189189E+03  0.12574350283E+04  0.10100000352E+00 0. -1.
       -3    1    3    3    0  502  0.24691169843E+03 -0.12225955135E+04 -0.32537436175E+03  0.12890204273E+04  0.10100000352E+00 0.  1.
</event>
<event>
 5   0  0.9261602E-07  0.2499950E+04  0.7818609E-02  0.8403003E-01
        2   -1    0    0  501    0  0.00000000000E+00  0.00000000000E+00  0.17783192010E+04  0.17783192010E+04  0.25500000920E-02 0.  1.
       -2   -1    0    0    0  501  0.00000000000E+00  0.00000000000E+00 -0.87860336690E+03  0.87860336690E+03  0.25500000920E-02 0. -1.
    10030    2    1    2    0    0  0.00000000000E+00  0.00000000000E+00  0.89971583412E+03  0.26569225679E+04  0.24999497895E+04 0.  0.
        4    1    3    3  502    0  0.98745290284E+03 -0.20723735751E+03  0.12340395538E+04  0.15940093447E+04  0.12699999809E+01 0.  1.
       -4    1    3    3    0  502 -0.98745290284E+03  0.20723735751E+03 -0.33432371970E+03  0.10629132232E+04  0.12699999809E+01 0. -1.
</event>
<event>
 5   0  0.3873231E-07  0.2500044E+04  0.7818609E-02  0.8402970E-01
        1   -1    0    0  501    0  0.00000000000E+00  0.00000000000E+00  0.15500290630E+04  0.15500290631E+04  0.50400001928E-02 0. -1.
       -1   -1    0    0    0  501  0.00000000000E+00  0.00000000000E+00 -0.10080807613E+04  0.10080807613E+04  0.50400001928E-02 0.  1.
    10030    2    1    2    0    0  0.00000000000E+00  0.00000000000E+00  0.54194830173E+03  0.25581098244E+04  0.25000435820E+04 0.  0.
        2    1    3    3  502    0 -0.11007361067E+04 -0.36183709811E+03  0.75091890915E+03  0.13807335986E+04  0.25500000920E-02 0. -1.
       -2    1    3    3    0  502  0.11007361067E+04  0.36183709811E+03 -0.20897060742E+03  0.11773762258E+04  0.25500000920E-02 0.  1.
</event>
<event>
 5   0  0.3991066E-07  0.2500035E+04  0.7818609E-02  0.8402973E-01
       -1   -1    0    0    0  501  0.00000000000E+00  0.00000000000E+00  0.26700238577E+04  0.26700238578E+04  0.50400001928E-02 0.  1.
        1   -1    0    0  501    0  0.00000000000E+00  0.00000000000E+00 -0.58521729379E+03  0.58521729381E+03  0.50400001928E-02 0. -1.
    10030    2    1    2    0    0  0.00000000000E+00  0.00000000000E+00  0.20848065640E+04  0.32552411516E+04  0.25000353089E+04 0.  0.
        1    1    3    3  502    0  0.79634449960E+03  0.95839020698E+03  0.91305910687E+03  0.15447826007E+04  0.50400001928E-02 0. -1.
       -1    1    3    3    0  502 -0.79634449960E+03 -0.95839020698E+03  0.11717474571E+04  0.17104585508E+04  0.50400001928E-02 0.  1.
</event>
<event>
 5   0  0.9251138E-07  0.2500607E+04  0.7818609E-02  0.8402769E-01
       -2   -1    0    0    0  501  0.00000000000E+00  0.00000000000E+00  0.49966529454E+03  0.49966529454E+03  0.25500000920E-02 0.  1.
        2   -1    0    0  501    0  0.00000000000E+00  0.00000000000E+00 -0.31286130948E+04  0.31286130948E+04  0.25500000920E-02 0. -1.
    10030    2    1    2    0    0  0.00000000000E+00  0.00000000000E+00 -0.26289478002E+04  0.36282783893E+04  0.25006074330E+04 0.  0.
        5    1    3    3  502    0 -0.24472754356E+03  0.12260860936E+04 -0.13033653859E+04  0.18060902797E+04  0.46999998093E+01 0.  1.
       -5    1    3    3    0  502  0.24472754356E+03 -0.12260860936E+04 -0.13255824143E+04  0.18221881096E+04  0.46999998093E+01 0. -1.
</event>
<event>
 5   0  0.3837524E-07  0.2499276E+04  0.7818609E-02  0.8403244E-01
        1   -1    0    0  501    0  0.00000000000E+00  0.00000000000E+00  0.18321091612E+04  0.18321091612E+04  0.50400001928E-02 0. -1.
       -1   -1    0    0    0  501  0.00000000000E+00  0.00000000000E+00 -0.85234812245E+03  0.85234812246E+03  0.50400001928E-02 0.  1.
    10030    2    1    2    0    0  0.00000000000E+00  0.00000000000E+00  0.97976103878E+03  0.26844572837E+04  0.24992757381E+04 0.  0.
        5    1    3    3  502    0  0.68366308516E+03 -0.10460216395E+04  0.48555344101E+03  0.13406493644E+04  0.46999998093E+01 0.  1.
       -5    1    3    3    0  502 -0.68366308516E+03  0.10460216395E+04  0.49420759778E+03  0.13438079193E+04  0.46999998093E+01 0. -1.
</event>
<event>
 5   0  0.9768582E-07  0.2499942E+04  0.7818609E-02  0.8403006E-01
        2   -1    0    0  501    0  0.00000000000E+00  0.00000000000E+00  0.26699522600E+04  0.26699522600E+04  0.25500000920E-02 0.  1.
       -2   -1    0    0    0  501  0.00000000000E+00  0.00000000000E+00 -0.58518907850E+03  0.58518907851E+03  0.25500000920E-02 0. -1.
    10030    2    1    2    0    0  0.00000000000E+00  0.00000000000E+00  0.20847631814E+04  0.32551413385E+04  0.24999415214E+04 0.  0.
        3    1    3    3  502    0 -0.38581985702E+03 -0.37348734002E+03 -0.42734943418E+03  0.68627786233E+03  0.10100000352E+00 0. -1.
       -3    1    3    3    0  502  0.38581985702E+03  0.37348734002E+03  0.25121126156E+04  0.25688634761E+04  0.10100000352E+00 0.  1.
</event>
<event>
 5   0  0.8997210E-07  0.2497948E+04  0.7818609E-02  0.8403717E-01
        2   -1    0    0  501    0  0.00000000000E+00  0.00000000000E+00  0.71040705133E+03  0.71040705134E+03  0.25500000920E-02 0. -1.
       -2   -1    0    0    0  501  0.00000000000E+00  0.00000000000E+00 -0.21958333607E+04  0.21958333607E+04  0.25500000920E-02 0.  1.
    10030    2    1    2    0    0  0.00000000000E+00  0.00000000000E+00 -0.14854263094E+04  0.29062404121E+04  0.24979475599E+04 0.  0.
        1    1    3    3  502    0  0.24018368707E+03  0.11820252673E+04 -0.11198285751E+04  0.16458699747E+04  0.50400001928E-02 0.  1.
       -1    1    3    3    0  502 -0.24018368707E+03 -0.11820252673E+04 -0.36559773435E+03  0.12603704374E+04  0.50400001928E-02 0. -1.
</event>
<event>
 5   0  0.3873231E-07  0.2499994E+04  0.7818609E-02  0.8402988E-01
        1   -1    0    0  501    0  0.00000000000E+00  0.00000000000E+00  0.16687921856E+04  0.16687921856E+04  0.50400001928E-02 0. -1.
       -1   -1    0    0    0  501  0.00000000000E+00  0.00000000000E+00 -0.93630148884E+03  0.93630148885E+03  0.50400001928E-02 0.  1.
    10030    2    1    2    0    0  0.00000000000E+00  0.00000000000E+00  0.73249069680E+03  0.26050936745E+04  0.24999940864E+04 0.  0.
        2    1    3    3  502    0  0.87381245127E+03 -0.67688600893E+02 -0.56249384632E+03  0.10414073525E+04  0.25500000920E-02 0.  1.
       -2    1    3    3    0  502 -0.87381245127E+03  0.67688600893E+02  0.12949845431E+04  0.15636863220E+04  0.25500000920E-02 0. -1.
</event>
<event>
 5   0  0.3873231E-07  0.2501309E+04  0.7818609E-02  0.8402519E-01
        1   -1    0    0  501    0  0.00000000000E+00  0.00000000000E+00  0.19147056191E+04  0.19147056191E+04  0.50400001928E-02 0. -1.
       -1   -1    0    0    0  501  0.00000000000E+00  0.00000000000E+00 -0.81690745630E+03  0.81690745631E+03  0.50400001928E-02 0.  1.
    10030    2    1    2    0    0  0.00000000000E+00  0.00000000000E+00  0.10977981628E+04  0.27316130754E+04  0.25013094945E+04 0.  0.
        2    1    3    3  502    0  0.12353346289E+04 -0.18418932398E+03  0.61933521527E+03  0.13941138624E+04  0.25500000920E-02 0.  1.
       -2    1    3    3    0  502 -0.12353346289E+04  0.18418932398E+03  0.47846294752E+03  0.13374992130E+04  0.25500000920E-02 0. -1.
</event>
<event>
 5   0  0.9768582E-07  0.2500406E+04  0.7818609E-02  0.8402841E-01
        2   -1    0    0  501    0  0.00000000000E+00  0.00000000000E+00  0.95123005529E+03  0.95123005530E+03  0.25500000920E-02 0. -1.
       -2   -1    0    0    0  501  0.00000000000E+00  0.00000000000E+00 -0.16431434466E+04  0.16431434466E+04  0.25500000920E-02 0.  1.
    10030    2    1    2    0    0  0.00000000000E+00  0.00000000000E+00 -0.69191339131E+03  0.25943735019E+04  0.25004059123E+04 0.  0.
        3    1    3    3  502    0 -0.11661091894E+03  0.19608244015E+03  0.92944975433E+03  0.95703881101E+03  0.10100000352E+00 0. -1.
       -3    1    3    3    0  502  0.11661091894E+03 -0.19608244015E+03 -0.16213631456E+04  0.16373346909E+04  0.10100000352E+00 0.  1.
</event>
<event>
 5   0  0.9768582E-07  0.2499819E+04  0.7818609E-02  0.8403050E-01
       -2   -1    0    0    0  501  0.00000000000E+00  0.00000000000E+00  0.10809424480E+04  0.10809424480E+04  0.25500000920E-02 0.  1.
        2   -1    0    0  501    0  0.00000000000E+00  0.00000000000E+00 -0.14452888882E+04  0.14452888882E+04  0.25500000920E-02 0. -1.
    10030    2    1    2    0    0  0.00000000000E+00  0.00000000000E+00 -0.36434644014E+03  0.25262313362E+04  0.24998192806E+04 0.  0.
        3    1    3    3  502    0 -0.21483370958E+03 -0.56286404910E+03 -0.12888715670E+04  0.14227295551E+04  0.10100000352E+00 0. -1.
       -3    1    3    3    0  502  0.21483370958E+03  0.56286404910E+03  0.92452512683E+03  0.11035017811E+04  0.10100000352E+00 0.  1.
</event>
<event>
 5   0  0.3805418E-07  0.2500550E+04  0.7818609E-02  0.8402790E-01
        1   -1    0    0  501    0  0.00000000000E+00  0.00000000000E+00  0.23822104515E+04  0.23822104515E+04  0.50400001928E-02 0. -1.
       -1   -1    0    0    0  501  0.00000000000E+00  0.00000000000E+00 -0.65619212383E+03  0.65619212385E+03  0.50400001928E-02 0.  1.
    10030    2    1    2    0    0  0.00000000000E+00  0.00000000000E+00  0.17260183277E+04  0.30384025753E+04  0.25005501280E+04 0.  0.
        4    1    3    3  502    0  0.57652472308E+03 -0.11076926628E+04  0.78788599412E+03  0.14765262423E+04  0.12699999809E+01 0.  1.
       -4    1    3    3    0  502 -0.57652472308E+03  0.11076926628E+04  0.93813233354E+03  0.15618763330E+04  0.12699999809E+01 0. -1.
</event>
<event>
 5   0  0.3805418E-07  0.2499439E+04  0.7818609E-02  0.8403186E-01
       -1   -1    0    0    0  501  0.00000000000E+00  0.00000000000E+00  0.12813380402E+04  0.12813380402E+04  0.50400001928E-02 0. -1.
        1   -1    0    0  501    0  0.00000000000E+00  0.00000000000E+00 -0.12188808901E+04  0.12188808901E+04  0.50400001928E-02 0.  1.
    10030    2    1    2    0    0  0.00000000000E+00  0.00000000000E+00  0.62457150134E+02  0.25002189303E+04  0.24994386978E+04 0.  0.
        4    1    3    3  502    0  0.40190496005E+03  0.17580346600E+03  0.12017914503E+04  0.12793509129E+04  0.12699999809E+01 0. -1.
       -4    1    3    3    0  502 -0.40190496005E+03 -0.17580346600E+03 -0.11393343001E+04  0.12208680174E+04  0.12699999809E+01 0.  1.
</event>
<event>
 5   0  0.3991066E-07  0.2500516E+04  0.7818609E-02  0.8402802E-01
       -1   -1    0    0    0  501  0.00000000000E+00  0.00000000000E+00  0.93140400212E+03  0.93140400213E+03  0.50400001928E-02 0. -1.
        1   -1    0    0  501    0  0.00000000000E+00  0.00000000000E+00 -0.16782669467E+04  0.16782669467E+04  0.50400001928E-02 0.  1.
    10030    2    1    2    0    0  0.00000000000E+00  0.00000000000E+00 -0.74686294461E+03  0.26096709489E+04  0.25005155875E+04 0.  0.
        1    1    3    3  502    0 -0.69980564337E+03 -0.71748908766E+03 -0.11534712784E+04  0.15280754299E+04  0.50400001928E-02 0.  1.
       -1    1    3    3    0  502  0.69980564337E+03  0.71748908766E+03  0.40660833381E+03  0.10815955189E+04  0.50400001928E-02 0. -1.
</event>
<event>
 5   0  0.3991066E-07  0.2498940E+04  0.7818609E-02  0.8403363E-01
       -1   -1    0    0    0  501  0.00000000000E+00  0.00000000000E+00  0.13863050695E+04  0.13863050695E+04  0.50400001928E-02 0.  1.
        1   -1    0    0  501    0  0.00000000000E+00  0.00000000000E+00 -0.11261410754E+04  0.11261410754E+04  0.50400001928E-02 0. -1.
    10030    2    1    2    0    0  0.00000000000E+00  0.00000000000E+00  0.26016399412E+03  0.25124461449E+04  0.24989398407E+04 0.  0.
        1    1    3    3  502    0  0.53833963710E+03 -0.35433629905E+03 -0.94612921306E+03  0.11447813178E+04  0.50400001928E-02 0. -1.
       -1    1    3    3    0  502 -0.53833963710E+03  0.35433629905E+03  0.12062932072E+04  0.13676648271E+04  0.50400001928E-02 0.  1.
</event>
<event>
 5   0  0.3873231E-07  0.2499927E+04  0.7818609E-02  0.8403011E-01
       -1   -1    0    0    0  501  0.00000000000E+00  0.00000000000E+00  0.95708894332E+03  0.95708894333E+03  0.50400001928E-02 0. -1.
        1   -1    0    0  501    0  0.00000000000E+00  0.00000000000E+00 -0.16324599284E+04  0.16324599284E+04  0.50400001928E-02 0.  1.
    10030    2    1    2    0    0  0.00000000000E+00  0.00000000000E+00 -0.67537098512E+03  0.25895488718E+04  0.24999274773E+04 0.  0.
        2    1    3    3  502    0 -0.90466183824E+03 -0.13897887790E+03  0.54411470646E+03  0.10647952779E+04  0.25500000920E-02 0. -1.
       -2    1    3    3    0  502  0.90466183824E+03  0.13897887790E+03 -0.12194856916E+04  0.15247535939E+04  0.25500000920E-02 0.  1.
</event>
<event>
 5   0  0.3837524E-07  0.2502931E+04  0.7818609E-02  0.8401942E-01
       -1   -1    0    0    0  501  0.00000000000E+00  0.00000000000E+00  0.11536370589E+04  0.11536370589E+04  0.50400001928E-02 0.  1.
        1   -1    0    0  501    0  0.00000000000E+00  0.00000000000E+00 -0.13575901903E+04  0.13575901903E+04  0.50400001928E-02 0. -1.
    10030    2    1    2    0    0  0.00000000000E+00  0.00000000000E+00 -0.20395313144E+03  0.25112272492E+04  0.25029313649E+04 0.  0.
        5    1    3    3  502    0 -0.11816252477E+04 -0.33291266290E+03  0.14188292636E+03  0.12358082060E+04  0.46999998093E+01 0.  1.
       -5    1    3    3    0  502  0.11816252477E+04  0.33291266290E+03 -0.34583605780E+03  0.12754190433E+04  0.46999998093E+01 0. -1.
</event>
<event>
 5   0  0.3873231E-07  0.2498724E+04  0.7818609E-02  0.8403440E-01
       -1   -1    0    0    0  501  0.00000000000E+00  0.00000000000E+00  0.11005476597E+04  0.11005476597E+04  0.50400001928E-02 0.  1.
        1   -1    0    0  501    0  0.00000000000E+00  0.00000000000E+00 -0.14182987357E+04  0.14182987357E+04  0.50400001928E-02 0. -1.
    10030    2    1    2    0    0  0.00000000000E+00  0.00000000000E+00 -0.31775107604E+03  0.25188463954E+04  0.24987239578E+04 0.  0.
        2    1    3    3  502    0 -0.13367249959E+03  0.83803275578E+03 -0.10831772815E+04  0.13760233501E+04  0.25500000920E-02 0. -1.
       -2    1    3    3    0  502  0.13367249959E+03 -0.83803275578E+03  0.76542620546E+03  0.11428230453E+04  0.25500000920E-02 0.  1.
</event>
<event>
 5   0  0.8997210E-07  0.2499303E+04  0.7818609E-02  0.8403234E-01
       -2   -1    0    0    0  501  0.00000000000E+00  0.00000000000E+00  0.80187965275E+03  0.80187965275E+03  0.25500000920E-02 0. -1.
        2   -1    0    0  501    0  0.00000000000E+00  0.00000000000E+00 -0.19474607334E+04  0.19474607334E+04  0.25500000920E-02 0.  1.
    10030    2    1    2    0    0  0.00000000000E+00  0.00000000000E+00 -0.11455810807E+04  0.27493403862E+04  0.24993032122E+04 0.  0.
        1    1    3    3  502    0  0.81519570083E+02 -0.14673367415E+03 -0.19350028122E+04  0.19422698306E+04  0.50400001928E-02 0.  1.
       -1    1    3    3    0  502 -0.81519570083E+02  0.14673367415E+03  0.78942173155E+03  0.80707055560E+03  0.50400001928E-02 0. -1.
</event>
<event>
 5   0  0.8997210E-07  0.2500820E+04  0.7818609E-02  0.8402693E-01
        2   -1    0    0  501    0  0.00000000000E+00  0.00000000000E+00  0.12818932477E+04  0.12818932477E+04  0.25500000920E-02 0.  1.
       -2   -1    0    0    0  501  0.00000000000E+00  0.00000000000E+00 -0.12197003209E+04  0.12197003209E+04  0.25500000920E-02 0. -1.
    10030    2    1    2    0    0  0.00000000000E+00  0.00000000000E+00  0.62192926766E+02  0.25015935686E+04  0.25008203498E+04 0.  0.
        1    1    3    3  502    0  0.97308468060E+03 -0.12865359528E+03  0.80598432135E+03  0.12700615219E+04  0.50400001928E-02 0.  1.
       -1    1    3    3    0  502 -0.97308468060E+03  0.12865359528E+03 -0.74379139459E+03  0.12315320466E+04  0.50400001928E-02 0. -1.
</event>
<event>
 5   0  0.9508784E-07  0.2499695E+04  0.7818609E-02  0.8403094E-01
        2   -1    0    0  501    0  0.00000000000E+00  0.00000000000E+00  0.19320264047E+04  0.19320264047E+04  0.25500000920E-02 0. -1.
       -2   -1    0    0    0  501  0.00000000000E+00  0.00000000000E+00 -0.80853872212E+03  0.80853872212E+03  0.25500000920E-02 0.  1.
    10030    2    1    2    0    0  0.00000000000E+00  0.00000000000E+00  0.11234876825E+04  0.27405651268E+04  0.24996945096E+04 0.  0.
        2    1    3    3  502    0 -0.42790473887E+03 -0.31701765604E+03 -0.67792643915E+03  0.86208289433E+03  0.25500000920E-02 0.  1.
       -2    1    3    3    0  502  0.42790473887E+03  0.31701765604E+03  0.18014141217E+04  0.18784822324E+04  0.25500000920E-02 0. -1.
</event>
<event>
 5   0  0.3805418E-07  0.2500442E+04  0.7818609E-02  0.8402828E-01
        1   -1    0    0  501    0  0.00000000000E+00  0.00000000000E+00  0.11343936069E+04  0.11343936069E+04  0.50400001928E-02 0.  1.
       -1   -1    0    0    0  501  0.00000000000E+00  0.00000000000E+00 -0.13778748164E+04  0.13778748164E+04  0.50400001928E-02 0. -1.
    10030    2    1    2    0    0  0.00000000000E+00  0.00000000000E+00 -0.24348120953E+03  0.25122684233E+04  0.25004418672E+04 0.  0.
        4    1    3    3  502    0 -0.50819501520E+03  0.10324890464E+04  0.36919607822E+03  0.12085541616E+04  0.12699999809E+01 0.  1.
       -4    1    3    3    0  502  0.50819501520E+03 -0.10324890464E+04 -0.61267728775E+03  0.13037142617E+04  0.12699999809E+01 0. -1.
</event>
<event>
 5   0  0.3805418E-07  0.2499121E+04  0.7818609E-02  0.8403299E-01
       -1   -1    0    0    0  501  0.00000000000E+00  0.00000000000E+00  0.10681072086E+04  0.10681072086E+04  0.50400001928E-02 0.  1.
        1   -1    0    0  501    0  0.00000000000E+00  0.00000000000E+00 -0.14618397138E+04  0.14618397138E+04  0.50400001928E-02 0. -1.
    10030    2    1    2    0    0  0.00000000000E+00  0.00000000000E+00 -0.39373250517E+03  0.25299469224E+04  0.24991210744E+04 0.  0.
        4    1    3    3  502    0 -0.10040210264E+04 -0.96026867129E+01  0.55611579899E+03  0.11477877974E+04  0.12699999809E+01 0.  1.
       -4    1    3    3    0  502  0.10040210264E+04  0.96026867129E+01 -0.94984830416E+03  0.13821591250E+04  0.12699999809E+01 0. -1.
</event>
<event>
 5   0  0.3991066E-07  0.2500514E+04  0.7818609E-02  0.8402803E-01
       -1   -1    0    0    0  501  0.00000000000E+00  0.00000000000E+00  0.13152663007E+04  0.13152663007E+04  0.50400001928E-02 0. -1.
        1   -1    0    0  501    0  0.00000000000E+00  0.00000000000E+00 -0.11884607164E+04  0.11884607164E+04  0.50400001928E-02 0.  1.
    10030    2    1    2    0    0  0.00000000000E+00  0.00000000000E+00  0.12680558424E+03  0.25037270171E+04  0.25005138112E+04 0.  0.
        1    1    3    3  502    0  0.39106684760E+00  0.82290667617E+03  0.10058704092E+04  0.12995964107E+04  0.50400001928E-02 0. -1.
       -1    1    3    3    0  502 -0.39106684760E+00 -0.82290667617E+03 -0.87906482499E+03  0.12041306064E+04  0.50400001928E-02 0.  1.
</event>
<event>
 5   0  0.3873231E-07  0.2500521E+04  0.7818609E-02  0.8402800E-01
       -1   -1    0    0    0  501  0.00000000000E+00  0.00000000000E+00  0.12664442645E+04  0.12664442645E+04  0.50400001928E-02 0.  1.
        1   -1    0    0  501    0  0.00000000000E+00  0.00000000000E+00 -0.12342840055E+04  0.12342840055E+04  0.50400001928E-02 0. -1.
    10030    2    1    2    0    0  0.00000000000E+00  0.00000000000E+00  0.32160259011E+02  0.25007282701E+04  0.25005214653E+04 0.  0.
        2    1    3    3  502    0  0.90200660001E+03  0.63287696015E+03  0.60689353249E+03  0.12579622065E+04  0.25500000920E-02 0. -1.
       -2    1    3    3    0  502 -0.90200660001E+03 -0.63287696015E+03 -0.57473327348E+03  0.12427660636E+04  0.25500000920E-02 0.  1.
</event>
<event>
 5   0  0.3873231E-07  0.2499925E+04  0.7818609E-02  0.8403012E-01
       -1   -1    0    0    0  501  0.00000000000E+00  0.00000000000E+00  0.14744592294E+04  0.14744592294E+04  0.50400001928E-02 0. -1.
        1   -1    0    0  501    0  0.00000000000E+00  0.00000000000E+00 -0.10596473277E+04  0.10596473277E+04  0.50400001928E-02 0.  1.
    10030    2    1    2    0    0  0.00000000000E+00  0.00000000000E+00  0.41481190178E+03  0.25341065571E+04  0.24999254247E+04 0.  0.
        2    1    3    3  502    0  0.95408036374E+03 -0.70902183968E+03 -0.18443528566E+03  0.12029121681E+04  0.25500000920E-02 0.  1.
       -2    1    3    3    0  502 -0.95408036374E+03  0.70902183968E+03  0.59924718744E+03  0.13311943890E+04  0.25500000920E-02 0. -1.
</event>
<event>
 5   0  0.9768582E-07  0.2499742E+04  0.7818609E-02  0.8403078E-01
        2   -1    0    0  501    0  0.00000000000E+00  0.00000000000E+00  0.17130022968E+04  0.17130022968E+04  0.25500000920E-02 0. -1.
       -2   -1    0    0    0  501  0.00000000000E+00  0.00000000000E+00 -0.91195273375E+03  0.91195273375E+03  0.25500000920E-02 0.  1.
    10030    2    1    2    0    0  0.00000000000E+00  0.00000000000E+00  0.80104956301E+03  0.26249550305E+04  0.24997416886E+04 0.  0.
        3    1    3    3  502    0  0.29906404893E+03 -0.11029055991E+04 -0.13113330847E+03  0.11502330289E+04  0.10100000352E+00 0.  1.
       -3    1    3    3    0  502 -0.29906404893E+03  0.11029055991E+04  0.93218287148E+03  0.14747220016E+04  0.10100000352E+00 0. -1.
</event>
<event>
 5   0  0.8997210E-07  0.2498858E+04  0.7818609E-02  0.8403392E-01
        2   -1    0    0  501    0  0.00000000000E+00  0.00000000000E+00  0.12367679800E+04  0.12367679800E+04  0.25500000920E-02 0. -1.
       -2   -1    0    0    0  501  0.00000000000E+00  0.00000000000E+00 -0.12622201320E+04  0.12622201320E+04  0.25500000920E-02 0.  1.
    10030    2    1    2    0    0  0.00000000000E+00  0.00000000000E+00 -0.25452151991E+02  0.24989881119E+04  0.24988584937E+04 0.  0.
        1    1    3    3  502    0 -0.14988018920E+03 -0.51435424603E+03  0.11160702994E+04  0.12379972838E+04  0.50400001928E-02 0. -1.
       -1    1    3    3    0  502  0.14988018920E+03  0.51435424603E+03 -0.11415224514E+04  0.12609908281E+04  0.50400001928E-02 0.  1.
</event>
<event>
 5   0  0.9768582E-07  0.2499824E+04  0.7818609E-02  0.8403048E-01
        2   -1    0    0  501    0  0.00000000000E+00  0.00000000000E+00  0.99501413953E+03  0.99501413953E+03  0.25500000920E-02 0.  1.
       -2   -1    0    0    0  501  0.00000000000E+00  0.00000000000E+00 -0.15701088882E+04  0.15701088882E+04  0.25500000920E-02 0. -1.
    10030    2    1    2    0    0  0.00000000000E+00  0.00000000000E+00 -0.57509474871E+03  0.25651230278E+04  0.24998244294E+04 0.  0.
        3    1    3    3  502    0 -0.11766910684E+04  0.38774670961E+03 -0.45718714135E+03  0.13205943638E+04  0.10100000352E+00 0.  1.
       -3    1    3    3    0  502  0.11766910684E+04 -0.38774670961E+03 -0.11790760736E+03  0.12445286640E+04  0.10100000352E+00 0. -1.
</event>
<event>
 5   0  0.3991066E-07  0.2500675E+04  0.7818609E-02  0.8402745E-01
        1   -1    0    0  501    0  0.00000000000E+00  0.00000000000E+00  0.20381261350E+04  0.20381261350E+04  0.50400001928E-02 0. -1.
       -1   -1    0    0    0  501  0.00000000000E+00  0.00000000000E+00 -0.76704972740E+03  0.76704972742E+03  0.50400001928E-02 0.  1.
    10030    2    1    2    0    0  0.00000000000E+00  0.00000000000E+00  0.12710764076E+04  0.28051758625E+04  0.25006751859E+04 0.  0.
        1    1    3    3  502    0 -0.69575301172E+03  0.86374640348E+03 -0.11998550949E+02  0.11091772032E+04  0.50400001928E-02 0. -1.
       -1    1    3    3    0  502  0.69575301172E+03 -0.86374640348E+03  0.12830749586E+04  0.16959986593E+04  0.50400001928E-02 0.  1.
</event>
<event>
 5   0  0.9508784E-07  0.2500396E+04  0.7818609E-02  0.8402845E-01
       -2   -1    0    0    0  501  0.00000000000E+00  0.00000000000E+00  0.86068250821E+03  0.86068250821E+03  0.25500000920E-02 0. -1.
        2   -1    0    0  501    0  0.00000000000E+00  0.00000000000E+00 -0.18159945088E+04  0.18159945088E+04  0.25500000920E-02 0.  1.
    10030    2    1    2    0    0  0.00000000000E+00  0.00000000000E+00 -0.95531200060E+03  0.26766770170E+04  0.25003957357E+04 0.  0.
        2    1    3    3  502    0 -0.64969217253E+03 -0.43092828996E+03  0.56858895431E+03  0.96493134943E+03  0.25500000920E-02 0. -1.
       -2    1    3    3    0  502  0.64969217253E+03  0.43092828996E+03 -0.15239009549E+04  0.17117456676E+04  0.25500000920E-02 0.  1.
</event>
<event>
 5   0  0.9508784E-07  0.2499814E+04  0.7818609E-02  0.8403052E-01
        2   -1    0    0  501    0  0.00000000000E+00  0.00000000000E+00  0.30324238541E+04  0.30324238541E+04  0.25500000920E-02 0.  1.
       -2   -1    0    0    0  501  0.00000000000E+00  0.00000000000E+00 -0.51518779143E+03  0.51518779144E+03  0.25500000920E-02 0. -1.
    10030    2    1    2    0    0  0.00000000000E+00  0.00000000000E+00  0.25172360627E+04  0.35476116455E+04  0.24998141916E+04 0.  0.
        2    1    3    3  502    0 -0.41712085175E+03 -0.77691712604E+03  0.25157301239E+04  0.26657997078E+04  0.25500000920E-02 0.  1.
       -2    1    3    3    0  502  0.41712085175E+03  0.77691712604E+03  0.15059387674E+01  0.88181193775E+03  0.25500000920E-02 0. -1.
</event>
<event>
 5   0  0.3991066E-07  0.2498895E+04  0.7818609E-02  0.8403379E-01
       -1   -1    0    0    0  501  0.00000000000E+00  0.00000000000E+00  0.98543379051E+03  0.98543379052E+03  0.50400001928E-02 0.  1.
        1   -1    0    0  501    0  0.00000000000E+00  0.00000000000E+00 -0.15841946403E+04  0.15841946403E+04  0.50400001928E-02 0. -1.
    10030    2    1    2    0    0  0.00000000000E+00  0.00000000000E+00 -0.59876084980E+03  0.25696284308E+04  0.24988948992E+04 0.  0.
        1    1    3    3  502    0 -0.90502061126E+03  0.82898355954E+03 -0.54019483255E+03  0.13409274797E+04  0.50400001928E-02 0.  1.
       -1    1    3    3    0  502  0.90502061126E+03 -0.82898355954E+03 -0.58566017248E+02  0.12287009511E+04  0.50400001928E-02 0. -1.
</event>
<event>
 5   0  0.3805418E-07  0.2500096E+04  0.7818609E-02  0.8402951E-01
        1   -1    0    0  501    0  0.00000000000E+00  0.00000000000E+00  0.12082591116E+04  0.12082591117E+04  0.50400001928E-02 0.  1.
       -1   -1    0    0    0  501  0.00000000000E+00  0.00000000000E+00 -0.12932820887E+04  0.12932820887E+04  0.50400001928E-02 0. -1.
    10030    2    1    2    0    0  0.00000000000E+00  0.00000000000E+00 -0.85022977075E+02  0.25015412004E+04  0.25000958923E+04 0.  0.
        4    1    3    3  502    0  0.36713357566E+03 -0.13344782386E+03  0.11456188130E+04  0.12103881450E+04  0.12699999809E+01 0.  1.
       -4    1    3    3    0  502 -0.36713357566E+03  0.13344782386E+03 -0.12306417900E+04  0.12911530554E+04  0.12699999809E+01 0. -1.
</event>
<event>
 5   0  0.3837524E-07  0.2499065E+04  0.7818609E-02  0.8403319E-01
       -1   -1    0    0    0  501  0.00000000000E+00  0.00000000000E+00  0.18989806831E+04  0.18989806831E+04  0.50400001928E-02 0. -1.
        1   -1    0    0  501    0  0.00000000000E+00  0.00000000000E+00 -0.82219435517E+03  0.82219435519E+03  0.50400001928E-02 0.  1.
    10030    2    1    2    0    0  0.00000000000E+00  0.00000000000E+00  0.10767863279E+04  0.27211750383E+04  0.24990647837E+04 0.  0.
        5    1    3    3  502    0 -0.39095569288E+03 -0.66234994943E+03 -0.53389137634E+03  0.93627768372E+03  0.46999998093E+01 0.  1.
       -5    1    3    3    0  502  0.39095569288E+03  0.66234994943E+03  0.16106777043E+04  0.17848973546E+04  0.46999998093E+01 0. -1.
</event>
<event>
 5   0  0.9261602E-07  0.2499962E+04  0.7818609E-02  0.8402999E-01
       -2   -1    0    0    0  501  0.00000000000E+00  0.00000000000E+00  0.73068183949E+03  0.73068183950E+03  0.25500000920E-02 0.  1.
        2   -1    0    0  501    0  0.00000000000E+00  0.00000000000E+00 -0.21383483747E+04  0.21383483747E+04  0.25500000920E-02 0. -1.
    10030    2    1    2    0    0  0.00000000000E+00  0.00000000000E+00 -0.14076665352E+04  0.28690302142E+04  0.24999618588E+04 0.  0.
        4    1    3    3  502    0  0.55552244715E+03  0.40627077917E+03  0.49366175286E+03  0.84697383338E+03  0.12699999809E+01 0.  1.
       -4    1    3    3    0  502 -0.55552244715E+03 -0.40627077917E+03 -0.19013282881E+04  0.20220563808E+04  0.12699999809E+01 0. -1.
</event>
<event>
 5   0  0.3837524E-07  0.2500581E+04  0.7818609E-02  0.8402779E-01
        1   -1    0    0  501    0  0.00000000000E+00  0.00000000000E+00  0.14830111965E+04  0.14830111966E+04  0.50400001928E-02 0. -1.
       -1   -1    0    0    0  501  0.00000000000E+00  0.00000000000E+00 -0.10540895016E+04  0.10540895016E+04  0.50400001928E-02 0.  1.
    10030    2    1    2    0    0  0.00000000000E+00  0.00000000000E+00  0.42892169495E+03  0.25371006982E+04  0.25005811589E+04 0.  0.
        5    1    3    3  502    0  0.80334205612E+03  0.68604671098E+03 -0.46402500796E+03  0.11538456772E+04  0.46999998093E+01 0.  1.
       -5    1    3    3    0  502 -0.80334205612E+03 -0.68604671098E+03  0.89294670291E+03  0.13832550210E+04  0.46999998093E+01 0. -1.
</event>
<event>
 5   0  0.8997210E-07  0.2498749E+04  0.7818609E-02  0.8403432E-01
       -2   -1    0    0    0  501  0.00000000000E+00  0.00000000000E+00  0.67652064129E+03  0.67652064129E+03  0.25500000920E-02 0.  1.
        2   -1    0    0  501    0  0.00000000000E+00  0.00000000000E+00 -0.23072999594E+04  0.23072999594E+04  0.25500000920E-02 0. -1.
    10030    2    1    2    0    0  0.00000000000E+00  0.00000000000E+00 -0.16307793181E+04  0.29838206007E+04  0.24987485253E+04 0.  0.
        1    1    3    3  502    0 -0.32616223668E+03  0.74621769247E+03  0.31601773049E+03  0.87355014465E+03  0.50400001928E-02 0.  1.
       -1    1    3    3    0  502  0.32616223668E+03 -0.74621769247E+03 -0.19467970486E+04  0.21102704561E+04  0.50400001928E-02 0. -1.
</event>
<event>
 5   0  0.3837524E-07  0.2499130E+04  0.7818609E-02  0.8403296E-01
       -1   -1    0    0    0  501  0.00000000000E+00  0.00000000000E+00  0.17789999884E+04  0.17789999885E+04  0.50400001928E-02 0.  1.
        1   -1    0    0  501    0  0.00000000000E+00  0.00000000000E+00 -0.87769124206E+03  0.87769124207E+03  0.50400001928E-02 0. -1.
    10030    2    1    2    0    0  0.00000000000E+00  0.00000000000E+00  0.90130874639E+03  0.26566912305E+04  0.24991300162E+04 0.  0.
        5    1    3    3  502    0 -0.13698817212E+03 -0.12388516142E+04  0.35633909809E+03  0.12963482264E+04  0.46999998093E+01 0.  1.
       -5    1    3    3    0  502  0.13698817212E+03  0.12388516142E+04  0.54496964829E+03  0.13603430041E+04  0.46999998093E+01 0. -1.
</event>
<event>
 5   0  0.3972587E-07  0.2500182E+04  0.7818609E-02  0.8402921E-01
       -1   -1    0    0    0  501  0.00000000000E+00  0.00000000000E+00  0.10699272603E+04  0.10699272604E+04  0.50400001928E-02 0. -1.
        1   -1    0    0  501    0  0.00000000000E+00  0.00000000000E+00 -0.14605922750E+04  0.14605922750E+04  0.50400001928E-02 0.  1.
    10030    2    1    2    0    0  0.00000000000E+00  0.00000000000E+00 -0.39066501465E+03  0.25305195354E+04  0.25001819864E+04 0.  0.
        3    1    3    3  502    0  0.11176471639E+04 -0.16613140483E+03 -0.73660444528E+03  0.13488220586E+04  0.10100000352E+00 0.  1.
       -3    1    3    3    0  502 -0.11176471639E+04  0.16613140483E+03  0.34593943062E+03  0.11816974768E+04  0.10100000352E+00 0. -1.
</event>
<event>
 5   0  0.3972587E-07  0.2499775E+04  0.7818609E-02  0.8403066E-01
       -1   -1    0    0    0  501  0.00000000000E+00  0.00000000000E+00  0.11198810954E+04  0.11198810954E+04  0.50400001928E-02 0. -1.
        1   -1    0    0  501    0  0.00000000000E+00  0.00000000000E+00 -0.13949862026E+04  0.13949862026E+04  0.50400001928E-02 0.  1.
    10030    2    1    2    0    0  0.00000000000E+00  0.00000000000E+00 -0.27510510721E+03  0.25148672980E+04  0.24997749312E+04 0.  0.
        3    1    3    3  502    0 -0.49607668609E+03 -0.32701666867E+03 -0.12438218104E+04  0.13784501029E+04  0.10100000352E+00 0.  1.
       -3    1    3    3    0  502  0.49607668609E+03  0.32701666867E+03  0.96871670319E+03  0.11364171951E+04  0.10100000352E+00 0. -1.
</event>
<event>
 5   0  0.3837524E-07  0.2500240E+04  0.7818609E-02  0.8402900E-01
        1   -1    0    0  501    0  0.00000000000E+00  0.00000000000E+00  0.81904134090E+03  0.81904134092E+03  0.50400001928E-02 0. -1.
       -1   -1    0    0    0  501  0.00000000000E+00  0.00000000000E+00 -0.19080842861E+04  0.19080842861E+04  0.50400001928E-02 0.  1.
    10030    2    1    2    0    0  0.00000000000E+00  0.00000000000E+00 -0.10890429452E+04  0.27271256270E+04  0.25002399183E+04 0.  0.
        5    1    3    3  502    0 -0.11885474705E+04  0.10457390913E+03 -0.13757391674E+03  0.12010534812E+04  0.46999998093E+01 0. -1.
       -5    1    3    3    0  502  0.11885474705E+04 -0.10457390913E+03 -0.95146902847E+03  0.15260721458E+04  0.46999998093E+01 0.  1.
</event>
<event>
 5   0  0.9261602E-07  0.2501025E+04  0.7818609E-02  0.8402620E-01
        2   -1    0    0  501    0  0.00000000000E+00  0.00000000000E+00  0.17789002217E+04  0.17789002217E+04  0.25500000920E-02 0. -1.
       -2   -1    0    0    0  501  0.00000000000E+00  0.00000000000E+00 -0.87907205949E+03  0.87907205950E+03  0.25500000920E-02 0.  1.
    10030    2    1    2    0    0  0.00000000000E+00  0.00000000000E+00  0.89982816219E+03  0.26579722812E+04  0.25010249751E+04 0.  0.
        4    1    3    3  502    0  0.22897007898E+03 -0.12106342044E+04  0.67714799830E+03  0.14059137593E+04  0.12699999809E+01 0. -1.
       -4    1    3    3    0  502 -0.22897007898E+03  0.12106342044E+04  0.22268016389E+03  0.12520585219E+04  0.12699999809E+01 0.  1.
</event>
<event>
 5   0  0.9768582E-07  0.2500134E+04  0.7818609E-02  0.8402938E-01
        2   -1    0    0  501    0  0.00000000000E+00  0.00000000000E+00  0.14513223129E+04  0.14513223129E+04  0.25500000920E-02 0. -1.
       -2   -1    0    0    0  501  0.00000000000E+00  0.00000000000E+00 -0.10767198243E+04  0.10767198243E+04  0.25500000920E-02 0.  1.
    10030    2    1    2    0    0  0.00000000000E+00  0.00000000000E+00  0.37460248867E+03  0.25280421372E+04  0.25001340010E+04 0.  0.
        3    1    3    3  502    0 -0.33160249173E+03  0.13761114403E+03  0.13980689694E+04  0.14434312914E+04  0.10100000352E+00 0. -1.
       -3    1    3    3    0  502  0.33160249173E+03 -0.13761114403E+03 -0.10234664807E+04  0.10846108458E+04  0.10100000352E+00 0.  1.
</event>
<event>
 5   0  0.9508784E-07  0.2501116E+04  0.7818609E-02  0.8402588E-01
       -2   -1    0    0    0  501  0.00000000000E+00  0.00000000000E+00  0.72361297201E+03  0.72361297201E+03  0.25500000920E-02 0. -1.
        2   -1    0    0  501    0  0.00000000000E+00  0.00000000000E+00 -0.21612322466E+04  0.21612322466E+04  0.25500000920E-02 0.  1.
    10030    2    1    2    0    0  0.00000000000E+00  0.00000000000E+00 -0.14376192746E+04  0.28848452186E+04  0.25011163021E+04 0.  0.
        2    1    3    3  502    0 -0.98255029166E+03 -0.50747916308E+03 -0.45309810872E+02  0.11067940891E+04  0.25500000920E-02 0. -1.
       -2    1    3    3    0  502  0.98255029166E+03  0.50747916308E+03 -0.13923094638E+04  0.17780511296E+04  0.25500000920E-02 0.  1.
</event>
<event>
 5   0  0.8997210E-07  0.2498136E+04  0.7818609E-02  0.8403650E-01
        2   -1    0    0  501    0  0.00000000000E+00  0.00000000000E+00  0.17434911034E+04  0.17434911034E+04  0.25500000920E-02 0.  1.
       -2   -1    0    0    0  501  0.00000000000E+00  0.00000000000E+00 -0.89485455595E+03  0.89485455596E+03  0.25500000920E-02 0. -1.
    10030    2    1    2    0    0  0.00000000000E+00  0.00000000000E+00  0.84863654747E+03  0.26383456594E+04  0.24981360709E+04 0.  0.
        1    1    3    3  502    0 -0.20469099628E+03  0.38099419733E+03  0.16618866780E+04  0.17172426482E+04  0.50400001928E-02 0.  1.
       -1    1    3    3    0  502  0.20469099628E+03 -0.38099419733E+03 -0.81325013052E+03  0.92110301116E+03  0.50400001928E-02 0. -1.
</event>
<event>
 5   0  0.9251138E-07  0.2499477E+04  0.7818609E-02  0.8403172E-01
       -2   -1    0    0    0  501  0.00000000000E+00  0.00000000000E+00  0.82058019843E+03  0.82058019843E+03  0.25500000920E-02 0. -1.
        2   -1    0    0  501    0  0.00000000000E+00  0.00000000000E+00 -0.19033442342E+04  0.19033442342E+04  0.25500000920E-02 0.  1.
    10030    2    1    2    0    0  0.00000000000E+00  0.00000000000E+00 -0.10827640357E+04  0.27239244326E+04  0.24994772168E+04 0.  0.
        5    1    3    3  502    0 -0.94611911644E+03  0.67753343214E+03 -0.44798201701E+02  0.11645694067E+04  0.46999998093E+01 0. -1.
       -5    1    3    3    0  502  0.94611911644E+03 -0.67753343214E+03 -0.10379658340E+04  0.15593550259E+04  0.46999998093E+01 0.  1.
</event>
<event>
 5   0  0.9768582E-07  0.2501301E+04  0.7818609E-02  0.8402522E-01
        2   -1    0    0  501    0  0.00000000000E+00  0.00000000000E+00  0.19177041335E+04  0.19177041335E+04  0.25500000920E-02 0.  1.
       -2   -1    0    0    0  501  0.00000000000E+00  0.00000000000E+00 -0.81562455676E+03  0.81562455677E+03  0.25500000920E-02 0. -1.
    10030    2    1    2    0    0  0.00000000000E+00  0.00000000000E+00  0.11020795767E+04  0.27333286902E+04  0.25013009286E+04 0.  0.
        3    1    3    3  502    0  0.10683133314E+04 -0.18023949994E+03 -0.13169384101E+03  0.10913857839E+04  0.10100000352E+00 0. -1.
       -3    1    3    3    0  502 -0.10683133314E+04  0.18023949994E+03  0.12337734177E+04  0.16419429064E+04  0.10100000352E+00 0.  1.
</event>
<event>
 5   0  0.3991066E-07  0.2500081E+04  0.7818609E-02  0.8402957E-01
        1   -1    0    0  501    0  0.00000000000E+00  0.00000000000E+00  0.11846858999E+04  0.11846858999E+04  0.50400001928E-02 0. -1.
       -1   -1    0    0    0  501  0.00000000000E+00  0.00000000000E+00 -0.13190001876E+04  0.13190001876E+04  0.50400001928E-02 0.  1.
    10030    2    1    2    0    0  0.00000000000E+00  0.00000000000E+00 -0.13431428772E+03  0.25036860875E+04  0.25000807381E+04 0.  0.
        1    1    3    3  502    0  0.57788459915E+03  0.34190644629E+03 -0.11230733827E+04  0.13084893774E+04  0.50400001928E-02 0.  1.
       -1    1    3    3    0  502 -0.57788459915E+03 -0.34190644629E+03  0.98875909494E+03  0.11951967101E+04  0.50400001928E-02 0. -1.
</event>
<event>
 5   0  0.3972587E-07  0.2499993E+04  0.7818609E-02  0.8402988E-01
       -1   -1    0    0    0  501  0.00000000000E+00  0.00000000000E+00  0.87564427075E+03  0.87564427076E+03  0.50400001928E-02 0.  1.
        1   -1    0    0  501    0  0.00000000000E+00  0.00000000000E+00 -0.17843904629E+04  0.17843904629E+04  0.50400001928E-02 0. -1.
    10030    2    1    2    0    0  0.00000000000E+00  0.00000000000E+00 -0.90874619217E+03  0.26600347337E+04  0.24999930285E+04 0.  0.
        3    1    3    3  502    0 -0.99752864416E+03 -0.29385856961E+03  0.28362444274E+03  0.10778956766E+04  0.10100000352E+00 0.  1.
       -3    1    3    3    0  502  0.99752864416E+03  0.29385856961E+03 -0.11923706349E+04  0.15821390571E+04  0.10100000352E+00 0. -1.
</event>
<event>
 5   0  0.3837524E-07  0.2501160E+04  0.7818609E-02  0.8402572E-01
        1   -1    0    0  501    0  0.00000000000E+00  0.00000000000E+00  0.17004410127E+04  0.17004410127E+04  0.50400001928E-02 0.  1.
       -1   -1    0    0    0  501  0.00000000000E+00  0.00000000000E+00 -0.91973227729E+03  0.91973227730E+03  0.50400001928E-02 0. -1.
    10030    2    1    2    0    0  0.00000000000E+00  0.00000000000E+00  0.78070873541E+03  0.26201732900E+04  0.25011601188E+04 0.  0.
        5    1    3    3  502    0  0.21650405222E+03  0.11919886877E+04  0.71530339071E+03  0.14069086918E+04  0.46999998093E+01 0.  1.
       -5    1    3    3    0  502 -0.21650405222E+03 -0.11919886877E+04  0.65405344702E+02  0.12132645982E+04  0.46999998093E+01 0. -1.
</event>
<event>
 5   0  0.3972587E-07  0.2502740E+04  0.7818609E-02  0.8402010E-01
       -1   -1    0    0    0  501  0.00000000000E+00  0.00000000000E+00  0.85979744320E+03  0.85979744322E+03  0.50400001928E-02 0. -1.
        1   -1    0    0  501    0  0.00000000000E+00  0.00000000000E+00 -0.18212736599E+04  0.18212736599E+04  0.50400001928E-02 0.  1.
    10030    2    1    2    0    0  0.00000000000E+00  0.00000000000E+00 -0.96147621671E+03  0.26810711031E+04  0.25027396478E+04 0.  0.
        3    1    3    3  502    0 -0.12097458539E+04  0.11256046723E+03 -0.80170629352E+03  0.14556400246E+04  0.10100000352E+00 0.  1.
       -3    1    3    3    0  502  0.12097458539E+04 -0.11256046723E+03 -0.15976992319E+03  0.12254310786E+04  0.10100000352E+00 0. -1.
</event>
<event>
 5   0  0.9508784E-07  0.2499844E+04  0.7818609E-02  0.8403041E-01
       -2   -1    0    0    0  501  0.00000000000E+00  0.00000000000E+00  0.18017211579E+04  0.18017211579E+04  0.25500000920E-02 0. -1.
        2   -1    0    0  501    0  0.00000000000E+00  0.00000000000E+00 -0.86711780485E+03  0.86711780485E+03  0.25500000920E-02 0.  1.
    10030    2    1    2    0    0  0.00000000000E+00  0.00000000000E+00  0.93460335303E+03  0.26688389627E+04  0.24998435914E+04 0.  0.
        2    1    3    3  502    0  0.42224369526E+03 -0.31479270590E+03  0.16774751504E+04  0.17582113258E+04  0.25500000920E-02 0. -1.
       -2    1    3    3    0  502 -0.42224369526E+03  0.31479270590E+03 -0.74287179736E+03  0.91062763696E+03  0.25500000920E-02 0.  1.
</event>
<event>
 5   0  0.9768582E-07  0.2501472E+04  0.7818609E-02  0.8402461E-01
       -2   -1    0    0    0  501  0.00000000000E+00  0.00000000000E+00  0.86187341656E+03  0.86187341656E+03  0.25500000920E-02 0.  1.
        2   -1    0    0  501    0  0.00000000000E+00  0.00000000000E+00 -0.18150464917E+04  0.18150464917E+04  0.25500000920E-02 0. -1.
    10030    2    1    2    0    0  0.00000000000E+00  0.00000000000E+00 -0.95317307511E+03  0.26769199082E+04  0.25014718235E+04 0.  0.
        3    1    3    3  502    0 -0.55386909385E+03 -0.96694849511E+03 -0.10843833866E+04  0.15548786784E+04  0.10100000352E+00 0.  1.
       -3    1    3    3    0  502  0.55386909385E+03  0.96694849511E+03  0.13121031149E+03  0.11220412298E+04  0.10100000352E+00 0. -1.
</event>
<event>
 5   0  0.3972587E-07  0.2499585E+04  0.7818609E-02  0.8403133E-01
        1   -1    0    0  501    0  0.00000000000E+00  0.00000000000E+00  0.22837008277E+04  0.22837008277E+04  0.50400001928E-02 0. -1.
       -1   -1    0    0    0  501  0.00000000000E+00  0.00000000000E+00 -0.68396950618E+03  0.68396950620E+03  0.50400001928E-02 0.  1.
    10030    2    1    2    0    0  0.00000000000E+00  0.00000000000E+00  0.15997313215E+04  0.29676703339E+04  0.24995853475E+04 0.  0.
        3    1    3    3  502    0  0.82628989216E+03 -0.78659973687E+03  0.19390950731E+03  0.11571927407E+04  0.10100000352E+00 0. -1.
       -3    1    3    3    0  502 -0.82628989216E+03  0.78659973687E+03  0.14058218142E+04  0.18104775932E+04  0.10100000352E+00 0.  1.
</event>
<event>
 5   0  0.3873231E-07  0.2499496E+04  0.7818609E-02  0.8403165E-01
        1   -1    0    0  501    0  0.00000000000E+00  0.00000000000E+00  0.10664173067E+04  0.10664173067E+04  0.50400001928E-02 0. -1.
       -1   -1    0    0    0  501  0.00000000000E+00  0.00000000000E+00 -0.14645955185E+04  0.14645955185E+04  0.50400001928E-02 0.  1.
    10030    2    1    2    0    0  0.00000000000E+00  0.00000000000E+00 -0.39817821181E+03  0.25310128251E+04  0.24994959557E+04 0.  0.
        2    1    3    3  502    0 -0.82717363054E+03  0.15959428980E+03 -0.11338670499E+04  0.14125654106E+04  0.25500000920E-02 0.  1.
       -2    1    3    3    0  502  0.82717363054E+03 -0.15959428980E+03  0.73568883814E+03  0.11184474145E+04  0.25500000920E-02 0. -1.
</event>
<event>
 5   0  0.9508784E-07  0.2500377E+04  0.7818609E-02  0.8402851E-01
       -2   -1    0    0    0  501  0.00000000000E+00  0.00000000000E+00  0.14944136314E+04  0.14944136314E+04  0.25500000920E-02 0. -1.
        2   -1    0    0  501    0  0.00000000000E+00  0.00000000000E+00 -0.10458755497E+04  0.10458755497E+04  0.25500000920E-02 0.  1.
    10030    2    1    2    0    0  0.00000000000E+00  0.00000000000E+00  0.44853808170E+03  0.25402891811E+04  0.25003765142E+04 0.  0.
        2    1    3    3  502    0  0.75554149503E+03 -0.23208176318E+03  0.12083723380E+04  0.14439074079E+04  0.25500000920E-02 0. -1.
       -2    1    3    3    0  502 -0.75554149503E+03  0.23208176318E+03 -0.75983425629E+03  0.10963817732E+04  0.25500000920E-02 0.  1.
</event>
<event>
 5   0  0.3805418E-07  0.2500242E+04  0.7818609E-02  0.8402899E-01
       -1   -1    0    0    0  501  0.00000000000E+00  0.00000000000E+00  0.92527694942E+03  0.92527694943E+03  0.50400001928E-02 0. -1.
        1   -1    0    0  501    0  0.00000000000E+00  0.00000000000E+00 -0.16890100892E+04  0.16890100892E+04  0.50400001928E-02 0.  1.
    10030    2    1    2    0    0  0.00000000000E+00  0.00000000000E+00 -0.76373313978E+03  0.26142870386E+04  0.25002416706E+04 0.  0.
        4    1    3    3  502    0 -0.19684820887E+02 -0.31212196749E+03 -0.16474449200E+04  0.16768673150E+04  0.12699999809E+01 0.  1.
       -4    1    3    3    0  502  0.19684820887E+02  0.31212196749E+03  0.88371178025E+03  0.93741972361E+03  0.12699999809E+01 0. -1.
</event>
<event>
 5   0  0.8997210E-07  0.2499766E+04  0.7818609E-02  0.8403069E-01
        2   -1    0    0  501    0  0.00000000000E+00  0.00000000000E+00  0.16218829922E+04  0.16218829922E+04  0.25500000920E-02 0. -1.
       -2   -1    0    0    0  501  0.00000000000E+00  0.00000000000E+00 -0.96320593767E+03  0.96320593768E+03  0.25500000920E-02 0.  1.
    10030    2    1    2    0    0  0.00000000000E+00  0.00000000000E+00  0.65867705448E+03  0.25850889298E+04  0.24997658516E+04 0.  0.
        1    1    3    3  502    0 -0.55088834936E+02 -0.11485298359E+04 -0.17733546016E+03  0.11634446395E+04  0.50400001928E-02 0.  1.
       -1    1    3    3    0  502  0.55088834936E+02  0.11485298359E+04  0.83601251465E+03  0.14216442904E+04  0.50400001928E-02 0. -1.
</event>
<event>
 5   0  0.3805418E-07  0.2499823E+04  0.7818609E-02  0.8403049E-01
       -1   -1    0    0    0  501  0.00000000000E+00  0.00000000000E+00  0.11325635435E+04  0.11325635435E+04  0.50400001928E-02 0.  1.
        1   -1    0    0  501    0  0.00000000000E+00  0.00000000000E+00 -0.13794179351E+04  0.13794179351E+04  0.50400001928E-02 0. -1.
    10030    2    1    2    0    0  0.00000000000E+00  0.00000000000E+00 -0.24685439158E+03  0.25119814787E+04  0.24998227654E+04 0.  0.
        4    1    3    3  502    0  0.68182743699E+03  0.32000975480E+03 -0.11257666289E+04  0.13544914222E+04  0.12699999809E+01 0. -1.
       -4    1    3    3    0  502 -0.68182743699E+03 -0.32000975480E+03  0.87891223737E+03  0.11574900565E+04  0.12699999809E+01 0.  1.
</event>
<event>
 5   0  0.3972587E-07  0.2500762E+04  0.7818609E-02  0.8402714E-01
       -1   -1    0    0    0  501  0.00000000000E+00  0.00000000000E+00  0.10874489220E+04  0.10874489220E+04  0.50400001928E-02 0. -1.
        1   -1    0    0  501    0  0.00000000000E+00  0.00000000000E+00 -0.14377249876E+04  0.14377249876E+04  0.50400001928E-02 0.  1.
    10030    2    1    2    0    0  0.00000000000E+00  0.00000000000E+00 -0.35027606563E+03  0.25251739096E+04  0.25007618742E+04 0.  0.
        3    1    3    3  502    0  0.11784601418E+03 -0.52010868467E+03 -0.13171299028E+04  0.14209968044E+04  0.10100000352E+00 0.  1.
       -3    1    3    3    0  502 -0.11784601418E+03  0.52010868467E+03  0.96685383721E+03  0.11041771052E+04  0.10100000352E+00 0. -1.
</event>
<event>
 5   0  0.3873231E-07  0.2500658E+04  0.7818609E-02  0.8402751E-01
       -1   -1    0    0    0  501  0.00000000000E+00  0.00000000000E+00  0.12339566020E+04  0.12339566020E+04  0.50400001928E-02 0. -1.
        1   -1    0    0  501    0  0.00000000000E+00  0.00000000000E+00 -0.12669188124E+04  0.12669188124E+04  0.50400001928E-02 0.  1.
    10030    2    1    2    0    0  0.00000000000E+00  0.00000000000E+00 -0.32962210422E+02  0.25008754144E+04  0.25006581795E+04 0.  0.
        2    1    3    3  502    0 -0.11275685598E+03 -0.63245847995E+02  0.12272541599E+04  0.12340449420E+04  0.25500000920E-02 0. -1.
       -2    1    3    3    0  502  0.11275685598E+03  0.63245847995E+02 -0.12602163703E+04  0.12668304724E+04  0.25500000920E-02 0.  1.
</event>
<event>
 5   0  0.8997210E-07  0.2501827E+04  0.7818609E-02  0.8402335E-01
        2   -1    0    0  501    0  0.00000000000E+00  0.00000000000E+00  0.11029755892E+04  0.11029755892E+04  0.25500000920E-02 0.  1.
       -2   -1    0    0    0  501  0.00000000000E+00  0.00000000000E+00 -0.14186935899E+04  0.14186935899E+04  0.25500000920E-02 0. -1.
    10030    2    1    2    0    0  0.00000000000E+00  0.00000000000E+00 -0.31571800078E+03  0.25216691791E+04  0.25018268511E+04 0.  0.
        1    1    3    3  502    0  0.11511127018E+04  0.45599999181E+03 -0.33756482126E+03  0.12833341160E+04  0.50400001928E-02 0. -1.
       -1    1    3    3    0  502 -0.11511127018E+04 -0.45599999181E+03  0.21846820480E+02  0.12383350631E+04  0.50400001928E-02 0.  1.
</event>
<event>
 5   0  0.9251138E-07  0.2504103E+04  0.7818609E-02  0.8401525E-01
        2   -1    0    0  501    0  0.00000000000E+00  0.00000000000E+00  0.64845132547E+03  0.64845132547E+03  0.25500000920E-02 0.  1.
       -2   -1    0    0    0  501  0.00000000000E+00  0.00000000000E+00 -0.24175027223E+04  0.24175027223E+04  0.25500000920E-02 0. -1.
    10030    2    1    2    0    0  0.00000000000E+00  0.00000000000E+00 -0.17690513968E+04  0.30659540478E+04  0.25041029089E+04 0.  0.
        5    1    3    3  502    0 -0.53094970078E+03 -0.94073805561E+03 -0.16595785388E+04  0.19801814792E+04  0.46999998093E+01 0. -1.
       -5    1    3    3    0  502  0.53094970078E+03  0.94073805561E+03 -0.10947285800E+03  0.10857725686E+04  0.46999998093E+01 0.  1.
</event>
<event>
 5   0  0.3837524E-07  0.2500786E+04  0.7818609E-02  0.8402706E-01
        1   -1    0    0  501    0  0.00000000000E+00  0.00000000000E+00  0.13798357758E+04  0.13798357758E+04  0.50400001928E-02 0.  1.
       -1   -1    0    0    0  501  0.00000000000E+00  0.00000000000E+00 -0.11330931833E+04  0.11330931833E+04  0.50400001928E-02 0. -1.
    10030    2    1    2    0    0  0.00000000000E+00  0.00000000000E+00  0.24674259249E+03  0.25129289591E+04  0.25007858858E+04 0.  0.
        5    1    3    3  502    0 -0.26393829256E+03 -0.52686454347E+03  0.12315457157E+04  0.13652752870E+04  0.46999998093E+01 0.  1.
       -5    1    3    3    0  502  0.26393829256E+03  0.52686454347E+03 -0.98480312325E+03  0.11476536721E+04  0.46999998093E+01 0. -1.
</event>
<event>
 5   0  0.9261602E-07  0.2499934E+04  0.7818609E-02  0.8403009E-01
        2   -1    0    0  501    0  0.00000000000E+00  0.00000000000E+00  0.23744040413E+04  0.23744040413E+04  0.25500000920E-02 0. -1.
       -2   -1    0    0    0  501  0.00000000000E+00  0.00000000000E+00 -0.65802503171E+03  0.65802503172E+03  0.25500000920E-02 0.  1.
    10030    2    1    2    0    0  0.00000000000E+00  0.00000000000E+00  0.17163790096E+04  0.30324290730E+04  0.24999338348E+04 0.  0.
        4    1    3    3  502    0  0.10645360569E+04 -0.43079498834E+03  0.25950814465E+03  0.11773561180E+04  0.12699999809E+01 0.  1.
       -4    1    3    3    0  502 -0.10645360569E+04  0.43079498834E+03  0.14568708649E+04  0.18550729550E+04  0.12699999809E+01 0. -1.
</event>
<event>
 5   0  0.3991066E-07  0.2502829E+04  0.7818609E-02  0.8401978E-01
        1   -1    0    0  501    0  0.00000000000E+00  0.00000000000E+00  0.11636991826E+04  0.11636991826E+04  0.50400001928E-02 0.  1.
       -1   -1    0    0    0  501  0.00000000000E+00  0.00000000000E+00 -0.13457411591E+04  0.13457411591E+04  0.50400001928E-02 0. -1.
    10030    2    1    2    0    0  0.00000000000E+00  0.00000000000E+00 -0.18204197652E+03  0.25094403417E+04  0.25028287092E+04 0.  0.
        1    1    3    3  502    0 -0.31335726041E+03  0.11824183607E+04 -0.35578661645E+03  0.12739270265E+04  0.50400001928E-02 0. -1.
       -1    1    3    3    0  502  0.31335726041E+03 -0.11824183607E+04  0.17374463993E+03  0.12355133153E+04  0.50400001928E-02 0.  1.
</event>
<event>
 5   0  0.3837524E-07  0.2499692E+04  0.7818609E-02  0.8403095E-01
        1   -1    0    0  501    0  0.00000000000E+00  0.00000000000E+00  0.20491456975E+04  0.20491456975E+04  0.50400001928E-02 0.  1.
       -1   -1    0    0    0  501  0.00000000000E+00  0.00000000000E+00 -0.76232527165E+03  0.76232527167E+03  0.50400001928E-02 0. -1.
    10030    2    1    2    0    0  0.00000000000E+00  0.00000000000E+00  0.12868204258E+04  0.28114709692E+04  0.24996924215E+04 0.  0.
        5    1    3    3  502    0 -0.83543817740E+03 -0.92597407226E+03  0.55128877545E+03  0.13635711696E+04  0.46999998093E+01 0. -1.
       -5    1    3    3    0  502  0.83543817740E+03  0.92597407226E+03  0.73553165038E+03  0.14478997995E+04  0.46999998093E+01 0.  1.
</event>
<event>
 5   0  0.3873231E-07  0.2498464E+04  0.7818609E-02  0.8403533E-01
       -1   -1    0    0    0  501  0.00000000000E+00  0.00000000000E+00  0.11629804086E+04  0.11629804086E+04  0.50400001928E-02 0.  1.
        1   -1    0    0  501    0  0.00000000000E+00  0.00000000000E+00 -0.13418803888E+04  0.13418803888E+04  0.50400001928E-02 0. -1.
    10030    2    1    2    0    0  0.00000000000E+00  0.00000000000E+00 -0.17889998017E+03  0.25048607975E+04  0.24984640105E+04 0.  0.
        2    1    3    3  502    0  0.31272229074E+03  0.68130855810E+03  0.91241027652E+03  0.11808764098E+04  0.25500000920E-02 0.  1.
       -2    1    3    3    0  502 -0.31272229074E+03 -0.68130855810E+03 -0.10913102567E+04  0.13239843877E+04  0.25500000920E-02 0. -1.
</event>
<event>
 5   0  0.3873231E-07  0.2500302E+04  0.7818609E-02  0.8402878E-01
        1   -1    0    0  501    0  0.00000000000E+00  0.00000000000E+00  0.21548701808E+04  0.21548701808E+04  0.50400001928E-02 0.  1.
       -1   -1    0    0    0  501  0.00000000000E+00  0.00000000000E+00 -0.72527670553E+03  0.72527670555E+03  0.50400001928E-02 0. -1.
    10030    2    1    2    0    0  0.00000000000E+00  0.00000000000E+00  0.14295934753E+04  0.28801468863E+04  0.25003016983E+04 0.  0.
        2    1    3    3  502    0  0.62881507643E+03  0.52490555484E+03  0.18027011761E+04  0.19800671130E+04  0.25500000920E-02 0.  1.
       -2    1    3    3    0  502 -0.62881507643E+03 -0.52490555484E+03 -0.37310770085E+03  0.90007977329E+03  0.25500000920E-02 0. -1.
</event>
<event>
 5   0  0.3837524E-07  0.2500417E+04  0.7818609E-02  0.8402837E-01
       -1   -1    0    0    0  501  0.00000000000E+00  0.00000000000E+00  0.94701321243E+03  0.94701321244E+03  0.50400001928E-02 0. -1.
        1   -1    0    0  501    0  0.00000000000E+00  0.00000000000E+00 -0.16504745798E+04  0.16504745798E+04  0.50400001928E-02 0.  1.
    10030    2    1    2    0    0  0.00000000000E+00  0.00000000000E+00 -0.70346136738E+03  0.25974877923E+04  0.25004169523E+04 0.  0.
        5    1    3    3  502    0 -0.63570678789E+03 -0.10747305559E+04 -0.28743897320E+03  0.12813321744E+04  0.46999998093E+01 0. -1.
       -5    1    3    3    0  502  0.63570678789E+03  0.10747305559E+04 -0.41602239418E+03  0.13161556178E+04  0.46999998093E+01 0.  1.
</event>
<event>
 5   0  0.3837524E-07  0.2499218E+04  0.7818609E-02  0.8403264E-01
        1   -1    0    0  501    0  0.00000000000E+00  0.00000000000E+00  0.16029325778E+04  0.16029325779E+04  0.50400001928E-02 0.  1.
       -1   -1    0    0    0  501  0.00000000000E+00  0.00000000000E+00 -0.97416625372E+03  0.97416625373E+03  0.50400001928E-02 0. -1.
    10030    2    1    2    0    0  0.00000000000E+00  0.00000000000E+00  0.62876632412E+03  0.25770988316E+04  0.24992181372E+04 0.  0.
        5    1    3    3  502    0 -0.46638816463E+03  0.84103644759E+03 -0.50837849518E+03  0.10878101905E+04  0.46999998093E+01 0. -1.
       -5    1    3    3    0  502  0.46638816463E+03 -0.84103644759E+03  0.11371448193E+04  0.14892886410E+04  0.46999998093E+01 0.  1.
</event>
<event>
 5   0  0.3873231E-07  0.2505441E+04  0.7818609E-02  0.8401050E-01
       -1   -1    0    0    0  501  0.00000000000E+00  0.00000000000E+00  0.11713050074E+04  0.11713050074E+04  0.50400001928E-02 0.  1.
        1   -1    0    0  501    0  0.00000000000E+00  0.00000000000E+00 -0.13397952037E+04  0.13397952037E+04  0.50400001928E-02 0. -1.
    10030    2    1    2    0    0  0.00000000000E+00  0.00000000000E+00 -0.16849019634E+03  0.25111002111E+04  0.25054411436E+04 0.  0.
        2    1    3    3  502    0  0.45525528879E+03 -0.93679013586E+03 -0.78186014043E+03  0.13023587892E+04  0.25500000920E-02 0. -1.
       -2    1    3    3    0  502 -0.45525528879E+03  0.93679013586E+03  0.61336994410E+03  0.12087414219E+04  0.25500000920E-02 0.  1.
</event>
<event>
 5   0  0.3873231E-07  0.2499798E+04  0.7818609E-02  0.8403058E-01
       -1   -1    0    0    0  501  0.00000000000E+00  0.00000000000E+00  0.78041903562E+03  0.78041903564E+03  0.50400001928E-02 0. -1.
        1   -1    0    0  501    0  0.00000000000E+00  0.00000000000E+00 -0.20018056008E+04  0.20018056008E+04  0.50400001928E-02 0.  1.
    10030    2    1    2    0    0  0.00000000000E+00  0.00000000000E+00 -0.12213865651E+04  0.27822246364E+04  0.24997977490E+04 0.  0.
        2    1    3    3  502    0  0.60465991915E+03  0.43345547353E+03 -0.17285318213E+04  0.18818393987E+04  0.25500000920E-02 0.  1.
       -2    1    3    3    0  502 -0.60465991915E+03 -0.43345547353E+03  0.50714525616E+03  0.90038523767E+03  0.25500000920E-02 0. -1.
</event>
<event>
 5   0  0.3214375E-07  0.2499935E+04  0.7818609E-02  0.8403009E-01
        4   -1    0    0  501    0  0.00000000000E+00  0.00000000000E+00  0.16891406013E+04  0.16891410788E+04  0.12699999809E+01 0.  1.
       -4   -1    0    0    0  501  0.00000000000E+00  0.00000000000E+00 -0.92497725440E+03  0.92497812626E+03  0.12699999809E+01 0. -1.
    10030    2    1    2    0    0  0.00000000000E+00  0.00000000000E+00  0.76416334693E+03  0.26141192050E+04  0.24999347186E+04 0.  0.
        3    1    3    3  502    0  0.12328944839E+04  0.15767073947E+03  0.52052808821E+03  0.13475304714E+04  0.10100000352E+00 0. -1.
       -3    1    3    3    0  502 -0.12328944839E+04 -0.15767073947E+03  0.24363525872E+03  0.12665887336E+04  0.10100000352E+00 0.  1.
</event>
<event>
 5   0  0.8997210E-07  0.2494532E+04  0.7818609E-02  0.8404936E-01
       -2   -1    0    0    0  501  0.00000000000E+00  0.00000000000E+00  0.89524265867E+03  0.89524265868E+03  0.25500000920E-02 0. -1.
        2   -1    0    0  501    0  0.00000000000E+00  0.00000000000E+00 -0.17377102581E+04  0.17377102581E+04  0.25500000920E-02 0.  1.
    10030    2    1    2    0    0  0.00000000000E+00  0.00000000000E+00 -0.84246759942E+03  0.26329529168E+04  0.24945319012E+04 0.  0.
        1    1    3    3  502    0 -0.76221629156E+03  0.39393016776E+03  0.53427171846E+03  0.10107427573E+04  0.50400001928E-02 0. -1.
       -1    1    3    3    0  502  0.76221629156E+03 -0.39393016776E+03 -0.13767393179E+04  0.16222101595E+04  0.50400001928E-02 0.  1.
</event>
<event>
 5   0  0.3837524E-07  0.2499594E+04  0.7818609E-02  0.8403130E-01
        1   -1    0    0  501    0  0.00000000000E+00  0.00000000000E+00  0.25534544163E+04  0.25534544163E+04  0.50400001928E-02 0.  1.
       -1   -1    0    0    0  501  0.00000000000E+00  0.00000000000E+00 -0.61171757105E+03  0.61171757107E+03  0.50400001928E-02 0. -1.
    10030    2    1    2    0    0  0.00000000000E+00  0.00000000000E+00  0.19417368453E+04  0.31651719874E+04  0.24995943138E+04 0.  0.
        5    1    3    3  502    0  0.68185496402E+03 -0.35030702780E+03 -0.27904733174E+03  0.81580065520E+03  0.46999998093E+01 0. -1.
       -5    1    3    3    0  502 -0.68185496402E+03  0.35030702780E+03  0.22207841770E+04  0.23493713322E+04  0.46999998093E+01 0.  1.
</event>
<event>
 5   0  0.3873231E-07  0.2503852E+04  0.7818609E-02  0.8401615E-01
        1   -1    0    0  501    0  0.00000000000E+00  0.00000000000E+00  0.12893882704E+04  0.12893882704E+04  0.50400001928E-02 0.  1.
       -1   -1    0    0    0  501  0.00000000000E+00  0.00000000000E+00 -0.12155522003E+04  0.12155522003E+04  0.50400001928E-02 0. -1.
    10030    2    1    2    0    0  0.00000000000E+00  0.00000000000E+00  0.73836070061E+02  0.25049404707E+04  0.25038520316E+04 0.  0.
        2    1    3    3  502    0 -0.12438510679E+04  0.10333852008E+03  0.13429698094E+03  0.12553405944E+04  0.25500000920E-02 0.  1.
       -2    1    3    3    0  502  0.12438510679E+04 -0.10333852008E+03 -0.60460910878E+02  0.12495998762E+04  0.25500000920E-02 0. -1.
</event>
<event>
 5   0  0.3991066E-07  0.2499948E+04  0.7818609E-02  0.8403004E-01
       -1   -1    0    0    0  501  0.00000000000E+00  0.00000000000E+00  0.15684257272E+04  0.15684257272E+04  0.50400001928E-02 0.  1.
        1   -1    0    0  501    0  0.00000000000E+00  0.00000000000E+00 -0.99618075653E+03  0.99618075654E+03  0.50400001928E-02 0. -1.
    10030    2    1    2    0    0  0.00000000000E+00  0.00000000000E+00  0.57224497069E+03  0.25646064838E+04  0.24999484215E+04 0.  0.
        1    1    3    3  502    0 -0.12002472110E+04 -0.31794102428E+03  0.43391689780E+03  0.13152808584E+04  0.50400001928E-02 0.  1.
       -1    1    3    3    0  502  0.12002472110E+04  0.31794102428E+03  0.13832807289E+03  0.12493256253E+04  0.50400001928E-02 0. -1.
</event>
<event>
 5   0  0.9251138E-07  0.2497799E+04  0.7818609E-02  0.8403770E-01
       -2   -1    0    0    0  501  0.00000000000E+00  0.00000000000E+00  0.10216906267E+04  0.10216906267E+04  0.25500000920E-02 0.  1.
        2   -1    0    0  501    0  0.00000000000E+00  0.00000000000E+00 -0.15266362418E+04  0.15266362419E+04  0.25500000920E-02 0. -1.
    10030    2    1    2    0    0  0.00000000000E+00  0.00000000000E+00 -0.50494561511E+03  0.25483268686E+04  0.24977989821E+04 0.  0.
        5    1    3    3  502    0 -0.25532883943E+03 -0.79314338988E+03 -0.12015920903E+04  0.14622294261E+04  0.46999998093E+01 0. -1.
       -5    1    3    3    0  502  0.25532883943E+03  0.79314338988E+03  0.69664647519E+03  0.10860974425E+04  0.46999998093E+01 0.  1.
</event>
<event>
 5   0  0.9251138E-07  0.2500992E+04  0.7818609E-02  0.8402632E-01
        2   -1    0    0  501    0  0.00000000000E+00  0.00000000000E+00  0.13857538345E+04  0.13857538345E+04  0.25500000920E-02 0. -1.
       -2   -1    0    0    0  501  0.00000000000E+00  0.00000000000E+00 -0.11284403449E+04  0.11284403449E+04  0.25500000920E-02 0.  1.
    10030    2    1    2    0    0  0.00000000000E+00  0.00000000000E+00  0.25731348960E+03  0.25141941794E+04  0.25009922311E+04 0.  0.
        5    1    3    3  502    0  0.96059256502E+03  0.55060825557E+03  0.71293983131E+03  0.13168951439E+04  0.46999998093E+01 0.  1.
       -5    1    3    3    0  502 -0.96059256502E+03 -0.55060825557E+03 -0.45562634172E+03  0.11972990355E+04  0.46999998093E+01 0. -1.
</event>
<event>
 5   0  0.9261602E-07  0.2499835E+04  0.7818609E-02  0.8403044E-01
        2   -1    0    0  501    0  0.00000000000E+00  0.00000000000E+00  0.17694301245E+04  0.17694301245E+04  0.25500000920E-02 0.  1.
       -2   -1    0    0    0  501  0.00000000000E+00  0.00000000000E+00 -0.88293588088E+03  0.88293588088E+03  0.25500000920E-02 0. -1.
    10030    2    1    2    0    0  0.00000000000E+00  0.00000000000E+00  0.88649424364E+03  0.26523660054E+04  0.24998346711E+04 0.  0.
        4    1    3    3  502    0  0.69461831455E+03 -0.44036596273E+03  0.14418857852E+04  0.16599557267E+04  0.12699999809E+01 0.  1.
       -4    1    3    3    0  502 -0.69461831455E+03  0.44036596273E+03 -0.55539154154E+03  0.99241027874E+03  0.12699999809E+01 0. -1.
</event>
<event>
 5   0  0.3837524E-07  0.2499680E+04  0.7818609E-02  0.8403099E-01
       -1   -1    0    0    0  501  0.00000000000E+00  0.00000000000E+00  0.12906616989E+04  0.12906616990E+04  0.50400001928E-02 0.  1.
        1   -1    0    0  501    0  0.00000000000E+00  0.00000000000E+00 -0.12103095924E+04  0.12103095924E+04  0.50400001928E-02 0. -1.
    10030    2    1    2    0    0  0.00000000000E+00  0.00000000000E+00  0.80352106509E+02  0.25009712914E+04  0.24996801674E+04 0.  0.
        5    1    3    3  502    0 -0.53846045779E+03 -0.64819891261E+02  0.11667846893E+04  0.12866817338E+04  0.46999998093E+01 0.  1.
       -5    1    3    3    0  502  0.53846045779E+03  0.64819891261E+02 -0.10864325828E+04  0.12142895576E+04  0.46999998093E+01 0. -1.
</event>
<event>
 5   0  0.9508784E-07  0.2503011E+04  0.7818609E-02  0.8401914E-01
        2   -1    0    0  501    0  0.00000000000E+00  0.00000000000E+00  0.21692803770E+04  0.21692803770E+04  0.25500000920E-02 0.  1.
       -2   -1    0    0    0  501  0.00000000000E+00  0.00000000000E+00 -0.72202085853E+03  0.72202085853E+03  0.25500000920E-02 0. -1.
    10030    2    1    2    0    0  0.00000000000E+00  0.00000000000E+00  0.14472595185E+04  0.28913012356E+04  0.25030107313E+04 0.  0.
        2    1    3    3  502    0  0.72483082726E+03 -0.84246706772E+03  0.58918095479E+02  0.11129248988E+04  0.25500000920E-02 0. -1.
       -2    1    3    3    0  502 -0.72483082726E+03  0.84246706772E+03  0.13883414230E+04  0.17783763368E+04  0.25500000920E-02 0.  1.
</event>
<event>
 5   0  0.3873231E-07  0.2504389E+04  0.7818609E-02  0.8401424E-01
        1   -1    0    0  501    0  0.00000000000E+00  0.00000000000E+00  0.10516797845E+04  0.10516797845E+04  0.50400001928E-02 0. -1.
       -1   -1    0    0    0  501  0.00000000000E+00  0.00000000000E+00 -0.14909394059E+04  0.14909394059E+04  0.50400001928E-02 0.  1.
    10030    2    1    2    0    0  0.00000000000E+00  0.00000000000E+00 -0.43925962145E+03  0.25426191904E+04  0.25043888141E+04 0.  0.
        2    1    3    3  502    0 -0.79107696318E+03 -0.96916680376E+03 -0.27433912388E+03  0.12807611058E+04  0.25500000920E-02 0.  1.
       -2    1    3    3    0  502  0.79107696318E+03  0.96916680376E+03 -0.16492049758E+03  0.12618580846E+04  0.25500000920E-02 0. -1.
</event>
<event>
 5   0  0.9508784E-07  0.2500377E+04  0.7818609E-02  0.8402851E-01
       -2   -1    0    0    0  501  0.00000000000E+00  0.00000000000E+00  0.74035762823E+03  0.74035762823E+03  0.25500000920E-02 0. -1.
        2   -1    0    0  501    0  0.00000000000E+00  0.00000000000E+00 -0.21111027366E+04  0.21111027366E+04  0.25500000920E-02 0.  1.
    10030    2    1    2    0    0  0.00000000000E+00  0.00000000000E+00 -0.13707451084E+04  0.28514603649E+04  0.25003767837E+04 0.  0.
        2    1    3    3  502    0  0.10922475673E+04  0.58182864325E+03 -0.88758825278E+03  0.15229386806E+04  0.25500000920E-02 0.  1.
       -2    1    3    3    0  502 -0.10922475673E+04 -0.58182864325E+03 -0.48315685564E+03  0.13285216843E+04  0.25500000920E-02 0. -1.
</event>
<event>
 5   0  0.3837524E-07  0.2499475E+04  0.7818609E-02  0.8403173E-01
        1   -1    0    0  501    0  0.00000000000E+00  0.00000000000E+00  0.13109245827E+04  0.13109245827E+04  0.50400001928E-02 0. -1.
       -1   -1    0    0    0  501  0.00000000000E+00  0.00000000000E+00 -0.11914063895E+04  0.11914063895E+04  0.50400001928E-02 0.  1.
    10030    2    1    2    0    0  0.00000000000E+00  0.00000000000E+00  0.11951819318E+03  0.25023309722E+04  0.24994750841E+04 0.  0.
        5    1    3    3  502    0  0.77728628295E+03  0.72997187239E+03  0.71226213260E+03  0.12823308215E+04  0.46999998093E+01 0. -1.
       -5    1    3    3    0  502 -0.77728628295E+03 -0.72997187239E+03 -0.59274393943E+03  0.12200001508E+04  0.46999998093E+01 0.  1.
</event>
<event>
 5   0  0.9261602E-07  0.2500003E+04  0.7818609E-02  0.8402985E-01
       -2   -1    0    0    0  501  0.00000000000E+00  0.00000000000E+00  0.13280233813E+04  0.13280233813E+04  0.25500000920E-02 0. -1.
        2   -1    0    0  501    0  0.00000000000E+00  0.00000000000E+00 -0.11765632654E+04  0.11765632654E+04  0.25500000920E-02 0.  1.
    10030    2    1    2    0    0  0.00000000000E+00  0.00000000000E+00  0.15146011584E+03  0.25045866467E+04  0.25000028208E+04 0.  0.
        4    1    3    3  502    0 -0.43996125342E+03  0.47089046189E+03  0.11487672795E+04  0.13171832093E+04  0.12699999809E+01 0. -1.
       -4    1    3    3    0  502  0.43996125342E+03 -0.47089046189E+03 -0.99730716364E+03  0.11874034374E+04  0.12699999809E+01 0.  1.
</event>
<event>
 5   0  0.3991066E-07  0.2499601E+04  0.7818609E-02  0.8403128E-01
       -1   -1    0    0    0  501  0.00000000000E+00  0.00000000000E+00  0.10471038746E+04  0.10471038746E+04  0.50400001928E-02 0. -1.
        1   -1    0    0  501    0  0.00000000000E+00  0.00000000000E+00 -0.14917343278E+04  0.14917343278E+04  0.50400001928E-02 0.  1.
    10030    2    1    2    0    0  0.00000000000E+00  0.00000000000E+00 -0.44463045324E+03  0.25388382024E+04  0.24996006037E+04 0.  0.
        1    1    3    3  502    0  0.74729725745E+03 -0.71963519798E+03  0.48552670805E+03  0.11454537064E+04  0.50400001928E-02 0. -1.
       -1    1    3    3    0  502 -0.74729725745E+03  0.71963519798E+03 -0.93015716129E+03  0.13933844961E+04  0.50400001928E-02 0.  1.
</event>
<event>
 5   0  0.3837524E-07  0.2499860E+04  0.7818609E-02  0.8403035E-01
        1   -1    0    0  501    0  0.00000000000E+00  0.00000000000E+00  0.11981736675E+04  0.11981736675E+04  0.50400001928E-02 0. -1.
       -1   -1    0    0    0  501  0.00000000000E+00  0.00000000000E+00 -0.13039218989E+04  0.13039218989E+04  0.50400001928E-02 0.  1.
    10030    2    1    2    0    0  0.00000000000E+00  0.00000000000E+00 -0.10574823136E+03  0.25020955664E+04  0.24998599031E+04 0.  0.
        5    1    3    3  502    0 -0.11370786225E+04  0.38752491852E+03  0.29265837312E+03  0.12364442445E+04  0.46999998093E+01 0. -1.
       -5    1    3    3    0  502  0.11370786225E+04 -0.38752491852E+03 -0.39840660448E+03  0.12656513220E+04  0.46999998093E+01 0.  1.
</event>
<event>
 5   0  0.3991066E-07  0.2499909E+04  0.7818609E-02  0.8403018E-01
        1   -1    0    0  501    0  0.00000000000E+00  0.00000000000E+00  0.15308731406E+04  0.15308731406E+04  0.50400001928E-02 0.  1.
       -1   -1    0    0    0  501  0.00000000000E+00  0.00000000000E+00 -0.10205848638E+04  0.10205848638E+04  0.50400001928E-02 0. -1.
    10030    2    1    2    0    0  0.00000000000E+00  0.00000000000E+00  0.51028827676E+03  0.25514580045E+04  0.24999087630E+04 0.  0.
        1    1    3    3  502    0  0.11554845087E+04 -0.15783020350E+03 -0.20394352442E+03  0.11839120678E+04  0.50400001928E-02 0. -1.
       -1    1    3    3    0  502 -0.11554845087E+04  0.15783020350E+03  0.71423180118E+03  0.13675459367E+04  0.50400001928E-02 0.  1.
</event>
<event>
 5   0  0.9508784E-07  0.2499871E+04  0.7818609E-02  0.8403032E-01
        2   -1    0    0  501    0  0.00000000000E+00  0.00000000000E+00  0.80614856005E+03  0.80614856005E+03  0.25500000920E-02 0.  1.
       -2   -1    0    0    0  501  0.00000000000E+00  0.00000000000E+00 -0.19380282828E+04  0.19380282828E+04  0.25500000920E-02 0. -1.
    10030    2    1    2    0    0  0.00000000000E+00  0.00000000000E+00 -0.11318797228E+04  0.27441768429E+04  0.24998709643E+04 0.  0.
        2    1    3    3  502    0  0.11295532823E+03  0.14325259192E+03  0.79145610176E+03  0.81220869996E+03  0.25500000920E-02 0.  1.
       -2    1    3    3    0  502 -0.11295532823E+03 -0.14325259192E+03 -0.19233358245E+04  0.19319681429E+04  0.25500000920E-02 0. -1.
</event>
<event>
 5   0  0.8997210E-07  0.2494942E+04  0.7818609E-02  0.8404790E-01
       -2   -1    0    0    0  501  0.00000000000E+00  0.00000000000E+00  0.75747439570E+03  0.75747439571E+03  0.25500000920E-02 0.  1.
        2   -1    0    0  501    0  0.00000000000E+00  0.00000000000E+00 -0.20544369823E+04  0.20544369823E+04  0.25500000920E-02 0. -1.
    10030    2    1    2    0    0  0.00000000000E+00  0.00000000000E+00 -0.12969625866E+04  0.28119113780E+04  0.24949416119E+04 0.  0.
        1    1    3    3  502    0 -0.74386632369E+03 -0.52753860467E+03  0.31086459960E+03  0.96346815528E+03  0.50400001928E-02 0. -1.
       -1    1    3    3    0  502  0.74386632369E+03  0.52753860467E+03 -0.16078271862E+04  0.18484432227E+04  0.50400001928E-02 0.  1.
</event>
<event>
 5   0  0.3837524E-07  0.2499790E+04  0.7818609E-02  0.8403060E-01
       -1   -1    0    0    0  501  0.00000000000E+00  0.00000000000E+00  0.10300301950E+04  0.10300301950E+04  0.50400001928E-02 0.  1.
        1   -1    0    0  501    0  0.00000000000E+00  0.00000000000E+00 -0.15166908306E+04  0.15166908306E+04  0.50400001928E-02 0. -1.
    10030    2    1    2    0    0  0.00000000000E+00  0.00000000000E+00 -0.48666063561E+03  0.25467210256E+04  0.24997898727E+04 0.  0.
        5    1    3    3  502    0 -0.62814233814E+03  0.71672640982E+03  0.58052706981E+03  0.11159271089E+04  0.46999998093E+01 0.  1.
       -5    1    3    3    0  502  0.62814233814E+03 -0.71672640982E+03 -0.10671877054E+04  0.14307939167E+04  0.46999998093E+01 0. -1.
</event>
<event>
 5   0  0.9251138E-07  0.2500266E+04  0.7818609E-02  0.8402891E-01
       -2   -1    0    0    0  501  0.00000000000E+00  0.00000000000E+00  0.16970565650E+04  0.16970565650E+04  0.25500000920E-02 0.  1.
        2   -1    0    0  501    0  0.00000000000E+00  0.00000000000E+00 -0.92090753317E+03  0.92090753318E+03  0.25500000920E-02 0. -1.
    10030    2    1    2    0    0  0.00000000000E+00  0.00000000000E+00  0.77614903181E+03  0.26179640982E+04  0.25002657258E+04 0.  0.
        5    1    3    3  502    0 -0.56670283288E+03  0.51964634959E+02  0.15535570019E+04  0.16545131829E+04  0.46999998093E+01 0.  1.
       -5    1    3    3    0  502  0.56670283288E+03 -0.51964634959E+02 -0.77740797014E+03  0.96345091526E+03  0.46999998093E+01 0. -1.
</event>
<event>
 5   0  0.9251138E-07  0.2501459E+04  0.7818609E-02  0.8402466E-01
       -2   -1    0    0    0  501  0.00000000000E+00  0.00000000000E+00  0.84815063846E+03  0.84815063846E+03  0.25500000920E-02 0. -1.
        2   -1    0    0  501    0  0.00000000000E+00  0.00000000000E+00 -0.18443947208E+04  0.18443947208E+04  0.25500000920E-02 0.  1.
    10030    2    1    2    0    0  0.00000000000E+00  0.00000000000E+00 -0.99624408235E+03  0.26925453593E+04  0.25014592222E+04 0.  0.
        5    1    3    3  502    0  0.10185094222E+04 -0.62854840698E+03 -0.88899820750E+03  0.14908971950E+04  0.46999998093E+01 0.  1.
       -5    1    3    3    0  502 -0.10185094222E+04  0.62854840698E+03 -0.10724587485E+03  0.12016481643E+04  0.46999998093E+01 0. -1.
</event>
<event>
 5   0  0.9251138E-07  0.2500249E+04  0.7818609E-02  0.8402897E-01
        2   -1    0    0  501    0  0.00000000000E+00  0.00000000000E+00  0.22117217640E+04  0.22117217640E+04  0.25500000920E-02 0. -1.
       -2   -1    0    0    0  501  0.00000000000E+00  0.00000000000E+00 -0.70660419177E+03  0.70660419178E+03  0.25500000920E-02 0.  1.
    10030    2    1    2    0    0  0.00000000000E+00  0.00000000000E+00  0.15051175722E+04  0.29183259557E+04  0.25002494831E+04 0.  0.
        5    1    3    3  502    0 -0.26569357868E+03 -0.38704208268E+03 -0.59979597788E+03  0.76169019726E+03  0.46999998093E+01 0.  1.
       -5    1    3    3    0  502  0.26569357868E+03  0.38704208268E+03  0.21049135501E+04  0.21566357585E+04  0.46999998093E+01 0. -1.
</event>
<event>
 5   0  0.3991066E-07  0.2502161E+04  0.7818609E-02  0.8402216E-01
        1   -1    0    0  501    0  0.00000000000E+00  0.00000000000E+00  0.87669506659E+03  0.87669506660E+03  0.50400001928E-02 0. -1.
       -1   -1    0    0    0  501  0.00000000000E+00  0.00000000000E+00 -0.17853443129E+04  0.17853443129E+04  0.50400001928E-02 0.  1.
    10030    2    1    2    0    0  0.00000000000E+00  0.00000000000E+00 -0.90864924627E+03  0.26620393795E+04  0.25021611069E+04 0.  0.
        1    1    3    3  502    0 -0.79026735019E+02  0.10271595773E+04 -0.12095413732E+04  0.15888021763E+04  0.50400001928E-02 0.  1.
       -1    1    3    3    0  502  0.79026735019E+02 -0.10271595773E+04  0.30089212691E+03  0.10732372031E+04  0.50400001928E-02 0. -1.
</event>
<event>
 5   0  0.9261602E-07  0.2498644E+04  0.7818609E-02  0.8403469E-01
       -2   -1    0    0    0  501  0.00000000000E+00  0.00000000000E+00  0.78899696998E+03  0.78899696998E+03  0.25500000920E-02 0.  1.
        2   -1    0    0  501    0  0.00000000000E+00  0.00000000000E+00 -0.19782151950E+04  0.19782151950E+04  0.25500000920E-02 0. -1.
    10030    2    1    2    0    0  0.00000000000E+00  0.00000000000E+00 -0.11892182250E+04  0.27672121650E+04  0.24986442682E+04 0.  0.
        4    1    3    3  502    0  0.38245612080E+02  0.88107109801E+03 -0.15746274686E+04  0.18047720865E+04  0.12699999809E+01 0. -1.
       -4    1    3    3    0  502 -0.38245612080E+02 -0.88107109801E+03  0.38540924361E+03  0.96244007842E+03  0.12699999809E+01 0.  1.
</event>
<event>
 5   0  0.3991066E-07  0.2500623E+04  0.7818609E-02  0.8402764E-01
        1   -1    0    0  501    0  0.00000000000E+00  0.00000000000E+00  0.21895447051E+04  0.21895447051E+04  0.50400001928E-02 0.  1.
       -1   -1    0    0    0  501  0.00000000000E+00  0.00000000000E+00 -0.71397457170E+03  0.71397457172E+03  0.50400001928E-02 0. -1.
    10030    2    1    2    0    0  0.00000000000E+00  0.00000000000E+00  0.14755701334E+04  0.29035192769E+04  0.25006233168E+04 0.  0.
        1    1    3    3  502    0  0.93039769985E+03 -0.31231022238E+03 -0.16168944556E+03  0.99464618419E+03  0.50400001928E-02 0. -1.
       -1    1    3    3    0  502 -0.93039769985E+03  0.31231022238E+03  0.16372595790E+04  0.19088730927E+04  0.50400001928E-02 0.  1.
</event>
<event>
 5   0  0.3991066E-07  0.2500121E+04  0.7818609E-02  0.8402942E-01
        1   -1    0    0  501    0  0.00000000000E+00  0.00000000000E+00  0.15065262333E+04  0.15065262333E+04  0.50400001928E-02 0. -1.
       -1   -1    0    0    0  501  0.00000000000E+00  0.00000000000E+00 -0.10372545776E+04  0.10372545777E+04  0.50400001928E-02 0.  1.
    10030    2    1    2    0    0  0.00000000000E+00  0.00000000000E+00  0.46927165562E+03  0.25437808109E+04  0.25001209825E+04 0.  0.
        1    1    3    3  502    0 -0.76241533999E+03 -0.71054126185E+03  0.93698404186E+03  0.14014582156E+04  0.50400001928E-02 0. -1.
       -1    1    3    3    0  502  0.76241533999E+03  0.71054126185E+03 -0.46771238624E+03  0.11423225953E+04  0.50400001928E-02 0.  1.
</event>
<event>
 5   0  0.3873231E-07  0.2499808E+04  0.7818609E-02  0.8403054E-01
       -1   -1    0    0    0  501  0.00000000000E+00  0.00000000000E+00  0.11845878082E+04  0.11845878082E+04  0.50400001928E-02 0.  1.
        1   -1    0    0  501    0  0.00000000000E+00  0.00000000000E+00 -0.13188219028E+04  0.13188219028E+04  0.50400001928E-02 0. -1.
    10030    2    1    2    0    0  0.00000000000E+00  0.00000000000E+00 -0.13423409464E+03  0.25034097110E+04  0.24998082705E+04 0.  0.
        2    1    3    3  502    0 -0.19571736533E+03 -0.89667189232E+03  0.78259494644E+03  0.12061428687E+04  0.25500000920E-02 0.  1.
       -2    1    3    3    0  502  0.19571736533E+03  0.89667189232E+03 -0.91682904108E+03  0.12972668423E+04  0.25500000920E-02 0. -1.
</event>
<event>
 5   0  0.9261602E-07  0.2497884E+04  0.7818609E-02  0.8403740E-01
        2   -1    0    0  501    0  0.00000000000E+00  0.00000000000E+00  0.18349552384E+04  0.18349552384E+04  0.25500000920E-02 0. -1.
       -2   -1    0    0    0  501  0.00000000000E+00  0.00000000000E+00 -0.85007822954E+03  0.85007822954E+03  0.25500000920E-02 0.  1.
    10030    2    1    2    0    0  0.00000000000E+00  0.00000000000E+00  0.98487700885E+03  0.26850334679E+04  0.24978835044E+04 0.  0.
        4    1    3    3  502    0 -0.10787773084E+03 -0.43700353187E+02 -0.84423494847E+03  0.85222155969E+03  0.12699999809E+01 0.  1.
       -4    1    3    3    0  502  0.10787773084E+03  0.43700353187E+02  0.18291119573E+04  0.18328119082E+04  0.12699999809E+01 0. -1.
</event>
<event>
 5   0  0.3805418E-07  0.2499458E+04  0.7818609E-02  0.8403179E-01
        1   -1    0    0  501    0  0.00000000000E+00  0.00000000000E+00  0.17640269331E+04  0.17640269331E+04  0.50400001928E-02 0.  1.
       -1   -1    0    0    0  501  0.00000000000E+00  0.00000000000E+00 -0.88537344041E+03  0.88537344042E+03  0.50400001928E-02 0. -1.
    10030    2    1    2    0    0  0.00000000000E+00  0.00000000000E+00  0.87865349269E+03  0.26494003735E+04  0.24994580171E+04 0.  0.
        4    1    3    3  502    0 -0.38544083461E+03 -0.60089574534E+03  0.15266205218E+04  0.16852929016E+04  0.12699999809E+01 0.  1.
       -4    1    3    3    0  502  0.38544083461E+03  0.60089574534E+03 -0.64796702909E+03  0.96410747193E+03  0.12699999809E+01 0. -1.
</event>
<event>
 5   0  0.3972587E-07  0.2499842E+04  0.7818609E-02  0.8403042E-01
       -1   -1    0    0    0  501  0.00000000000E+00  0.00000000000E+00  0.64520432650E+03  0.64520432651E+03  0.50400001928E-02 0.  1.
        1   -1    0    0  501    0  0.00000000000E+00  0.00000000000E+00 -0.24214074157E+04  0.24214074157E+04  0.50400001928E-02 0. -1.
    10030    2    1    2    0    0  0.00000000000E+00  0.00000000000E+00 -0.17762030892E+04  0.30666117422E+04  0.24998420277E+04 0.  0.
        3    1    3    3  502    0  0.10373617937E+04 -0.25352232561E+03 -0.16849135444E+04  0.19948249855E+04  0.10100000352E+00 0. -1.
       -3    1    3    3    0  502 -0.10373617937E+04  0.25352232561E+03 -0.91289544780E+02  0.10717867567E+04  0.10100000352E+00 0.  1.
</event>
<event>
 5   0  0.8997210E-07  0.2501525E+04  0.7818609E-02  0.8402443E-01
        2   -1    0    0  501    0  0.00000000000E+00  0.00000000000E+00  0.18470872569E+04  0.18470872569E+04  0.25500000920E-02 0. -1.
       -2   -1    0    0    0  501  0.00000000000E+00  0.00000000000E+00 -0.84695867420E+03  0.84695867420E+03  0.25500000920E-02 0.  1.
    10030    2    1    2    0    0  0.00000000000E+00  0.00000000000E+00  0.10001285827E+04  0.26940459311E+04  0.25015247944E+04 0.  0.
        1    1    3    3  502    0  0.10931375795E+04 -0.14465437916E+03  0.11358656645E+04  0.15830557365E+04  0.50400001928E-02 0. -1.
       -1    1    3    3    0  502 -0.10931375795E+04  0.14465437916E+03 -0.13573708184E+03  0.11109901946E+04  0.50400001928E-02 0.  1.
</event>
<event>
 5   0  0.9251138E-07  0.2500840E+04  0.7818609E-02  0.8402686E-01
        2   -1    0    0  501    0  0.00000000000E+00  0.00000000000E+00  0.12389143011E+04  0.12389143011E+04  0.25500000920E-02 0. -1.
       -2   -1    0    0    0  501  0.00000000000E+00  0.00000000000E+00 -0.12620328042E+04  0.12620328043E+04  0.25500000920E-02 0.  1.
    10030    2    1    2    0    0  0.00000000000E+00  0.00000000000E+00 -0.23118503154E+02  0.25009471053E+04  0.25008402505E+04 0.  0.
        5    1    3    3  502    0  0.96230072569E+02 -0.24176562156E+03 -0.12346477132E+04  0.12617796592E+04  0.46999998093E+01 0.  1.
       -5    1    3    3    0  502 -0.96230072569E+02  0.24176562156E+03  0.12115292101E+04  0.12391674461E+04  0.46999998093E+01 0. -1.
</event>
<event>
 5   0  0.3805418E-07  0.2500296E+04  0.7818609E-02  0.8402880E-01
        1   -1    0    0  501    0  0.00000000000E+00  0.00000000000E+00  0.11143641560E+04  0.11143641560E+04  0.50400001928E-02 0. -1.
       -1   -1    0    0    0  501  0.00000000000E+00  0.00000000000E+00 -0.14024765247E+04  0.14024765247E+04  0.50400001928E-02 0.  1.
    10030    2    1    2    0    0  0.00000000000E+00  0.00000000000E+00 -0.28811236870E+03  0.25168406808E+04  0.25002956376E+04 0.  0.
        4    1    3    3  502    0  0.25487647869E+03  0.87581457370E+03 -0.10046137052E+04  0.13569316477E+04  0.12699999809E+01 0.  1.
       -4    1    3    3    0  502 -0.25487647869E+03 -0.87581457370E+03  0.71650133650E+03  0.11599090331E+04  0.12699999809E+01 0. -1.
</event>
<event>
 5   0  0.9261602E-07  0.2500347E+04  0.7818609E-02  0.8402862E-01
        2   -1    0    0  501    0  0.00000000000E+00  0.00000000000E+00  0.24596108406E+04  0.24596108406E+04  0.25500000920E-02 0.  1.
       -2   -1    0    0    0  501  0.00000000000E+00  0.00000000000E+00 -0.63543948465E+03  0.63543948466E+03  0.25500000920E-02 0. -1.
    10030    2    1    2    0    0  0.00000000000E+00  0.00000000000E+00  0.18241713559E+04  0.30950503253E+04  0.25003470519E+04 0.  0.
        4    1    3    3  502    0  0.73578303390E+03  0.44142169518E+03  0.20375766942E+04  0.22108709106E+04  0.12699999809E+01 0.  1.
       -4    1    3    3    0  502 -0.73578303390E+03 -0.44142169518E+03 -0.21340533823E+03  0.88417941462E+03  0.12699999809E+01 0. -1.
</event>
<event>
 5   0  0.9508784E-07  0.2499001E+04  0.7818609E-02  0.8403341E-01
       -2   -1    0    0    0  501  0.00000000000E+00  0.00000000000E+00  0.52047951679E+03  0.52047951679E+03  0.25500000920E-02 0.  1.
        2   -1    0    0  501    0  0.00000000000E+00  0.00000000000E+00 -0.29996410571E+04  0.29996410571E+04  0.25500000920E-02 0. -1.
    10030    2    1    2    0    0  0.00000000000E+00  0.00000000000E+00 -0.24791615403E+04  0.35201205739E+04  0.24990011828E+04 0.  0.
        2    1    3    3  502    0 -0.94692273311E+03 -0.81460880907E+03 -0.11950019893E+04  0.17286642036E+04  0.25500000920E-02 0. -1.
       -2    1    3    3    0  502  0.94692273311E+03  0.81460880907E+03 -0.12841595510E+04  0.17914563703E+04  0.25500000920E-02 0.  1.
</event>
<event>
 5   0  0.3991066E-07  0.2497307E+04  0.7818609E-02  0.8403945E-01
       -1   -1    0    0    0  501  0.00000000000E+00  0.00000000000E+00  0.20218236754E+04  0.20218236754E+04  0.50400001928E-02 0. -1.
        1   -1    0    0  501    0  0.00000000000E+00  0.00000000000E+00 -0.77115320869E+03  0.77115320870E+03  0.50400001928E-02 0.  1.
    10030    2    1    2    0    0  0.00000000000E+00  0.00000000000E+00  0.12506704667E+04  0.27929768841E+04  0.24973072015E+04 0.  0.
        1    1    3    3  502    0 -0.12695810242E+03 -0.79312236912E+03  0.16945436741E+04  0.18752705714E+04  0.50400001928E-02 0. -1.
       -1    1    3    3    0  502  0.12695810242E+03  0.79312236912E+03 -0.44387320744E+03  0.91770631275E+03  0.50400001928E-02 0.  1.
</event>
<event>
 5   0  0.9508784E-07  0.2499128E+04  0.7818609E-02  0.8403296E-01
        2   -1    0    0  501    0  0.00000000000E+00  0.00000000000E+00  0.17091894166E+04  0.17091894166E+04  0.25500000920E-02 0. -1.
       -2   -1    0    0    0  501  0.00000000000E+00  0.00000000000E+00 -0.91353846732E+03  0.91353846733E+03  0.25500000920E-02 0.  1.
    10030    2    1    2    0    0  0.00000000000E+00  0.00000000000E+00  0.79565094926E+03  0.26227278839E+04  0.24991280719E+04 0.  0.
        2    1    3    3  502    0  0.37654354867E+03 -0.88768784679E+03  0.12318868193E+04  0.15643912212E+04  0.25500000920E-02 0. -1.
       -2    1    3    3    0  502 -0.37654354867E+03  0.88768784679E+03 -0.43623587002E+03  0.10583366627E+04  0.25500000920E-02 0.  1.
</event>
<event>
 5   0  0.3873231E-07  0.2501936E+04  0.7818609E-02  0.8402296E-01
       -1   -1    0    0    0  501  0.00000000000E+00  0.00000000000E+00  0.16035310096E+04  0.16035310096E+04  0.50400001928E-02 0.  1.
        1   -1    0    0  501    0  0.00000000000E+00  0.00000000000E+00 -0.97592197981E+03  0.97592197983E+03  0.50400001928E-02 0. -1.
    10030    2    1    2    0    0  0.00000000000E+00  0.00000000000E+00  0.62760902978E+03  0.25794529894E+04  0.25019361763E+04 0.  0.
        2    1    3    3  502    0  0.11424042576E+04  0.41282764713E+03  0.55303282247E+01  0.12147200247E+04  0.25500000920E-02 0. -1.
       -2    1    3    3    0  502 -0.11424042576E+04 -0.41282764713E+03  0.62207870156E+03  0.13647329647E+04  0.25500000920E-02 0.  1.
</event>
<event>
 5   0  0.3805418E-07  0.2501150E+04  0.7818609E-02  0.8402576E-01
        1   -1    0    0  501    0  0.00000000000E+00  0.00000000000E+00  0.16913250782E+04  0.16913250782E+04  0.50400001928E-02 0.  1.
       -1   -1    0    0    0  501  0.00000000000E+00  0.00000000000E+00 -0.92468173495E+03  0.92468173496E+03  0.50400001928E-02 0. -1.
    10030    2    1    2    0    0  0.00000000000E+00  0.00000000000E+00  0.76664334323E+03  0.26160068131E+04  0.25011496618E+04 0.  0.
        4    1    3    3  502    0  0.93439093826E+03 -0.73079083445E+03  0.79747779315E+03  0.14293754275E+04  0.12699999809E+01 0.  1.
       -4    1    3    3    0  502 -0.93439093826E+03  0.73079083445E+03 -0.30834449920E+02  0.11866313857E+04  0.12699999809E+01 0. -1.
</event>
<event>
 5   0  0.8997210E-07  0.2499867E+04  0.7818609E-02  0.8403033E-01
       -2   -1    0    0    0  501  0.00000000000E+00  0.00000000000E+00  0.10969881229E+04  0.10969881229E+04  0.25500000920E-02 0. -1.
        2   -1    0    0  501    0  0.00000000000E+00  0.00000000000E+00 -0.14242033982E+04  0.14242033982E+04  0.25500000920E-02 0.  1.
    10030    2    1    2    0    0  0.00000000000E+00  0.00000000000E+00 -0.32721527538E+03  0.25211915211E+04  0.24998673664E+04 0.  0.
        1    1    3    3  502    0 -0.28858911761E+03  0.11664747080E+04 -0.51061717299E+03  0.13056327281E+04  0.50400001928E-02 0. -1.
       -1    1    3    3    0  502  0.28858911761E+03 -0.11664747080E+04  0.18340189761E+03  0.12155587930E+04  0.50400001928E-02 0.  1.
</event>
<event>
 5   0  0.9508784E-07  0.2501339E+04  0.7818609E-02  0.8402509E-01
        2   -1    0    0  501    0  0.00000000000E+00  0.00000000000E+00  0.10911204660E+04  0.10911204660E+04  0.25500000920E-02 0.  1.
       -2   -1    0    0    0  501  0.00000000000E+00  0.00000000000E+00 -0.14335481431E+04  0.14335481431E+04  0.25500000920E-02 0. -1.
    10030    2    1    2    0    0  0.00000000000E+00  0.00000000000E+00 -0.34242767712E+03  0.25246686091E+04  0.25013386159E+04 0.  0.
        2    1    3    3  502    0  0.74211407181E+03 -0.31529313193E+03  0.79375274701E+03  0.11314532593E+04  0.25500000920E-02 0.  1.
       -2    1    3    3    0  502 -0.74211407181E+03  0.31529313193E+03 -0.11361804241E+04  0.13932153498E+04  0.25500000920E-02 0. -1.
</event>
<event>
 5   0  0.3991066E-07  0.2500457E+04  0.7818609E-02  0.8402823E-01
        1   -1    0    0  501    0  0.00000000000E+00  0.00000000000E+00  0.17158010726E+04  0.17158010726E+04  0.50400001928E-02 0. -1.
       -1   -1    0    0    0  501  0.00000000000E+00  0.00000000000E+00 -0.91098639748E+03  0.91098639750E+03  0.50400001928E-02 0.  1.
    10030    2    1    2    0    0  0.00000000000E+00  0.00000000000E+00  0.80481467511E+03  0.26267874701E+04  0.25004571086E+04 0.  0.
        1    1    3    3  502    0  0.69772753297E+03 -0.59953880520E+03 -0.48700840561E+03  0.10408879269E+04  0.50400001928E-02 0.  1.
       -1    1    3    3    0  502 -0.69772753297E+03  0.59953880520E+03  0.12918230807E+04  0.15858995432E+04  0.50400001928E-02 0. -1.
</event>
<event>
 5   0  0.3873231E-07  0.2499812E+04  0.7818609E-02  0.8403053E-01
        1   -1    0    0  501    0  0.00000000000E+00  0.00000000000E+00  0.84405166136E+03  0.84405166138E+03  0.50400001928E-02 0. -1.
       -1   -1    0    0    0  501  0.00000000000E+00  0.00000000000E+00 -0.18509116130E+04  0.18509116130E+04  0.50400001928E-02 0.  1.
    10030    2    1    2    0    0  0.00000000000E+00  0.00000000000E+00 -0.10068599516E+04  0.26949632743E+04  0.24998120105E+04 0.  0.
        2    1    3    3  502    0  0.52378031484E+03 -0.67150460075E+03 -0.14897286082E+04  0.17159707378E+04  0.25500000920E-02 0.  1.
       -2    1    3    3    0  502 -0.52378031484E+03  0.67150460075E+03  0.48286865658E+03  0.97899253652E+03  0.25500000920E-02 0. -1.
</event>
<event>
 5   0  0.8997210E-07  0.2499377E+04  0.7818609E-02  0.8403208E-01
        2   -1    0    0  501    0  0.00000000000E+00  0.00000000000E+00  0.11547425475E+04  0.11547425475E+04  0.25500000920E-02 0. -1.
       -2   -1    0    0    0  501  0.00000000000E+00  0.00000000000E+00 -0.13524409291E+04  0.13524409292E+04  0.25500000920E-02 0.  1.
    10030    2    1    2    0    0  0.00000000000E+00  0.00000000000E+00 -0.19769838163E+03  0.25071834767E+04  0.24993767894E+04 0.  0.
        1    1    3    3  502    0 -0.52927194186E+03 -0.57919951111E+03 -0.10745744478E+04  0.13305303852E+04  0.50400001928E-02 0.  1.
       -1    1    3    3    0  502  0.52927194186E+03  0.57919951111E+03  0.87687606619E+03  0.11766530914E+04  0.50400001928E-02 0. -1.
</event>
<event>
 5   0  0.3873231E-07  0.2500193E+04  0.7818609E-02  0.8402917E-01
        1   -1    0    0  501    0  0.00000000000E+00  0.00000000000E+00  0.10452759939E+04  0.10452759939E+04  0.50400001928E-02 0. -1.
       -1   -1    0    0    0  501  0.00000000000E+00  0.00000000000E+00 -0.14950507671E+04  0.14950507671E+04  0.50400001928E-02 0.  1.
    10030    2    1    2    0    0  0.00000000000E+00  0.00000000000E+00 -0.44977477327E+03  0.25403267610E+04  0.25001925338E+04 0.  0.
        2    1    3    3  502    0 -0.55674141126E+03 -0.10434725664E+04  0.18651309360E+03  0.11973233189E+04  0.25500000920E-02 0. -1.
       -2    1    3    3    0  502  0.55674141126E+03  0.10434725664E+04 -0.63628786687E+03  0.13430034421E+04  0.25500000920E-02 0.  1.
</event>
<event>
 5   0  0.3972587E-07  0.2503335E+04  0.7818609E-02  0.8401798E-01
       -1   -1    0    0    0  501  0.00000000000E+00  0.00000000000E+00  0.66144754907E+03  0.66144754909E+03  0.50400001928E-02 0. -1.
        1   -1    0    0  501    0  0.00000000000E+00  0.00000000000E+00 -0.23685508109E+04  0.23685508110E+04  0.50400001928E-02 0.  1.
    10030    2    1    2    0    0  0.00000000000E+00  0.00000000000E+00 -0.17071032619E+04  0.30299983600E+04  0.25033354780E+04 0.  0.
        3    1    3    3  502    0  0.11843866418E+04 -0.28319275993E+03 -0.12037321135E+04  0.17122911165E+04  0.10100000352E+00 0.  1.
       -3    1    3    3    0  502 -0.11843866418E+04  0.28319275993E+03 -0.50337114839E+03  0.13177072435E+04  0.10100000352E+00 0. -1.
</event>
<event>
 5   0  0.9261602E-07  0.2500862E+04  0.7818609E-02  0.8402679E-01
        2   -1    0    0  501    0  0.00000000000E+00  0.00000000000E+00  0.25319683061E+04  0.25319683061E+04  0.25500000920E-02 0. -1.
       -2   -1    0    0    0  501  0.00000000000E+00  0.00000000000E+00 -0.61753432711E+03  0.61753432712E+03  0.25500000920E-02 0.  1.
    10030    2    1    2    0    0  0.00000000000E+00  0.00000000000E+00  0.19144339790E+04  0.31495026333E+04  0.25008617269E+04 0.  0.
        4    1    3    3  502    0  0.74691872352E+03  0.43970866572E+03 -0.17785237459E+03  0.88479623095E+03  0.12699999809E+01 0.  1.
       -4    1    3    3    0  502 -0.74691872352E+03 -0.43970866572E+03  0.20922863536E+04  0.22647064023E+04  0.12699999809E+01 0. -1.
</event>
<event>
 5   0  0.9261602E-07  0.2502025E+04  0.7818609E-02  0.8402264E-01
       -2   -1    0    0    0  501  0.00000000000E+00  0.00000000000E+00  0.68587112591E+03  0.68587112592E+03  0.25500000920E-02 0. -1.
        2   -1    0    0  501    0  0.00000000000E+00  0.00000000000E+00 -0.22818173142E+04  0.22818173142E+04  0.25500000920E-02 0.  1.
    10030    2    1    2    0    0  0.00000000000E+00  0.00000000000E+00 -0.15959461883E+04  0.29676884402E+04  0.25020252680E+04 0.  0.
        4    1    3    3  502    0 -0.31351117780E+02  0.12362722219E+04 -0.10220172136E+04  0.16043293605E+04  0.12699999809E+01 0.  1.
       -4    1    3    3    0  502  0.31351117780E+02 -0.12362722219E+04 -0.57392897475E+03  0.13633590797E+04  0.12699999809E+01 0. -1.
</event>
<event>
 5   0  0.9261602E-07  0.2498358E+04  0.7818609E-02  0.8403571E-01
       -2   -1    0    0    0  501  0.00000000000E+00  0.00000000000E+00  0.76530700521E+03  0.76530700521E+03  0.25500000920E-02 0. -1.
        2   -1    0    0  501    0  0.00000000000E+00  0.00000000000E+00 -0.20389833549E+04  0.20389833549E+04  0.25500000920E-02 0.  1.
    10030    2    1    2    0    0  0.00000000000E+00  0.00000000000E+00 -0.12736763497E+04  0.28042903602E+04  0.24983580568E+04 0.  0.
        4    1    3    3  502    0  0.33393592285E+03 -0.93055116539E+01 -0.19879134228E+04  0.20157879806E+04  0.12699999809E+01 0.  1.
       -4    1    3    3    0  502 -0.33393592285E+03  0.93055116539E+01  0.71423707309E+03  0.78850237957E+03  0.12699999809E+01 0. -1.
</event>
<event>
 5   0  0.9768582E-07  0.2491804E+04  0.7818609E-02  0.8405911E-01
        2   -1    0    0  501    0  0.00000000000E+00  0.00000000000E+00  0.12378986461E+04  0.12378986461E+04  0.25500000920E-02 0.  1.
       -2   -1    0    0    0  501  0.00000000000E+00  0.00000000000E+00 -0.12539572373E+04  0.12539572373E+04  0.25500000920E-02 0. -1.
    10030    2    1    2    0    0  0.00000000000E+00  0.00000000000E+00 -0.16058591168E+02  0.24918558834E+04  0.24918041387E+04 0.  0.
        3    1    3    3  502    0  0.57385766339E+03  0.73768499154E+03 -0.83192757995E+03  0.12512374967E+04  0.10100000352E+00 0. -1.
       -3    1    3    3    0  502 -0.57385766339E+03 -0.73768499154E+03  0.81586898878E+03  0.12406183868E+04  0.10100000352E+00 0.  1.
</event>
<event>
 5   0  0.3991066E-07  0.2499102E+04  0.7818609E-02  0.8403305E-01
       -1   -1    0    0    0  501  0.00000000000E+00  0.00000000000E+00  0.70190051404E+03  0.70190051406E+03  0.50400001928E-02 0. -1.
        1   -1    0    0  501    0  0.00000000000E+00  0.00000000000E+00 -0.22245007640E+04  0.22245007641E+04  0.50400001928E-02 0.  1.
    10030    2    1    2    0    0  0.00000000000E+00  0.00000000000E+00 -0.15226002500E+04  0.29264012781E+04  0.24991024227E+04 0.  0.
        1    1    3    3  502    0  0.23822301094E+03 -0.12208341775E+04 -0.62180126093E+03  0.13906196821E+04  0.50400001928E-02 0.  1.
       -1    1    3    3    0  502 -0.23822301094E+03  0.12208341775E+04 -0.90079898907E+03  0.15357815960E+04  0.50400001928E-02 0. -1.
</event>
<event>
 5   0  0.9508784E-07  0.2494608E+04  0.7818609E-02  0.8404909E-01
       -2   -1    0    0    0  501  0.00000000000E+00  0.00000000000E+00  0.19653018575E+04  0.19653018575E+04  0.25500000920E-02 0.  1.
        2   -1    0    0  501    0  0.00000000000E+00  0.00000000000E+00 -0.79161724432E+03  0.79161724432E+03  0.25500000920E-02 0. -1.
    10030    2    1    2    0    0  0.00000000000E+00  0.00000000000E+00  0.11736846132E+04  0.27569191018E+04  0.24946076571E+04 0.  0.
        2    1    3    3  502    0 -0.10305946169E+04 -0.32872644609E+02 -0.18878263730E+03  0.10482579641E+04  0.25500000920E-02 0.  1.
       -2    1    3    3    0  502  0.10305946169E+04  0.32872644609E+02  0.13624672505E+04  0.17086611378E+04  0.25500000920E-02 0. -1.
</event>
<event>
 5   0  0.8997210E-07  0.2499168E+04  0.7818609E-02  0.8403282E-01
       -2   -1    0    0    0  501  0.00000000000E+00  0.00000000000E+00  0.96240795146E+03  0.96240795146E+03  0.25500000920E-02 0.  1.
        2   -1    0    0  501    0  0.00000000000E+00  0.00000000000E+00 -0.16224510362E+04  0.16224510363E+04  0.25500000920E-02 0. -1.
    10030    2    1    2    0    0  0.00000000000E+00  0.00000000000E+00 -0.66004308479E+03  0.25848589877E+04  0.24991676840E+04 0.  0.
        1    1    3    3  502    0  0.11836343598E+04  0.35894407157E+03 -0.51396386950E+03  0.13393991203E+04  0.50400001928E-02 0. -1.
       -1    1    3    3    0  502 -0.11836343598E+04 -0.35894407157E+03 -0.14607921530E+03  0.12454598674E+04  0.50400001928E-02 0.  1.
</event>
<event>
 5   0  0.3873231E-07  0.2499715E+04  0.7818609E-02  0.8403087E-01
       -1   -1    0    0    0  501  0.00000000000E+00  0.00000000000E+00  0.82315760074E+03  0.82315760075E+03  0.50400001928E-02 0. -1.
        1   -1    0    0  501    0  0.00000000000E+00  0.00000000000E+00 -0.18977450437E+04  0.18977450437E+04  0.50400001928E-02 0.  1.
    10030    2    1    2    0    0  0.00000000000E+00  0.00000000000E+00 -0.10745874430E+04  0.27209026444E+04  0.24997145893E+04 0.  0.
        2    1    3    3  502    0  0.50836627392E+03  0.27473709277E+03 -0.17436117342E+04  0.18368719657E+04  0.25500000920E-02 0.  1.
       -2    1    3    3    0  502 -0.50836627392E+03 -0.27473709277E+03  0.66902429129E+03  0.88403067874E+03  0.25500000920E-02 0. -1.
</event>
<event>
 5   0  0.3873231E-07  0.2491008E+04  0.7818609E-02  0.8406196E-01
       -1   -1    0    0    0  501  0.00000000000E+00  0.00000000000E+00  0.13933556029E+04  0.13933556029E+04  0.50400001928E-02 0. -1.
        1   -1    0    0  501    0  0.00000000000E+00  0.00000000000E+00 -0.11133415550E+04  0.11133415550E+04  0.50400001928E-02 0.  1.
    10030    2    1    2    0    0  0.00000000000E+00  0.00000000000E+00  0.28001404787E+03  0.25066971579E+04  0.24910083850E+04 0.  0.
        2    1    3    3  502    0  0.10862447180E+04  0.55860711289E+02  0.75065067742E+03  0.13215613667E+04  0.25500000920E-02 0. -1.
       -2    1    3    3    0  502 -0.10862447180E+04 -0.55860711289E+02 -0.47063662955E+03  0.11851357912E+04  0.25500000920E-02 0.  1.
</event>
<event>
 5   0  0.8997210E-07  0.2499912E+04  0.7818609E-02  0.8403017E-01
       -2   -1    0    0    0  501  0.00000000000E+00  0.00000000000E+00  0.68685044522E+03  0.68685044522E+03  0.25500000920E-02 0. -1.
        2   -1    0    0  501    0  0.00000000000E+00  0.00000000000E+00 -0.22747167677E+04  0.22747167677E+04  0.25500000920E-02 0.  1.
    10030    2    1    2    0    0  0.00000000000E+00  0.00000000000E+00 -0.15878663225E+04  0.29615672129E+04  0.24999121782E+04 0.  0.
        1    1    3    3  502    0 -0.37418476906E+02 -0.59428910306E+03  0.50802266551E+03  0.78273029144E+03  0.50400001928E-02 0. -1.
       -1    1    3    3    0  502  0.37418476906E+02  0.59428910306E+03 -0.20958889880E+04  0.21788369215E+04  0.50400001928E-02 0.  1.
</event>
<event>
 5   0  0.9261602E-07  0.2499222E+04  0.7818609E-02  0.8403263E-01
        2   -1    0    0  501    0  0.00000000000E+00  0.00000000000E+00  0.14615077020E+04  0.14615077020E+04  0.25500000920E-02 0. -1.
       -2   -1    0    0    0  501  0.00000000000E+00  0.00000000000E+00 -0.10684360520E+04  0.10684360520E+04  0.25500000920E-02 0.  1.
    10030    2    1    2    0    0  0.00000000000E+00  0.00000000000E+00  0.39307164996E+03  0.25299437540E+04  0.24992218941E+04 0.  0.
        4    1    3    3  502    0 -0.36725423581E+03  0.50875612506E+03  0.12904758865E+04  0.14349348749E+04  0.12699999809E+01 0. -1.
       -4    1    3    3    0  502  0.36725423581E+03 -0.50875612506E+03 -0.89740423659E+03  0.10950088791E+04  0.12699999809E+01 0.  1.
</event>
<event>
 5   0  0.9261602E-07  0.2499316E+04  0.7818609E-02  0.8403229E-01
       -2   -1    0    0    0  501  0.00000000000E+00  0.00000000000E+00  0.13463585425E+04  0.13463585425E+04  0.25500000920E-02 0.  1.
        2   -1    0    0  501    0  0.00000000000E+00  0.00000000000E+00 -0.11599027984E+04  0.11599027984E+04  0.25500000920E-02 0. -1.
    10030    2    1    2    0    0  0.00000000000E+00  0.00000000000E+00  0.18645574416E+03  0.25062613409E+04  0.24993159393E+04 0.  0.
        4    1    3    3  502    0  0.34539239699E+03 -0.11726694683E+04 -0.16671021683E+03  0.12337923241E+04  0.12699999809E+01 0. -1.
       -4    1    3    3    0  502 -0.34539239699E+03  0.11726694683E+04  0.35316596099E+03  0.12724690168E+04  0.12699999809E+01 0.  1.
</event>
<event>
 5   0  0.3972587E-07  0.2500581E+04  0.7818609E-02  0.8402779E-01
       -1   -1    0    0    0  501  0.00000000000E+00  0.00000000000E+00  0.10274511668E+04  0.10274511668E+04  0.50400001928E-02 0. -1.
        1   -1    0    0  501    0  0.00000000000E+00  0.00000000000E+00 -0.15214602869E+04  0.15214602869E+04  0.50400001928E-02 0.  1.
    10030    2    1    2    0    0  0.00000000000E+00  0.00000000000E+00 -0.49400912014E+03  0.25489114538E+04  0.25005808502E+04 0.  0.
        3    1    3    3  502    0 -0.77669937106E+02  0.12074232440E+04  0.74241602187E+02  0.12121944295E+04  0.10100000352E+00 0.  1.
       -3    1    3    3    0  502  0.77669937106E+02 -0.12074232440E+04 -0.56825072233E+03  0.13367170242E+04  0.10100000352E+00 0. -1.
</event>
<event>
 5   0  0.3837524E-07  0.2503564E+04  0.7818609E-02  0.8401717E-01
       -1   -1    0    0    0  501  0.00000000000E+00  0.00000000000E+00  0.13950929637E+04  0.13950929637E+04  0.50400001928E-02 0.  1.
        1   -1    0    0  501    0  0.00000000000E+00  0.00000000000E+00 -0.11231928649E+04  0.11231928650E+04  0.50400001928E-02 0. -1.
    10030    2    1    2    0    0  0.00000000000E+00  0.00000000000E+00  0.27190009879E+03  0.25182858287E+04  0.25035642295E+04 0.  0.
        5    1    3    3  502    0 -0.44199859832E+03  0.88547069321E+03 -0.63505258272E+03  0.11758975220E+04  0.46999998093E+01 0.  1.
       -5    1    3    3    0  502  0.44199859832E+03 -0.88547069321E+03  0.90695268152E+03  0.13423883067E+04  0.46999998093E+01 0. -1.
</event>
<event>
 5   0  0.9508784E-07  0.2494084E+04  0.7818609E-02  0.8405096E-01
       -2   -1    0    0    0  501  0.00000000000E+00  0.00000000000E+00  0.17686194287E+04  0.17686194287E+04  0.25500000920E-02 0.  1.
        2   -1    0    0  501    0  0.00000000000E+00  0.00000000000E+00 -0.87928104756E+03  0.87928104756E+03  0.25500000920E-02 0. -1.
    10030    2    1    2    0    0  0.00000000000E+00  0.00000000000E+00  0.88933838109E+03  0.26479004762E+04  0.24940838350E+04 0.  0.
        2    1    3    3  502    0  0.48378170292E+02  0.64611400037E+03 -0.68655270496E+03  0.94401184607E+03  0.25500000920E-02 0. -1.
       -2    1    3    3    0  502 -0.48378170292E+02 -0.64611400037E+03  0.15758910861E+04  0.17038886301E+04  0.25500000920E-02 0.  1.
</event>
<event>
 5   0  0.3873231E-07  0.2500118E+04  0.7818609E-02  0.8402944E-01
       -1   -1    0    0    0  501  0.00000000000E+00  0.00000000000E+00  0.15960227664E+04  0.15960227664E+04  0.50400001928E-02 0. -1.
        1   -1    0    0  501    0  0.00000000000E+00  0.00000000000E+00 -0.97908833290E+03  0.97908833291E+03  0.50400001928E-02 0.  1.
    10030    2    1    2    0    0  0.00000000000E+00  0.00000000000E+00  0.61693443353E+03  0.25751110994E+04  0.25001178130E+04 0.  0.
        2    1    3    3  502    0  0.60394386017E+03  0.15275141063E+03 -0.80781556412E+03  0.10201211523E+04  0.25500000920E-02 0.  1.
       -2    1    3    3    0  502 -0.60394386017E+03 -0.15275141063E+03  0.14247499976E+04  0.15549899471E+04  0.25500000920E-02 0. -1.
</event>
<event>
 5   0  0.3873231E-07  0.2499581E+04  0.7818609E-02  0.8403135E-01
       -1   -1    0    0    0  501  0.00000000000E+00  0.00000000000E+00  0.11813253948E+04  0.11813253948E+04  0.50400001928E-02 0.  1.
        1   -1    0    0  501    0  0.00000000000E+00  0.00000000000E+00 -0.13222232933E+04  0.13222232934E+04  0.50400001928E-02 0. -1.
    10030    2    1    2    0    0  0.00000000000E+00  0.00000000000E+00 -0.14089789852E+03  0.25035486882E+04  0.24995807281E+04 0.  0.
        2    1    3    3  502    0  0.16260749257E+03  0.84988525719E+03  0.83277515368E+03  0.12009415488E+04  0.25500000920E-02 0.  1.
       -2    1    3    3    0  502 -0.16260749257E+03 -0.84988525719E+03 -0.97367305220E+03  0.13026071394E+04  0.25500000920E-02 0. -1.
</event>
<event>
 5   0  0.3991066E-07  0.2499168E+04  0.7818609E-02  0.8403282E-01
        1   -1    0    0  501    0  0.00000000000E+00  0.00000000000E+00  0.14516014179E+04  0.14516014179E+04  0.50400001928E-02 0.  1.
       -1   -1    0    0    0  501  0.00000000000E+00  0.00000000000E+00 -0.10756807384E+04  0.10756807384E+04  0.50400001928E-02 0. -1.
    10030    2    1    2    0    0  0.00000000000E+00  0.00000000000E+00  0.37592067946E+03  0.25272821563E+04  0.24991676095E+04 0.  0.
        1    1    3    3  502    0  0.21533129917E+03 -0.68314112853E+03  0.12233980795E+04  0.14176573037E+04  0.50400001928E-02 0.  1.
       -1    1    3    3    0  502 -0.21533129917E+03  0.68314112853E+03 -0.84747740002E+03  0.11096248526E+04  0.50400001928E-02 0. -1.
</event>
<event>
 5   0  0.9508784E-07  0.2500788E+04  0.7818609E-02  0.8402705E-01
       -2   -1    0    0    0  501  0.00000000000E+00  0.00000000000E+00  0.22822554942E+04  0.22822554942E+04  0.25500000920E-02 0.  1.
        2   -1    0    0  501    0  0.00000000000E+00  0.00000000000E+00 -0.68506123809E+03  0.68506123809E+03  0.25500000920E-02 0. -1.
    10030    2    1    2    0    0  0.00000000000E+00  0.00000000000E+00  0.15971942562E+04  0.29673167323E+04  0.25007876955E+04 0.  0.
        2    1    3    3  502    0  0.67468892266E+02  0.82462901208E+03  0.19109989332E+04  0.20824221430E+04  0.25500000920E-02 0.  1.
       -2    1    3    3    0  502 -0.67468892266E+02 -0.82462901208E+03 -0.31380467699E+03  0.88489458937E+03  0.25500000920E-02 0. -1.
</event>
<event>
 5   0  0.9261602E-07  0.2499691E+04  0.7818609E-02  0.8403096E-01
        2   -1    0    0  501    0  0.00000000000E+00  0.00000000000E+00  0.17027180907E+04  0.17027180907E+04  0.25500000920E-02 0. -1.
       -2   -1    0    0    0  501  0.00000000000E+00  0.00000000000E+00 -0.91742381897E+03  0.91742381897E+03  0.25500000920E-02 0.  1.
    10030    2    1    2    0    0  0.00000000000E+00  0.00000000000E+00  0.78529427177E+03  0.26201419097E+04  0.24996912877E+04 0.  0.
        4    1    3    3  502    0 -0.44006290500E+03 -0.98207927089E+03 -0.27357185385E+03  0.11103955272E+04  0.12699999809E+01 0.  1.
       -4    1    3    3    0  502  0.44006290500E+03  0.98207927089E+03  0.10588661256E+04  0.15097463825E+04  0.12699999809E+01 0. -1.
</event>
<event>
 5   0  0.3991066E-07  0.2504269E+04  0.7818609E-02  0.8401466E-01
        1   -1    0    0  501    0  0.00000000000E+00  0.00000000000E+00  0.15786317996E+04  0.15786317996E+04  0.50400001928E-02 0.  1.
       -1   -1    0    0    0  501  0.00000000000E+00  0.00000000000E+00 -0.99316471089E+03  0.99316471090E+03  0.50400001928E-02 0. -1.
    10030    2    1    2    0    0  0.00000000000E+00  0.00000000000E+00  0.58546708872E+03  0.25717965105E+04  0.25042694702E+04 0.  0.
        1    1    3    3  502    0  0.41422026800E+03 -0.52959546749E+03  0.13775270799E+04  0.15328504968E+04  0.50400001928E-02 0.  1.
       -1    1    3    3    0  502 -0.41422026800E+03  0.52959546749E+03 -0.79205999123E+03  0.10389460137E+04  0.50400001928E-02 0. -1.
</event>
<event>
 5   0  0.8997210E-07  0.2500509E+04  0.7818609E-02  0.8402804E-01
        2   -1    0    0  501    0  0.00000000000E+00  0.00000000000E+00  0.16887976523E+04  0.16887976523E+04  0.25500000920E-02 0.  1.
       -2   -1    0    0    0  501  0.00000000000E+00  0.00000000000E+00 -0.92559114022E+03  0.92559114023E+03  0.25500000920E-02 0. -1.
    10030    2    1    2    0    0  0.00000000000E+00  0.00000000000E+00  0.76320651203E+03  0.26143887925E+04  0.25005088639E+04 0.  0.
        1    1    3    3  502    0  0.29889537463E+03  0.34627394172E+03  0.15981639897E+04  0.16623393834E+04  0.50400001928E-02 0.  1.
       -1    1    3    3    0  502 -0.29889537463E+03 -0.34627394172E+03 -0.83495747768E+03  0.95204940904E+03  0.50400001928E-02 0. -1.
</event>
<event>
 5   0  0.3873231E-07  0.2494624E+04  0.7818609E-02  0.8404903E-01
       -1   -1    0    0    0  501  0.00000000000E+00  0.00000000000E+00  0.91014263148E+03  0.91014263150E+03  0.50400001928E-02 0. -1.
        1   -1    0    0  501    0  0.00000000000E+00  0.00000000000E+00 -0.17093882101E+04  0.17093882101E+04  0.50400001928E-02 0.  1.
    10030    2    1    2    0    0  0.00000000000E+00  0.00000000000E+00 -0.79924557858E+03  0.26195308416E+04  0.24946238865E+04 0.  0.
        2    1    3    3  502    0  0.53435241512E+03 -0.14433748848E+03 -0.15733654429E+04  0.16678862764E+04  0.25500000920E-02 0.  1.
       -2    1    3    3    0  502 -0.53435241512E+03  0.14433748848E+03  0.77411986430E+03  0.95164456518E+03  0.25500000920E-02 0. -1.
</event>
<event>
 5   0  0.3991066E-07  0.2500019E+04  0.7818609E-02  0.8402979E-01
        1   -1    0    0  501    0  0.00000000000E+00  0.00000000000E+00  0.14866574765E+04  0.14866574765E+04  0.50400001928E-02 0.  1.
       -1   -1    0    0    0  501  0.00000000000E+00  0.00000000000E+00 -0.10510316091E+04  0.10510316092E+04  0.50400001928E-02 0. -1.
    10030    2    1    2    0    0  0.00000000000E+00  0.00000000000E+00  0.43562586736E+03  0.25376890857E+04  0.25000191998E+04 0.  0.
        1    1    3    3  502    0  0.59002586874E+03 -0.36921122634E+03  0.12717625897E+04  0.14497680987E+04  0.50400001928E-02 0.  1.
       -1    1    3    3    0  502 -0.59002586874E+03  0.36921122634E+03 -0.83613672233E+03  0.10879209870E+04  0.50400001928E-02 0. -1.
</event>
<event>
 5   0  0.3991066E-07  0.2500132E+04  0.7818609E-02  0.8402939E-01
       -1   -1    0    0    0  501  0.00000000000E+00  0.00000000000E+00  0.12949672757E+04  0.12949672757E+04  0.50400001928E-02 0. -1.
        1   -1    0    0  501    0  0.00000000000E+00  0.00000000000E+00 -0.12067214141E+04  0.12067214141E+04  0.50400001928E-02 0.  1.
    10030    2    1    2    0    0  0.00000000000E+00  0.00000000000E+00  0.88245861633E+02  0.25016886898E+04  0.25001317903E+04 0.  0.
        1    1    3    3  502    0  0.77235987431E+03 -0.65687256227E+03  0.77577140157E+03  0.12766528918E+04  0.50400001928E-02 0. -1.
       -1    1    3    3    0  502 -0.77235987431E+03  0.65687256227E+03 -0.68752553994E+03  0.12250357981E+04  0.50400001928E-02 0.  1.
</event>
<event>
 5   0  0.3991066E-07  0.2496723E+04  0.7818609E-02  0.8404154E-01
        1   -1    0    0  501    0  0.00000000000E+00  0.00000000000E+00  0.13111672770E+04  0.13111672771E+04  0.50400001928E-02 0.  1.
       -1   -1    0    0    0  501  0.00000000000E+00  0.00000000000E+00 -0.11885640461E+04  0.11885640461E+04  0.50400001928E-02 0. -1.
    10030    2    1    2    0    0  0.00000000000E+00  0.00000000000E+00  0.12260323097E+03  0.24997313231E+04  0.24967228792E+04 0.  0.
        1    1    3    3  502    0 -0.36868858571E+03 -0.11789661431E+04 -0.11923161359E+03  0.12410111271E+04  0.50400001928E-02 0.  1.
       -1    1    3    3    0  502  0.36868858571E+03  0.11789661431E+04  0.24183484456E+03  0.12587201960E+04  0.50400001928E-02 0. -1.
</event>
<event>
 5   0  0.3991066E-07  0.2503173E+04  0.7818609E-02  0.8401856E-01
       -1   -1    0    0    0  501  0.00000000000E+00  0.00000000000E+00  0.12360905512E+04  0.12360905512E+04  0.50400001928E-02 0.  1.
        1   -1    0    0  501    0  0.00000000000E+00  0.00000000000E+00 -0.12672771895E+04  0.12672771895E+04  0.50400001928E-02 0. -1.
    10030    2    1    2    0    0  0.00000000000E+00  0.00000000000E+00 -0.31186638376E+02  0.25033677407E+04  0.25031734736E+04 0.  0.
        1    1    3    3  502    0  0.30686077520E+02 -0.94883197106E+03 -0.83128252240E+03  0.12618456232E+04  0.50400001928E-02 0. -1.
       -1    1    3    3    0  502 -0.30686077520E+02  0.94883197106E+03  0.80009588403E+03  0.12415221175E+04  0.50400001928E-02 0.  1.
</event>
<event>
 5   0  0.3873231E-07  0.2499596E+04  0.7818609E-02  0.8403129E-01
       -1   -1    0    0    0  501  0.00000000000E+00  0.00000000000E+00  0.84531969846E+03  0.84531969847E+03  0.50400001928E-02 0. -1.
        1   -1    0    0  501    0  0.00000000000E+00  0.00000000000E+00 -0.18478158440E+04  0.18478158440E+04  0.50400001928E-02 0.  1.
    10030    2    1    2    0    0  0.00000000000E+00  0.00000000000E+00 -0.10024961456E+04  0.26931355425E+04  0.24995960731E+04 0.  0.
        2    1    3    3  502    0 -0.77169215887E+02 -0.83167536823E+03  0.50044514898E+03  0.97369623248E+03  0.25500000920E-02 0. -1.
       -2    1    3    3    0  502  0.77169215887E+02  0.83167536823E+03 -0.15029412945E+04  0.17194393100E+04  0.25500000920E-02 0.  1.
</event>
<event>
 5   0  0.3805418E-07  0.2501271E+04  0.7818609E-02  0.8402533E-01
       -1   -1    0    0    0  501  0.00000000000E+00  0.00000000000E+00  0.16492703112E+04  0.16492703112E+04  0.50400001928E-02 0. -1.
        1   -1    0    0  501    0  0.00000000000E+00  0.00000000000E+00 -0.94835189847E+03  0.94835189848E+03  0.50400001928E-02 0.  1.
    10030    2    1    2    0    0  0.00000000000E+00  0.00000000000E+00  0.70091841275E+03  0.25976222097E+04  0.25012705817E+04 0.  0.
        4    1    3    3  502    0  0.92324673154E+03  0.44769842209E+03  0.10930334470E+04  0.14991804873E+04  0.12699999809E+01 0. -1.
       -4    1    3    3    0  502 -0.92324673154E+03 -0.44769842209E+03 -0.39211503426E+03  0.10984417224E+04  0.12699999809E+01 0.  1.
</event>
<event>
 5   0  0.9508784E-07  0.2500308E+04  0.7818609E-02  0.8402876E-01
       -2   -1    0    0    0  501  0.00000000000E+00  0.00000000000E+00  0.14582478660E+04  0.14582478660E+04  0.25500000920E-02 0. -1.
        2   -1    0    0  501    0  0.00000000000E+00  0.00000000000E+00 -0.10717553181E+04  0.10717553181E+04  0.25500000920E-02 0.  1.
    10030    2    1    2    0    0  0.00000000000E+00  0.00000000000E+00  0.38649254799E+03  0.25300031841E+04  0.25003079054E+04 0.  0.
        2    1    3    3  502    0  0.35274260644E+03 -0.80000229010E+03 -0.71092872760E+03  0.11268765089E+04  0.25500000920E-02 0.  1.
       -2    1    3    3    0  502 -0.35274260644E+03  0.80000229010E+03  0.10974212756E+04  0.14031266752E+04  0.25500000920E-02 0. -1.
</event>
<event>
 5   0  0.3873231E-07  0.2500297E+04  0.7818609E-02  0.8402880E-01
        1   -1    0    0  501    0  0.00000000000E+00  0.00000000000E+00  0.11701444660E+04  0.11701444660E+04  0.50400001928E-02 0.  1.
       -1   -1    0    0    0  501  0.00000000000E+00  0.00000000000E+00 -0.13356226831E+04  0.13356226831E+04  0.50400001928E-02 0. -1.
    10030    2    1    2    0    0  0.00000000000E+00  0.00000000000E+00 -0.16547821704E+03  0.25057671491E+04  0.25002971754E+04 0.  0.
        2    1    3    3  502    0 -0.15699245360E+03  0.94139336620E+03  0.72649468065E+03  0.11994426295E+04  0.25500000920E-02 0.  1.
       -2    1    3    3    0  502  0.15699245360E+03 -0.94139336620E+03 -0.89197289769E+03  0.13063245196E+04  0.25500000920E-02 0. -1.
</event>
<event>
 5   0  0.3837524E-07  0.2500919E+04  0.7818609E-02  0.8402658E-01
       -1   -1    0    0    0  501  0.00000000000E+00  0.00000000000E+00  0.77602801121E+03  0.77602801122E+03  0.50400001928E-02 0.  1.
        1   -1    0    0  501    0  0.00000000000E+00  0.00000000000E+00 -0.20149390092E+04  0.20149390092E+04  0.50400001928E-02 0. -1.
    10030    2    1    2    0    0  0.00000000000E+00  0.00000000000E+00 -0.12389109980E+04  0.27909670204E+04  0.25009191207E+04 0.  0.
        5    1    3    3  502    0 -0.21161419398E+03  0.92822937029E+03 -0.15241791798E+04  0.17970905912E+04  0.46999998093E+01 0. -1.
       -5    1    3    3    0  502  0.21161419398E+03 -0.92822937029E+03  0.28526818180E+03  0.99387642919E+03  0.46999998093E+01 0.  1.
</event>
<event>
 5   0  0.8997210E-07  0.2500778E+04  0.7818609E-02  0.8402709E-01
        2   -1    0    0  501    0  0.00000000000E+00  0.00000000000E+00  0.29217958956E+04  0.29217958956E+04  0.25500000920E-02 0.  1.
       -2   -1    0    0    0  501  0.00000000000E+00  0.00000000000E+00 -0.53510659243E+03  0.53510659243E+03  0.25500000920E-02 0. -1.
    10030    2    1    2    0    0  0.00000000000E+00  0.00000000000E+00  0.23866893031E+04  0.34569024880E+04  0.25007776754E+04 0.  0.
        1    1    3    3  502    0 -0.84654062032E+03  0.21727328294E+03 -0.42766565820E+02  0.87502438852E+03  0.50400001928E-02 0. -1.
       -1    1    3    3    0  502  0.84654062032E+03 -0.21727328294E+03  0.24294558690E+04  0.25818780995E+04  0.50400001928E-02 0.  1.
</event>
<event>
 5   0  0.8997210E-07  0.2481591E+04  0.7818609E-02  0.8409573E-01
        2   -1    0    0  501    0  0.00000000000E+00  0.00000000000E+00  0.11594451198E+04  0.11594451198E+04  0.25500000920E-02 0.  1.
       -2   -1    0    0    0  501  0.00000000000E+00  0.00000000000E+00 -0.13278534083E+04  0.13278534083E+04  0.25500000920E-02 0. -1.
    10030    2    1    2    0    0  0.00000000000E+00  0.00000000000E+00 -0.16840828848E+03  0.24872985281E+04  0.24815907431E+04 0.  0.
        1    1    3    3  502    0  0.76340944018E+03  0.10973381860E+01  0.89619593436E+03  0.11772690136E+04  0.50400001928E-02 0.  1.
       -1    1    3    3    0  502 -0.76340944018E+03 -0.10973381860E+01 -0.10646042228E+04  0.13100295145E+04  0.50400001928E-02 0. -1.
</event>
<event>
 5   0  0.9508784E-07  0.2500009E+04  0.7818609E-02  0.8402982E-01
       -2   -1    0    0    0  501  0.00000000000E+00  0.00000000000E+00  0.13149786228E+04  0.13149786228E+04  0.25500000920E-02 0.  1.
        2   -1    0    0  501    0  0.00000000000E+00  0.00000000000E+00 -0.11882407351E+04  0.11882407351E+04  0.25500000920E-02 0. -1.
    10030    2    1    2    0    0  0.00000000000E+00  0.00000000000E+00  0.12673788765E+03  0.25032193579E+04  0.25000089323E+04 0.  0.
        2    1    3    3  502    0 -0.20295304692E+03  0.12227486872E+04 -0.98724316837E+02  0.12434029042E+04  0.25500000920E-02 0. -1.
       -2    1    3    3    0  502  0.20295304692E+03 -0.12227486872E+04  0.22546220448E+03  0.12598164537E+04  0.25500000920E-02 0.  1.
</event>
<event>
 5   0  0.9251138E-07  0.2499179E+04  0.7818609E-02  0.8403278E-01
       -2   -1    0    0    0  501  0.00000000000E+00  0.00000000000E+00  0.13847637460E+04  0.13847637460E+04  0.25500000920E-02 0. -1.
        2   -1    0    0  501    0  0.00000000000E+00  0.00000000000E+00 -0.11276102368E+04  0.11276102368E+04  0.25500000920E-02 0.  1.
    10030    2    1    2    0    0  0.00000000000E+00  0.00000000000E+00  0.25715350922E+03  0.25123739828E+04  0.24991788856E+04 0.  0.
        5    1    3    3  502    0  0.25948052821E+03  0.74149290450E+02  0.13551101248E+04  0.13817285559E+04  0.46999998093E+01 0. -1.
       -5    1    3    3    0  502 -0.25948052821E+03 -0.74149290450E+02 -0.10979566156E+04  0.11306454269E+04  0.46999998093E+01 0.  1.
</event>
<event>
 5   0  0.3805418E-07  0.2499949E+04  0.7818609E-02  0.8403004E-01
        1   -1    0    0  501    0  0.00000000000E+00  0.00000000000E+00  0.10063315300E+04  0.10063315300E+04  0.50400001928E-02 0. -1.
       -1   -1    0    0    0  501  0.00000000000E+00  0.00000000000E+00 -0.15526055573E+04  0.15526055573E+04  0.50400001928E-02 0.  1.
    10030    2    1    2    0    0  0.00000000000E+00  0.00000000000E+00 -0.54627402729E+03  0.25589370872E+04  0.24999487402E+04 0.  0.
        4    1    3    3  502    0  0.70710841334E+03 -0.52425587916E+03 -0.11815388193E+04  0.14733913701E+04  0.12699999809E+01 0.  1.
       -4    1    3    3    0  502 -0.70710841334E+03  0.52425587916E+03  0.63526479204E+03  0.10855457171E+04  0.12699999809E+01 0. -1.
</event>
<event>
 5   0  0.8997210E-07  0.2495832E+04  0.7818609E-02  0.8404472E-01
        2   -1    0    0  501    0  0.00000000000E+00  0.00000000000E+00  0.13797140408E+04  0.13797140408E+04  0.25500000920E-02 0.  1.
       -2   -1    0    0    0  501  0.00000000000E+00  0.00000000000E+00 -0.11287077695E+04  0.11287077695E+04  0.25500000920E-02 0. -1.
    10030    2    1    2    0    0  0.00000000000E+00  0.00000000000E+00  0.25100627130E+03  0.25084218103E+04  0.24958316911E+04 0.  0.
        1    1    3    3  502    0  0.59287117902E+03  0.46551353735E+03 -0.87404622987E+03  0.11541905823E+04  0.50400001928E-02 0. -1.
       -1    1    3    3    0  502 -0.59287117902E+03 -0.46551353735E+03  0.11250525012E+04  0.13542312280E+04  0.50400001928E-02 0.  1.
</event>
<event>
 5   0  0.3991066E-07  0.2500190E+04  0.7818609E-02  0.8402918E-01
       -1   -1    0    0    0  501  0.00000000000E+00  0.00000000000E+00  0.25958723025E+04  0.25958723025E+04  0.50400001928E-02 0.  1.
        1   -1    0    0  501    0  0.00000000000E+00  0.00000000000E+00 -0.60200849212E+03  0.60200849214E+03  0.50400001928E-02 0. -1.
    10030    2    1    2    0    0  0.00000000000E+00  0.00000000000E+00  0.19938638104E+04  0.31978807947E+04  0.25001897293E+04 0.  0.
        1    1    3    3  502    0 -0.41039472710E+03  0.12972902786E+03 -0.50424730442E+03  0.66296213824E+03  0.50400001928E-02 0. -1.
       -1    1    3    3    0  502  0.41039472710E+03 -0.12972902786E+03  0.24981111148E+04  0.25349186564E+04  0.50400001928E-02 0.  1.
</event>
<event>
 5   0  0.3873231E-07  0.2498929E+04  0.7818609E-02  0.8403367E-01
        1   -1    0    0  501    0  0.00000000000E+00  0.00000000000E+00  0.20275415741E+04  0.20275415741E+04  0.50400001928E-02 0. -1.
       -1   -1    0    0    0  501  0.00000000000E+00  0.00000000000E+00 -0.76997732578E+03  0.76997732580E+03  0.50400001928E-02 0.  1.
    10030    2    1    2    0    0  0.00000000000E+00  0.00000000000E+00  0.12575642483E+04  0.27975188999E+04  0.24989286017E+04 0.  0.
        2    1    3    3  502    0  0.26995673831E+03 -0.97635488855E+03 -0.19006414722E+03  0.10306647801E+04  0.25500000920E-02 0.  1.
       -2    1    3    3    0  502 -0.26995673831E+03  0.97635488855E+03  0.14476283955E+04  0.17668541197E+04  0.25500000920E-02 0. -1.
</event>
<event>
 5   0  0.3991066E-07  0.2499539E+04  0.7818609E-02  0.8403150E-01
        1   -1    0    0  501    0  0.00000000000E+00  0.00000000000E+00  0.23788287445E+04  0.23788287445E+04  0.50400001928E-02 0. -1.
       -1   -1    0    0    0  501  0.00000000000E+00  0.00000000000E+00 -0.65659358354E+03  0.65659358356E+03  0.50400001928E-02 0.  1.
    10030    2    1    2    0    0  0.00000000000E+00  0.00000000000E+00  0.17222351609E+04  0.30354223280E+04  0.24995389095E+04 0.  0.
        1    1    3    3  502    0 -0.52686132345E+02  0.42446757001E+03 -0.56494124830E+03  0.70859520220E+03  0.50400001928E-02 0.  1.
       -1    1    3    3    0  502  0.52686132345E+02 -0.42446757001E+03  0.22871764092E+04  0.23268271258E+04  0.50400001928E-02 0. -1.
</event>
<event>
 5   0  0.3837524E-07  0.2501322E+04  0.7818609E-02  0.8402515E-01
        1   -1    0    0  501    0  0.00000000000E+00  0.00000000000E+00  0.20694362568E+04  0.20694362568E+04  0.50400001928E-02 0.  1.
       -1   -1    0    0    0  501  0.00000000000E+00  0.00000000000E+00 -0.75583518829E+03  0.75583518830E+03  0.50400001928E-02 0. -1.
    10030    2    1    2    0    0  0.00000000000E+00  0.00000000000E+00  0.13136010685E+04  0.28252714451E+04  0.25013218448E+04 0.  0.
        5    1    3    3  502    0  0.95852705079E+03  0.69662362435E+03  0.20489424341E+03  0.12025233146E+04  0.46999998093E+01 0.  1.
       -5    1    3    3    0  502 -0.95852705079E+03 -0.69662362435E+03  0.11087068251E+04  0.16227481305E+04  0.46999998093E+01 0. -1.
</event>
<event>
 5   0  0.3873231E-07  0.2502150E+04  0.7818609E-02  0.8402220E-01
       -1   -1    0    0    0  501  0.00000000000E+00  0.00000000000E+00  0.10966606073E+04  0.10966606073E+04  0.50400001928E-02 0.  1.
        1   -1    0    0  501    0  0.00000000000E+00  0.00000000000E+00 -0.14272315603E+04  0.14272315603E+04  0.50400001928E-02 0. -1.
    10030    2    1    2    0    0  0.00000000000E+00  0.00000000000E+00 -0.33057095295E+03  0.25238921676E+04  0.25021499793E+04 0.  0.
        2    1    3    3  502    0  0.63069775421E+03 -0.17640706619E+03 -0.12405169259E+04  0.14027763021E+04  0.25500000920E-02 0. -1.
       -2    1    3    3    0  502 -0.63069775421E+03  0.17640706619E+03  0.90994597297E+03  0.11211158655E+04  0.25500000920E-02 0.  1.
</event>
<event>
 5   0  0.8997210E-07  0.2499848E+04  0.7818609E-02  0.8403040E-01
        2   -1    0    0  501    0  0.00000000000E+00  0.00000000000E+00  0.12462567220E+04  0.12462567220E+04  0.25500000920E-02 0. -1.
       -2   -1    0    0    0  501  0.00000000000E+00  0.00000000000E+00 -0.12536024107E+04  0.12536024107E+04  0.25500000920E-02 0.  1.
    10030    2    1    2    0    0  0.00000000000E+00  0.00000000000E+00 -0.73456887196E+01  0.24998591327E+04  0.24998483402E+04 0.  0.
        1    1    3    3  502    0  0.11182696129E+03  0.10198011805E+04 -0.71768623074E+03  0.12520276526E+04  0.50400001928E-02 0.  1.
       -1    1    3    3    0  502 -0.11182696129E+03 -0.10198011805E+04  0.71034054202E+03  0.12478314801E+04  0.50400001928E-02 0. -1.
</event>
<event>
 5   0  0.9768582E-07  0.2499485E+04  0.7818609E-02  0.8403169E-01
       -2   -1    0    0    0  501  0.00000000000E+00  0.00000000000E+00  0.13106374069E+04  0.13106374070E+04  0.25500000920E-02 0.  1.
        2   -1    0    0  501    0  0.00000000000E+00  0.00000000000E+00 -0.11916768079E+04  0.11916768079E+04  0.25500000920E-02 0. -1.
    10030    2    1    2    0    0  0.00000000000E+00  0.00000000000E+00  0.11896059901E+03  0.25023142149E+04  0.24994849081E+04 0.  0.
        3    1    3    3  502    0  0.19262889260E+03  0.82619350190E+03  0.97820889996E+03  0.12948336785E+04  0.10100000352E+00 0.  1.
       -3    1    3    3    0  502 -0.19262889260E+03 -0.82619350190E+03 -0.85924830095E+03  0.12074805364E+04  0.10100000352E+00 0. -1.
</event>
<event>
 5   0  0.3991066E-07  0.2500657E+04  0.7818609E-02  0.8402751E-01
        1   -1    0    0  501    0  0.00000000000E+00  0.00000000000E+00  0.15844641147E+04  0.15844641147E+04  0.50400001928E-02 0.  1.
       -1   -1    0    0    0  501  0.00000000000E+00  0.00000000000E+00 -0.98665659829E+03  0.98665659830E+03  0.50400001928E-02 0. -1.
    10030    2    1    2    0    0  0.00000000000E+00  0.00000000000E+00  0.59780751639E+03  0.25711207130E+04  0.25006574924E+04 0.  0.
        1    1    3    3  502    0  0.79596328566E+03  0.16725581308E+03  0.12752884061E+04  0.15125781229E+04  0.50400001928E-02 0.  1.
       -1    1    3    3    0  502 -0.79596328566E+03 -0.16725581308E+03 -0.67748088969E+03  0.10585425901E+04  0.50400001928E-02 0. -1.
</event>
<event>
 5   0  0.3873231E-07  0.2497060E+04  0.7818609E-02  0.8404034E-01
       -1   -1    0    0    0  501  0.00000000000E+00  0.00000000000E+00  0.11237835089E+04  0.11237835089E+04  0.50400001928E-02 0. -1.
        1   -1    0    0  501    0  0.00000000000E+00  0.00000000000E+00 -0.13871240994E+04  0.13871240994E+04  0.50400001928E-02 0.  1.
    10030    2    1    2    0    0  0.00000000000E+00  0.00000000000E+00 -0.26334059047E+03  0.25109076083E+04  0.24970600214E+04 0.  0.
        2    1    3    3  502    0 -0.86069502244E+02 -0.18564226060E+03  0.11068076264E+04  0.11255639165E+04  0.25500000920E-02 0. -1.
       -2    1    3    3    0  502  0.86069502244E+02  0.18564226060E+03 -0.13701482169E+04  0.13853436918E+04  0.25500000920E-02 0.  1.
</event>
<event>
 5   0  0.3991066E-07  0.2498605E+04  0.7818609E-02  0.8403483E-01
       -1   -1    0    0    0  501  0.00000000000E+00  0.00000000000E+00  0.17096645163E+04  0.17096645163E+04  0.50400001928E-02 0. -1.
        1   -1    0    0  501    0  0.00000000000E+00  0.00000000000E+00 -0.91290262136E+03  0.91290262138E+03  0.50400001928E-02 0.  1.
    10030    2    1    2    0    0  0.00000000000E+00  0.00000000000E+00  0.79676189491E+03  0.26225671377E+04  0.24986053859E+04 0.  0.
        1    1    3    3  502    0  0.97830206706E+03 -0.42668300485E+03  0.10799212653E+04  0.15183422737E+04  0.50400001928E-02 0. -1.
       -1    1    3    3    0  502 -0.97830206706E+03  0.42668300485E+03 -0.28315937036E+03  0.11042248639E+04  0.50400001928E-02 0.  1.
</event>
<event>
 5   0  0.3873231E-07  0.2499779E+04  0.7818609E-02  0.8403064E-01
       -1   -1    0    0    0  501  0.00000000000E+00  0.00000000000E+00  0.92874763718E+03  0.92874763720E+03  0.50400001928E-02 0.  1.
        1   -1    0    0  501    0  0.00000000000E+00  0.00000000000E+00 -0.16820762125E+04  0.16820762125E+04  0.50400001928E-02 0. -1.
    10030    2    1    2    0    0  0.00000000000E+00  0.00000000000E+00 -0.75332857528E+03  0.26108238497E+04  0.24997794366E+04 0.  0.
        2    1    3    3  502    0 -0.74796725164E+03  0.61374146616E+03 -0.12030722832E+04  0.15438641505E+04  0.25500000920E-02 0. -1.
       -2    1    3    3    0  502  0.74796725164E+03 -0.61374146616E+03  0.44974370787E+03  0.10669596991E+04  0.25500000920E-02 0.  1.
</event>
<event>
 5   0  0.3972587E-07  0.2500698E+04  0.7818609E-02  0.8402737E-01
       -1   -1    0    0    0  501  0.00000000000E+00  0.00000000000E+00  0.11182471646E+04  0.11182471647E+04  0.50400001928E-02 0.  1.
        1   -1    0    0  501    0  0.00000000000E+00  0.00000000000E+00 -0.13980568263E+04  0.13980568263E+04  0.50400001928E-02 0. -1.
    10030    2    1    2    0    0  0.00000000000E+00  0.00000000000E+00 -0.27980966165E+03  0.25163039910E+04  0.25006983681E+04 0.  0.
        3    1    3    3  502    0 -0.10375130832E+04 -0.49418810864E+03 -0.63564327329E+03  0.13132774518E+04  0.10100000352E+00 0.  1.
       -3    1    3    3    0  502  0.10375130832E+04  0.49418810864E+03  0.35583361164E+03  0.12030265391E+04  0.10100000352E+00 0. -1.
</event>
<event>
 5   0  0.8997210E-07  0.2501435E+04  0.7818609E-02  0.8402474E-01
       -2   -1    0    0    0  501  0.00000000000E+00  0.00000000000E+00  0.15697532656E+04  0.15697532656E+04  0.25500000920E-02 0. -1.
        2   -1    0    0  501    0  0.00000000000E+00  0.00000000000E+00 -0.99652247459E+03  0.99652247460E+03  0.25500000920E-02 0.  1.
    10030    2    1    2    0    0  0.00000000000E+00  0.00000000000E+00  0.57323079105E+03  0.25662757402E+04  0.25014351151E+04 0.  0.
        1    1    3    3  502    0  0.81647627790E+03 -0.67168548054E+03 -0.39891161379E+03  0.11300112268E+04  0.50400001928E-02 0.  1.
       -1    1    3    3    0  502 -0.81647627790E+03  0.67168548054E+03  0.97214240484E+03  0.14362645134E+04  0.50400001928E-02 0. -1.
</event>
<event>
 5   0  0.3837524E-07  0.2500235E+04  0.7818609E-02  0.8402902E-01
        1   -1    0    0  501    0  0.00000000000E+00  0.00000000000E+00  0.12762506016E+04  0.12762506016E+04  0.50400001928E-02 0. -1.
       -1   -1    0    0    0  501  0.00000000000E+00  0.00000000000E+00 -0.12245190324E+04  0.12245190324E+04  0.50400001928E-02 0.  1.
    10030    2    1    2    0    0  0.00000000000E+00  0.00000000000E+00  0.51731569169E+02  0.25007696340E+04  0.25002345104E+04 0.  0.
        5    1    3    3  502    0  0.46452051053E+02  0.55769027140E+03  0.11439578144E+04  0.12735139587E+04  0.46999998093E+01 0. -1.
       -5    1    3    3    0  502 -0.46452051053E+02 -0.55769027140E+03 -0.10922262452E+04  0.12272556753E+04  0.46999998093E+01 0.  1.
</event>
<event>
 5   0  0.9508784E-07  0.2499968E+04  0.7818609E-02  0.8402997E-01
        2   -1    0    0  501    0  0.00000000000E+00  0.00000000000E+00  0.19085516251E+04  0.19085516251E+04  0.25500000920E-02 0. -1.
       -2   -1    0    0    0  501  0.00000000000E+00  0.00000000000E+00 -0.81866241432E+03  0.81866241432E+03  0.25500000920E-02 0.  1.
    10030    2    1    2    0    0  0.00000000000E+00  0.00000000000E+00  0.10898892108E+04  0.27272140394E+04  0.24999675848E+04 0.  0.
        2    1    3    3  502    0 -0.41559592902E+03 -0.89321698781E+03  0.13842308141E+04  0.16990148647E+04  0.25500000920E-02 0. -1.
       -2    1    3    3    0  502  0.41559592902E+03  0.89321698781E+03 -0.29434160335E+03  0.10281991748E+04  0.25500000920E-02 0.  1.
</event>
<event>
 5   0  0.3873231E-07  0.2500343E+04  0.7818609E-02  0.8402863E-01
       -1   -1    0    0    0  501  0.00000000000E+00  0.00000000000E+00  0.10449144893E+04  0.10449144893E+04  0.50400001928E-02 0. -1.
        1   -1    0    0  501    0  0.00000000000E+00  0.00000000000E+00 -0.14957481995E+04  0.14957481995E+04  0.50400001928E-02 0.  1.
    10030    2    1    2    0    0  0.00000000000E+00  0.00000000000E+00 -0.45083371024E+03  0.25406626888E+04  0.25003431492E+04 0.  0.
        2    1    3    3  502    0 -0.37595654445E+03  0.94676324778E+03  0.51099383948E+03  0.11396572619E+04  0.25500000920E-02 0. -1.
       -2    1    3    3    0  502  0.37595654445E+03 -0.94676324778E+03 -0.96182754972E+03  0.14010054268E+04  0.25500000920E-02 0.  1.
</event>
<event>
 5   0  0.9768582E-07  0.2497823E+04  0.7818609E-02  0.8403762E-01
        2   -1    0    0  501    0  0.00000000000E+00  0.00000000000E+00  0.26731228041E+04  0.26731228041E+04  0.25500000920E-02 0.  1.
       -2   -1    0    0    0  501  0.00000000000E+00  0.00000000000E+00 -0.58350466780E+03  0.58350466781E+03  0.25500000920E-02 0. -1.
    10030    2    1    2    0    0  0.00000000000E+00  0.00000000000E+00  0.20896181363E+04  0.32566274719E+04  0.24978227590E+04 0.  0.
        3    1    3    3  502    0 -0.42353127277E+03 -0.72675517928E+03 -0.15879683945E+03  0.85601885262E+03  0.10100000352E+00 0. -1.
       -3    1    3    3    0  502  0.42353127277E+03  0.72675517928E+03  0.22484149758E+04  0.24006086193E+04  0.10100000352E+00 0.  1.
</event>
<event>
 5   0  0.3991066E-07  0.2500440E+04  0.7818609E-02  0.8402829E-01
        1   -1    0    0  501    0  0.00000000000E+00  0.00000000000E+00  0.24433232115E+04  0.24433232115E+04  0.50400001928E-02 0. -1.
       -1   -1    0    0    0  501  0.00000000000E+00  0.00000000000E+00 -0.63972291759E+03  0.63972291761E+03  0.50400001928E-02 0.  1.
    10030    2    1    2    0    0  0.00000000000E+00  0.00000000000E+00  0.18036002939E+04  0.30830461291E+04  0.25004398441E+04 0.  0.
        1    1    3    3  502    0  0.35307614999E+03  0.44811629369E+03 -0.46987116465E+03  0.73908720173E+03  0.50400001928E-02 0.  1.
       -1    1    3    3    0  502 -0.35307614999E+03 -0.44811629369E+03  0.22734714586E+04  0.23439589274E+04  0.50400001928E-02 0. -1.
</event>
<event>
 5   0  0.9768582E-07  0.2500231E+04  0.7818609E-02  0.8402903E-01
       -2   -1    0    0    0  501  0.00000000000E+00  0.00000000000E+00  0.12156660426E+04  0.12156660426E+04  0.25500000920E-02 0.  1.
        2   -1    0    0  501    0  0.00000000000E+00  0.00000000000E+00 -0.12855411578E+04  0.12855411578E+04  0.25500000920E-02 0. -1.
    10030    2    1    2    0    0  0.00000000000E+00  0.00000000000E+00 -0.69875115283E+02  0.25012072004E+04  0.25002309748E+04 0.  0.
        3    1    3    3  502    0 -0.52325664136E+03  0.97187125167E+03 -0.62207171723E+03  0.12670061066E+04  0.10100000352E+00 0. -1.
       -3    1    3    3    0  502  0.52325664136E+03 -0.97187125167E+03  0.55219660195E+03  0.12342010938E+04  0.10100000352E+00 0.  1.
</event>
<event>
 5   0  0.3972587E-07  0.2500274E+04  0.7818609E-02  0.8402888E-01
        1   -1    0    0  501    0  0.00000000000E+00  0.00000000000E+00  0.83031647458E+03  0.83031647460E+03  0.50400001928E-02 0.  1.
       -1   -1    0    0    0  501  0.00000000000E+00  0.00000000000E+00 -0.18822252347E+04  0.18822252348E+04  0.50400001928E-02 0. -1.
    10030    2    1    2    0    0  0.00000000000E+00  0.00000000000E+00 -0.10519087602E+04  0.27125417094E+04  0.25002740820E+04 0.  0.
        3    1    3    3  502    0  0.26991380142E+02  0.10645410913E+04 -0.12364309942E+04  0.16317897791E+04  0.10100000352E+00 0. -1.
       -3    1    3    3    0  502 -0.26991380142E+02 -0.10645410913E+04  0.18452223404E+03  0.10807519302E+04  0.10100000352E+00 0.  1.
</event>
<event>
 5   0  0.3837524E-07  0.2487410E+04  0.7818609E-02  0.8407484E-01
        1   -1    0    0  501    0  0.00000000000E+00  0.00000000000E+00  0.10338881006E+04  0.10338881006E+04  0.50400001928E-02 0. -1.
       -1   -1    0    0    0  501  0.00000000000E+00  0.00000000000E+00 -0.14961023774E+04  0.14961023775E+04  0.50400001928E-02 0.  1.
    10030    2    1    2    0    0  0.00000000000E+00  0.00000000000E+00 -0.46221427682E+03  0.25299904781E+04  0.24874102560E+04 0.  0.
        5    1    3    3  502    0  0.11852266149E+04  0.34784113200E+03 -0.37858849708E+03  0.12919392098E+04  0.46999998093E+01 0.  1.
       -5    1    3    3    0  502 -0.11852266149E+04 -0.34784113200E+03 -0.83625779742E+02  0.12380512683E+04  0.46999998093E+01 0. -1.
</event>
<event>
 5   0  0.3972587E-07  0.2499827E+04  0.7818609E-02  0.8403047E-01
        1   -1    0    0  501    0  0.00000000000E+00  0.00000000000E+00  0.24396749168E+04  0.24396749168E+04  0.50400001928E-02 0.  1.
       -1   -1    0    0    0  501  0.00000000000E+00  0.00000000000E+00 -0.64036571129E+03  0.64036571130E+03  0.50400001928E-02 0. -1.
    10030    2    1    2    0    0  0.00000000000E+00  0.00000000000E+00  0.17993092055E+04  0.30800406281E+04  0.24998273248E+04 0.  0.
        3    1    3    3  502    0  0.30097258361E+03 -0.11971135474E+04  0.65752611618E+03  0.13985728244E+04  0.10100000352E+00 0. -1.
       -3    1    3    3    0  502 -0.30097258361E+03  0.11971135474E+04  0.11417830893E+04  0.16814678037E+04  0.10100000352E+00 0.  1.
</event>
<event>
 5   0  0.9251138E-07  0.2500751E+04  0.7818609E-02  0.8402718E-01
        2   -1    0    0  501    0  0.00000000000E+00  0.00000000000E+00  0.26264855572E+04  0.26264855572E+04  0.25500000920E-02 0.  1.
       -2   -1    0    0    0  501  0.00000000000E+00  0.00000000000E+00 -0.59525912527E+03  0.59525912527E+03  0.25500000920E-02 0. -1.
    10030    2    1    2    0    0  0.00000000000E+00  0.00000000000E+00  0.20312264320E+04  0.32217446825E+04  0.25007514833E+04 0.  0.
        5    1    3    3  502    0  0.14296971087E+03  0.11145853506E+04  0.17220452330E+04  0.20562593991E+04  0.46999998093E+01 0. -1.
       -5    1    3    3    0  502 -0.14296971087E+03 -0.11145853506E+04  0.30918119896E+03  0.11654852834E+04  0.46999998093E+01 0.  1.
</event>
<event>
 5   0  0.8997210E-07  0.2499905E+04  0.7818609E-02  0.8403019E-01
       -2   -1    0    0    0  501  0.00000000000E+00  0.00000000000E+00  0.79802493973E+03  0.79802493973E+03  0.25500000920E-02 0. -1.
        2   -1    0    0  501    0  0.00000000000E+00  0.00000000000E+00 -0.19578104343E+04  0.19578104343E+04  0.25500000920E-02 0.  1.
    10030    2    1    2    0    0  0.00000000000E+00  0.00000000000E+00 -0.11597854946E+04  0.27558353741E+04  0.24999052413E+04 0.  0.
        1    1    3    3  502    0  0.57378103285E+03 -0.44114562379E+03 -0.17033146550E+04  0.18507066080E+04  0.50400001928E-02 0.  1.
       -1    1    3    3    0  502 -0.57378103285E+03  0.44114562379E+03  0.54352916033E+03  0.90512876609E+03  0.50400001928E-02 0. -1.
</event>
<event>
 5   0  0.8997210E-07  0.2494620E+04  0.7818609E-02  0.8404905E-01
       -2   -1    0    0    0  501  0.00000000000E+00  0.00000000000E+00  0.10339982936E+04  0.10339982936E+04  0.25500000920E-02 0. -1.
        2   -1    0    0  501    0  0.00000000000E+00  0.00000000000E+00 -0.15046278116E+04  0.15046278116E+04  0.25500000920E-02 0.  1.
    10030    2    1    2    0    0  0.00000000000E+00  0.00000000000E+00 -0.47062951801E+03  0.25386261053E+04  0.24946202836E+04 0.  0.
        1    1    3    3  502    0  0.91378007651E+03  0.60667545846E+03  0.36907572144E+03  0.11572666194E+04  0.50400001928E-02 0.  1.
       -1    1    3    3    0  502 -0.91378007651E+03 -0.60667545846E+03 -0.83970523945E+03  0.13813594859E+04  0.50400001928E-02 0. -1.
</event>
<event>
 5   0  0.3873231E-07  0.2499226E+04  0.7818609E-02  0.8403261E-01
       -1   -1    0    0    0  501  0.00000000000E+00  0.00000000000E+00  0.13580212050E+04  0.13580212051E+04  0.50400001928E-02 0.  1.
        1   -1    0    0  501    0  0.00000000000E+00  0.00000000000E+00 -0.11498592230E+04  0.11498592230E+04  0.50400001928E-02 0. -1.
    10030    2    1    2    0    0  0.00000000000E+00  0.00000000000E+00  0.20816198205E+03  0.25078804281E+04  0.24992264465E+04 0.  0.
        2    1    3    3  502    0  0.32492314952E+02 -0.34048697800E+03  0.13101354470E+04  0.13540465362E+04  0.25500000920E-02 0.  1.
       -2    1    3    3    0  502 -0.32492314952E+02  0.34048697800E+03 -0.11019734649E+04  0.11538338919E+04  0.25500000920E-02 0. -1.
</event>
<event>
 5   0  0.3214375E-07  0.2499222E+04  0.7818609E-02  0.8403263E-01
        4   -1    0    0  501    0  0.00000000000E+00  0.00000000000E+00  0.87660187774E+03  0.87660279771E+03  0.12699999809E+01 0. -1.
       -4   -1    0    0    0  501  0.00000000000E+00  0.00000000000E+00 -0.17813394330E+04  0.17813398857E+04  0.12699999809E+01 0.  1.
    10030    2    1    2    0    0  0.00000000000E+00  0.00000000000E+00 -0.90473755524E+03  0.26579426834E+04  0.24992217317E+04 0.  0.
        4    1    3    3  502    0 -0.11536338913E+04  0.22335021275E+03 -0.19739022131E+00  0.11750566474E+04  0.12699999809E+01 0. -1.
       -4    1    3    3    0  502  0.11536338913E+04 -0.22335021275E+03 -0.90454016502E+03  0.14828860360E+04  0.12699999809E+01 0.  1.
</event>
<event>
 5   0  0.9508784E-07  0.2503077E+04  0.7818609E-02  0.8401890E-01
       -2   -1    0    0    0  501  0.00000000000E+00  0.00000000000E+00  0.89344282478E+03  0.89344282478E+03  0.25500000920E-02 0. -1.
        2   -1    0    0  501    0  0.00000000000E+00  0.00000000000E+00 -0.17531605093E+04  0.17531605093E+04  0.25500000920E-02 0.  1.
    10030    2    1    2    0    0  0.00000000000E+00  0.00000000000E+00 -0.85971768454E+03  0.26466033341E+04  0.25030770485E+04 0.  0.
        2    1    3    3  502    0  0.19834473135E+03 -0.97785288252E+03  0.36898354870E+03  0.10638071966E+04  0.25500000920E-02 0. -1.
       -2    1    3    3    0  502 -0.19834473135E+03  0.97785288252E+03 -0.12287012332E+04  0.15827961375E+04  0.25500000920E-02 0.  1.
</event>
<event>
 5   0  0.3837524E-07  0.2500125E+04  0.7818609E-02  0.8402941E-01
       -1   -1    0    0    0  501  0.00000000000E+00  0.00000000000E+00  0.76752014004E+03  0.76752014006E+03  0.50400001928E-02 0. -1.
        1   -1    0    0  501    0  0.00000000000E+00  0.00000000000E+00 -0.20359813059E+04  0.20359813059E+04  0.50400001928E-02 0.  1.
    10030    2    1    2    0    0  0.00000000000E+00  0.00000000000E+00 -0.12684611659E+04  0.28035014460E+04  0.25001253225E+04 0.  0.
        5    1    3    3  502    0 -0.72384356344E+03 -0.90810423052E+03 -0.11530044926E+04  0.16364731125E+04  0.46999998093E+01 0. -1.
       -5    1    3    3    0  502  0.72384356344E+03  0.90810423052E+03 -0.11545667327E+03  0.11670283335E+04  0.46999998093E+01 0.  1.
</event>
<event>
 5   0  0.3805418E-07  0.2500291E+04  0.7818609E-02  0.8402882E-01
       -1   -1    0    0    0  501  0.00000000000E+00  0.00000000000E+00  0.65712697208E+03  0.65712697210E+03  0.50400001928E-02 0.  1.
        1   -1    0    0  501    0  0.00000000000E+00  0.00000000000E+00 -0.23783280022E+04  0.23783280022E+04  0.50400001928E-02 0. -1.
    10030    2    1    2    0    0  0.00000000000E+00  0.00000000000E+00 -0.17212010301E+04  0.30354549743E+04  0.25002907661E+04 0.  0.
        4    1    3    3  502    0 -0.44178149658E+03  0.73610385329E+03  0.24266942535E+03  0.89213779005E+03  0.12699999809E+01 0.  1.
       -4    1    3    3    0  502  0.44178149658E+03 -0.73610385329E+03 -0.19638704554E+04  0.21433171842E+04  0.12699999809E+01 0. -1.
</event>
<event>
 5   0  0.3972587E-07  0.2509920E+04  0.7818609E-02  0.8399460E-01
       -1   -1    0    0    0  501  0.00000000000E+00  0.00000000000E+00  0.15227125682E+04  0.15227125682E+04  0.50400001928E-02 0. -1.
        1   -1    0    0  501    0  0.00000000000E+00  0.00000000000E+00 -0.10342888447E+04  0.10342888447E+04  0.50400001928E-02 0.  1.
    10030    2    1    2    0    0  0.00000000000E+00  0.00000000000E+00  0.48842372358E+03  0.25570014129E+04  0.25099200170E+04 0.  0.
        3    1    3    3  502    0 -0.57484645542E+03  0.17263192216E+03 -0.87858456650E+03  0.10640305816E+04  0.10100000352E+00 0.  1.
       -3    1    3    3    0  502  0.57484645542E+03 -0.17263192216E+03  0.13670082901E+04  0.14929708313E+04  0.10100000352E+00 0. -1.
</event>
<event>
 5   0  0.3837524E-07  0.2502852E+04  0.7818609E-02  0.8401970E-01
       -1   -1    0    0    0  501  0.00000000000E+00  0.00000000000E+00  0.89004474111E+03  0.89004474112E+03  0.50400001928E-02 0. -1.
        1   -1    0    0  501    0  0.00000000000E+00  0.00000000000E+00 -0.17595376539E+04  0.17595376539E+04  0.50400001928E-02 0.  1.
    10030    2    1    2    0    0  0.00000000000E+00  0.00000000000E+00 -0.86949291275E+03  0.26495823950E+04  0.25028521615E+04 0.  0.
        5    1    3    3  502    0  0.97997692251E+03  0.25302356059E+03 -0.12138755200E+04  0.15804719418E+04  0.46999998093E+01 0.  1.
       -5    1    3    3    0  502 -0.97997692251E+03 -0.25302356059E+03  0.34438260725E+03  0.10691104532E+04  0.46999998093E+01 0. -1.
</event>
<event>
 5   0  0.9508784E-07  0.2500101E+04  0.7818609E-02  0.8402949E-01
        2   -1    0    0  501    0  0.00000000000E+00  0.00000000000E+00  0.71660438698E+03  0.71660438699E+03  0.25500000920E-02 0.  1.
       -2   -1    0    0    0  501  0.00000000000E+00  0.00000000000E+00 -0.21805984811E+04  0.21805984811E+04  0.25500000920E-02 0. -1.
    10030    2    1    2    0    0  0.00000000000E+00  0.00000000000E+00 -0.14639940942E+04  0.28972028681E+04  0.25001011482E+04 0.  0.
        2    1    3    3  502    0 -0.20576196367E+03  0.51414506151E+03  0.56669549037E+03  0.79235529201E+03  0.25500000920E-02 0.  1.
       -2    1    3    3    0  502  0.20576196367E+03 -0.51414506151E+03 -0.20306895845E+04  0.21048475761E+04  0.25500000920E-02 0. -1.
</event>
<event>
 5   0  0.9508784E-07  0.2499832E+04  0.7818609E-02  0.8403046E-01
        2   -1    0    0  501    0  0.00000000000E+00  0.00000000000E+00  0.14114218012E+04  0.14114218012E+04  0.25500000920E-02 0. -1.
       -2   -1    0    0    0  501  0.00000000000E+00  0.00000000000E+00 -0.11068906295E+04  0.11068906295E+04  0.25500000920E-02 0.  1.
    10030    2    1    2    0    0  0.00000000000E+00  0.00000000000E+00  0.30453117167E+03  0.25183124307E+04  0.24998316471E+04 0.  0.
        2    1    3    3  502    0 -0.33865787544E+03 -0.88016244707E+03  0.97864365476E+03  0.13590873750E+04  0.25500000920E-02 0. -1.
       -2    1    3    3    0  502  0.33865787544E+03  0.88016244707E+03 -0.67411248310E+03  0.11592250557E+04  0.25500000920E-02 0.  1.
</event>
<event>
 5   0  0.3805418E-07  0.2500111E+04  0.7818609E-02  0.8402946E-01
       -1   -1    0    0    0  501  0.00000000000E+00  0.00000000000E+00  0.12696150307E+04  0.12696150307E+04  0.50400001928E-02 0. -1.
        1   -1    0    0  501    0  0.00000000000E+00  0.00000000000E+00 -0.12307977265E+04  0.12307977266E+04  0.50400001928E-02 0.  1.
    10030    2    1    2    0    0  0.00000000000E+00  0.00000000000E+00  0.38817304171E+02  0.25004127573E+04  0.25001114323E+04 0.  0.
        4    1    3    3  502    0  0.23980013557E+02 -0.76668987786E+03 -0.96775097376E+03  0.12348813587E+04  0.12699999809E+01 0. -1.
       -4    1    3    3    0  502 -0.23980013557E+02  0.76668987786E+03  0.10065682779E+04  0.12655313986E+04  0.12699999809E+01 0.  1.
</event>
<event>
 5   0  0.3991066E-07  0.2499855E+04  0.7818609E-02  0.8403037E-01
       -1   -1    0    0    0  501  0.00000000000E+00  0.00000000000E+00  0.95917194104E+03  0.95917194105E+03  0.50400001928E-02 0. -1.
        1   -1    0    0  501    0  0.00000000000E+00  0.00000000000E+00 -0.16288201737E+04  0.16288201737E+04  0.50400001928E-02 0.  1.
    10030    2    1    2    0    0  0.00000000000E+00  0.00000000000E+00 -0.66964823266E+03  0.25879921148E+04  0.24998548819E+04 0.  0.
        1    1    3    3  502    0 -0.43556115622E+03  0.95154654128E+03  0.37276795594E+03  0.11109051670E+04  0.50400001928E-02 0. -1.
       -1    1    3    3    0  502  0.43556115622E+03 -0.95154654128E+03 -0.10424161886E+04  0.14770869478E+04  0.50400001928E-02 0.  1.
</event>
<event>
 5   0  0.3991066E-07  0.2500541E+04  0.7818609E-02  0.8402793E-01
        1   -1    0    0  501    0  0.00000000000E+00  0.00000000000E+00  0.19908337375E+04  0.19908337375E+04  0.50400001928E-02 0.  1.
       -1   -1    0    0    0  501  0.00000000000E+00  0.00000000000E+00 -0.78518687368E+03  0.78518687370E+03  0.50400001928E-02 0. -1.
    10030    2    1    2    0    0  0.00000000000E+00  0.00000000000E+00  0.12056468638E+04  0.27760206112E+04  0.25005411562E+04 0.  0.
        1    1    3    3  502    0 -0.18330897372E+03 -0.74545448391E+03  0.16983921119E+04  0.18638241154E+04  0.50400001928E-02 0.  1.
       -1    1    3    3    0  502  0.18330897372E+03  0.74545448391E+03 -0.49274524807E+03  0.91219649580E+03  0.50400001928E-02 0. -1.
</event>
<event>
 5   0  0.3837524E-07  0.2499950E+04  0.7818609E-02  0.8403003E-01
        1   -1    0    0  501    0  0.00000000000E+00  0.00000000000E+00  0.81346273120E+03  0.81346273122E+03  0.50400001928E-02 0. -1.
       -1   -1    0    0    0  501  0.00000000000E+00  0.00000000000E+00 -0.19207240582E+04  0.19207240582E+04  0.50400001928E-02 0.  1.
    10030    2    1    2    0    0  0.00000000000E+00  0.00000000000E+00 -0.11072613270E+04  0.27341867894E+04  0.24999499501E+04 0.  0.
        5    1    3    3  502    0  0.12490372743E+04  0.41875071885E+02 -0.52757142925E+03  0.13565402085E+04  0.46999998093E+01 0. -1.
       -5    1    3    3    0  502 -0.12490372743E+04 -0.41875071885E+02 -0.57968989772E+03  0.13776465809E+04  0.46999998093E+01 0.  1.
</event>
<event>
 5   0  0.9261602E-07  0.2501585E+04  0.7818609E-02  0.8402421E-01
        2   -1    0    0  501    0  0.00000000000E+00  0.00000000000E+00  0.22800789446E+04  0.22800789446E+04  0.25500000920E-02 0.  1.
       -2   -1    0    0    0  501  0.00000000000E+00  0.00000000000E+00 -0.68615268904E+03  0.68615268905E+03  0.25500000920E-02 0. -1.
    10030    2    1    2    0    0  0.00000000000E+00  0.00000000000E+00  0.15939262555E+04  0.29662316336E+04  0.25015853366E+04 0.  0.
        4    1    3    3  502    0  0.91164594143E+03  0.73306534044E+03  0.13219096748E+04  0.17651996820E+04  0.12699999809E+01 0.  1.
       -4    1    3    3    0  502 -0.91164594143E+03 -0.73306534044E+03  0.27201658072E+03  0.12010319517E+04  0.12699999809E+01 0. -1.
</event>
<event>
 5   0  0.9768582E-07  0.2501239E+04  0.7818609E-02  0.8402544E-01
       -2   -1    0    0    0  501  0.00000000000E+00  0.00000000000E+00  0.55591968614E+03  0.55591968614E+03  0.25500000920E-02 0. -1.
        2   -1    0    0  501    0  0.00000000000E+00  0.00000000000E+00 -0.28134439173E+04  0.28134439173E+04  0.25500000920E-02 0.  1.
    10030    2    1    2    0    0  0.00000000000E+00  0.00000000000E+00 -0.22575242312E+04  0.33693636034E+04  0.25012387807E+04 0.  0.
        3    1    3    3  502    0 -0.67198332004E+03 -0.96194460186E+03 -0.17115190742E+04  0.20751377186E+04  0.10100000352E+00 0.  1.
       -3    1    3    3    0  502  0.67198332004E+03  0.96194460186E+03 -0.54600515696E+03  0.12942258849E+04  0.10100000352E+00 0. -1.
</event>
<event>
 5   0  0.8997210E-07  0.2499831E+04  0.7818609E-02  0.8403046E-01
       -2   -1    0    0    0  501  0.00000000000E+00  0.00000000000E+00  0.14923256457E+04  0.14923256457E+04  0.25500000920E-02 0.  1.
        2   -1    0    0  501    0  0.00000000000E+00  0.00000000000E+00 -0.10468816159E+04  0.10468816159E+04  0.25500000920E-02 0. -1.
    10030    2    1    2    0    0  0.00000000000E+00  0.00000000000E+00  0.44544402974E+03  0.25392072616E+04  0.24998306210E+04 0.  0.
        1    1    3    3  502    0 -0.61614190039E+03 -0.69480054724E+03 -0.62706199714E+03  0.11205290671E+04  0.50400001928E-02 0. -1.
       -1    1    3    3    0  502  0.61614190039E+03  0.69480054724E+03  0.10725060269E+04  0.14186781945E+04  0.50400001928E-02 0.  1.
</event>
<event>
 5   0  0.9768582E-07  0.2501197E+04  0.7818609E-02  0.8402559E-01
       -2   -1    0    0    0  501  0.00000000000E+00  0.00000000000E+00  0.12843566047E+04  0.12843566047E+04  0.25500000920E-02 0.  1.
        2   -1    0    0  501    0  0.00000000000E+00  0.00000000000E+00 -0.12177280811E+04  0.12177280811E+04  0.25500000920E-02 0. -1.
    10030    2    1    2    0    0  0.00000000000E+00  0.00000000000E+00  0.66628523659E+02  0.25020846858E+04  0.25011973962E+04 0.  0.
        3    1    3    3  502    0  0.12306709463E+04  0.21836307133E+03 -0.86968795911E+01  0.12499236196E+04  0.10100000352E+00 0.  1.
       -3    1    3    3    0  502 -0.12306709463E+04 -0.21836307133E+03  0.75325403250E+02  0.12521610662E+04  0.10100000352E+00 0. -1.
</event>
<event>
 5   0  0.9251138E-07  0.2500215E+04  0.7818609E-02  0.8402909E-01
       -2   -1    0    0    0  501  0.00000000000E+00  0.00000000000E+00  0.72056571603E+03  0.72056571604E+03  0.25500000920E-02 0.  1.
        2   -1    0    0  501    0  0.00000000000E+00  0.00000000000E+00 -0.21688086177E+04  0.21688086177E+04  0.25500000920E-02 0. -1.
    10030    2    1    2    0    0  0.00000000000E+00  0.00000000000E+00 -0.14482429016E+04  0.28893743337E+04  0.25002152984E+04 0.  0.
        5    1    3    3  502    0 -0.80670908614E+03  0.95081617332E+03 -0.82694249806E+03  0.14962242246E+04  0.46999998093E+01 0.  1.
       -5    1    3    3    0  502  0.80670908614E+03 -0.95081617332E+03 -0.62130040359E+03  0.13931501091E+04  0.46999998093E+01 0. -1.
</event>
<event>
 5   0  0.3214375E-07  0.2498115E+04  0.7818609E-02  0.8403657E-01
        4   -1    0    0  501    0  0.00000000000E+00  0.00000000000E+00  0.75629244698E+03  0.75629351330E+03  0.12699999809E+01 0.  1.
       -4   -1    0    0    0  501  0.00000000000E+00  0.00000000000E+00 -0.20628833946E+04  0.20628837855E+04  0.12699999809E+01 0. -1.
    10030    2    1    2    0    0  0.00000000000E+00  0.00000000000E+00 -0.13065909476E+04  0.28191772988E+04  0.24981154372E+04 0.  0.
        2    1    3    3  502    0 -0.10034552849E+04  0.73076726077E+03 -0.80967569849E+03  0.14820654624E+04  0.25500000920E-02 0. -1.
       -2    1    3    3    0  502  0.10034552849E+04 -0.73076726077E+03 -0.49691524912E+03  0.13371118364E+04  0.25500000920E-02 0.  1.
</event>
<event>
 5   0  0.3972587E-07  0.2499979E+04  0.7818609E-02  0.8402993E-01
       -1   -1    0    0    0  501  0.00000000000E+00  0.00000000000E+00  0.10284358551E+04  0.10284358551E+04  0.50400001928E-02 0.  1.
        1   -1    0    0  501    0  0.00000000000E+00  0.00000000000E+00 -0.15192721270E+04  0.15192721270E+04  0.50400001928E-02 0. -1.
    10030    2    1    2    0    0  0.00000000000E+00  0.00000000000E+00 -0.49083627188E+03  0.25477079822E+04  0.24999791432E+04 0.  0.
        3    1    3    3  502    0  0.12056687997E+04  0.26587543771E+03 -0.44445933449E+03  0.13122008662E+04  0.10100000352E+00 0. -1.
       -3    1    3    3    0  502 -0.12056687997E+04 -0.26587543771E+03 -0.46376937392E+02  0.12355071160E+04  0.10100000352E+00 0.  1.
</event>
<event>
 5   0  0.8997210E-07  0.2499998E+04  0.7818609E-02  0.8402986E-01
        2   -1    0    0  501    0  0.00000000000E+00  0.00000000000E+00  0.15818573692E+04  0.15818573692E+04  0.25500000920E-02 0. -1.
       -2   -1    0    0    0  501  0.00000000000E+00  0.00000000000E+00 -0.98776092852E+03  0.98776092853E+03  0.25500000920E-02 0.  1.
    10030    2    1    2    0    0  0.00000000000E+00  0.00000000000E+00  0.59409644064E+03  0.25696182977E+04  0.24999975230E+04 0.  0.
        1    1    3    3  502    0 -0.10797894137E+04  0.62420595249E+03  0.21155338836E+03  0.12650427207E+04  0.50400001928E-02 0.  1.
       -1    1    3    3    0  502  0.10797894137E+04 -0.62420595249E+03  0.38254305228E+03  0.13045755770E+04  0.50400001928E-02 0. -1.
</event>
<event>
 5   0  0.3972587E-07  0.2501687E+04  0.7818609E-02  0.8402385E-01
        1   -1    0    0  501    0  0.00000000000E+00  0.00000000000E+00  0.11114616910E+04  0.11114616910E+04  0.50400001928E-02 0. -1.
       -1   -1    0    0    0  501  0.00000000000E+00  0.00000000000E+00 -0.14077047999E+04  0.14077047999E+04  0.50400001928E-02 0.  1.
    10030    2    1    2    0    0  0.00000000000E+00  0.00000000000E+00 -0.29624310889E+03  0.25191664910E+04  0.25016873965E+04 0.  0.
        3    1    3    3  502    0 -0.93807796493E+03 -0.67168754386E+02  0.68232709645E+03  0.11619260676E+04  0.10100000352E+00 0. -1.
       -3    1    3    3    0  502  0.93807796493E+03  0.67168754386E+02 -0.97857020534E+03  0.13572404234E+04  0.10100000352E+00 0.  1.
</event>
<event>
 5   0  0.3873231E-07  0.2500272E+04  0.7818609E-02  0.8402889E-01
       -1   -1    0    0    0  501  0.00000000000E+00  0.00000000000E+00  0.69027091214E+03  0.69027091216E+03  0.50400001928E-02 0. -1.
        1   -1    0    0  501    0  0.00000000000E+00  0.00000000000E+00 -0.22640957580E+04  0.22640957580E+04  0.50400001928E-02 0.  1.
    10030    2    1    2    0    0  0.00000000000E+00  0.00000000000E+00 -0.15738248459E+04  0.29543666702E+04  0.25002715405E+04 0.  0.
        2    1    3    3  502    0  0.79706372620E+03  0.88716053852E+03 -0.34404187568E+03  0.12412611397E+04  0.25500000920E-02 0. -1.
       -2    1    3    3    0  502 -0.79706372620E+03 -0.88716053852E+03 -0.12297829702E+04  0.17131055305E+04  0.25500000920E-02 0.  1.
</event>
<event>
 5   0  0.3805418E-07  0.2500464E+04  0.7818609E-02  0.8402820E-01
        1   -1    0    0  501    0  0.00000000000E+00  0.00000000000E+00  0.12034778871E+04  0.12034778871E+04  0.50400001928E-02 0.  1.
       -1   -1    0    0    0  501  0.00000000000E+00  0.00000000000E+00 -0.12988021261E+04  0.12988021262E+04  0.50400001928E-02 0. -1.
    10030    2    1    2    0    0  0.00000000000E+00  0.00000000000E+00 -0.95324239041E+02  0.25022800133E+04  0.25004636679E+04 0.  0.
        4    1    3    3  502    0  0.76758842316E+03 -0.35279924596E+03 -0.96997075546E+03  0.12862753106E+04  0.12699999809E+01 0. -1.
       -4    1    3    3    0  502 -0.76758842316E+03  0.35279924596E+03  0.87464651642E+03  0.12160047027E+04  0.12699999809E+01 0.  1.
</event>
<event>
 5   0  0.9261602E-07  0.2500296E+04  0.7818609E-02  0.8402880E-01
       -2   -1    0    0    0  501  0.00000000000E+00  0.00000000000E+00  0.78596780307E+03  0.78596780308E+03  0.25500000920E-02 0.  1.
        2   -1    0    0  501    0  0.00000000000E+00  0.00000000000E+00 -0.19884663952E+04  0.19884663952E+04  0.25500000920E-02 0. -1.
    10030    2    1    2    0    0  0.00000000000E+00  0.00000000000E+00 -0.12024985921E+04  0.27744341983E+04  0.25002964337E+04 0.  0.
        4    1    3    3  502    0 -0.24814023508E+03 -0.62213826139E+03 -0.17725601702E+04  0.18948880606E+04  0.12699999809E+01 0. -1.
       -4    1    3    3    0  502  0.24814023508E+03  0.62213826139E+03  0.57006157805E+03  0.87954613763E+03  0.12699999809E+01 0.  1.
</event>
<event>
 5   0  0.3837524E-07  0.2499906E+04  0.7818609E-02  0.8403019E-01
        1   -1    0    0  501    0  0.00000000000E+00  0.00000000000E+00  0.10026943843E+04  0.10026943843E+04  0.50400001928E-02 0. -1.
       -1   -1    0    0    0  501  0.00000000000E+00  0.00000000000E+00 -0.15581837247E+04  0.15581837247E+04  0.50400001928E-02 0.  1.
    10030    2    1    2    0    0  0.00000000000E+00  0.00000000000E+00 -0.55548934035E+03  0.25608781090E+04  0.24999056546E+04 0.  0.
        5    1    3    3  502    0 -0.30641995936E+03 -0.11937339214E+04 -0.49131489020E+03  0.13267653440E+04  0.46999998093E+01 0.  1.
       -5    1    3    3    0  502  0.30641995936E+03  0.11937339214E+04 -0.64174450149E+02  0.12341127650E+04  0.46999998093E+01 0. -1.
</event>
<event>
 5   0  0.3837524E-07  0.2503360E+04  0.7818609E-02  0.8401789E-01
       -1   -1    0    0    0  501  0.00000000000E+00  0.00000000000E+00  0.11142040466E+04  0.11142040466E+04  0.50400001928E-02 0. -1.
        1   -1    0    0  501    0  0.00000000000E+00  0.00000000000E+00 -0.14061184335E+04  0.14061184335E+04  0.50400001928E-02 0.  1.
    10030    2    1    2    0    0  0.00000000000E+00  0.00000000000E+00 -0.29191438689E+03  0.25203224802E+04  0.25033600210E+04 0.  0.
        5    1    3    3  502    0  0.36737538665E+02  0.48090256768E+03 -0.13088002555E+04  0.13948466314E+04  0.46999998093E+01 0.  1.
       -5    1    3    3    0  502 -0.36737538665E+02 -0.48090256768E+03  0.10168858686E+04  0.11254758487E+04  0.46999998093E+01 0. -1.
</event>
<event>
 5   0  0.3837524E-07  0.2498849E+04  0.7818609E-02  0.8403396E-01
       -1   -1    0    0    0  501  0.00000000000E+00  0.00000000000E+00  0.12511744154E+04  0.12511744154E+04  0.50400001928E-02 0.  1.
        1   -1    0    0  501    0  0.00000000000E+00  0.00000000000E+00 -0.12476766444E+04  0.12476766444E+04  0.50400001928E-02 0. -1.
    10030    2    1    2    0    0  0.00000000000E+00  0.00000000000E+00  0.34977709981E+01  0.24988510599E+04  0.24988486118E+04 0.  0.
        5    1    3    3  502    0 -0.38358222654E+03 -0.81934234868E+03 -0.85998381803E+03  0.12482193181E+04  0.46999998093E+01 0.  1.
       -5    1    3    3    0  502  0.38358222654E+03  0.81934234868E+03  0.86348158903E+03  0.12506317417E+04  0.46999998093E+01 0. -1.
</event>
<event>
 5   0  0.9251138E-07  0.2496726E+04  0.7818609E-02  0.8404153E-01
        2   -1    0    0  501    0  0.00000000000E+00  0.00000000000E+00  0.13377563595E+04  0.13377563595E+04  0.25500000920E-02 0. -1.
       -2   -1    0    0    0  501  0.00000000000E+00  0.00000000000E+00 -0.11649429378E+04  0.11649429378E+04  0.25500000920E-02 0.  1.
    10030    2    1    2    0    0  0.00000000000E+00  0.00000000000E+00  0.17281342165E+03  0.25026992973E+04  0.24967257146E+04 0.  0.
        5    1    3    3  502    0 -0.72704904372E+03  0.40009717644E+03 -0.84840681397E+03  0.11868000146E+04  0.46999998093E+01 0.  1.
       -5    1    3    3    0  502  0.72704904372E+03 -0.40009717644E+03  0.10212202356E+04  0.13158992827E+04  0.46999998093E+01 0. -1.
</event>
<event>
 5   0  0.8997210E-07  0.2500878E+04  0.7818609E-02  0.8402673E-01
       -2   -1    0    0    0  501  0.00000000000E+00  0.00000000000E+00  0.59216277028E+03  0.59216277029E+03  0.25500000920E-02 0.  1.
        2   -1    0    0  501    0  0.00000000000E+00  0.00000000000E+00 -0.26404860255E+04  0.26404860255E+04  0.25500000920E-02 0. -1.
    10030    2    1    2    0    0  0.00000000000E+00  0.00000000000E+00 -0.20483232552E+04  0.32326487958E+04  0.25008778617E+04 0.  0.
        1    1    3    3  502    0  0.87989931512E+03 -0.88839266448E+03 -0.10390792534E+04  0.16257767454E+04  0.50400001928E-02 0.  1.
       -1    1    3    3    0  502 -0.87989931512E+03  0.88839266448E+03 -0.10092440018E+04  0.16068720504E+04  0.50400001928E-02 0. -1.
</event>
<event>
 5   0  0.3873231E-07  0.2508214E+04  0.7818609E-02  0.8400065E-01
       -1   -1    0    0    0  501  0.00000000000E+00  0.00000000000E+00  0.14165060202E+04  0.14165060202E+04  0.50400001928E-02 0. -1.
        1   -1    0    0  501    0  0.00000000000E+00  0.00000000000E+00 -0.11103267186E+04  0.11103267186E+04  0.50400001928E-02 0.  1.
    10030    2    1    2    0    0  0.00000000000E+00  0.00000000000E+00  0.30617930164E+03  0.25268327388E+04  0.25082140908E+04 0.  0.
        2    1    3    3  502    0  0.20838459623E+03 -0.45839097111E+03  0.13101965360E+04  0.14036243747E+04  0.25500000920E-02 0. -1.
       -2    1    3    3    0  502 -0.20838459623E+03  0.45839097111E+03 -0.10040172343E+04  0.11232083641E+04  0.25500000920E-02 0.  1.
</event>
<event>
 5   0  0.9251138E-07  0.2513558E+04  0.7818609E-02  0.8398171E-01
       -2   -1    0    0    0  501  0.00000000000E+00  0.00000000000E+00  0.80783153395E+03  0.80783153395E+03  0.25500000920E-02 0.  1.
        2   -1    0    0  501    0  0.00000000000E+00  0.00000000000E+00 -0.19552261940E+04  0.19552261940E+04  0.25500000920E-02 0. -1.
    10030    2    1    2    0    0  0.00000000000E+00  0.00000000000E+00 -0.11473946601E+04  0.27630577280E+04  0.25135579369E+04 0.  0.
        5    1    3    3  502    0  0.24640652579E+03  0.85057089000E+03  0.40661001141E+03  0.97444384458E+03  0.46999998093E+01 0.  1.
       -5    1    3    3    0  502 -0.24640652579E+03 -0.85057089000E+03 -0.15540046715E+04  0.17886138834E+04  0.46999998093E+01 0. -1.
</event>
<event>
 5   0  0.8997210E-07  0.2500453E+04  0.7818609E-02  0.8402824E-01
       -2   -1    0    0    0  501  0.00000000000E+00  0.00000000000E+00  0.97272227354E+03  0.97272227354E+03  0.25500000920E-02 0. -1.
        2   -1    0    0  501    0  0.00000000000E+00  0.00000000000E+00 -0.16068989675E+04  0.16068989675E+04  0.25500000920E-02 0.  1.
    10030    2    1    2    0    0  0.00000000000E+00  0.00000000000E+00 -0.63417669394E+03  0.25796212410E+04  0.25004530925E+04 0.  0.
        1    1    3    3  502    0 -0.11079152477E+04 -0.51361977790E+03 -0.40678241021E+02  0.12218576806E+04  0.50400001928E-02 0. -1.
       -1    1    3    3    0  502  0.11079152477E+04  0.51361977790E+03 -0.59349845292E+03  0.13577635604E+04  0.50400001928E-02 0.  1.
</event>
<event>
 5   0  0.3214375E-07  0.2499790E+04  0.7818609E-02  0.8403060E-01
        3   -1    0    0  501    0  0.00000000000E+00  0.00000000000E+00  0.72747534629E+03  0.72747535330E+03  0.10100000352E+00 0.  1.
       -3   -1    0    0    0  501  0.00000000000E+00  0.00000000000E+00 -0.21474783846E+04  0.21474783870E+04  0.10100000352E+00 0. -1.
    10030    2    1    2    0    0  0.00000000000E+00  0.00000000000E+00 -0.14200030383E+04  0.28749537403E+04  0.24997900672E+04 0.  0.
        5    1    3    3  502    0 -0.63424412146E+03  0.64318778875E+03 -0.17035114691E+04  0.19281933390E+04  0.46999998093E+01 0. -1.
       -5    1    3    3    0  502  0.63424412146E+03 -0.64318778875E+03  0.28350843074E+03  0.94676040132E+03  0.46999998093E+01 0.  1.
</event>
<event>
 5   0  0.8997210E-07  0.2499766E+04  0.7818609E-02  0.8403069E-01
        2   -1    0    0  501    0  0.00000000000E+00  0.00000000000E+00  0.17526545626E+04  0.17526545626E+04  0.25500000920E-02 0. -1.
       -2   -1    0    0    0  501  0.00000000000E+00  0.00000000000E+00 -0.89133805379E+03  0.89133805379E+03  0.25500000920E-02 0.  1.
    10030    2    1    2    0    0  0.00000000000E+00  0.00000000000E+00  0.86131650886E+03  0.26439926164E+04  0.24997661545E+04 0.  0.
        1    1    3    3  502    0 -0.12480104580E+04  0.26064815177E+02  0.49753801062E+03  0.13437832972E+04  0.50400001928E-02 0. -1.
       -1    1    3    3    0  502  0.12480104580E+04 -0.26064815177E+02  0.36377849823E+03  0.13002093192E+04  0.50400001928E-02 0.  1.
</event>
<event>
 5   0  0.9768582E-07  0.2497987E+04  0.7818609E-02  0.8403703E-01
        2   -1    0    0  501    0  0.00000000000E+00  0.00000000000E+00  0.21883291985E+04  0.21883291985E+04  0.25500000920E-02 0. -1.
       -2   -1    0    0    0  501  0.00000000000E+00  0.00000000000E+00 -0.71286583231E+03  0.71286583232E+03  0.25500000920E-02 0.  1.
    10030    2    1    2    0    0  0.00000000000E+00  0.00000000000E+00  0.14754633662E+04  0.29011950308E+04  0.24979872822E+04 0.  0.
        3    1    3    3  502    0  0.32323513856E+03  0.63387626149E+03  0.19299237558E+04  0.20569117101E+04  0.10100000352E+00 0. -1.
       -3    1    3    3    0  502 -0.32323513856E+03 -0.63387626149E+03 -0.45446038964E+03  0.84428332071E+03  0.10100000352E+00 0.  1.
</event>
<event>
 5   0  0.3805418E-07  0.2499463E+04  0.7818609E-02  0.8403177E-01
       -1   -1    0    0    0  501  0.00000000000E+00  0.00000000000E+00  0.15522274107E+04  0.15522274107E+04  0.50400001928E-02 0.  1.
        1   -1    0    0  501    0  0.00000000000E+00  0.00000000000E+00 -0.10061857271E+04  0.10061857271E+04  0.50400001928E-02 0. -1.
    10030    2    1    2    0    0  0.00000000000E+00  0.00000000000E+00  0.54604168360E+03  0.25584131378E+04  0.24994631951E+04 0.  0.
        4    1    3    3  502    0  0.12309787266E+04 -0.10163725460E+02  0.49354469388E+03  0.13262729374E+04  0.12699999809E+01 0.  1.
       -4    1    3    3    0  502 -0.12309787266E+04  0.10163725460E+02  0.52496989721E+02  0.12321402004E+04  0.12699999809E+01 0. -1.
</event>
<event>
 5   0  0.3805418E-07  0.2497522E+04  0.7818609E-02  0.8403869E-01
        1   -1    0    0  501    0  0.00000000000E+00  0.00000000000E+00  0.18804192672E+04  0.18804192672E+04  0.50400001928E-02 0.  1.
       -1   -1    0    0    0  501  0.00000000000E+00  0.00000000000E+00 -0.82928540656E+03  0.82928540657E+03  0.50400001928E-02 0. -1.
    10030    2    1    2    0    0  0.00000000000E+00  0.00000000000E+00  0.10511338606E+04  0.27097046738E+04  0.24975221773E+04 0.  0.
        4    1    3    3  502    0  0.88861433807E+03 -0.79091640223E+03  0.11354245634E+03  0.11950220498E+04  0.12699999809E+01 0. -1.
       -4    1    3    3    0  502 -0.88861433807E+03  0.79091640223E+03  0.93759140430E+03  0.15146826240E+04  0.12699999809E+01 0.  1.
</event>
<event>
 5   0  0.3991066E-07  0.2499997E+04  0.7818609E-02  0.8402987E-01
       -1   -1    0    0    0  501  0.00000000000E+00  0.00000000000E+00  0.17542669226E+04  0.17542669226E+04  0.50400001928E-02 0.  1.
        1   -1    0    0  501    0  0.00000000000E+00  0.00000000000E+00 -0.89068332140E+03  0.89068332142E+03  0.50400001928E-02 0. -1.
    10030    2    1    2    0    0  0.00000000000E+00  0.00000000000E+00  0.86358360121E+03  0.26449502440E+04  0.24999970314E+04 0.  0.
        1    1    3    3  502    0 -0.88024192741E+03 -0.66567243968E+03  0.10528103109E+04  0.15252393906E+04  0.50400001928E-02 0.  1.
       -1    1    3    3    0  502  0.88024192741E+03  0.66567243968E+03 -0.18922670969E+03  0.11197108535E+04  0.50400001928E-02 0. -1.
</event>
<event>
 5   0  0.9251138E-07  0.2499939E+04  0.7818609E-02  0.8403007E-01
       -2   -1    0    0    0  501  0.00000000000E+00  0.00000000000E+00  0.15962365609E+04  0.15962365609E+04  0.25500000920E-02 0.  1.
        2   -1    0    0  501    0  0.00000000000E+00  0.00000000000E+00 -0.97881702496E+03  0.97881702497E+03  0.25500000920E-02 0. -1.
    10030    2    1    2    0    0  0.00000000000E+00  0.00000000000E+00  0.61741953591E+03  0.25750535858E+04  0.24999388166E+04 0.  0.
        5    1    3    3  502    0 -0.10677164985E+03  0.76463731837E+03  0.13212676322E+04  0.15303073743E+04  0.46999998093E+01 0.  1.
       -5    1    3    3    0  502  0.10677164985E+03 -0.76463731837E+03 -0.70384809632E+03  0.10447462115E+04  0.46999998093E+01 0. -1.
</event>
<event>
 5   0  0.3991066E-07  0.2500172E+04  0.7818609E-02  0.8402924E-01
        1   -1    0    0  501    0  0.00000000000E+00  0.00000000000E+00  0.10518274426E+04  0.10518274426E+04  0.50400001928E-02 0. -1.
       -1   -1    0    0    0  501  0.00000000000E+00  0.00000000000E+00 -0.14857143129E+04  0.14857143129E+04  0.50400001928E-02 0.  1.
    10030    2    1    2    0    0  0.00000000000E+00  0.00000000000E+00 -0.43388687031E+03  0.25375417555E+04  0.25001720630E+04 0.  0.
        1    1    3    3  502    0  0.43723957684E+03  0.38400151186E+03 -0.13398616011E+04  0.14607753827E+04  0.50400001928E-02 0.  1.
       -1    1    3    3    0  502 -0.43723957684E+03 -0.38400151186E+03  0.90597473078E+03  0.10767663728E+04  0.50400001928E-02 0. -1.
</event>
<event>
 5   0  0.9251138E-07  0.2501652E+04  0.7818609E-02  0.8402397E-01
       -2   -1    0    0    0  501  0.00000000000E+00  0.00000000000E+00  0.66757229099E+03  0.66757229099E+03  0.25500000920E-02 0.  1.
        2   -1    0    0  501    0  0.00000000000E+00  0.00000000000E+00 -0.23436653912E+04  0.23436653912E+04  0.25500000920E-02 0. -1.
    10030    2    1    2    0    0  0.00000000000E+00  0.00000000000E+00 -0.16760931002E+04  0.30112376822E+04  0.25016523136E+04 0.  0.
        5    1    3    3  502    0 -0.74826409103E+03 -0.51272312711E+03  0.19864543618E+03  0.92858292807E+03  0.46999998093E+01 0.  1.
       -5    1    3    3    0  502  0.74826409103E+03  0.51272312711E+03 -0.18747385364E+04  0.20826547541E+04  0.46999998093E+01 0. -1.
</event>
<event>
 5   0  0.8997210E-07  0.2498079E+04  0.7818609E-02  0.8403670E-01
        2   -1    0    0  501    0  0.00000000000E+00  0.00000000000E+00  0.20916137096E+04  0.20916137096E+04  0.25500000920E-02 0.  1.
       -2   -1    0    0    0  501  0.00000000000E+00  0.00000000000E+00 -0.74588328341E+03  0.74588328341E+03  0.25500000920E-02 0. -1.
    10030    2    1    2    0    0  0.00000000000E+00  0.00000000000E+00  0.13457304262E+04  0.28374969930E+04  0.24980790230E+04 0.  0.
        1    1    3    3  502    0  0.16634376862E+03  0.97794099260E+03 -0.18924625900E+03  0.10098777059E+04  0.50400001928E-02 0. -1.
       -1    1    3    3    0  502 -0.16634376862E+03 -0.97794099260E+03  0.15349766852E+04  0.18276192871E+04  0.50400001928E-02 0.  1.
</event>
<event>
 5   0  0.9261602E-07  0.2500948E+04  0.7818609E-02  0.8402648E-01
        2   -1    0    0  501    0  0.00000000000E+00  0.00000000000E+00  0.27117512812E+04  0.27117512812E+04  0.25500000920E-02 0. -1.
       -2   -1    0    0    0  501  0.00000000000E+00  0.00000000000E+00 -0.57663305051E+03  0.57663305052E+03  0.25500000920E-02 0.  1.
    10030    2    1    2    0    0  0.00000000000E+00  0.00000000000E+00  0.21351182306E+04  0.32883843317E+04  0.25009481510E+04 0.  0.
        4    1    3    3  502    0  0.57049705429E+03 -0.24424368262E+03  0.24949867069E+04  0.25710080019E+04  0.12699999809E+01 0. -1.
       -4    1    3    3    0  502 -0.57049705429E+03  0.24424368262E+03 -0.35986847623E+03  0.71737632978E+03  0.12699999809E+01 0.  1.
</event>
<event>
 5   0  0.9251138E-07  0.2499762E+04  0.7818609E-02  0.8403070E-01
       -2   -1    0    0    0  501  0.00000000000E+00  0.00000000000E+00  0.67114187627E+03  0.67114187627E+03  0.25500000920E-02 0.  1.
        2   -1    0    0  501    0  0.00000000000E+00  0.00000000000E+00 -0.23276777181E+04  0.23276777181E+04  0.25500000920E-02 0. -1.
    10030    2    1    2    0    0  0.00000000000E+00  0.00000000000E+00 -0.16565358418E+04  0.29988195944E+04  0.24997615815E+04 0.  0.
        5    1    3    3  502    0  0.62200588547E+02  0.86635778761E+03  0.24989960715E+03  0.90383440576E+03  0.46999998093E+01 0.  1.
       -5    1    3    3    0  502 -0.62200588547E+02 -0.86635778761E+03 -0.19064354490E+04  0.20949851886E+04  0.46999998093E+01 0. -1.
</event>
<event>
 5   0  0.3805418E-07  0.2500300E+04  0.7818609E-02  0.8402879E-01
       -1   -1    0    0    0  501  0.00000000000E+00  0.00000000000E+00  0.15095702280E+04  0.15095702280E+04  0.50400001928E-02 0. -1.
        1   -1    0    0  501    0  0.00000000000E+00  0.00000000000E+00 -0.10353115481E+04  0.10353115481E+04  0.50400001928E-02 0.  1.
    10030    2    1    2    0    0  0.00000000000E+00  0.00000000000E+00  0.47425867995E+03  0.25448817761E+04  0.25003003737E+04 0.  0.
        4    1    3    3  502    0 -0.85433581625E+02 -0.42058281707E+03  0.14322395670E+04  0.14951590528E+04  0.12699999809E+01 0. -1.
       -4    1    3    3    0  502  0.85433581625E+02  0.42058281707E+03 -0.95798088710E+03  0.10497227233E+04  0.12699999809E+01 0.  1.
</event>
<event>
 5   0  0.8997210E-07  0.2501181E+04  0.7818609E-02  0.8402565E-01
       -2   -1    0    0    0  501  0.00000000000E+00  0.00000000000E+00  0.11912976347E+04  0.11912976347E+04  0.25500000920E-02 0.  1.
        2   -1    0    0  501    0  0.00000000000E+00  0.00000000000E+00 -0.13128345954E+04  0.13128345954E+04  0.25500000920E-02 0. -1.
    10030    2    1    2    0    0  0.00000000000E+00  0.00000000000E+00 -0.12153696064E+03  0.25041322301E+04  0.25011811196E+04 0.  0.
        1    1    3    3  502    0  0.26127820887E+03 -0.11964822203E+04 -0.31432752544E+03  0.12643724922E+04  0.50400001928E-02 0.  1.
       -1    1    3    3    0  502 -0.26127820887E+03  0.11964822203E+04  0.19279056480E+03  0.12397597379E+04  0.50400001928E-02 0. -1.
</event>
<event>
 5   0  0.3805418E-07  0.2499951E+04  0.7818609E-02  0.8403003E-01
       -1   -1    0    0    0  501  0.00000000000E+00  0.00000000000E+00  0.83337800411E+03  0.83337800413E+03  0.50400001928E-02 0. -1.
        1   -1    0    0  501    0  0.00000000000E+00  0.00000000000E+00 -0.18748258994E+04  0.18748258994E+04  0.50400001928E-02 0.  1.
    10030    2    1    2    0    0  0.00000000000E+00  0.00000000000E+00 -0.10414478953E+04  0.27082039036E+04  0.24999509324E+04 0.  0.
        4    1    3    3  502    0 -0.88643369835E+03  0.84473360371E+03 -0.24860679480E+03  0.12494584884E+04  0.12699999809E+01 0. -1.
       -4    1    3    3    0  502  0.88643369835E+03 -0.84473360371E+03 -0.79284110052E+03  0.14587454152E+04  0.12699999809E+01 0.  1.
</event>
<event>
 5   0  0.3873231E-07  0.2499838E+04  0.7818609E-02  0.8403043E-01
        1   -1    0    0  501    0  0.00000000000E+00  0.00000000000E+00  0.16877932147E+04  0.16877932147E+04  0.50400001928E-02 0. -1.
       -1   -1    0    0    0  501  0.00000000000E+00  0.00000000000E+00 -0.92564504130E+03  0.92564504132E+03  0.50400001928E-02 0.  1.
    10030    2    1    2    0    0  0.00000000000E+00  0.00000000000E+00  0.76214817338E+03  0.26134382560E+04  0.24998379307E+04 0.  0.
        2    1    3    3  502    0  0.11358116411E+04  0.46795393832E+03  0.13983156141E+03  0.12363663850E+04  0.25500000920E-02 0.  1.
       -2    1    3    3    0  502 -0.11358116411E+04 -0.46795393832E+03  0.62231661196E+03  0.13770718710E+04  0.25500000920E-02 0. -1.
</event>
<event>
 5   0  0.3873231E-07  0.2500074E+04  0.7818609E-02  0.8402959E-01
        1   -1    0    0  501    0  0.00000000000E+00  0.00000000000E+00  0.75791174020E+03  0.75791174022E+03  0.50400001928E-02 0. -1.
       -1   -1    0    0    0  501  0.00000000000E+00  0.00000000000E+00 -0.20617075182E+04  0.20617075182E+04  0.50400001928E-02 0.  1.
    10030    2    1    2    0    0  0.00000000000E+00  0.00000000000E+00 -0.13037957780E+04  0.28196192584E+04  0.25000738653E+04 0.  0.
        2    1    3    3  502    0 -0.70775137979E+03  0.18136384200E+03 -0.17958305554E+04  0.19387656492E+04  0.25500000920E-02 0.  1.
       -2    1    3    3    0  502  0.70775137979E+03 -0.18136384200E+03  0.49203477738E+03  0.88085360926E+03  0.25500000920E-02 0. -1.
</event>
<event>
 5   0  0.3991066E-07  0.2500960E+04  0.7818609E-02  0.8402644E-01
        1   -1    0    0  501    0  0.00000000000E+00  0.00000000000E+00  0.22677506691E+04  0.22677506691E+04  0.50400001928E-02 0.  1.
       -1   -1    0    0    0  501  0.00000000000E+00  0.00000000000E+00 -0.68953771622E+03  0.68953771623E+03  0.50400001928E-02 0. -1.
    10030    2    1    2    0    0  0.00000000000E+00  0.00000000000E+00  0.15782129529E+04  0.29572883853E+04  0.25009595097E+04 0.  0.
        1    1    3    3  502    0 -0.11619125136E+04 -0.41128261641E+03  0.10385625272E+04  0.16117711384E+04  0.50400001928E-02 0. -1.
       -1    1    3    3    0  502  0.11619125136E+04  0.41128261641E+03  0.53965042563E+03  0.13455172469E+04  0.50400001928E-02 0.  1.
</event>
<event>
 5   0  0.3805418E-07  0.2501146E+04  0.7818609E-02  0.8402577E-01
        1   -1    0    0  501    0  0.00000000000E+00  0.00000000000E+00  0.15525260533E+04  0.15525260533E+04  0.50400001928E-02 0.  1.
       -1   -1    0    0    0  501  0.00000000000E+00  0.00000000000E+00 -0.10073476321E+04  0.10073476321E+04  0.50400001928E-02 0. -1.
    10030    2    1    2    0    0  0.00000000000E+00  0.00000000000E+00  0.54517842120E+03  0.25598736854E+04  0.25011464919E+04 0.  0.
        4    1    3    3  502    0  0.36923964568E+03  0.11704933718E+04  0.51809472178E+03  0.13322223550E+04  0.12699999809E+01 0. -1.
       -4    1    3    3    0  502 -0.36923964568E+03 -0.11704933718E+04  0.27083699426E+02  0.12276513304E+04  0.12699999809E+01 0.  1.
</event>
<event>
 5   0  0.9261602E-07  0.2499241E+04  0.7818609E-02  0.8403256E-01
       -2   -1    0    0    0  501  0.00000000000E+00  0.00000000000E+00  0.64831398631E+03  0.64831398632E+03  0.25500000920E-02 0.  1.
        2   -1    0    0  501    0  0.00000000000E+00  0.00000000000E+00 -0.24086347088E+04  0.24086347088E+04  0.25500000920E-02 0. -1.
    10030    2    1    2    0    0  0.00000000000E+00  0.00000000000E+00 -0.17603207225E+04  0.30569486952E+04  0.24992411406E+04 0.  0.
        4    1    3    3  502    0  0.43591554919E+03 -0.18493899240E+03 -0.22946458501E+04  0.23429950890E+04  0.12699999809E+01 0. -1.
       -4    1    3    3    0  502 -0.43591554919E+03  0.18493899240E+03  0.53432512753E+03  0.71395360616E+03  0.12699999809E+01 0.  1.
</event>
<event>
 5   0  0.9261602E-07  0.2497782E+04  0.7818609E-02  0.8403776E-01
       -2   -1    0    0    0  501  0.00000000000E+00  0.00000000000E+00  0.96715313598E+03  0.96715313599E+03  0.25500000920E-02 0.  1.
        2   -1    0    0  501    0  0.00000000000E+00  0.00000000000E+00 -0.16127015212E+04  0.16127015213E+04  0.25500000920E-02 0. -1.
    10030    2    1    2    0    0  0.00000000000E+00  0.00000000000E+00 -0.64554838527E+03  0.25798546572E+04  0.24977824835E+04 0.  0.
        4    1    3    3  502    0  0.63761468116E+02  0.11254976298E+04 -0.87794597422E+03  0.14288461030E+04  0.12699999809E+01 0. -1.
       -4    1    3    3    0  502 -0.63761468116E+02 -0.11254976298E+04  0.23239758896E+03  0.11510085542E+04  0.12699999809E+01 0.  1.
</event>
<event>
 5   0  0.3837524E-07  0.2500881E+04  0.7818609E-02  0.8402672E-01
        1   -1    0    0  501    0  0.00000000000E+00  0.00000000000E+00  0.15101221678E+04  0.15101221678E+04  0.50400001928E-02 0. -1.
       -1   -1    0    0    0  501  0.00000000000E+00  0.00000000000E+00 -0.10354139560E+04  0.10354139560E+04  0.50400001928E-02 0.  1.
    10030    2    1    2    0    0  0.00000000000E+00  0.00000000000E+00  0.47470821181E+03  0.25455361238E+04  0.25008810990E+04 0.  0.
        5    1    3    3  502    0  0.72080255365E+03  0.80637933501E+03  0.87607420052E+03  0.13918807593E+04  0.46999998093E+01 0. -1.
       -5    1    3    3    0  502 -0.72080255365E+03 -0.80637933501E+03 -0.40136598871E+03  0.11536553646E+04  0.46999998093E+01 0.  1.
</event>
<event>
 5   0  0.9508784E-07  0.2501926E+04  0.7818609E-02  0.8402300E-01
        2   -1    0    0  501    0  0.00000000000E+00  0.00000000000E+00  0.15025229247E+04  0.15025229247E+04  0.25500000920E-02 0. -1.
       -2   -1    0    0    0  501  0.00000000000E+00  0.00000000000E+00 -0.10415208441E+04  0.10415208441E+04  0.25500000920E-02 0.  1.
    10030    2    1    2    0    0  0.00000000000E+00  0.00000000000E+00  0.46100208062E+03  0.25440437688E+04  0.25019264137E+04 0.  0.
        2    1    3    3  502    0 -0.89956592281E+03 -0.24962688436E+03 -0.61620880621E+03  0.11185909546E+04  0.25500000920E-02 0.  1.
       -2    1    3    3    0  502  0.89956592281E+03  0.24962688436E+03  0.10772108868E+04  0.14254528142E+04  0.25500000920E-02 0. -1.
</event>
<event>
 5   0  0.3837524E-07  0.2500368E+04  0.7818609E-02  0.8402855E-01
       -1   -1    0    0    0  501  0.00000000000E+00  0.00000000000E+00  0.10988958213E+04  0.10988958213E+04  0.50400001928E-02 0.  1.
        1   -1    0    0  501    0  0.00000000000E+00  0.00000000000E+00 -0.14222999147E+04  0.14222999147E+04  0.50400001928E-02 0. -1.
    10030    2    1    2    0    0  0.00000000000E+00  0.00000000000E+00 -0.32340409339E+03  0.25211957360E+04  0.25003675193E+04 0.  0.
        5    1    3    3  502    0  0.57645024243E+03  0.10992751363E+04 -0.11340337420E+02  0.12413103563E+04  0.46999998093E+01 0.  1.
       -5    1    3    3    0  502 -0.57645024243E+03 -0.10992751363E+04 -0.31206375597E+03  0.12798853797E+04  0.46999998093E+01 0. -1.
</event>
<event>
 5   0  0.8997210E-07  0.2498407E+04  0.7818609E-02  0.8403553E-01
       -2   -1    0    0    0  501  0.00000000000E+00  0.00000000000E+00  0.69683208931E+03  0.69683208932E+03  0.25500000920E-02 0. -1.
        2   -1    0    0  501    0  0.00000000000E+00  0.00000000000E+00 -0.22394331133E+04  0.22394331133E+04  0.25500000920E-02 0.  1.
    10030    2    1    2    0    0  0.00000000000E+00  0.00000000000E+00 -0.15426010240E+04  0.29362652026E+04  0.24984065764E+04 0.  0.
        1    1    3    3  502    0 -0.19637108708E+03 -0.82270795618E+03  0.30910284398E+03  0.90053015118E+03  0.50400001928E-02 0. -1.
       -1    1    3    3    0  502  0.19637108708E+03  0.82270795618E+03 -0.18517038680E+04  0.20357350514E+04  0.50400001928E-02 0.  1.
</event>
<event>
 5   0  0.9261602E-07  0.2499743E+04  0.7818609E-02  0.8403077E-01
        2   -1    0    0  501    0  0.00000000000E+00  0.00000000000E+00  0.14196997389E+04  0.14196997389E+04  0.25500000920E-02 0. -1.
       -2   -1    0    0    0  501  0.00000000000E+00  0.00000000000E+00 -0.11003581823E+04  0.11003581823E+04  0.25500000920E-02 0.  1.
    10030    2    1    2    0    0  0.00000000000E+00  0.00000000000E+00  0.31934155656E+03  0.25200579211E+04  0.24997425660E+04 0.  0.
        4    1    3    3  502    0  0.86064325843E+03  0.65806517215E+03  0.78796930527E+03  0.13396469042E+04  0.12699999809E+01 0. -1.
       -4    1    3    3    0  502 -0.86064325843E+03 -0.65806517215E+03 -0.46862774871E+03  0.11804110169E+04  0.12699999809E+01 0.  1.
</event>
<event>
 5   0  0.3837524E-07  0.2499867E+04  0.7818609E-02  0.8403033E-01
       -1   -1    0    0    0  501  0.00000000000E+00  0.00000000000E+00  0.70614924530E+03  0.70614924532E+03  0.50400001928E-02 0.  1.
        1   -1    0    0  501    0  0.00000000000E+00  0.00000000000E+00 -0.22124696362E+04  0.22124696362E+04  0.50400001928E-02 0. -1.
    10030    2    1    2    0    0  0.00000000000E+00  0.00000000000E+00 -0.15063203909E+04  0.29186188815E+04  0.24998670076E+04 0.  0.
        5    1    3    3  502    0  0.19764691993E+03 -0.32665525218E+03  0.63639394819E+03  0.74215046051E+03  0.46999998093E+01 0.  1.
       -5    1    3    3    0  502 -0.19764691993E+03  0.32665525218E+03 -0.21427143391E+04  0.21764684210E+04  0.46999998093E+01 0. -1.
</event>
<event>
 5   0  0.9261602E-07  0.2499567E+04  0.7818609E-02  0.8403140E-01
       -2   -1    0    0    0  501  0.00000000000E+00  0.00000000000E+00  0.11272245088E+04  0.11272245088E+04  0.25500000920E-02 0. -1.
        2   -1    0    0  501    0  0.00000000000E+00  0.00000000000E+00 -0.13856677719E+04  0.13856677719E+04  0.25500000920E-02 0.  1.
    10030    2    1    2    0    0  0.00000000000E+00  0.00000000000E+00 -0.25844326307E+03  0.25128922807E+04  0.24995669013E+04 0.  0.
        4    1    3    3  502    0  0.70415107565E+03  0.98026044333E+03  0.19688053773E+03  0.12229075325E+04  0.12699999809E+01 0. -1.
       -4    1    3    3    0  502 -0.70415107565E+03 -0.98026044333E+03 -0.45532380080E+03  0.12899847482E+04  0.12699999809E+01 0.  1.
</event>
<event>
 5   0  0.9251138E-07  0.2499581E+04  0.7818609E-02  0.8403135E-01
        2   -1    0    0  501    0  0.00000000000E+00  0.00000000000E+00  0.12179502054E+04  0.12179502054E+04  0.25500000920E-02 0. -1.
       -2   -1    0    0    0  501  0.00000000000E+00  0.00000000000E+00 -0.12824634573E+04  0.12824634573E+04  0.25500000920E-02 0.  1.
    10030    2    1    2    0    0  0.00000000000E+00  0.00000000000E+00 -0.64513251899E+02  0.25004136627E+04  0.24995812699E+04 0.  0.
        5    1    3    3  502    0  0.92251526197E+03  0.36356298975E+03  0.72874771467E+03  0.12305721343E+04  0.46999998093E+01 0. -1.
       -5    1    3    3    0  502 -0.92251526197E+03 -0.36356298975E+03 -0.79326096657E+03  0.12698415284E+04  0.46999998093E+01 0.  1.
</event>
<event>
 5   0  0.8997210E-07  0.2499542E+04  0.7818609E-02  0.8403149E-01
       -2   -1    0    0    0  501  0.00000000000E+00  0.00000000000E+00  0.82308353032E+03  0.82308353032E+03  0.25500000920E-02 0.  1.
        2   -1    0    0  501    0  0.00000000000E+00  0.00000000000E+00 -0.18976535546E+04  0.18976535546E+04  0.25500000920E-02 0. -1.
    10030    2    1    2    0    0  0.00000000000E+00  0.00000000000E+00 -0.10745700243E+04  0.27207370849E+04  0.24995418677E+04 0.  0.
        1    1    3    3  502    0 -0.10362011839E+04 -0.42179037049E+03 -0.11436333769E+04  0.15998491526E+04  0.50400001928E-02 0. -1.
       -1    1    3    3    0  502  0.10362011839E+04  0.42179037049E+03  0.69063352571E+02  0.11208879324E+04  0.50400001928E-02 0.  1.
</event>
<event>
 5   0  0.3805418E-07  0.2499960E+04  0.7818609E-02  0.8403000E-01
       -1   -1    0    0    0  501  0.00000000000E+00  0.00000000000E+00  0.12087722473E+04  0.12087722473E+04  0.50400001928E-02 0. -1.
        1   -1    0    0  501    0  0.00000000000E+00  0.00000000000E+00 -0.12925924711E+04  0.12925924712E+04  0.50400001928E-02 0.  1.
    10030    2    1    2    0    0  0.00000000000E+00  0.00000000000E+00 -0.83820223818E+02  0.25013647185E+04  0.24999599247E+04 0.  0.
        4    1    3    3  502    0 -0.13221230315E+03 -0.80396380410E+03  0.90657319935E+03  0.12188988761E+04  0.12699999809E+01 0. -1.
       -4    1    3    3    0  502  0.13221230315E+03  0.80396380410E+03 -0.99039342317E+03  0.12824658424E+04  0.12699999809E+01 0.  1.
</event>
<event>
 5   0  0.8997210E-07  0.2500469E+04  0.7818609E-02  0.8402818E-01
        2   -1    0    0  501    0  0.00000000000E+00  0.00000000000E+00  0.21673657998E+04  0.21673657998E+04  0.25500000920E-02 0. -1.
       -2   -1    0    0    0  501  0.00000000000E+00  0.00000000000E+00 -0.72119177700E+03  0.72119177701E+03  0.25500000920E-02 0.  1.
    10030    2    1    2    0    0  0.00000000000E+00  0.00000000000E+00  0.14461740228E+04  0.28885575768E+04  0.25004690701E+04 0.  0.
        1    1    3    3  502    0  0.45085391192E+03 -0.97490083445E+03  0.14622254241E+04  0.18143329567E+04  0.50400001928E-02 0. -1.
       -1    1    3    3    0  502 -0.45085391192E+03  0.97490083445E+03 -0.16051401316E+02  0.10742246201E+04  0.50400001928E-02 0.  1.
</event>
<event>
 5   0  0.3873231E-07  0.2498332E+04  0.7818609E-02  0.8403580E-01
       -1   -1    0    0    0  501  0.00000000000E+00  0.00000000000E+00  0.10072319598E+04  0.10072319598E+04  0.50400001928E-02 0. -1.
        1   -1    0    0  501    0  0.00000000000E+00  0.00000000000E+00 -0.15492121656E+04  0.15492121656E+04  0.50400001928E-02 0.  1.
    10030    2    1    2    0    0  0.00000000000E+00  0.00000000000E+00 -0.54198020582E+03  0.25564441253E+04  0.24983322482E+04 0.  0.
        2    1    3    3  502    0  0.73147369869E+03 -0.83873729163E+03 -0.85153317878E+03  0.14013003857E+04  0.25500000920E-02 0.  1.
       -2    1    3    3    0  502 -0.73147369869E+03  0.83873729163E+03  0.30955297296E+03  0.11551437397E+04  0.25500000920E-02 0. -1.
</event>
<event>
 5   0  0.9768582E-07  0.2499217E+04  0.7818609E-02  0.8403265E-01
        2   -1    0    0  501    0  0.00000000000E+00  0.00000000000E+00  0.18212284467E+04  0.18212284467E+04  0.25500000920E-02 0.  1.
       -2   -1    0    0    0  501  0.00000000000E+00  0.00000000000E+00 -0.85739991215E+03  0.85739991216E+03  0.25500000920E-02 0. -1.
    10030    2    1    2    0    0  0.00000000000E+00  0.00000000000E+00  0.96382853451E+03  0.26786283588E+04  0.24992167655E+04 0.  0.
        3    1    3    3  502    0  0.13787897399E+03  0.67159223056E+03  0.16016494050E+04  0.17422191488E+04  0.10100000352E+00 0.  1.
       -3    1    3    3    0  502 -0.13787897399E+03 -0.67159223056E+03 -0.63782087050E+03  0.93640921004E+03  0.10100000352E+00 0. -1.
</event>
<event>
 5   0  0.3805418E-07  0.2501208E+04  0.7818609E-02  0.8402555E-01
       -1   -1    0    0    0  501  0.00000000000E+00  0.00000000000E+00  0.14541737152E+04  0.14541737152E+04  0.50400001928E-02 0. -1.
        1   -1    0    0  501    0  0.00000000000E+00  0.00000000000E+00 -0.10755323484E+04  0.10755323484E+04  0.50400001928E-02 0.  1.
    10030    2    1    2    0    0  0.00000000000E+00  0.00000000000E+00  0.37864136684E+03  0.25297060636E+04  0.25012084047E+04 0.  0.
        4    1    3    3  502    0 -0.65013651331E+03  0.93546900388E+03  0.71117380152E+03  0.13429629675E+04  0.12699999809E+01 0. -1.
       -4    1    3    3    0  502  0.65013651331E+03 -0.93546900388E+03 -0.33253243469E+03  0.11867430961E+04  0.12699999809E+01 0.  1.
</event>
<event>
 5   0  0.3805418E-07  0.2499666E+04  0.7818609E-02  0.8403104E-01
        1   -1    0    0  501    0  0.00000000000E+00  0.00000000000E+00  0.16907761988E+04  0.16907761988E+04  0.50400001928E-02 0.  1.
       -1   -1    0    0    0  501  0.00000000000E+00  0.00000000000E+00 -0.92388518339E+03  0.92388518340E+03  0.50400001928E-02 0. -1.
    10030    2    1    2    0    0  0.00000000000E+00  0.00000000000E+00  0.76689101540E+03  0.26146613822E+04  0.24996664406E+04 0.  0.
        4    1    3    3  502    0 -0.80398547698E+03 -0.21090442664E+02 -0.61724974833E+03  0.10138226268E+04  0.12699999809E+01 0. -1.
       -4    1    3    3    0  502  0.80398547698E+03  0.21090442664E+02  0.13841407637E+04  0.16008387554E+04  0.12699999809E+01 0.  1.
</event>
<event>
 5   0  0.8997210E-07  0.2500127E+04  0.7818609E-02  0.8402940E-01
        2   -1    0    0  501    0  0.00000000000E+00  0.00000000000E+00  0.19718762396E+04  0.19718762396E+04  0.25500000920E-02 0. -1.
       -2   -1    0    0    0  501  0.00000000000E+00  0.00000000000E+00 -0.79247277882E+03  0.79247277883E+03  0.25500000920E-02 0.  1.
    10030    2    1    2    0    0  0.00000000000E+00  0.00000000000E+00  0.11794034607E+04  0.27643490184E+04  0.25001265913E+04 0.  0.
        1    1    3    3  502    0 -0.54995941855E+03 -0.69219223250E+03  0.15668863688E+04  0.17990881973E+04  0.50400001928E-02 0. -1.
       -1    1    3    3    0  502  0.54995941855E+03  0.69219223250E+03 -0.38748290804E+03  0.96526082115E+03  0.50400001928E-02 0.  1.
</event>
<event>
 5   0  0.9261602E-07  0.2500257E+04  0.7818609E-02  0.8402894E-01
       -2   -1    0    0    0  501  0.00000000000E+00  0.00000000000E+00  0.83559975187E+03  0.83559975187E+03  0.25500000920E-02 0.  1.
        2   -1    0    0  501    0  0.00000000000E+00  0.00000000000E+00 -0.18702987693E+04  0.18702987693E+04  0.25500000920E-02 0. -1.
    10030    2    1    2    0    0  0.00000000000E+00  0.00000000000E+00 -0.10346990174E+04  0.27058985211E+04  0.25002569368E+04 0.  0.
        4    1    3    3  502    0  0.31379342530E+03 -0.69837195880E+03 -0.15868767863E+04  0.17619220341E+04  0.12699999809E+01 0. -1.
       -4    1    3    3    0  502 -0.31379342530E+03  0.69837195880E+03  0.55217776891E+03  0.94397648698E+03  0.12699999809E+01 0.  1.
</event>
<event>
 5   0  0.3837524E-07  0.2513808E+04  0.7818609E-02  0.8398083E-01
       -1   -1    0    0    0  501  0.00000000000E+00  0.00000000000E+00  0.14255537859E+04  0.14255537859E+04  0.50400001928E-02 0.  1.
        1   -1    0    0  501    0  0.00000000000E+00  0.00000000000E+00 -0.11082066968E+04  0.11082066968E+04  0.50400001928E-02 0. -1.
    10030    2    1    2    0    0  0.00000000000E+00  0.00000000000E+00  0.31734708912E+03  0.25337604827E+04  0.25138084669E+04 0.  0.
        5    1    3    3  502    0  0.98599070821E+03  0.61806358741E+03  0.63742332537E+03  0.13268424400E+04  0.46999998093E+01 0.  1.
       -5    1    3    3    0  502 -0.98599070821E+03 -0.61806358741E+03 -0.32007623625E+03  0.12069180427E+04  0.46999998093E+01 0. -1.
</event>
<event>
 5   0  0.8997210E-07  0.2501058E+04  0.7818609E-02  0.8402609E-01
        2   -1    0    0  501    0  0.00000000000E+00  0.00000000000E+00  0.10220617779E+04  0.10220617779E+04  0.25500000920E-02 0.  1.
       -2   -1    0    0    0  501  0.00000000000E+00  0.00000000000E+00 -0.15300673580E+04  0.15300673580E+04  0.25500000920E-02 0. -1.
    10030    2    1    2    0    0  0.00000000000E+00  0.00000000000E+00 -0.50800558015E+03  0.25521291359E+04  0.25010584673E+04 0.  0.
        1    1    3    3  502    0 -0.95656843712E+03  0.57991206963E+03 -0.82443669060E+03  0.13896103915E+04  0.50400001928E-02 0. -1.
       -1    1    3    3    0  502  0.95656843712E+03 -0.57991206963E+03  0.31643111046E+03  0.11625187444E+04  0.50400001928E-02 0.  1.
</event>
<event>
 5   0  0.9768582E-07  0.2498944E+04  0.7818609E-02  0.8403362E-01
        2   -1    0    0  501    0  0.00000000000E+00  0.00000000000E+00  0.11900069065E+04  0.11900069065E+04  0.25500000920E-02 0. -1.
       -2   -1    0    0    0  501  0.00000000000E+00  0.00000000000E+00 -0.13119085239E+04  0.13119085239E+04  0.25500000920E-02 0.  1.
    10030    2    1    2    0    0  0.00000000000E+00  0.00000000000E+00 -0.12190161739E+03  0.25019154304E+04  0.24989439403E+04 0.  0.
        3    1    3    3  502    0 -0.51356543159E+03 -0.41985985301E+03  0.99915123454E+03  0.11993060278E+04  0.10100000352E+00 0. -1.
       -3    1    3    3    0  502  0.51356543159E+03  0.41985985301E+03 -0.11210528519E+04  0.13026094026E+04  0.10100000352E+00 0.  1.
</event>
<event>
 5   0  0.3991066E-07  0.2506522E+04  0.7818609E-02  0.8400666E-01
        1   -1    0    0  501    0  0.00000000000E+00  0.00000000000E+00  0.13547925659E+04  0.13547925659E+04  0.50400001928E-02 0. -1.
       -1   -1    0    0    0  501  0.00000000000E+00  0.00000000000E+00 -0.11593387062E+04  0.11593387062E+04  0.50400001928E-02 0.  1.
    10030    2    1    2    0    0  0.00000000000E+00  0.00000000000E+00  0.19545385965E+03  0.25141312721E+04  0.25065222605E+04 0.  0.
        1    1    3    3  502    0  0.18386393129E+03 -0.62785926889E+03 -0.97446625978E+03  0.11737110795E+04  0.50400001928E-02 0.  1.
       -1    1    3    3    0  502 -0.18386393129E+03  0.62785926889E+03  0.11699201194E+04  0.13404201926E+04  0.50400001928E-02 0. -1.
</event>
<event>
 5   0  0.3805418E-07  0.2508850E+04  0.7818609E-02  0.8399840E-01
       -1   -1    0    0    0  501  0.00000000000E+00  0.00000000000E+00  0.72861671826E+03  0.72861671827E+03  0.50400001928E-02 0.  1.
        1   -1    0    0  501    0  0.00000000000E+00  0.00000000000E+00 -0.21596834359E+04  0.21596834359E+04  0.50400001928E-02 0. -1.
    10030    2    1    2    0    0  0.00000000000E+00  0.00000000000E+00 -0.14310667177E+04  0.28883001542E+04  0.25088495033E+04 0.  0.
        4    1    3    3  502    0 -0.56615423384E+03 -0.81820600192E+03 -0.15950032009E+04  0.18799011947E+04  0.12699999809E+01 0. -1.
       -4    1    3    3    0  502  0.56615423384E+03  0.81820600192E+03  0.16393648323E+03  0.10083989595E+04  0.12699999809E+01 0.  1.
</event>
<event>
 5   0  0.3972587E-07  0.2501401E+04  0.7818609E-02  0.8402487E-01
        1   -1    0    0  501    0  0.00000000000E+00  0.00000000000E+00  0.16391440519E+04  0.16391440519E+04  0.50400001928E-02 0. -1.
       -1   -1    0    0    0  501  0.00000000000E+00  0.00000000000E+00 -0.95430988462E+03  0.95430988463E+03  0.50400001928E-02 0.  1.
    10030    2    1    2    0    0  0.00000000000E+00  0.00000000000E+00  0.68483416725E+03  0.25934539365E+04  0.25014007044E+04 0.  0.
        3    1    3    3  502    0  0.76730118970E+03  0.32281398751E+02 -0.68105704356E+03  0.10264657380E+04  0.10100000352E+00 0.  1.
       -3    1    3    3    0  502 -0.76730118970E+03 -0.32281398751E+02  0.13658912108E+04  0.15669881985E+04  0.10100000352E+00 0. -1.
</event>
<event>
 5   0  0.3837524E-07  0.2499668E+04  0.7818609E-02  0.8403104E-01
       -1   -1    0    0    0  501  0.00000000000E+00  0.00000000000E+00  0.10851795296E+04  0.10851795296E+04  0.50400001928E-02 0.  1.
        1   -1    0    0  501    0  0.00000000000E+00  0.00000000000E+00 -0.14394716218E+04  0.14394716218E+04  0.50400001928E-02 0. -1.
    10030    2    1    2    0    0  0.00000000000E+00  0.00000000000E+00 -0.35429209214E+03  0.25246511514E+04  0.24996680879E+04 0.  0.
        5    1    3    3  502    0 -0.11399220581E+04 -0.40451413968E+03 -0.49494795316E+03  0.13069236987E+04  0.46999998093E+01 0. -1.
       -5    1    3    3    0  502  0.11399220581E+04  0.40451413968E+03  0.14065586102E+03  0.12177274527E+04  0.46999998093E+01 0.  1.
</event>
<event>
 5   0  0.3972587E-07  0.2498981E+04  0.7818609E-02  0.8403349E-01
       -1   -1    0    0    0  501  0.00000000000E+00  0.00000000000E+00  0.14109014681E+04  0.14109014681E+04  0.50400001928E-02 0.  1.
        1   -1    0    0  501    0  0.00000000000E+00  0.00000000000E+00 -0.11065453567E+04  0.11065453568E+04  0.50400001928E-02 0. -1.
    10030    2    1    2    0    0  0.00000000000E+00  0.00000000000E+00  0.30435611135E+03  0.25174468249E+04  0.24989809670E+04 0.  0.
        3    1    3    3  502    0 -0.15645298082E+03  0.12242116328E+04 -0.44339831118E+02  0.12349646505E+04  0.10100000352E+00 0.  1.
       -3    1    3    3    0  502  0.15645298082E+03 -0.12242116328E+04  0.34869594246E+03  0.12824821744E+04  0.10100000352E+00 0. -1.
</event>
<event>
 5   0  0.9261602E-07  0.2499008E+04  0.7818609E-02  0.8403339E-01
       -2   -1    0    0    0  501  0.00000000000E+00  0.00000000000E+00  0.10501826570E+04  0.10501826570E+04  0.25500000920E-02 0.  1.
        2   -1    0    0  501    0  0.00000000000E+00  0.00000000000E+00 -0.14866564130E+04  0.14866564131E+04  0.25500000920E-02 0. -1.
    10030    2    1    2    0    0  0.00000000000E+00  0.00000000000E+00 -0.43647375604E+03  0.25368390701E+04  0.24990084289E+04 0.  0.
        4    1    3    3  502    0 -0.20400069292E+03 -0.39371737827E+03  0.96762081793E+03  0.10643877662E+04  0.12699999809E+01 0.  1.
       -4    1    3    3    0  502  0.20400069292E+03  0.39371737827E+03 -0.14040945740E+04  0.14724513039E+04  0.12699999809E+01 0. -1.
</event>
<event>
 5   0  0.8997210E-07  0.2496219E+04  0.7818609E-02  0.8404334E-01
       -2   -1    0    0    0  501  0.00000000000E+00  0.00000000000E+00  0.11343596491E+04  0.11343596491E+04  0.25500000920E-02 0.  1.
        2   -1    0    0  501    0  0.00000000000E+00  0.00000000000E+00 -0.13732659663E+04  0.13732659663E+04  0.25500000920E-02 0. -1.
    10030    2    1    2    0    0  0.00000000000E+00  0.00000000000E+00 -0.23890631728E+03  0.25076256154E+04  0.24962191408E+04 0.  0.
        1    1    3    3  502    0 -0.61615976093E+02  0.67691637355E+03 -0.11710244941E+04  0.13539980322E+04  0.50400001928E-02 0. -1.
       -1    1    3    3    0  502  0.61615976093E+02 -0.67691637355E+03  0.93211817682E+03  0.11536275833E+04  0.50400001928E-02 0.  1.
</event>
<event>
 5   0  0.3873231E-07  0.2500010E+04  0.7818609E-02  0.8402982E-01
       -1   -1    0    0    0  501  0.00000000000E+00  0.00000000000E+00  0.19226843600E+04  0.19226843600E+04  0.50400001928E-02 0.  1.
        1   -1    0    0  501    0  0.00000000000E+00  0.00000000000E+00 -0.81267244004E+03  0.81267244005E+03  0.50400001928E-02 0. -1.
    10030    2    1    2    0    0  0.00000000000E+00  0.00000000000E+00  0.11100119199E+04  0.27353568000E+04  0.25000100722E+04 0.  0.
        2    1    3    3  502    0  0.64620060871E+03 -0.47022284482E+03  0.16066475381E+04  0.17944361404E+04  0.25500000920E-02 0.  1.
       -2    1    3    3    0  502 -0.64620060871E+03  0.47022284482E+03 -0.49663561812E+03  0.94092065961E+03  0.25500000920E-02 0. -1.
</event>
<event>
 5   0  0.9251138E-07  0.2499696E+04  0.7818609E-02  0.8403094E-01
        2   -1    0    0  501    0  0.00000000000E+00  0.00000000000E+00  0.13145356255E+04  0.13145356255E+04  0.25500000920E-02 0. -1.
       -2   -1    0    0    0  501  0.00000000000E+00  0.00000000000E+00 -0.11883439359E+04  0.11883439359E+04  0.25500000920E-02 0.  1.
    10030    2    1    2    0    0  0.00000000000E+00  0.00000000000E+00  0.12619168963E+03  0.25028795614E+04  0.24996963328E+04 0.  0.
        5    1    3    3  502    0  0.43792496830E+03 -0.41256898227E+03 -0.10337931173E+04  0.11961361722E+04  0.46999998093E+01 0.  1.
       -5    1    3    3    0  502 -0.43792496830E+03  0.41256898227E+03  0.11599848069E+04  0.13067433892E+04  0.46999998093E+01 0. -1.
</event>
<event>
 5   0  0.3873231E-07  0.2500451E+04  0.7818609E-02  0.8402825E-01
        1   -1    0    0  501    0  0.00000000000E+00  0.00000000000E+00  0.13876584753E+04  0.13876584753E+04  0.50400001928E-02 0. -1.
       -1   -1    0    0    0  501  0.00000000000E+00  0.00000000000E+00 -0.11264034404E+04  0.11264034404E+04  0.50400001928E-02 0.  1.
    10030    2    1    2    0    0  0.00000000000E+00  0.00000000000E+00  0.26125503488E+03  0.25140619158E+04  0.25004505840E+04 0.  0.
        2    1    3    3  502    0  0.58086059080E+03 -0.11033964830E+04  0.22156573802E+03  0.12664810306E+04  0.25500000920E-02 0.  1.
       -2    1    3    3    0  502 -0.58086059080E+03  0.11033964830E+04  0.39689296857E+02  0.12475808851E+04  0.25500000920E-02 0. -1.
</event>
<event>
 5   0  0.9508784E-07  0.2499300E+04  0.7818609E-02  0.8403235E-01
       -2   -1    0    0    0  501  0.00000000000E+00  0.00000000000E+00  0.15321526393E+04  0.15321526393E+04  0.25500000920E-02 0.  1.
        2   -1    0    0  501    0  0.00000000000E+00  0.00000000000E+00 -0.10192355985E+04  0.10192355985E+04  0.25500000920E-02 0. -1.
    10030    2    1    2    0    0  0.00000000000E+00  0.00000000000E+00  0.51291704075E+03  0.25513882378E+04  0.24992995117E+04 0.  0.
        2    1    3    3  502    0 -0.15309761591E+03 -0.50345281046E+03 -0.90061948795E+03  0.10430815282E+04  0.25500000920E-02 0. -1.
       -2    1    3    3    0  502  0.15309761591E+03  0.50345281046E+03  0.14135365287E+04  0.15083067096E+04  0.25500000920E-02 0.  1.
</event>
<event>
 5   0  0.9768582E-07  0.2503783E+04  0.7818609E-02  0.8401639E-01
        2   -1    0    0  501    0  0.00000000000E+00  0.00000000000E+00  0.96814673484E+03  0.96814673484E+03  0.25500000920E-02 0. -1.
       -2   -1    0    0    0  501  0.00000000000E+00  0.00000000000E+00 -0.16187966144E+04  0.16187966144E+04  0.25500000920E-02 0.  1.
    10030    2    1    2    0    0  0.00000000000E+00  0.00000000000E+00 -0.65064987952E+03  0.25869433492E+04  0.25037832626E+04 0.  0.
        3    1    3    3  502    0  0.10434648762E+04  0.38515178348E+02 -0.10388638067E+04  0.14729359748E+04  0.10100000352E+00 0. -1.
       -3    1    3    3    0  502 -0.10434648762E+04 -0.38515178348E+02  0.38821392714E+03  0.11140073744E+04  0.10100000352E+00 0.  1.
</event>
<event>
 5   0  0.8997210E-07  0.2500749E+04  0.7818609E-02  0.8402719E-01
       -2   -1    0    0    0  501  0.00000000000E+00  0.00000000000E+00  0.65962400736E+03  0.65962400736E+03  0.25500000920E-02 0. -1.
        2   -1    0    0  501    0  0.00000000000E+00  0.00000000000E+00 -0.23701932273E+04  0.23701932273E+04  0.25500000920E-02 0.  1.
    10030    2    1    2    0    0  0.00000000000E+00  0.00000000000E+00 -0.17105692200E+04  0.30298172347E+04  0.25007489717E+04 0.  0.
        1    1    3    3  502    0 -0.56335476233E+03 -0.63209021338E+03  0.25943961695E+03  0.88555945083E+03  0.50400001928E-02 0. -1.
       -1    1    3    3    0  502  0.56335476233E+03  0.63209021338E+03 -0.19700088369E+04  0.21442577838E+04  0.50400001928E-02 0.  1.
</event>
<event>
 5   0  0.9261602E-07  0.2499863E+04  0.7818609E-02  0.8403034E-01
        2   -1    0    0  501    0  0.00000000000E+00  0.00000000000E+00  0.20734004193E+04  0.20734004193E+04  0.25500000920E-02 0.  1.
       -2   -1    0    0    0  501  0.00000000000E+00  0.00000000000E+00 -0.75351029194E+03  0.75351029195E+03  0.25500000920E-02 0. -1.
    10030    2    1    2    0    0  0.00000000000E+00  0.00000000000E+00  0.13198901273E+04  0.28269107112E+04  0.24998628404E+04 0.  0.
        4    1    3    3  502    0  0.10400247410E+04  0.27640626883E+03 -0.59064029561E+02  0.10777486070E+04  0.12699999809E+01 0. -1.
       -4    1    3    3    0  502 -0.10400247410E+04 -0.27640626883E+03  0.13789541569E+04  0.17491621042E+04  0.12699999809E+01 0.  1.
</event>
<event>
 5   0  0.3837524E-07  0.2500272E+04  0.7818609E-02  0.8402889E-01
       -1   -1    0    0    0  501  0.00000000000E+00  0.00000000000E+00  0.10597854417E+04  0.10597854417E+04  0.50400001928E-02 0.  1.
        1   -1    0    0  501    0  0.00000000000E+00  0.00000000000E+00 -0.14746759885E+04  0.14746759885E+04  0.50400001928E-02 0. -1.
    10030    2    1    2    0    0  0.00000000000E+00  0.00000000000E+00 -0.41489054676E+03  0.25344614302E+04  0.25002721003E+04 0.  0.
        5    1    3    3  502    0 -0.54134677292E+03  0.79673701441E+03  0.60030227698E+03  0.11350026927E+04  0.46999998093E+01 0.  1.
       -5    1    3    3    0  502  0.54134677292E+03 -0.79673701441E+03 -0.10151928237E+04  0.13994587375E+04  0.46999998093E+01 0. -1.
</event>
<event>
 5   0  0.3805418E-07  0.2498974E+04  0.7818609E-02  0.8403351E-01
        1   -1    0    0  501    0  0.00000000000E+00  0.00000000000E+00  0.10942725558E+04  0.10942725558E+04  0.50400001928E-02 0.  1.
       -1   -1    0    0    0  501  0.00000000000E+00  0.00000000000E+00 -0.14267179601E+04  0.14267179601E+04  0.50400001928E-02 0. -1.
    10030    2    1    2    0    0  0.00000000000E+00  0.00000000000E+00 -0.33244540433E+03  0.25209905159E+04  0.24989744365E+04 0.  0.
        4    1    3    3  502    0  0.65728259591E+03  0.84341149790E+03 -0.81833341089E+03  0.13464897140E+04  0.12699999809E+01 0. -1.
       -4    1    3    3    0  502 -0.65728259591E+03 -0.84341149790E+03  0.48588800656E+03  0.11745008018E+04  0.12699999809E+01 0.  1.
</event>
<event>
 5   0  0.3837524E-07  0.2504105E+04  0.7818609E-02  0.8401524E-01
       -1   -1    0    0    0  501  0.00000000000E+00  0.00000000000E+00  0.77037581641E+03  0.77037581643E+03  0.50400001928E-02 0.  1.
        1   -1    0    0  501    0  0.00000000000E+00  0.00000000000E+00 -0.20348975174E+04  0.20348975174E+04  0.50400001928E-02 0. -1.
    10030    2    1    2    0    0  0.00000000000E+00  0.00000000000E+00 -0.12645217010E+04  0.28052733339E+04  0.25041052984E+04 0.  0.
        5    1    3    3  502    0  0.10215367093E+04  0.63644208237E+03 -0.24577920614E+03  0.12284239011E+04  0.46999998093E+01 0.  1.
       -5    1    3    3    0  502 -0.10215367093E+04 -0.63644208237E+03 -0.10187424949E+04  0.15768494327E+04  0.46999998093E+01 0. -1.
</event>
<event>
 5   0  0.9768582E-07  0.2499732E+04  0.7818609E-02  0.8403081E-01
        2   -1    0    0  501    0  0.00000000000E+00  0.00000000000E+00  0.16999462299E+04  0.16999462299E+04  0.25500000920E-02 0. -1.
       -2   -1    0    0    0  501  0.00000000000E+00  0.00000000000E+00 -0.91894964006E+03  0.91894964007E+03  0.25500000920E-02 0.  1.
    10030    2    1    2    0    0  0.00000000000E+00  0.00000000000E+00  0.78099658984E+03  0.26188958700E+04  0.24997319665E+04 0.  0.
        3    1    3    3  502    0 -0.68769946917E+03  0.10244554069E+03  0.14786339490E+04  0.16339473719E+04  0.10100000352E+00 0. -1.
       -3    1    3    3    0  502  0.68769946917E+03 -0.10244554069E+03 -0.69763735920E+03  0.98494849807E+03  0.10100000352E+00 0.  1.
</event>
<event>
 5   0  0.9508784E-07  0.2502199E+04  0.7818609E-02  0.8402202E-01
       -2   -1    0    0    0  501  0.00000000000E+00  0.00000000000E+00  0.11096274005E+04  0.11096274005E+04  0.25500000920E-02 0.  1.
        2   -1    0    0  501    0  0.00000000000E+00  0.00000000000E+00 -0.14106090085E+04  0.14106090085E+04  0.25500000920E-02 0. -1.
    10030    2    1    2    0    0  0.00000000000E+00  0.00000000000E+00 -0.30098160799E+03  0.25202364091E+04  0.25021993584E+04 0.  0.
        2    1    3    3  502    0 -0.75127935124E+03 -0.82268478020E+02 -0.11547042470E+04  0.13800473412E+04  0.25500000920E-02 0. -1.
       -2    1    3    3    0  502  0.75127935124E+03  0.82268478020E+02  0.85372263899E+03  0.11401890678E+04  0.25500000920E-02 0.  1.
</event>
<event>
 5   0  0.9251138E-07  0.2502517E+04  0.7818609E-02  0.8402089E-01
       -2   -1    0    0    0  501  0.00000000000E+00  0.00000000000E+00  0.10224782355E+04  0.10224782355E+04  0.25500000920E-02 0.  1.
        2   -1    0    0  501    0  0.00000000000E+00  0.00000000000E+00 -0.15312290314E+04  0.15312290314E+04  0.25500000920E-02 0. -1.
    10030    2    1    2    0    0  0.00000000000E+00  0.00000000000E+00 -0.50875079592E+03  0.25537072670E+04  0.25025174191E+04 0.  0.
        5    1    3    3  502    0 -0.34550595722E+03  0.62752505437E+03 -0.13012572490E+04  0.14854139418E+04  0.46999998093E+01 0. -1.
       -5    1    3    3    0  502  0.34550595722E+03 -0.62752505437E+03  0.79250645313E+03  0.10682933252E+04  0.46999998093E+01 0.  1.
</event>
<event>
 5   0  0.3805418E-07  0.2499984E+04  0.7818609E-02  0.8402991E-01
        1   -1    0    0  501    0  0.00000000000E+00  0.00000000000E+00  0.55618355058E+03  0.55618355061E+03  0.50400001928E-02 0.  1.
       -1   -1    0    0    0  501  0.00000000000E+00  0.00000000000E+00 -0.28092879663E+04  0.28092879663E+04  0.50400001928E-02 0. -1.
    10030    2    1    2    0    0  0.00000000000E+00  0.00000000000E+00 -0.22531044157E+04  0.33654715169E+04  0.24999838046E+04 0.  0.
        4    1    3    3  502    0 -0.74467936520E+03 -0.73008694471E+03 -0.19884364694E+03  0.10616565888E+04  0.12699999809E+01 0.  1.
       -4    1    3    3    0  502  0.74467936520E+03  0.73008694471E+03 -0.20542607688E+04  0.23038149281E+04  0.12699999809E+01 0. -1.
</event>
<event>
 5   0  0.3991066E-07  0.2499792E+04  0.7818609E-02  0.8403060E-01
        1   -1    0    0  501    0  0.00000000000E+00  0.00000000000E+00  0.10544248160E+04  0.10544248160E+04  0.50400001928E-02 0. -1.
       -1   -1    0    0    0  501  0.00000000000E+00  0.00000000000E+00 -0.14816044157E+04  0.14816044158E+04  0.50400001928E-02 0.  1.
    10030    2    1    2    0    0  0.00000000000E+00  0.00000000000E+00 -0.42717959976E+03  0.25360292318E+04  0.24997923622E+04 0.  0.
        1    1    3    3  502    0  0.10358416775E+04 -0.45192917016E+03 -0.75521331990E+03  0.13592479958E+04  0.50400001928E-02 0. -1.
       -1    1    3    3    0  502 -0.10358416775E+04  0.45192917016E+03  0.32803372014E+03  0.11767812359E+04  0.50400001928E-02 0.  1.
</event>
<event>
 5   0  0.9508784E-07  0.2502332E+04  0.7818609E-02  0.8402155E-01
        2   -1    0    0  501    0  0.00000000000E+00  0.00000000000E+00  0.22125495120E+04  0.22125495120E+04  0.25500000920E-02 0. -1.
       -2   -1    0    0    0  501  0.00000000000E+00  0.00000000000E+00 -0.70751726529E+03  0.70751726530E+03  0.25500000920E-02 0.  1.
    10030    2    1    2    0    0  0.00000000000E+00  0.00000000000E+00  0.15050322467E+04  0.29200667773E+04  0.25023324960E+04 0.  0.
        2    1    3    3  502    0  0.84156463517E+03 -0.74070515921E+03  0.10432246130E+03  0.11259477537E+04  0.25500000920E-02 0.  1.
       -2    1    3    3    0  502 -0.84156463517E+03  0.74070515921E+03  0.14007097854E+04  0.17941190237E+04  0.25500000920E-02 0. -1.
</event>
<event>
 5   0  0.3214375E-07  0.2498200E+04  0.7818609E-02  0.8403627E-01
        3   -1    0    0  501    0  0.00000000000E+00  0.00000000000E+00  0.12936959722E+04  0.12936959761E+04  0.10100000352E+00 0. -1.
       -3   -1    0    0    0  501  0.00000000000E+00  0.00000000000E+00 -0.12060412150E+04  0.12060412192E+04  0.10100000352E+00 0.  1.
    10030    2    1    2    0    0  0.00000000000E+00  0.00000000000E+00  0.87654757176E+02  0.24997371953E+04  0.24981998898E+04 0.  0.
        3    1    3    3  502    0  0.10097494832E+04  0.46411943553E+03  0.61448507894E+03  0.12698790461E+04  0.10100000352E+00 0. -1.
       -3    1    3    3    0  502 -0.10097494832E+04 -0.46411943553E+03 -0.52683032176E+03  0.12298581493E+04  0.10100000352E+00 0.  1.
</event>
<event>
 5   0  0.3805418E-07  0.2494133E+04  0.7818609E-02  0.8405079E-01
       -1   -1    0    0    0  501  0.00000000000E+00  0.00000000000E+00  0.10011553425E+04  0.10011553425E+04  0.50400001928E-02 0. -1.
        1   -1    0    0  501    0  0.00000000000E+00  0.00000000000E+00 -0.15533804058E+04  0.15533804058E+04  0.50400001928E-02 0.  1.
    10030    2    1    2    0    0  0.00000000000E+00  0.00000000000E+00 -0.55222506325E+03  0.25545357483E+04  0.24941331899E+04 0.  0.
        4    1    3    3  502    0  0.12121302027E+04 -0.15373848657E+03 -0.20512550300E+02  0.12220137185E+04  0.12699999809E+01 0. -1.
       -4    1    3    3    0  502 -0.12121302027E+04  0.15373848657E+03 -0.53171251295E+03  0.13325220298E+04  0.12699999809E+01 0.  1.
</event>
<event>
 5   0  0.9261602E-07  0.2500452E+04  0.7818609E-02  0.8402825E-01
       -2   -1    0    0    0  501  0.00000000000E+00  0.00000000000E+00  0.11888121381E+04  0.11888121381E+04  0.25500000920E-02 0. -1.
        2   -1    0    0  501    0  0.00000000000E+00  0.00000000000E+00 -0.13148120288E+04  0.13148120288E+04  0.25500000920E-02 0.  1.
    10030    2    1    2    0    0  0.00000000000E+00  0.00000000000E+00 -0.12599989075E+03  0.25036241669E+04  0.25004515585E+04 0.  0.
        4    1    3    3  502    0 -0.53007761185E+03 -0.24035580066E+03 -0.11708891613E+04  0.13075688228E+04  0.12699999809E+01 0.  1.
       -4    1    3    3    0  502  0.53007761185E+03  0.24035580066E+03  0.10448892705E+04  0.11960553441E+04  0.12699999809E+01 0. -1.
</event>
<event>
 5   0  0.3837524E-07  0.2498934E+04  0.7818609E-02  0.8403365E-01
       -1   -1    0    0    0  501  0.00000000000E+00  0.00000000000E+00  0.12056742311E+04  0.12056742311E+04  0.50400001928E-02 0. -1.
        1   -1    0    0  501    0  0.00000000000E+00  0.00000000000E+00 -0.12948509039E+04  0.12948509039E+04  0.50400001928E-02 0.  1.
    10030    2    1    2    0    0  0.00000000000E+00  0.00000000000E+00 -0.89176672815E+02  0.25005251350E+04  0.24989344673E+04 0.  0.
        5    1    3    3  502    0  0.13540480983E+03  0.11067361721E+04 -0.60881502876E+03  0.12703846844E+04  0.46999998093E+01 0.  1.
       -5    1    3    3    0  502 -0.13540480983E+03 -0.11067361721E+04  0.51963835595E+03  0.12301404506E+04  0.46999998093E+01 0. -1.
</event>
<event>
 5   0  0.9768582E-07  0.2497668E+04  0.7818609E-02  0.8403817E-01
       -2   -1    0    0    0  501  0.00000000000E+00  0.00000000000E+00  0.82414165725E+03  0.82414165725E+03  0.25500000920E-02 0.  1.
        2   -1    0    0  501    0  0.00000000000E+00  0.00000000000E+00 -0.18923758858E+04  0.18923758858E+04  0.25500000920E-02 0. -1.
    10030    2    1    2    0    0  0.00000000000E+00  0.00000000000E+00 -0.10682342285E+04  0.27165175430E+04  0.24976675509E+04 0.  0.
        3    1    3    3  502    0  0.41241445375E+03  0.15739404546E+03 -0.18046935877E+04  0.18578959936E+04  0.10100000352E+00 0. -1.
       -3    1    3    3    0  502 -0.41241445375E+03 -0.15739404546E+03  0.73645935920E+03  0.85862154944E+03  0.10100000352E+00 0.  1.
</event>
<event>
 5   0  0.8997210E-07  0.2500261E+04  0.7818609E-02  0.8402893E-01
       -2   -1    0    0    0  501  0.00000000000E+00  0.00000000000E+00  0.98352215955E+03  0.98352215956E+03  0.25500000920E-02 0.  1.
        2   -1    0    0  501    0  0.00000000000E+00  0.00000000000E+00 -0.15890097715E+04  0.15890097715E+04  0.25500000920E-02 0. -1.
    10030    2    1    2    0    0  0.00000000000E+00  0.00000000000E+00 -0.60548761197E+03  0.25725319311E+04  0.25002610440E+04 0.  0.
        1    1    3    3  502    0 -0.11984534015E+04 -0.16491676275E+03 -0.62703385623E+03  0.13625929513E+04  0.50400001928E-02 0. -1.
       -1    1    3    3    0  502  0.11984534015E+04  0.16491676275E+03  0.21546244263E+02  0.12099389798E+04  0.50400001928E-02 0.  1.
</event>
<event>
 5   0  0.3972587E-07  0.2500430E+04  0.7818609E-02  0.8402832E-01
       -1   -1    0    0    0  501  0.00000000000E+00  0.00000000000E+00  0.93917554134E+03  0.93917554135E+03  0.50400001928E-02 0.  1.
        1   -1    0    0  501    0  0.00000000000E+00  0.00000000000E+00 -0.16642655485E+04  0.16642655485E+04  0.50400001928E-02 0. -1.
    10030    2    1    2    0    0  0.00000000000E+00  0.00000000000E+00 -0.72509000715E+03  0.26034410898E+04  0.25004299610E+04 0.  0.
        3    1    3    3  502    0 -0.66321323701E+03 -0.91109425526E+03 -0.92622905217E+03  0.14587134081E+04  0.10100000352E+00 0. -1.
       -3    1    3    3    0  502  0.66321323701E+03  0.91109425526E+03  0.20113904502E+03  0.11447276817E+04  0.10100000352E+00 0.  1.
</event>
<event>
 5   0  0.3805418E-07  0.2482020E+04  0.7818609E-02  0.8409419E-01
        1   -1    0    0  501    0  0.00000000000E+00  0.00000000000E+00  0.10811204341E+04  0.10811204341E+04  0.50400001928E-02 0. -1.
       -1   -1    0    0    0  501  0.00000000000E+00  0.00000000000E+00 -0.14245463556E+04  0.14245463556E+04  0.50400001928E-02 0.  1.
    10030    2    1    2    0    0  0.00000000000E+00  0.00000000000E+00 -0.34342592144E+03  0.25056667897E+04  0.24820202855E+04 0.  0.
        4    1    3    3  502    0 -0.38245294470E+03 -0.75780458664E+03  0.74221106257E+03  0.11275712486E+04  0.12699999809E+01 0. -1.
       -4    1    3    3    0  502  0.38245294470E+03  0.75780458664E+03 -0.10856369840E+04  0.13780955411E+04  0.12699999809E+01 0.  1.
</event>
<event>
 5   0  0.3805418E-07  0.2500060E+04  0.7818609E-02  0.8402964E-01
       -1   -1    0    0    0  501  0.00000000000E+00  0.00000000000E+00  0.73993508790E+03  0.73993508791E+03  0.50400001928E-02 0. -1.
        1   -1    0    0  501    0  0.00000000000E+00  0.00000000000E+00 -0.21117730669E+04  0.21117730669E+04  0.50400001928E-02 0.  1.
    10030    2    1    2    0    0  0.00000000000E+00  0.00000000000E+00 -0.13718379790E+04  0.28517081549E+04  0.25000599912E+04 0.  0.
        4    1    3    3  502    0 -0.26226909050E+03 -0.67072689899E+03  0.47951304615E+03  0.86521328191E+03  0.12699999809E+01 0. -1.
       -4    1    3    3    0  502  0.26226909050E+03  0.67072689899E+03 -0.18513510252E+04  0.19864948729E+04  0.12699999809E+01 0.  1.
</event>
<event>
 5   0  0.3805418E-07  0.2499122E+04  0.7818609E-02  0.8403298E-01
       -1   -1    0    0    0  501  0.00000000000E+00  0.00000000000E+00  0.62787149567E+03  0.62787149569E+03  0.50400001928E-02 0.  1.
        1   -1    0    0  501    0  0.00000000000E+00  0.00000000000E+00 -0.24868189302E+04  0.24868189302E+04  0.50400001928E-02 0. -1.
    10030    2    1    2    0    0  0.00000000000E+00  0.00000000000E+00 -0.18589474346E+04  0.31146904259E+04  0.24991220228E+04 0.  0.
        4    1    3    3  502    0  0.23909065599E+03  0.31077319238E+03 -0.24081592233E+04  0.24398722870E+04  0.12699999809E+01 0. -1.
       -4    1    3    3    0  502 -0.23909065599E+03 -0.31077319238E+03  0.54921178875E+03  0.67481813897E+03  0.12699999809E+01 0.  1.
</event>
<event>
 5   0  0.3972587E-07  0.2499673E+04  0.7818609E-02  0.8403102E-01
       -1   -1    0    0    0  501  0.00000000000E+00  0.00000000000E+00  0.10525566374E+04  0.10525566374E+04  0.50400001928E-02 0. -1.
        1   -1    0    0  501    0  0.00000000000E+00  0.00000000000E+00 -0.14840928471E+04  0.14840928471E+04  0.50400001928E-02 0.  1.
    10030    2    1    2    0    0  0.00000000000E+00  0.00000000000E+00 -0.43153620973E+03  0.25366494845E+04  0.24996734000E+04 0.  0.
        3    1    3    3  502    0  0.12912968055E+03  0.11658730572E+04  0.22207370957E+03  0.11938388512E+04  0.10100000352E+00 0. -1.
       -3    1    3    3    0  502 -0.12912968055E+03 -0.11658730572E+04 -0.65360991931E+03  0.13428106333E+04  0.10100000352E+00 0.  1.
</event>
<event>
 5   0  0.9251138E-07  0.2497083E+04  0.7818609E-02  0.8404025E-01
        2   -1    0    0  501    0  0.00000000000E+00  0.00000000000E+00  0.17701437360E+04  0.17701437360E+04  0.25500000920E-02 0.  1.
       -2   -1    0    0    0  501  0.00000000000E+00  0.00000000000E+00 -0.88063812116E+03  0.88063812116E+03  0.25500000920E-02 0. -1.
    10030    2    1    2    0    0  0.00000000000E+00  0.00000000000E+00  0.88950561483E+03  0.26507818571E+04  0.24970831415E+04 0.  0.
        5    1    3    3  502    0  0.96079018215E+03  0.45289573760E+03 -0.25183974505E+03  0.10916398996E+04  0.46999998093E+01 0. -1.
       -5    1    3    3    0  502 -0.96079018215E+03 -0.45289573760E+03  0.11413453599E+04  0.15591419575E+04  0.46999998093E+01 0.  1.
</event>
<event>
 5   0  0.9508784E-07  0.2498956E+04  0.7818609E-02  0.8403357E-01
        2   -1    0    0  501    0  0.00000000000E+00  0.00000000000E+00  0.12729154079E+04  0.12729154079E+04  0.25500000920E-02 0. -1.
       -2   -1    0    0    0  501  0.00000000000E+00  0.00000000000E+00 -0.12264725649E+04  0.12264725649E+04  0.25500000920E-02 0.  1.
    10030    2    1    2    0    0  0.00000000000E+00  0.00000000000E+00  0.46442843023E+02  0.24993879728E+04  0.24989564423E+04 0.  0.
        2    1    3    3  502    0  0.11961397490E+04  0.29111749444E+03  0.23702486826E+03  0.12536668149E+04  0.25500000920E-02 0. -1.
       -2    1    3    3    0  502 -0.11961397490E+04 -0.29111749444E+03 -0.19058202523E+03  0.12457211578E+04  0.25500000920E-02 0.  1.
</event>
<event>
 5   0  0.3873231E-07  0.2498974E+04  0.7818609E-02  0.8403351E-01
        1   -1    0    0  501    0  0.00000000000E+00  0.00000000000E+00  0.16682613334E+04  0.16682613334E+04  0.50400001928E-02 0. -1.
       -1   -1    0    0    0  501  0.00000000000E+00  0.00000000000E+00 -0.93583554382E+03  0.93583554383E+03  0.50400001928E-02 0.  1.
    10030    2    1    2    0    0  0.00000000000E+00  0.00000000000E+00  0.73242578961E+03  0.26040968773E+04  0.24989743914E+04 0.  0.
        2    1    3    3  502    0  0.64772327077E+03 -0.95675485251E+03 -0.12950073630E+03  0.11626244983E+04  0.25500000920E-02 0.  1.
       -2    1    3    3    0  502 -0.64772327077E+03  0.95675485251E+03  0.86192652591E+03  0.14414723790E+04  0.25500000920E-02 0. -1.
</event>
<event>
 5   0  0.3991066E-07  0.2500013E+04  0.7818609E-02  0.8402981E-01
        1   -1    0    0  501    0  0.00000000000E+00  0.00000000000E+00  0.10492871544E+04  0.10492871544E+04  0.50400001928E-02 0.  1.
       -1   -1    0    0    0  501  0.00000000000E+00  0.00000000000E+00 -0.14891221350E+04  0.14891221351E+04  0.50400001928E-02 0. -1.
    10030    2    1    2    0    0  0.00000000000E+00  0.00000000000E+00 -0.43983498063E+03  0.25384092895E+04  0.25000133821E+04 0.  0.
        1    1    3    3  502    0 -0.50007640678E+03  0.91050817394E+03 -0.92587645424E+03  0.13915274902E+04  0.50400001928E-02 0. -1.
       -1    1    3    3    0  502  0.50007640678E+03 -0.91050817394E+03  0.48604147361E+03  0.11468817993E+04  0.50400001928E-02 0.  1.
</event>
<event>
 5   0  0.3972587E-07  0.2500083E+04  0.7818609E-02  0.8402956E-01
       -1   -1    0    0    0  501  0.00000000000E+00  0.00000000000E+00  0.11005441828E+04  0.11005441828E+04  0.50400001928E-02 0. -1.
        1   -1    0    0  501    0  0.00000000000E+00  0.00000000000E+00 -0.14198459267E+04  0.14198459267E+04  0.50400001928E-02 0.  1.
    10030    2    1    2    0    0  0.00000000000E+00  0.00000000000E+00 -0.31930174395E+03  0.25203901095E+04  0.25000825387E+04 0.  0.
        3    1    3    3  502    0 -0.73647265020E+03 -0.82318063147E+03 -0.74971266615E+03  0.13349484666E+04  0.10100000352E+00 0.  1.
       -3    1    3    3    0  502  0.73647265020E+03  0.82318063147E+03  0.43041092220E+03  0.11854416429E+04  0.10100000352E+00 0. -1.
</event>
<event>
 5   0  0.3991066E-07  0.2498202E+04  0.7818609E-02  0.8403626E-01
        1   -1    0    0  501    0  0.00000000000E+00  0.00000000000E+00  0.19483921193E+04  0.19483921193E+04  0.50400001928E-02 0. -1.
       -1   -1    0    0    0  501  0.00000000000E+00  0.00000000000E+00 -0.80078998591E+03  0.80078998593E+03  0.50400001928E-02 0.  1.
    10030    2    1    2    0    0  0.00000000000E+00  0.00000000000E+00  0.11476021334E+04  0.27491821052E+04  0.24982016714E+04 0.  0.
        1    1    3    3  502    0 -0.45483034965E+03  0.47018445809E+03  0.17448052864E+04  0.18634080496E+04  0.50400001928E-02 0. -1.
       -1    1    3    3    0  502  0.45483034965E+03 -0.47018445809E+03 -0.59720315307E+03  0.88577405565E+03  0.50400001928E-02 0.  1.
</event>
<event>
 5   0  0.3805418E-07  0.2500582E+04  0.7818609E-02  0.8402778E-01
       -1   -1    0    0    0  501  0.00000000000E+00  0.00000000000E+00  0.16063629914E+04  0.16063629914E+04  0.50400001928E-02 0. -1.
        1   -1    0    0  501    0  0.00000000000E+00  0.00000000000E+00 -0.97314750112E+03  0.97314750113E+03  0.50400001928E-02 0.  1.
    10030    2    1    2    0    0  0.00000000000E+00  0.00000000000E+00  0.63321549028E+03  0.25795104925E+04  0.25005824369E+04 0.  0.
        4    1    3    3  502    0 -0.77612850091E+03  0.28196168525E+03  0.12850416830E+04  0.15274853786E+04  0.12699999809E+01 0. -1.
       -4    1    3    3    0  502  0.77612850091E+03 -0.28196168525E+03 -0.65182619274E+03  0.10520251139E+04  0.12699999809E+01 0.  1.
</event>
<event>
 5   0  0.3805418E-07  0.2498420E+04  0.7818609E-02  0.8403548E-01
       -1   -1    0    0    0  501  0.00000000000E+00  0.00000000000E+00  0.13768780716E+04  0.13768780716E+04  0.50400001928E-02 0. -1.
        1   -1    0    0  501    0  0.00000000000E+00  0.00000000000E+00 -0.11333801187E+04  0.11333801187E+04  0.50400001928E-02 0.  1.
    10030    2    1    2    0    0  0.00000000000E+00  0.00000000000E+00  0.24349795282E+03  0.25102581903E+04  0.24984204868E+04 0.  0.
        4    1    3    3  502    0 -0.10918097092E+03 -0.24299098397E+03  0.13480067982E+04  0.13740775246E+04  0.12699999809E+01 0. -1.
       -4    1    3    3    0  502  0.10918097092E+03  0.24299098397E+03 -0.11045088454E+04  0.11361806657E+04  0.12699999809E+01 0.  1.
</event>
<event>
 5   0  0.3972587E-07  0.2500606E+04  0.7818609E-02  0.8402770E-01
        1   -1    0    0  501    0  0.00000000000E+00  0.00000000000E+00  0.23830083894E+04  0.23830083894E+04  0.50400001928E-02 0. -1.
       -1   -1    0    0    0  501  0.00000000000E+00  0.00000000000E+00 -0.65600163125E+03  0.65600163127E+03  0.50400001928E-02 0.  1.
    10030    2    1    2    0    0  0.00000000000E+00  0.00000000000E+00  0.17270067581E+04  0.30390100206E+04  0.25006058392E+04 0.  0.
        3    1    3    3  502    0  0.11237636442E+04 -0.10921158627E+03  0.21075038545E+03  0.11485589378E+04  0.10100000352E+00 0.  1.
       -3    1    3    3    0  502 -0.11237636442E+04  0.10921158627E+03  0.15162563727E+04  0.18904510828E+04  0.10100000352E+00 0. -1.
</event>
<event>
 5   0  0.9508784E-07  0.2499964E+04  0.7818609E-02  0.8402998E-01
        2   -1    0    0  501    0  0.00000000000E+00  0.00000000000E+00  0.15379936909E+04  0.15379936909E+04  0.25500000920E-02 0.  1.
       -2   -1    0    0    0  501  0.00000000000E+00  0.00000000000E+00 -0.10159048834E+04  0.10159048834E+04  0.25500000920E-02 0. -1.
    10030    2    1    2    0    0  0.00000000000E+00  0.00000000000E+00  0.52208880755E+03  0.25538985743E+04  0.24999642407E+04 0.  0.
        2    1    3    3  502    0 -0.10358520190E+04 -0.69955718969E+03  0.27049792874E+03  0.12788818539E+04  0.25500000920E-02 0.  1.
       -2    1    3    3    0  502  0.10358520190E+04  0.69955718969E+03  0.25159087881E+03  0.12750167204E+04  0.25500000920E-02 0. -1.
</event>
<event>
 5   0  0.3837524E-07  0.2500453E+04  0.7818609E-02  0.8402824E-01
        1   -1    0    0  501    0  0.00000000000E+00  0.00000000000E+00  0.15334509143E+04  0.15334509143E+04  0.50400001928E-02 0. -1.
       -1   -1    0    0    0  501  0.00000000000E+00  0.00000000000E+00 -0.10193131185E+04  0.10193131185E+04  0.50400001928E-02 0.  1.
    10030    2    1    2    0    0  0.00000000000E+00  0.00000000000E+00  0.51413779581E+03  0.25527640329E+04  0.25004532658E+04 0.  0.
        5    1    3    3  502    0  0.17074904745E+03 -0.10312797044E+03  0.15170907696E+04  0.15301559099E+04  0.46999998093E+01 0. -1.
       -5    1    3    3    0  502 -0.17074904745E+03  0.10312797044E+03 -0.10029529738E+04  0.10226081230E+04  0.46999998093E+01 0.  1.
</event>
<event>
 5   0  0.8997210E-07  0.2509658E+04  0.7818609E-02  0.8399553E-01
       -2   -1    0    0    0  501  0.00000000000E+00  0.00000000000E+00  0.82548309157E+03  0.82548309158E+03  0.25500000920E-02 0.  1.
        2   -1    0    0  501    0  0.00000000000E+00  0.00000000000E+00 -0.19074842874E+04  0.19074842874E+04  0.25500000920E-02 0. -1.
    10030    2    1    2    0    0  0.00000000000E+00  0.00000000000E+00 -0.10820011958E+04  0.27329673789E+04  0.25096581653E+04 0.  0.
        1    1    3    3  502    0  0.55056649638E+03  0.74650691198E+03  0.37930019578E+03  0.10021300690E+04  0.50400001928E-02 0.  1.
       -1    1    3    3    0  502 -0.55056649638E+03 -0.74650691198E+03 -0.14613013916E+04  0.17308373100E+04  0.50400001928E-02 0. -1.
</event>
<event>
 5   0  0.3972587E-07  0.2499069E+04  0.7818609E-02  0.8403317E-01
       -1   -1    0    0    0  501  0.00000000000E+00  0.00000000000E+00  0.95790425163E+03  0.95790425165E+03  0.50400001928E-02 0.  1.
        1   -1    0    0  501    0  0.00000000000E+00  0.00000000000E+00 -0.16299501235E+04  0.16299501235E+04  0.50400001928E-02 0. -1.
    10030    2    1    2    0    0  0.00000000000E+00  0.00000000000E+00 -0.67204587186E+03  0.25878543751E+04  0.24990687492E+04 0.  0.
        3    1    3    3  502    0  0.49810110341E+03  0.22049685029E+03 -0.15005253088E+04  0.15963394948E+04  0.10100000352E+00 0. -1.
       -3    1    3    3    0  502 -0.49810110341E+03 -0.22049685029E+03  0.82847943695E+03  0.99151488030E+03  0.10100000352E+00 0.  1.
</event>
<event>
 5   0  0.8997210E-07  0.2499494E+04  0.7818609E-02  0.8403166E-01
        2   -1    0    0  501    0  0.00000000000E+00  0.00000000000E+00  0.13125677598E+04  0.13125677598E+04  0.25500000920E-02 0. -1.
       -2   -1    0    0    0  501  0.00000000000E+00  0.00000000000E+00 -0.11899327626E+04  0.11899327626E+04  0.25500000920E-02 0.  1.
    10030    2    1    2    0    0  0.00000000000E+00  0.00000000000E+00  0.12263499720E+03  0.25025005224E+04  0.24994938531E+04 0.  0.
        1    1    3    3  502    0  0.27995646693E+03  0.54497168780E+02 -0.11569131161E+04  0.11915508898E+04  0.50400001928E-02 0.  1.
       -1    1    3    3    0  502 -0.27995646693E+03 -0.54497168780E+02  0.12795481133E+04  0.13109496325E+04  0.50400001928E-02 0. -1.
</event>
<event>
 5   0  0.3991066E-07  0.2500000E+04  0.7818609E-02  0.8402986E-01
       -1   -1    0    0    0  501  0.00000000000E+00  0.00000000000E+00  0.16670342600E+04  0.16670342600E+04  0.50400001928E-02 0. -1.
        1   -1    0    0  501    0  0.00000000000E+00  0.00000000000E+00 -0.93729326764E+03  0.93729326765E+03  0.50400001928E-02 0.  1.
    10030    2    1    2    0    0  0.00000000000E+00  0.00000000000E+00  0.72974099238E+03  0.26043275277E+04  0.24999999911E+04 0.  0.
        1    1    3    3  502    0  0.40664584377E+03  0.11484836366E+04  0.73698789009E+02  0.12205765102E+04  0.50400001928E-02 0.  1.
       -1    1    3    3    0  502 -0.40664584377E+03 -0.11484836366E+04  0.65604220337E+03  0.13837510175E+04  0.50400001928E-02 0. -1.
</event>
<event>
 5   0  0.9251138E-07  0.2499132E+04  0.7818609E-02  0.8403295E-01
       -2   -1    0    0    0  501  0.00000000000E+00  0.00000000000E+00  0.65288406430E+03  0.65288406430E+03  0.25500000920E-02 0. -1.
        2   -1    0    0  501    0  0.00000000000E+00  0.00000000000E+00 -0.23915657850E+04  0.23915657850E+04  0.25500000920E-02 0.  1.
    10030    2    1    2    0    0  0.00000000000E+00  0.00000000000E+00 -0.17386817207E+04  0.30444498493E+04  0.24991320011E+04 0.  0.
        5    1    3    3  502    0  0.81850764718E+03  0.34192307230E+03  0.20276555295E+03  0.90994621562E+03  0.46999998093E+01 0. -1.
       -5    1    3    3    0  502 -0.81850764718E+03 -0.34192307230E+03 -0.19414472737E+04  0.21345036337E+04  0.46999998093E+01 0.  1.
</event>
<event>
 5   0  0.3873231E-07  0.2499623E+04  0.7818609E-02  0.8403120E-01
       -1   -1    0    0    0  501  0.00000000000E+00  0.00000000000E+00  0.18102862949E+04  0.18102862949E+04  0.50400001928E-02 0.  1.
        1   -1    0    0  501    0  0.00000000000E+00  0.00000000000E+00 -0.86286264969E+03  0.86286264971E+03  0.50400001928E-02 0. -1.
    10030    2    1    2    0    0  0.00000000000E+00  0.00000000000E+00  0.94742364519E+03  0.26731489446E+04  0.24996227148E+04 0.  0.
        2    1    3    3  502    0 -0.67983239486E+03 -0.61322870894E+03 -0.43611775887E+03  0.10141105631E+04  0.25500000920E-02 0. -1.
       -2    1    3    3    0  502  0.67983239486E+03  0.61322870894E+03  0.13835414041E+04  0.16590383815E+04  0.25500000920E-02 0.  1.
</event>
<event>
 5   0  0.9768582E-07  0.2504228E+04  0.7818609E-02  0.8401481E-01
       -2   -1    0    0    0  501  0.00000000000E+00  0.00000000000E+00  0.12124073922E+04  0.12124073922E+04  0.25500000920E-02 0. -1.
        2   -1    0    0  501    0  0.00000000000E+00  0.00000000000E+00 -0.12931211364E+04  0.12931211364E+04  0.25500000920E-02 0.  1.
    10030    2    1    2    0    0  0.00000000000E+00  0.00000000000E+00 -0.80713744219E+02  0.25055285286E+04  0.25042281244E+04 0.  0.
        3    1    3    3  502    0  0.57708014455E+03 -0.12207227902E+03 -0.11454060664E+04  0.12883626049E+04  0.10100000352E+00 0.  1.
       -3    1    3    3    0  502 -0.57708014455E+03  0.12207227902E+03  0.10646923222E+04  0.12171659237E+04  0.10100000352E+00 0. -1.
</event>
<event>
 5   0  0.9508784E-07  0.2494837E+04  0.7818609E-02  0.8404827E-01
       -2   -1    0    0    0  501  0.00000000000E+00  0.00000000000E+00  0.96167665330E+03  0.96167665330E+03  0.25500000920E-02 0. -1.
        2   -1    0    0  501    0  0.00000000000E+00  0.00000000000E+00 -0.16180622767E+04  0.16180622767E+04  0.25500000920E-02 0.  1.
    10030    2    1    2    0    0  0.00000000000E+00  0.00000000000E+00 -0.65638562341E+03  0.25797389300E+04  0.24948368404E+04 0.  0.
        2    1    3    3  502    0  0.98414509876E+02  0.99685472186E+03 -0.10968946077E+04  0.14854570114E+04  0.25500000920E-02 0.  1.
       -2    1    3    3    0  502 -0.98414509876E+02 -0.99685472186E+03  0.44050898427E+03  0.10942819186E+04  0.25500000920E-02 0. -1.
</event>
<event>
 5   0  0.3873231E-07  0.2498816E+04  0.7818609E-02  0.8403408E-01
       -1   -1    0    0    0  501  0.00000000000E+00  0.00000000000E+00  0.12797586286E+04  0.12797586287E+04  0.50400001928E-02 0. -1.
        1   -1    0    0  501    0  0.00000000000E+00  0.00000000000E+00 -0.12197769755E+04  0.12197769755E+04  0.50400001928E-02 0.  1.
    10030    2    1    2    0    0  0.00000000000E+00  0.00000000000E+00  0.59981653144E+02  0.24995356042E+04  0.24988158071E+04 0.  0.
        2    1    3    3  502    0  0.26781672083E+03  0.64548667496E+03  0.10659731212E+04  0.12746283924E+04  0.25500000920E-02 0. -1.
       -2    1    3    3    0  502 -0.26781672083E+03 -0.64548667496E+03 -0.10059914681E+04  0.12249072118E+04  0.25500000920E-02 0.  1.
</event>
<event>
 5   0  0.9251138E-07  0.2500348E+04  0.7818609E-02  0.8402862E-01
        2   -1    0    0  501    0  0.00000000000E+00  0.00000000000E+00  0.12583826612E+04  0.12583826612E+04  0.25500000920E-02 0.  1.
       -2   -1    0    0    0  501  0.00000000000E+00  0.00000000000E+00 -0.12420189368E+04  0.12420189368E+04  0.25500000920E-02 0. -1.
    10030    2    1    2    0    0  0.00000000000E+00  0.00000000000E+00  0.16363724403E+02  0.25004015980E+04  0.25003480518E+04 0.  0.
        5    1    3    3  502    0  0.86154828829E+03 -0.47736501733E+03  0.77811405493E+03  0.12552395729E+04  0.46999998093E+01 0.  1.
       -5    1    3    3    0  502 -0.86154828829E+03  0.47736501733E+03 -0.76175033053E+03  0.12451620252E+04  0.46999998093E+01 0. -1.
</event>
<event>
 5   0  0.9251138E-07  0.2499611E+04  0.7818609E-02  0.8403124E-01
        2   -1    0    0  501    0  0.00000000000E+00  0.00000000000E+00  0.17762377746E+04  0.17762377746E+04  0.25500000920E-02 0. -1.
       -2   -1    0    0    0  501  0.00000000000E+00  0.00000000000E+00 -0.87939422222E+03  0.87939422223E+03  0.25500000920E-02 0.  1.
    10030    2    1    2    0    0  0.00000000000E+00  0.00000000000E+00  0.89684355235E+03  0.26556319968E+04  0.24996105587E+04 0.  0.
        5    1    3    3  502    0 -0.81609580578E+03  0.93973616019E+03  0.32787249389E+03  0.12871048431E+04  0.46999998093E+01 0. -1.
       -5    1    3    3    0  502  0.81609580578E+03 -0.93973616019E+03  0.56897105846E+03  0.13685271537E+04  0.46999998093E+01 0.  1.
</event>
<event>
 5   0  0.9768582E-07  0.2504314E+04  0.7818609E-02  0.8401450E-01
       -2   -1    0    0    0  501  0.00000000000E+00  0.00000000000E+00  0.47840101172E+03  0.47840101172E+03  0.25500000920E-02 0. -1.
        2   -1    0    0  501    0  0.00000000000E+00  0.00000000000E+00 -0.32773700560E+04  0.32773700561E+04  0.25500000920E-02 0.  1.
    10030    2    1    2    0    0  0.00000000000E+00  0.00000000000E+00 -0.27989690443E+04  0.37557710678E+04  0.25043139984E+04 0.  0.
        3    1    3    3  502    0  0.58072150205E+03  0.10823232777E+04 -0.10344758410E+04  0.16058646942E+04  0.10100000352E+00 0. -1.
       -3    1    3    3    0  502 -0.58072150205E+03 -0.10823232777E+04 -0.17644932033E+04  0.21499063735E+04  0.10100000352E+00 0.  1.
</event>
<event>
 5   0  0.8997210E-07  0.2504192E+04  0.7818609E-02  0.8401494E-01
        2   -1    0    0  501    0  0.00000000000E+00  0.00000000000E+00  0.17114710788E+04  0.17114710788E+04  0.25500000920E-02 0.  1.
       -2   -1    0    0    0  501  0.00000000000E+00  0.00000000000E+00 -0.91602176941E+03  0.91602176942E+03  0.25500000920E-02 0. -1.
    10030    2    1    2    0    0  0.00000000000E+00  0.00000000000E+00  0.79544930936E+03  0.26274928482E+04  0.25041922976E+04 0.  0.
        1    1    3    3  502    0  0.44536961247E+03 -0.28075112211E+03 -0.79424325296E+03  0.95288909595E+03  0.50400001928E-02 0. -1.
       -1    1    3    3    0  502 -0.44536961247E+03  0.28075112211E+03  0.15896925623E+04  0.16746037522E+04  0.50400001928E-02 0.  1.
</event>
<event>
 5   0  0.3837524E-07  0.2498955E+04  0.7818609E-02  0.8403358E-01
       -1   -1    0    0    0  501  0.00000000000E+00  0.00000000000E+00  0.77912668900E+03  0.77912668902E+03  0.50400001928E-02 0.  1.
        1   -1    0    0  501    0  0.00000000000E+00  0.00000000000E+00 -0.20037739213E+04  0.20037739213E+04  0.50400001928E-02 0. -1.
    10030    2    1    2    0    0  0.00000000000E+00  0.00000000000E+00 -0.12246472323E+04  0.27829006103E+04  0.24989547741E+04 0.  0.
        5    1    3    3  502    0  0.19491097906E+03  0.12178739460E+04 -0.83494968464E+03  0.14894194520E+04  0.46999998093E+01 0. -1.
       -5    1    3    3    0  502 -0.19491097906E+03 -0.12178739460E+04 -0.38969754761E+03  0.12934811583E+04  0.46999998093E+01 0.  1.
</event>
<event>
 5   0  0.3991066E-07  0.2499627E+04  0.7818609E-02  0.8403119E-01
        1   -1    0    0  501    0  0.00000000000E+00  0.00000000000E+00  0.16348353518E+04  0.16348353518E+04  0.50400001928E-02 0.  1.
       -1   -1    0    0    0  501  0.00000000000E+00  0.00000000000E+00 -0.95546818765E+03  0.95546818766E+03  0.50400001928E-02 0. -1.
    10030    2    1    2    0    0  0.00000000000E+00  0.00000000000E+00  0.67936716413E+03  0.25903035394E+04  0.24996265087E+04 0.  0.
        1    1    3    3  502    0 -0.28252650165E+03  0.11130967736E+04  0.85075535177E+03  0.14291921915E+04  0.50400001928E-02 0. -1.
       -1    1    3    3    0  502  0.28252650165E+03 -0.11130967736E+04 -0.17138818764E+03  0.11611113480E+04  0.50400001928E-02 0.  1.
</event>
<event>
 5   0  0.9508784E-07  0.2499884E+04  0.7818609E-02  0.8403027E-01
        2   -1    0    0  501    0  0.00000000000E+00  0.00000000000E+00  0.17494100005E+04  0.17494100005E+04  0.25500000920E-02 0. -1.
       -2   -1    0    0    0  501  0.00000000000E+00  0.00000000000E+00 -0.89307552639E+03  0.89307552640E+03  0.25500000920E-02 0.  1.
    10030    2    1    2    0    0  0.00000000000E+00  0.00000000000E+00  0.85633447407E+03  0.26424855269E+04  0.24998842030E+04 0.  0.
        2    1    3    3  502    0 -0.12147877099E+04  0.76202156944E+02  0.12762603496E+03  0.12238481743E+04  0.25500000920E-02 0.  1.
       -2    1    3    3    0  502  0.12147877099E+04 -0.76202156944E+02  0.72870843912E+03  0.14186373526E+04  0.25500000920E-02 0. -1.
</event>
<event>
 5   0  0.3873231E-07  0.2498617E+04  0.7818609E-02  0.8403478E-01
        1   -1    0    0  501    0  0.00000000000E+00  0.00000000000E+00  0.20038177732E+04  0.20038177732E+04  0.50400001928E-02 0. -1.
       -1   -1    0    0    0  501  0.00000000000E+00  0.00000000000E+00 -0.77889913918E+03  0.77889913919E+03  0.50400001928E-02 0.  1.
    10030    2    1    2    0    0  0.00000000000E+00  0.00000000000E+00  0.12249186340E+04  0.27827169124E+04  0.24986171685E+04 0.  0.
        2    1    3    3  502    0 -0.10661289874E+04 -0.35476065669E+03  0.12207141877E+04  0.16591049604E+04  0.25500000920E-02 0.  1.
       -2    1    3    3    0  502  0.10661289874E+04  0.35476065669E+03  0.42044462906E+01  0.11236119520E+04  0.25500000920E-02 0. -1.
</event>
<event>
 5   0  0.8997210E-07  0.2500713E+04  0.7818609E-02  0.8402732E-01
       -2   -1    0    0    0  501  0.00000000000E+00  0.00000000000E+00  0.70002640577E+03  0.70002640578E+03  0.25500000920E-02 0.  1.
        2   -1    0    0  501    0  0.00000000000E+00  0.00000000000E+00 -0.22333318390E+04  0.22333318390E+04  0.25500000920E-02 0. -1.
    10030    2    1    2    0    0  0.00000000000E+00  0.00000000000E+00 -0.15333054332E+04  0.29333582448E+04  0.25007129065E+04 0.  0.
        1    1    3    3  502    0  0.10107915113E+04  0.22736051113E+03  0.54452587506E+02  0.10374764410E+04  0.50400001928E-02 0.  1.
       -1    1    3    3    0  502 -0.10107915113E+04 -0.22736051113E+03 -0.15877580208E+04  0.18958818038E+04  0.50400001928E-02 0. -1.
</event>
<event>
 5   0  0.9251138E-07  0.2499645E+04  0.7818609E-02  0.8403112E-01
        2   -1    0    0  501    0  0.00000000000E+00  0.00000000000E+00  0.15909564962E+04  0.15909564962E+04  0.25500000920E-02 0.  1.
       -2   -1    0    0    0  501  0.00000000000E+00  0.00000000000E+00 -0.98183437716E+03  0.98183437716E+03  0.25500000920E-02 0. -1.
    10030    2    1    2    0    0  0.00000000000E+00  0.00000000000E+00  0.60912211905E+03  0.25727908734E+04  0.24996445992E+04 0.  0.
        5    1    3    3  502    0  0.62389885386E+03 -0.86820089006E+03  0.97081378509E+03  0.14441343638E+04  0.46999998093E+01 0.  1.
       -5    1    3    3    0  502 -0.62389885386E+03  0.86820089006E+03 -0.36169166604E+03  0.11286565096E+04  0.46999998093E+01 0. -1.
</event>
<event>
 5   0  0.3972587E-07  0.2500130E+04  0.7818609E-02  0.8402939E-01
       -1   -1    0    0    0  501  0.00000000000E+00  0.00000000000E+00  0.78494637563E+03  0.78494637564E+03  0.50400001928E-02 0.  1.
        1   -1    0    0  501    0  0.00000000000E+00  0.00000000000E+00 -0.19907885159E+04  0.19907885159E+04  0.50400001928E-02 0. -1.
    10030    2    1    2    0    0  0.00000000000E+00  0.00000000000E+00 -0.12058421403E+04  0.27757348916E+04  0.25001297808E+04 0.  0.
        3    1    3    3  502    0  0.41441065152E+03  0.81341285845E+02  0.70334621682E+03  0.82039533384E+03  0.10100000352E+00 0.  1.
       -3    1    3    3    0  502 -0.41441065152E+03 -0.81341285845E+02 -0.19091883571E+04  0.19553395577E+04  0.10100000352E+00 0. -1.
</event>
<event>
 5   0  0.3837524E-07  0.2500946E+04  0.7818609E-02  0.8402648E-01
        1   -1    0    0  501    0  0.00000000000E+00  0.00000000000E+00  0.56719132748E+03  0.56719132750E+03  0.50400001928E-02 0.  1.
       -1   -1    0    0    0  501  0.00000000000E+00  0.00000000000E+00 -0.27568882025E+04  0.27568882025E+04  0.50400001928E-02 0. -1.
    10030    2    1    2    0    0  0.00000000000E+00  0.00000000000E+00 -0.21896968750E+04  0.33240795300E+04  0.25009462844E+04 0.  0.
        5    1    3    3  502    0  0.49108553706E+03 -0.43425261208E+03 -0.25101805965E+04  0.25943725741E+04  0.46999998093E+01 0. -1.
       -5    1    3    3    0  502 -0.49108553706E+03  0.43425261208E+03  0.32048372151E+03  0.72970695595E+03  0.46999998093E+01 0.  1.
</event>
<event>
 5   0  0.8997210E-07  0.2502859E+04  0.7818609E-02  0.8401968E-01
        2   -1    0    0  501    0  0.00000000000E+00  0.00000000000E+00  0.19294519038E+04  0.19294519038E+04  0.25500000920E-02 0. -1.
       -2   -1    0    0    0  501  0.00000000000E+00  0.00000000000E+00 -0.81166855700E+03  0.81166855700E+03  0.25500000920E-02 0.  1.
    10030    2    1    2    0    0  0.00000000000E+00  0.00000000000E+00  0.11177833468E+04  0.27411204608E+04  0.25028587196E+04 0.  0.
        1    1    3    3  502    0  0.10126490431E+04  0.61381495566E+03  0.11557598777E+03  0.11897834649E+04  0.50400001928E-02 0.  1.
       -1    1    3    3    0  502 -0.10126490431E+04 -0.61381495566E+03  0.10022073591E+04  0.15513369959E+04  0.50400001928E-02 0. -1.
</event>
<event>
 5   0  0.9261602E-07  0.2499130E+04  0.7818609E-02  0.8403296E-01
        2   -1    0    0  501    0  0.00000000000E+00  0.00000000000E+00  0.14637719118E+04  0.14637719118E+04  0.25500000920E-02 0.  1.
       -2   -1    0    0    0  501  0.00000000000E+00  0.00000000000E+00 -0.10667048648E+04  0.10667048648E+04  0.25500000920E-02 0. -1.
    10030    2    1    2    0    0  0.00000000000E+00  0.00000000000E+00  0.39706704696E+03  0.25304767766E+04  0.24991299440E+04 0.  0.
        4    1    3    3  502    0 -0.91664836095E+03 -0.51209411388E+03 -0.48740475937E+03  0.11576051190E+04  0.12699999809E+01 0. -1.
       -4    1    3    3    0  502  0.91664836095E+03  0.51209411388E+03  0.88447180633E+03  0.13728716576E+04  0.12699999809E+01 0.  1.
</event>
<event>
 5   0  0.3873231E-07  0.2499519E+04  0.7818609E-02  0.8403157E-01
        1   -1    0    0  501    0  0.00000000000E+00  0.00000000000E+00  0.22325042334E+04  0.22325042334E+04  0.50400001928E-02 0.  1.
       -1   -1    0    0    0  501  0.00000000000E+00  0.00000000000E+00 -0.69961757309E+03  0.69961757311E+03  0.50400001928E-02 0. -1.
    10030    2    1    2    0    0  0.00000000000E+00  0.00000000000E+00  0.15328866603E+04  0.29321218065E+04  0.24995193088E+04 0.  0.
        2    1    3    3  502    0 -0.17446013245E+03  0.98451536379E+03  0.16460084111E+04  0.19258895422E+04  0.25500000920E-02 0.  1.
       -2    1    3    3    0  502  0.17446013245E+03 -0.98451536379E+03 -0.11312175073E+03  0.10062322644E+04  0.25500000920E-02 0. -1.
</event>
<event>
 5   0  0.3805418E-07  0.2488775E+04  0.7818609E-02  0.8406995E-01
       -1   -1    0    0    0  501  0.00000000000E+00  0.00000000000E+00  0.12803853415E+04  0.12803853415E+04  0.50400001928E-02 0. -1.
        1   -1    0    0  501    0  0.00000000000E+00  0.00000000000E+00 -0.12094021261E+04  0.12094021261E+04  0.50400001928E-02 0.  1.
    10030    2    1    2    0    0  0.00000000000E+00  0.00000000000E+00  0.70983215417E+02  0.24897874677E+04  0.24887754051E+04 0.  0.
        4    1    3    3  502    0 -0.56871690336E+03 -0.10906418414E+04  0.22414347341E+03  0.12502721511E+04  0.12699999809E+01 0.  1.
       -4    1    3    3    0  502  0.56871690336E+03  0.10906418414E+04 -0.15316025799E+03  0.12395153165E+04  0.12699999809E+01 0. -1.
</event>
<event>
 5   0  0.9768582E-07  0.2499932E+04  0.7818609E-02  0.8403010E-01
        2   -1    0    0  501    0  0.00000000000E+00  0.00000000000E+00  0.20871458577E+04  0.20871458577E+04  0.25500000920E-02 0.  1.
       -2   -1    0    0    0  501  0.00000000000E+00  0.00000000000E+00 -0.74858948092E+03  0.74858948092E+03  0.25500000920E-02 0. -1.
    10030    2    1    2    0    0  0.00000000000E+00  0.00000000000E+00  0.13385563768E+04  0.28357353387E+04  0.24999323465E+04 0.  0.
        3    1    3    3  502    0  0.94772466998E+03  0.16945180873E+02 -0.25500253518E+03  0.98157806230E+03  0.10100000352E+00 0. -1.
       -3    1    3    3    0  502 -0.94772466998E+03 -0.16945180873E+02  0.15935589120E+04  0.18541572764E+04  0.10100000352E+00 0.  1.
</event>
<event>
 5   0  0.3991066E-07  0.2500350E+04  0.7818609E-02  0.8402861E-01
       -1   -1    0    0    0  501  0.00000000000E+00  0.00000000000E+00  0.11248697829E+04  0.11248697830E+04  0.50400001928E-02 0. -1.
        1   -1    0    0  501    0  0.00000000000E+00  0.00000000000E+00 -0.13894390506E+04  0.13894390506E+04  0.50400001928E-02 0.  1.
    10030    2    1    2    0    0  0.00000000000E+00  0.00000000000E+00 -0.26456926767E+03  0.25143088336E+04  0.25003503781E+04 0.  0.
        1    1    3    3  502    0 -0.17987463341E+03  0.14030543619E+02  0.11117093479E+04  0.11262545956E+04  0.50400001928E-02 0. -1.
       -1    1    3    3    0  502  0.17987463341E+03 -0.14030543619E+02 -0.13762786156E+04  0.13880542380E+04  0.50400001928E-02 0.  1.
</event>
<event>
 5   0  0.9251138E-07  0.2500609E+04  0.7818609E-02  0.8402768E-01
       -2   -1    0    0    0  501  0.00000000000E+00  0.00000000000E+00  0.80456018616E+03  0.80456018617E+03  0.25500000920E-02 0. -1.
        2   -1    0    0  501    0  0.00000000000E+00  0.00000000000E+00 -0.19430017181E+04  0.19430017181E+04  0.25500000920E-02 0.  1.
    10030    2    1    2    0    0  0.00000000000E+00  0.00000000000E+00 -0.11384415319E+04  0.27475619042E+04  0.25006093849E+04 0.  0.
        5    1    3    3  502    0 -0.40935091777E+03 -0.80601419063E+03 -0.15182393900E+04  0.17670031083E+04  0.46999998093E+01 0.  1.
       -5    1    3    3    0  502  0.40935091777E+03  0.80601419063E+03  0.37979785806E+03  0.98055879597E+03  0.46999998093E+01 0. -1.
</event>
<event>
 5   0  0.3873231E-07  0.2494422E+04  0.7818609E-02  0.8404975E-01
       -1   -1    0    0    0  501  0.00000000000E+00  0.00000000000E+00  0.74526754617E+03  0.74526754619E+03  0.50400001928E-02 0. -1.
        1   -1    0    0  501    0  0.00000000000E+00  0.00000000000E+00 -0.20872176131E+04  0.20872176131E+04  0.50400001928E-02 0.  1.
    10030    2    1    2    0    0  0.00000000000E+00  0.00000000000E+00 -0.13419500669E+04  0.28324851593E+04  0.24944222168E+04 0.  0.
        2    1    3    3  502    0  0.32266943749E+03 -0.10929932182E+04 -0.95557374512E+02  0.11436262295E+04  0.25500000920E-02 0. -1.
       -2    1    3    3    0  502 -0.32266943749E+03  0.10929932182E+04 -0.12463926924E+04  0.16888589298E+04  0.25500000920E-02 0.  1.
</event>
<event>
 5   0  0.8997210E-07  0.2501165E+04  0.7818609E-02  0.8402570E-01
       -2   -1    0    0    0  501  0.00000000000E+00  0.00000000000E+00  0.87151090195E+03  0.87151090196E+03  0.25500000920E-02 0.  1.
        2   -1    0    0  501    0  0.00000000000E+00  0.00000000000E+00 -0.17945354474E+04  0.17945354474E+04  0.25500000920E-02 0. -1.
    10030    2    1    2    0    0  0.00000000000E+00  0.00000000000E+00 -0.92302454544E+03  0.26660463494E+04  0.25011654934E+04 0.  0.
        1    1    3    3  502    0  0.37781182614E+03 -0.54610117375E+02  0.80788945629E+03  0.89353758427E+03  0.50400001928E-02 0.  1.
       -1    1    3    3    0  502 -0.37781182614E+03  0.54610117375E+02 -0.17309140017E+04  0.17725087651E+04  0.50400001928E-02 0. -1.
</event>
<event>
 5   0  0.9508784E-07  0.2499845E+04  0.7818609E-02  0.8403041E-01
       -2   -1    0    0    0  501  0.00000000000E+00  0.00000000000E+00  0.73091886985E+03  0.73091886986E+03  0.25500000920E-02 0.  1.
        2   -1    0    0  501    0  0.00000000000E+00  0.00000000000E+00 -0.21374554306E+04  0.21374554306E+04  0.25500000920E-02 0. -1.
    10030    2    1    2    0    0  0.00000000000E+00  0.00000000000E+00 -0.14065365607E+04  0.28683743004E+04  0.24998452014E+04 0.  0.
        2    1    3    3  502    0  0.31311984913E+03 -0.11054764604E+03 -0.20859182498E+04  0.21121836489E+04  0.25500000920E-02 0. -1.
       -2    1    3    3    0  502 -0.31311984913E+03  0.11054764604E+03  0.67938168908E+03  0.75619065151E+03  0.25500000920E-02 0.  1.
</event>
<event>
 5   0  0.3214375E-07  0.2499431E+04  0.7818609E-02  0.8403188E-01
        3   -1    0    0  501    0  0.00000000000E+00  0.00000000000E+00  0.80398018113E+03  0.80398018747E+03  0.10100000352E+00 0. -1.
       -3   -1    0    0    0  501  0.00000000000E+00  0.00000000000E+00 -0.19425708941E+04  0.19425708967E+04  0.10100000352E+00 0.  1.
    10030    2    1    2    0    0  0.00000000000E+00  0.00000000000E+00 -0.11385907130E+04  0.27465510842E+04  0.24994307445E+04 0.  0.
        4    1    3    3  502    0  0.47467615263E+03 -0.28509943333E+03  0.66182615991E+03  0.86291054901E+03  0.12699999809E+01 0. -1.
       -4    1    3    3    0  502 -0.47467615263E+03  0.28509943333E+03 -0.18004168729E+04  0.18836405352E+04  0.12699999809E+01 0.  1.
</event>
<event>
 5   0  0.3805418E-07  0.2499659E+04  0.7818609E-02  0.8403107E-01
       -1   -1    0    0    0  501  0.00000000000E+00  0.00000000000E+00  0.82105064570E+03  0.82105064572E+03  0.50400001928E-02 0.  1.
        1   -1    0    0  501    0  0.00000000000E+00  0.00000000000E+00 -0.19025305719E+04  0.19025305719E+04  0.50400001928E-02 0. -1.
    10030    2    1    2    0    0  0.00000000000E+00  0.00000000000E+00 -0.10814799262E+04  0.27235812176E+04  0.24996591404E+04 0.  0.
        4    1    3    3  502    0  0.58690971642E+03 -0.80640208670E+03 -0.13614230825E+04  0.16876675512E+04  0.12699999809E+01 0. -1.
       -4    1    3    3    0  502 -0.58690971642E+03  0.80640208670E+03  0.27994315635E+03  0.10359136665E+04  0.12699999809E+01 0.  1.
</event>
<event>
 5   0  0.9261602E-07  0.2508473E+04  0.7818609E-02  0.8399973E-01
        2   -1    0    0  501    0  0.00000000000E+00  0.00000000000E+00  0.20650779549E+04  0.20650779549E+04  0.25500000920E-02 0.  1.
       -2   -1    0    0    0  501  0.00000000000E+00  0.00000000000E+00 -0.76176775162E+03  0.76176775162E+03  0.25500000920E-02 0. -1.
    10030    2    1    2    0    0  0.00000000000E+00  0.00000000000E+00  0.13033102032E+04  0.28268457065E+04  0.25084734725E+04 0.  0.
        4    1    3    3  502    0  0.91987986380E+03 -0.70890942322E+03  0.11785160337E+03  0.11673140740E+04  0.12699999809E+01 0. -1.
       -4    1    3    3    0  502 -0.91987986380E+03  0.70890942322E+03  0.11854585999E+04  0.16595316324E+04  0.12699999809E+01 0.  1.
</event>
<event>
 5   0  0.9251138E-07  0.2499595E+04  0.7818609E-02  0.8403130E-01
        2   -1    0    0  501    0  0.00000000000E+00  0.00000000000E+00  0.19585781195E+04  0.19585781195E+04  0.25500000920E-02 0.  1.
       -2   -1    0    0    0  501  0.00000000000E+00  0.00000000000E+00 -0.79751392983E+03  0.79751392983E+03  0.25500000920E-02 0. -1.
    10030    2    1    2    0    0  0.00000000000E+00  0.00000000000E+00  0.11610641897E+04  0.27560920494E+04  0.24995946335E+04 0.  0.
        5    1    3    3  502    0  0.11633511879E+04  0.41106620474E+03  0.79997706696E+03  0.14704920294E+04  0.46999998093E+01 0.  1.
       -5    1    3    3    0  502 -0.11633511879E+04 -0.41106620474E+03  0.36108712273E+03  0.12856000199E+04  0.46999998093E+01 0. -1.
</event>
<event>
 5   0  0.3991066E-07  0.2499344E+04  0.7818609E-02  0.8403219E-01
        1   -1    0    0  501    0  0.00000000000E+00  0.00000000000E+00  0.16537376959E+04  0.16537376960E+04  0.50400001928E-02 0. -1.
       -1   -1    0    0    0  501  0.00000000000E+00  0.00000000000E+00 -0.94433396504E+03  0.94433396505E+03  0.50400001928E-02 0.  1.
    10030    2    1    2    0    0  0.00000000000E+00  0.00000000000E+00  0.70940373091E+03  0.25980716610E+04  0.24993444545E+04 0.  0.
        1    1    3    3  502    0  0.85276591303E+03  0.52945988969E+03 -0.41911112365E+03  0.10877461152E+04  0.50400001928E-02 0.  1.
       -1    1    3    3    0  502 -0.85276591303E+03 -0.52945988969E+03  0.11285148546E+04  0.15103255458E+04  0.50400001928E-02 0. -1.
</event>
<event>
 5   0  0.9261602E-07  0.2500082E+04  0.7818609E-02  0.8402956E-01
        2   -1    0    0  501    0  0.00000000000E+00  0.00000000000E+00  0.12911109912E+04  0.12911109912E+04  0.25500000920E-02 0.  1.
       -2   -1    0    0    0  501  0.00000000000E+00  0.00000000000E+00 -0.12102770107E+04  0.12102770107E+04  0.25500000920E-02 0. -1.
    10030    2    1    2    0    0  0.00000000000E+00  0.00000000000E+00  0.80833980457E+02  0.25013880019E+04  0.25000815594E+04 0.  0.
        4    1    3    3  502    0  0.10700755024E+03  0.86918844567E+03  0.93288152550E+03  0.12795345730E+04  0.12699999809E+01 0.  1.
       -4    1    3    3    0  502 -0.10700755024E+03 -0.86918844567E+03 -0.85204754504E+03  0.12218534289E+04  0.12699999809E+01 0. -1.
</event>
<event>
 5   0  0.3972587E-07  0.2500173E+04  0.7818609E-02  0.8402924E-01
        1   -1    0    0  501    0  0.00000000000E+00  0.00000000000E+00  0.12924475329E+04  0.12924475329E+04  0.50400001928E-02 0. -1.
       -1   -1    0    0    0  501  0.00000000000E+00  0.00000000000E+00 -0.12091142254E+04  0.12091142254E+04  0.50400001928E-02 0.  1.
    10030    2    1    2    0    0  0.00000000000E+00  0.00000000000E+00  0.83333307508E+02  0.25015617583E+04  0.25001733520E+04 0.  0.
        3    1    3    3  502    0  0.85764373156E+03 -0.80125255469E+03 -0.38887250060E+03  0.12364385381E+04  0.10100000352E+00 0.  1.
       -3    1    3    3    0  502 -0.85764373156E+03  0.80125255469E+03  0.47220580811E+03  0.12651232201E+04  0.10100000352E+00 0. -1.
</event>
<event>
 5   0  0.3873231E-07  0.2500009E+04  0.7818609E-02  0.8402982E-01
       -1   -1    0    0    0  501  0.00000000000E+00  0.00000000000E+00  0.11931421454E+04  0.11931421454E+04  0.50400001928E-02 0.  1.
        1   -1    0    0  501    0  0.00000000000E+00  0.00000000000E+00 -0.13095763486E+04  0.13095763486E+04  0.50400001928E-02 0. -1.
    10030    2    1    2    0    0  0.00000000000E+00  0.00000000000E+00 -0.11643420324E+03  0.25027184940E+04  0.25000085873E+04 0.  0.
        2    1    3    3  502    0  0.59790462080E+03 -0.35253620572E+03  0.98249575289E+03  0.12029420669E+04  0.25500000920E-02 0.  1.
       -2    1    3    3    0  502 -0.59790462080E+03  0.35253620572E+03 -0.10989299561E+04  0.12997764271E+04  0.25500000920E-02 0. -1.
</event>
<event>
 5   0  0.3873231E-07  0.2499871E+04  0.7818609E-02  0.8403031E-01
        1   -1    0    0  501    0  0.00000000000E+00  0.00000000000E+00  0.13517816029E+04  0.13517816030E+04  0.50400001928E-02 0.  1.
       -1   -1    0    0    0  501  0.00000000000E+00  0.00000000000E+00 -0.11557630532E+04  0.11557630532E+04  0.50400001928E-02 0. -1.
    10030    2    1    2    0    0  0.00000000000E+00  0.00000000000E+00  0.19601854978E+03  0.25075446561E+04  0.24998713828E+04 0.  0.
        2    1    3    3  502    0  0.74092533700E+03  0.18876080157E+03 -0.89383230535E+03  0.11762385750E+04  0.25500000920E-02 0. -1.
       -2    1    3    3    0  502 -0.74092533700E+03 -0.18876080157E+03  0.10898508551E+04  0.13313060811E+04  0.25500000920E-02 0.  1.
</event>
<event>
 5   0  0.3991066E-07  0.2500385E+04  0.7818609E-02  0.8402848E-01
       -1   -1    0    0    0  501  0.00000000000E+00  0.00000000000E+00  0.94515155750E+03  0.94515155751E+03  0.50400001928E-02 0.  1.
        1   -1    0    0  501    0  0.00000000000E+00  0.00000000000E+00 -0.16536829172E+04  0.16536829172E+04  0.50400001928E-02 0. -1.
    10030    2    1    2    0    0  0.00000000000E+00  0.00000000000E+00 -0.70853135967E+03  0.25988344747E+04  0.25003847582E+04 0.  0.
        1    1    3    3  502    0  0.22939554394E+03  0.69705105988E+03  0.69775238728E+03  0.10126010516E+04  0.50400001928E-02 0.  1.
       -1    1    3    3    0  502 -0.22939554394E+03 -0.69705105988E+03 -0.14062837469E+04  0.15862334231E+04  0.50400001928E-02 0. -1.
</event>
<event>
 5   0  0.3837524E-07  0.2500346E+04  0.7818609E-02  0.8402862E-01
       -1   -1    0    0    0  501  0.00000000000E+00  0.00000000000E+00  0.12999492075E+04  0.12999492075E+04  0.50400001928E-02 0.  1.
        1   -1    0    0  501    0  0.00000000000E+00  0.00000000000E+00 -0.12023024961E+04  0.12023024961E+04  0.50400001928E-02 0. -1.
    10030    2    1    2    0    0  0.00000000000E+00  0.00000000000E+00  0.97646711375E+02  0.25022517036E+04  0.25003457177E+04 0.  0.
        5    1    3    3  502    0 -0.54398997269E+03  0.28355505954E+02 -0.10772814748E+04  0.12071812585E+04  0.46999998093E+01 0. -1.
       -5    1    3    3    0  502  0.54398997269E+03 -0.28355505954E+02  0.11749281861E+04  0.12950704451E+04  0.46999998093E+01 0.  1.
</event>
<event>
 5   0  0.3873231E-07  0.2500643E+04  0.7818609E-02  0.8402756E-01
       -1   -1    0    0    0  501  0.00000000000E+00  0.00000000000E+00  0.68565463431E+03  0.68565463433E+03  0.50400001928E-02 0.  1.
        1   -1    0    0  501    0  0.00000000000E+00  0.00000000000E+00 -0.22800172216E+04  0.22800172216E+04  0.50400001928E-02 0. -1.
    10030    2    1    2    0    0  0.00000000000E+00  0.00000000000E+00 -0.15943625873E+04  0.29656718559E+04  0.25006434167E+04 0.  0.
        2    1    3    3  502    0 -0.55619007035E+03 -0.10092074370E+04 -0.13726575836E+04  0.17922153574E+04  0.25500000920E-02 0. -1.
       -2    1    3    3    0  502  0.55619007035E+03  0.10092074370E+04 -0.22170500366E+03  0.11734564985E+04  0.25500000920E-02 0.  1.
</event>
<event>
 5   0  0.9261602E-07  0.2499677E+04  0.7818609E-02  0.8403101E-01
       -2   -1    0    0    0  501  0.00000000000E+00  0.00000000000E+00  0.10157762886E+04  0.10157762886E+04  0.25500000920E-02 0.  1.
        2   -1    0    0  501    0  0.00000000000E+00  0.00000000000E+00 -0.15378348710E+04  0.15378348710E+04  0.25500000920E-02 0. -1.
    10030    2    1    2    0    0  0.00000000000E+00  0.00000000000E+00 -0.52205858246E+03  0.25536111596E+04  0.24996769373E+04 0.  0.
        4    1    3    3  502    0 -0.37710826141E+03 -0.81657201162E+03  0.62550493122E+03  0.10955631077E+04  0.12699999809E+01 0.  1.
       -4    1    3    3    0  502  0.37710826141E+03  0.81657201162E+03 -0.11475635137E+04  0.14580480520E+04  0.12699999809E+01 0. -1.
</event>
<event>
 5   0  0.9261602E-07  0.2487905E+04  0.7818609E-02  0.8407307E-01
       -2   -1    0    0    0  501  0.00000000000E+00  0.00000000000E+00  0.10767929384E+04  0.10767929384E+04  0.25500000920E-02 0. -1.
        2   -1    0    0  501    0  0.00000000000E+00  0.00000000000E+00 -0.14370610821E+04  0.14370610821E+04  0.25500000920E-02 0.  1.
    10030    2    1    2    0    0  0.00000000000E+00  0.00000000000E+00 -0.36026814362E+03  0.25138540205E+04  0.24879045201E+04 0.  0.
        4    1    3    3  502    0 -0.15331399571E+03 -0.95712805618E+03  0.60762338372E+03  0.11440310689E+04  0.12699999809E+01 0. -1.
       -4    1    3    3    0  502  0.15331399571E+03  0.95712805618E+03 -0.96789152735E+03  0.13698229516E+04  0.12699999809E+01 0.  1.
</event>
<event>
 5   0  0.8997210E-07  0.2501553E+04  0.7818609E-02  0.8402432E-01
       -2   -1    0    0    0  501  0.00000000000E+00  0.00000000000E+00  0.96729780451E+03  0.96729780451E+03  0.25500000920E-02 0.  1.
        2   -1    0    0  501    0  0.00000000000E+00  0.00000000000E+00 -0.16173328037E+04  0.16173328037E+04  0.25500000920E-02 0. -1.
    10030    2    1    2    0    0  0.00000000000E+00  0.00000000000E+00 -0.65003499917E+03  0.25846306082E+04  0.25015534935E+04 0.  0.
        1    1    3    3  502    0 -0.72551542594E+02 -0.59005033834E+03  0.81199235452E+03  0.10063571493E+04  0.50400001928E-02 0.  1.
       -1    1    3    3    0  502  0.72551542594E+02  0.59005033834E+03 -0.14620273537E+04  0.15782734589E+04  0.50400001928E-02 0. -1.
</event>
<event>
 5   0  0.3805418E-07  0.2498019E+04  0.7818609E-02  0.8403692E-01
        1   -1    0    0  501    0  0.00000000000E+00  0.00000000000E+00  0.12074638342E+04  0.12074638342E+04  0.50400001928E-02 0. -1.
       -1   -1    0    0    0  501  0.00000000000E+00  0.00000000000E+00 -0.12919844285E+04  0.12919844285E+04  0.50400001928E-02 0.  1.
    10030    2    1    2    0    0  0.00000000000E+00  0.00000000000E+00 -0.84520594295E+02  0.24994482627E+04  0.24980187924E+04 0.  0.
        4    1    3    3  502    0  0.95304235358E+03 -0.23722409511E+03  0.72984043879E+03  0.12236150040E+04  0.12699999809E+01 0. -1.
       -4    1    3    3    0  502 -0.95304235358E+03  0.23722409511E+03 -0.81436103308E+03  0.12758332587E+04  0.12699999809E+01 0.  1.
</event>
<event>
 5   0  0.3805418E-07  0.2500239E+04  0.7818609E-02  0.8402900E-01
        1   -1    0    0  501    0  0.00000000000E+00  0.00000000000E+00  0.20236671597E+04  0.20236671597E+04  0.50400001928E-02 0.  1.
       -1   -1    0    0    0  501  0.00000000000E+00  0.00000000000E+00 -0.77226071152E+03  0.77226071154E+03  0.50400001928E-02 0. -1.
    10030    2    1    2    0    0  0.00000000000E+00  0.00000000000E+00  0.12514064481E+04  0.27959278712E+04  0.25002389011E+04 0.  0.
        4    1    3    3  502    0  0.64026994825E+03 -0.40937764974E+03 -0.48428962521E+03  0.90115133064E+03  0.12699999809E+01 0. -1.
       -4    1    3    3    0  502 -0.64026994825E+03  0.40937764974E+03  0.17356960733E+04  0.18947765406E+04  0.12699999809E+01 0.  1.
</event>
<event>
 5   0  0.9251138E-07  0.2507090E+04  0.7818609E-02  0.8400464E-01
       -2   -1    0    0    0  501  0.00000000000E+00  0.00000000000E+00  0.10316848855E+04  0.10316848855E+04  0.25500000920E-02 0.  1.
        2   -1    0    0  501    0  0.00000000000E+00  0.00000000000E+00 -0.15231157103E+04  0.15231157103E+04  0.25500000920E-02 0. -1.
    10030    2    1    2    0    0  0.00000000000E+00  0.00000000000E+00 -0.49143082482E+03  0.25548005958E+04  0.25070903112E+04 0.  0.
        5    1    3    3  502    0  0.32293521247E+03 -0.11608815946E+04  0.10643306611E+03  0.12096624801E+04  0.46999998093E+01 0. -1.
       -5    1    3    3    0  502 -0.32293521247E+03  0.11608815946E+04 -0.59786389093E+03  0.13451381157E+04  0.46999998093E+01 0.  1.
</event>
<event>
 5   0  0.3837524E-07  0.2498731E+04  0.7818609E-02  0.8403438E-01
        1   -1    0    0  501    0  0.00000000000E+00  0.00000000000E+00  0.36060409172E+04  0.36060409172E+04  0.50400001928E-02 0.  1.
       -1   -1    0    0    0  501  0.00000000000E+00  0.00000000000E+00 -0.43286090929E+03  0.43286090932E+03  0.50400001928E-02 0. -1.
    10030    2    1    2    0    0  0.00000000000E+00  0.00000000000E+00  0.31731800079E+04  0.40389018265E+04  0.24987309983E+04 0.  0.
        5    1    3    3  502    0  0.54305303811E+03 -0.64005829583E+03  0.30823417287E+04  0.31945944730E+04  0.46999998093E+01 0.  1.
       -5    1    3    3    0  502 -0.54305303811E+03  0.64005829583E+03  0.90838279193E+02  0.84430735353E+03  0.46999998093E+01 0. -1.
</event>
<event>
 5   0  0.3837524E-07  0.2490392E+04  0.7818609E-02  0.8406417E-01
       -1   -1    0    0    0  501  0.00000000000E+00  0.00000000000E+00  0.69297488458E+03  0.69297488460E+03  0.50400001928E-02 0.  1.
        1   -1    0    0  501    0  0.00000000000E+00  0.00000000000E+00 -0.22374731571E+04  0.22374731571E+04  0.50400001928E-02 0. -1.
    10030    2    1    2    0    0  0.00000000000E+00  0.00000000000E+00 -0.15444982726E+04  0.29304480417E+04  0.24903916984E+04 0.  0.
        5    1    3    3  502    0 -0.40643805200E+03 -0.52289870874E+03  0.46852998739E+03  0.81126899903E+03  0.46999998093E+01 0.  1.
       -5    1    3    3    0  502  0.40643805200E+03  0.52289870874E+03 -0.20130282599E+04  0.21191790427E+04  0.46999998093E+01 0. -1.
</event>
<event>
 5   0  0.9508784E-07  0.2499958E+04  0.7818609E-02  0.8403000E-01
       -2   -1    0    0    0  501  0.00000000000E+00  0.00000000000E+00  0.11175486801E+04  0.11175486801E+04  0.25500000920E-02 0. -1.
        2   -1    0    0  501    0  0.00000000000E+00  0.00000000000E+00 -0.13981027808E+04  0.13981027808E+04  0.25500000920E-02 0.  1.
    10030    2    1    2    0    0  0.00000000000E+00  0.00000000000E+00 -0.28055410073E+03  0.25156514610E+04  0.24999583336E+04 0.  0.
        2    1    3    3  502    0 -0.12039205232E+04 -0.17282768534E+03 -0.43045136353E+03  0.12901869676E+04  0.25500000920E-02 0.  1.
       -2    1    3    3    0  502  0.12039205232E+04  0.17282768534E+03  0.14989726280E+03  0.12254644933E+04  0.25500000920E-02 0. -1.
</event>
<event>
 5   0  0.3972587E-07  0.2501437E+04  0.7818609E-02  0.8402474E-01
       -1   -1    0    0    0  501  0.00000000000E+00  0.00000000000E+00  0.81340697387E+03  0.81340697389E+03  0.50400001928E-02 0.  1.
        1   -1    0    0  501    0  0.00000000000E+00  0.00000000000E+00 -0.19231420968E+04  0.19231420968E+04  0.50400001928E-02 0. -1.
    10030    2    1    2    0    0  0.00000000000E+00  0.00000000000E+00 -0.11097351229E+04  0.27365490707E+04  0.25014373414E+04 0.  0.
        3    1    3    3  502    0 -0.67232913967E+03  0.10490291791E+04 -0.43598700252E+03  0.13200656678E+04  0.10100000352E+00 0.  1.
       -3    1    3    3    0  502  0.67232913967E+03 -0.10490291791E+04 -0.67374812036E+03  0.14164834029E+04  0.10100000352E+00 0. -1.
</event>
<event>
 5   0  0.9768582E-07  0.2505362E+04  0.7818609E-02  0.8401078E-01
       -2   -1    0    0    0  501  0.00000000000E+00  0.00000000000E+00  0.17684137987E+04  0.17684137987E+04  0.25500000920E-02 0. -1.
        2   -1    0    0  501    0  0.00000000000E+00  0.00000000000E+00 -0.88735441531E+03  0.88735441531E+03  0.25500000920E-02 0.  1.
    10030    2    1    2    0    0  0.00000000000E+00  0.00000000000E+00  0.88105938337E+03  0.26557682140E+04  0.25053620835E+04 0.  0.
        3    1    3    3  502    0  0.55305461007E+03 -0.75782621364E+03  0.13204469291E+04  0.16197993933E+04  0.10100000352E+00 0. -1.
       -3    1    3    3    0  502 -0.55305461007E+03  0.75782621364E+03 -0.43938754576E+03  0.10359688207E+04  0.10100000352E+00 0.  1.
</event>
<event>
 5   0  0.9261602E-07  0.2505386E+04  0.7818609E-02  0.8401069E-01
        2   -1    0    0  501    0  0.00000000000E+00  0.00000000000E+00  0.11185508545E+04  0.11185508545E+04  0.25500000920E-02 0. -1.
       -2   -1    0    0    0  501  0.00000000000E+00  0.00000000000E+00 -0.14029219515E+04  0.14029219515E+04  0.25500000920E-02 0.  1.
    10030    2    1    2    0    0  0.00000000000E+00  0.00000000000E+00 -0.28437109693E+03  0.25214728060E+04  0.25053858367E+04 0.  0.
        4    1    3    3  502    0  0.12428632097E+04  0.14369478010E+03 -0.20488151110E+03  0.12678072386E+04  0.12699999809E+01 0.  1.
       -4    1    3    3    0  502 -0.12428632097E+04 -0.14369478010E+03 -0.79489585827E+02  0.12536655674E+04  0.12699999809E+01 0. -1.
</event>
<event>
 5   0  0.9261602E-07  0.2500155E+04  0.7818609E-02  0.8402930E-01
        2   -1    0    0  501    0  0.00000000000E+00  0.00000000000E+00  0.10949147264E+04  0.10949147264E+04  0.25500000920E-02 0.  1.
       -2   -1    0    0    0  501  0.00000000000E+00  0.00000000000E+00 -0.14272282013E+04  0.14272282013E+04  0.25500000920E-02 0. -1.
    10030    2    1    2    0    0  0.00000000000E+00  0.00000000000E+00 -0.33231347493E+03  0.25221429276E+04  0.25001545356E+04 0.  0.
        4    1    3    3  502    0  0.62860732782E+03  0.17684357702E+03  0.90917818994E+03  0.11193870721E+04  0.12699999809E+01 0.  1.
       -4    1    3    3    0  502 -0.62860732782E+03 -0.17684357702E+03 -0.12414916649E+04  0.14027558555E+04  0.12699999809E+01 0. -1.
</event>
<event>
 5   0  0.3873231E-07  0.2500638E+04  0.7818609E-02  0.8402758E-01
       -1   -1    0    0    0  501  0.00000000000E+00  0.00000000000E+00  0.75584104909E+03  0.75584104911E+03  0.50400001928E-02 0.  1.
        1   -1    0    0  501    0  0.00000000000E+00  0.00000000000E+00 -0.20682891357E+04  0.20682891357E+04  0.50400001928E-02 0. -1.
    10030    2    1    2    0    0  0.00000000000E+00  0.00000000000E+00 -0.13124480866E+04  0.28241301848E+04  0.25006381827E+04 0.  0.
        2    1    3    3  502    0 -0.69109401165E+03 -0.72681054020E+03  0.18697542294E+03  0.10202079705E+04  0.25500000920E-02 0.  1.
       -2    1    3    3    0  502  0.69109401165E+03  0.72681054020E+03 -0.14994235096E+04  0.18039222143E+04  0.25500000920E-02 0. -1.
</event>
<event>
 5   0  0.8997210E-07  0.2503216E+04  0.7818609E-02  0.8401841E-01
       -2   -1    0    0    0  501  0.00000000000E+00  0.00000000000E+00  0.11883927863E+04  0.11883927863E+04  0.25500000920E-02 0. -1.
        2   -1    0    0  501    0  0.00000000000E+00  0.00000000000E+00 -0.13181855690E+04  0.13181855690E+04  0.25500000920E-02 0.  1.
    10030    2    1    2    0    0  0.00000000000E+00  0.00000000000E+00 -0.12979278271E+03  0.25065783553E+04  0.25032157088E+04 0.  0.
        1    1    3    3  502    0  0.41924818332E+03 -0.11501800850E+04  0.19591261308E+03  0.12397842631E+04  0.50400001928E-02 0.  1.
       -1    1    3    3    0  502 -0.41924818332E+03  0.11501800850E+04 -0.32570539579E+03  0.12667940922E+04  0.50400001928E-02 0. -1.
</event>
<event>
 5   0  0.3991066E-07  0.2497045E+04  0.7818609E-02  0.8404039E-01
       -1   -1    0    0    0  501  0.00000000000E+00  0.00000000000E+00  0.65930204941E+03  0.65930204943E+03  0.50400001928E-02 0. -1.
        1   -1    0    0  501    0  0.00000000000E+00  0.00000000000E+00 -0.23643307015E+04  0.23643307015E+04  0.50400001928E-02 0.  1.
    10030    2    1    2    0    0  0.00000000000E+00  0.00000000000E+00 -0.17050286521E+04  0.30236327509E+04  0.24970447149E+04 0.  0.
        1    1    3    3  502    0 -0.43909936662E+03 -0.10332262736E+03  0.55717797277E+03  0.71688988866E+03  0.50400001928E-02 0. -1.
       -1    1    3    3    0  502  0.43909936662E+03  0.10332262736E+03 -0.22622066248E+04  0.23067428622E+04  0.50400001928E-02 0.  1.
</event>
<event>
 5   0  0.3837524E-07  0.2500356E+04  0.7818609E-02  0.8402859E-01
        1   -1    0    0  501    0  0.00000000000E+00  0.00000000000E+00  0.19846482288E+04  0.19846482288E+04  0.50400001928E-02 0.  1.
       -1   -1    0    0    0  501  0.00000000000E+00  0.00000000000E+00 -0.78751772216E+03  0.78751772218E+03  0.50400001928E-02 0. -1.
    10030    2    1    2    0    0  0.00000000000E+00  0.00000000000E+00  0.11971305067E+04  0.27721659510E+04  0.25003564966E+04 0.  0.
        5    1    3    3  502    0  0.10962966822E+04  0.51527624239E+03  0.25585503920E+03  0.12380871991E+04  0.46999998093E+01 0. -1.
       -5    1    3    3    0  502 -0.10962966822E+04 -0.51527624239E+03  0.94127546746E+03  0.15340787519E+04  0.46999998093E+01 0.  1.
</event>
<event>
 5   0  0.8997210E-07  0.2499114E+04  0.7818609E-02  0.8403301E-01
        2   -1    0    0  501    0  0.00000000000E+00  0.00000000000E+00  0.28722847066E+04  0.28722847066E+04  0.25500000920E-02 0. -1.
       -2   -1    0    0    0  501  0.00000000000E+00  0.00000000000E+00 -0.54360647023E+03  0.54360647023E+03  0.25500000920E-02 0.  1.
    10030    2    1    2    0    0  0.00000000000E+00  0.00000000000E+00  0.23286782364E+04  0.34158911769E+04  0.24991138837E+04 0.  0.
        1    1    3    3  502    0 -0.21532314681E+03  0.96007118755E+03  0.11152389684E+03  0.99022135016E+03  0.50400001928E-02 0.  1.
       -1    1    3    3    0  502  0.21532314681E+03 -0.96007118755E+03  0.22171543396E+04  0.24256698267E+04  0.50400001928E-02 0. -1.
</event>
<event>
 5   0  0.3837524E-07  0.2501010E+04  0.7818609E-02  0.8402626E-01
        1   -1    0    0  501    0  0.00000000000E+00  0.00000000000E+00  0.21937371494E+04  0.21937371494E+04  0.50400001928E-02 0.  1.
       -1   -1    0    0    0  501  0.00000000000E+00  0.00000000000E+00 -0.71283028988E+03  0.71283028989E+03  0.50400001928E-02 0. -1.
    10030    2    1    2    0    0  0.00000000000E+00  0.00000000000E+00  0.14809068595E+04  0.29065674393E+04  0.25010096266E+04 0.  0.
        5    1    3    3  502    0  0.10124748502E+04 -0.55926246443E+03  0.12927661683E+04  0.17346891025E+04  0.46999998093E+01 0.  1.
       -5    1    3    3    0  502 -0.10124748502E+04  0.55926246443E+03  0.18814069120E+03  0.11718783368E+04  0.46999998093E+01 0. -1.
</event>
<event>
 5   0  0.3972587E-07  0.2499741E+04  0.7818609E-02  0.8403078E-01
        1   -1    0    0  501    0  0.00000000000E+00  0.00000000000E+00  0.17514929608E+04  0.17514929608E+04  0.50400001928E-02 0.  1.
       -1   -1    0    0    0  501  0.00000000000E+00  0.00000000000E+00 -0.89191152030E+03  0.89191152032E+03  0.50400001928E-02 0. -1.
    10030    2    1    2    0    0  0.00000000000E+00  0.00000000000E+00  0.85958144049E+03  0.26434044811E+04  0.24997413862E+04 0.  0.
        3    1    3    3  502    0 -0.84324287808E+03  0.31465705391E+03  0.13468744121E+04  0.16199192280E+04  0.10100000352E+00 0.  1.
       -3    1    3    3    0  502  0.84324287808E+03 -0.31465705391E+03 -0.48729297160E+03  0.10234852531E+04  0.10100000352E+00 0. -1.
</event>
<event>
 5   0  0.3805418E-07  0.2498807E+04  0.7818609E-02  0.8403411E-01
        1   -1    0    0  501    0  0.00000000000E+00  0.00000000000E+00  0.13813071661E+04  0.13813071661E+04  0.50400001928E-02 0.  1.
       -1   -1    0    0    0  501  0.00000000000E+00  0.00000000000E+00 -0.11300953842E+04  0.11300953842E+04  0.50400001928E-02 0. -1.
    10030    2    1    2    0    0  0.00000000000E+00  0.00000000000E+00  0.25121178191E+03  0.25114025504E+04  0.24988067974E+04 0.  0.
        4    1    3    3  502    0  0.58718463394E+03  0.43056291774E+02 -0.98193236993E+03  0.11449159055E+04  0.12699999809E+01 0. -1.
       -4    1    3    3    0  502 -0.58718463394E+03 -0.43056291774E+02  0.12331441518E+04  0.13664866449E+04  0.12699999809E+01 0.  1.
</event>
<event>
 5   0  0.9251138E-07  0.2495215E+04  0.7818609E-02  0.8404692E-01
        2   -1    0    0  501    0  0.00000000000E+00  0.00000000000E+00  0.13889900810E+04  0.13889900810E+04  0.25500000920E-02 0. -1.
       -2   -1    0    0    0  501  0.00000000000E+00  0.00000000000E+00 -0.11206158591E+04  0.11206158591E+04  0.25500000920E-02 0.  1.
    10030    2    1    2    0    0  0.00000000000E+00  0.00000000000E+00  0.26837422189E+03  0.25096059402E+04  0.24952148709E+04 0.  0.
        5    1    3    3  502    0  0.15090308448E+03  0.93085231900E+02 -0.11078708112E+04  0.11219787991E+04  0.46999998093E+01 0.  1.
       -5    1    3    3    0  502 -0.15090308448E+03 -0.93085231900E+02  0.13762450331E+04  0.13876271410E+04  0.46999998093E+01 0. -1.
</event>
<event>
 5   0  0.8997210E-07  0.2506353E+04  0.7818609E-02  0.8400726E-01
       -2   -1    0    0    0  501  0.00000000000E+00  0.00000000000E+00  0.79166429616E+03  0.79166429616E+03  0.25500000920E-02 0.  1.
        2   -1    0    0  501    0  0.00000000000E+00  0.00000000000E+00 -0.19837340065E+04  0.19837340065E+04  0.25500000920E-02 0. -1.
    10030    2    1    2    0    0  0.00000000000E+00  0.00000000000E+00 -0.11920697103E+04  0.27753983026E+04  0.25063530366E+04 0.  0.
        1    1    3    3  502    0  0.67061779550E+03  0.84507574480E+03 -0.13021098245E+04  0.16909675447E+04  0.50400001928E-02 0.  1.
       -1    1    3    3    0  502 -0.67061779550E+03 -0.84507574480E+03  0.11004011415E+03  0.10844307580E+04  0.50400001928E-02 0. -1.
</event>
<event>
 5   0  0.3873231E-07  0.2499702E+04  0.7818609E-02  0.8403092E-01
       -1   -1    0    0    0  501  0.00000000000E+00  0.00000000000E+00  0.14324240664E+04  0.14324240664E+04  0.50400001928E-02 0. -1.
        1   -1    0    0  501    0  0.00000000000E+00  0.00000000000E+00 -0.10905483702E+04  0.10905483702E+04  0.50400001928E-02 0.  1.
    10030    2    1    2    0    0  0.00000000000E+00  0.00000000000E+00  0.34187569616E+03  0.25229724366E+04  0.24997021671E+04 0.  0.
        2    1    3    3  502    0  0.92028750747E+03 -0.84568247422E+03  0.17542756192E+03  0.12620945975E+04  0.25500000920E-02 0. -1.
       -2    1    3    3    0  502 -0.92028750747E+03  0.84568247422E+03  0.16644813424E+03  0.12608778391E+04  0.25500000920E-02 0.  1.
</event>
<event>
 5   0  0.3837524E-07  0.2498813E+04  0.7818609E-02  0.8403409E-01
       -1   -1    0    0    0  501  0.00000000000E+00  0.00000000000E+00  0.12533729517E+04  0.12533729517E+04  0.50400001928E-02 0. -1.
        1   -1    0    0  501    0  0.00000000000E+00  0.00000000000E+00 -0.12454526666E+04  0.12454526666E+04  0.50400001928E-02 0.  1.
    10030    2    1    2    0    0  0.00000000000E+00  0.00000000000E+00  0.79202850932E+01  0.24988256184E+04  0.24988130663E+04 0.  0.
        5    1    3    3  502    0  0.61505373909E+03 -0.91567551806E+03  0.59068435128E+03  0.12512724920E+04  0.46999998093E+01 0. -1.
       -5    1    3    3    0  502 -0.61505373909E+03  0.91567551806E+03 -0.58276406618E+03  0.12475531264E+04  0.46999998093E+01 0.  1.
</event>
<event>
 5   0  0.9768582E-07  0.2498908E+04  0.7818609E-02  0.8403375E-01
        2   -1    0    0  501    0  0.00000000000E+00  0.00000000000E+00  0.21267988570E+04  0.21267988570E+04  0.25500000920E-02 0. -1.
       -2   -1    0    0    0  501  0.00000000000E+00  0.00000000000E+00 -0.73403030155E+03  0.73403030156E+03  0.25500000920E-02 0.  1.
    10030    2    1    2    0    0  0.00000000000E+00  0.00000000000E+00  0.13927685555E+04  0.28608291586E+04  0.24989076064E+04 0.  0.
        3    1    3    3  502    0 -0.40366462364E+03 -0.90631206627E+03 -0.17307625480E+03  0.10071256575E+04  0.10100000352E+00 0.  1.
       -3    1    3    3    0  502  0.40366462364E+03  0.90631206627E+03  0.15658448103E+04  0.18537035011E+04  0.10100000352E+00 0. -1.
</event>
<event>
 5   0  0.8997210E-07  0.2504962E+04  0.7818609E-02  0.8401220E-01
        2   -1    0    0  501    0  0.00000000000E+00  0.00000000000E+00  0.19407110398E+04  0.19407110398E+04  0.25500000920E-02 0.  1.
       -2   -1    0    0    0  501  0.00000000000E+00  0.00000000000E+00 -0.80831625046E+03  0.80831625047E+03  0.25500000920E-02 0. -1.
    10030    2    1    2    0    0  0.00000000000E+00  0.00000000000E+00  0.11323947894E+04  0.27490272903E+04  0.25049616931E+04 0.  0.
        1    1    3    3  502    0 -0.15357925581E+03  0.85132371744E+03 -0.42779427478E+03  0.96506300377E+03  0.50400001928E-02 0. -1.
       -1    1    3    3    0  502  0.15357925581E+03 -0.85132371744E+03  0.15601890641E+04  0.17839642865E+04  0.50400001928E-02 0.  1.
</event>
<event>
 5   0  0.3214375E-07  0.2501081E+04  0.7818609E-02  0.8402600E-01
        3   -1    0    0  501    0  0.00000000000E+00  0.00000000000E+00  0.17964300442E+04  0.17964300471E+04  0.10100000352E+00 0. -1.
       -3   -1    0    0    0  501  0.00000000000E+00  0.00000000000E+00 -0.87053317959E+03  0.87053318545E+03  0.10100000352E+00 0.  1.
    10030    2    1    2    0    0  0.00000000000E+00  0.00000000000E+00  0.92589686463E+03  0.26669632325E+04  0.25010813421E+04 0.  0.
        2    1    3    3  502    0  0.14587221484E+02 -0.96858686028E+03 -0.38037752200E+03  0.10407018556E+04  0.25500000920E-02 0.  1.
       -2    1    3    3    0  502 -0.14587221484E+02  0.96858686028E+03  0.13062743866E+04  0.16262613769E+04  0.25500000920E-02 0. -1.
</event>
<event>
 5   0  0.3873231E-07  0.2499663E+04  0.7818609E-02  0.8403105E-01
       -1   -1    0    0    0  501  0.00000000000E+00  0.00000000000E+00  0.91284404573E+03  0.91284404575E+03  0.50400001928E-02 0.  1.
        1   -1    0    0  501    0  0.00000000000E+00  0.00000000000E+00 -0.17112225872E+04  0.17112225872E+04  0.50400001928E-02 0. -1.
    10030    2    1    2    0    0  0.00000000000E+00  0.00000000000E+00 -0.79837854148E+03  0.26240666330E+04  0.24996634571E+04 0.  0.
        2    1    3    3  502    0  0.77382059931E+03  0.74879941198E+03  0.26688041607E+03  0.11093800232E+04  0.25500000920E-02 0.  1.
       -2    1    3    3    0  502 -0.77382059931E+03 -0.74879941198E+03 -0.10652589576E+04  0.15146866098E+04  0.25500000920E-02 0. -1.
</event>
<event>
 5   0  0.3837524E-07  0.2500191E+04  0.7818609E-02  0.8402917E-01
       -1   -1    0    0    0  501  0.00000000000E+00  0.00000000000E+00  0.11076538872E+04  0.11076538872E+04  0.50400001928E-02 0. -1.
        1   -1    0    0  501    0  0.00000000000E+00  0.00000000000E+00 -0.14108549512E+04  0.14108549512E+04  0.50400001928E-02 0.  1.
    10030    2    1    2    0    0  0.00000000000E+00  0.00000000000E+00 -0.30320106398E+03  0.25185088384E+04  0.25001911695E+04 0.  0.
        5    1    3    3  502    0  0.78629595078E+03  0.45726992073E+03 -0.10154144520E+04  0.13632482173E+04  0.46999998093E+01 0.  1.
       -5    1    3    3    0  502 -0.78629595078E+03 -0.45726992073E+03  0.71221338805E+03  0.11552606211E+04  0.46999998093E+01 0. -1.
</event>
<event>
 5   0  0.3873231E-07  0.2499944E+04  0.7818609E-02  0.8403006E-01
        1   -1    0    0  501    0  0.00000000000E+00  0.00000000000E+00  0.12514968552E+04  0.12514968552E+04  0.50400001928E-02 0. -1.
       -1   -1    0    0    0  501  0.00000000000E+00  0.00000000000E+00 -0.12484486699E+04  0.12484486699E+04  0.50400001928E-02 0.  1.
    10030    2    1    2    0    0  0.00000000000E+00  0.00000000000E+00  0.30481853271E+01  0.24999455251E+04  0.24999436668E+04 0.  0.
        2    1    3    3  502    0 -0.36025679844E+03  0.76525561968E+02 -0.11929593032E+04  0.12485163281E+04  0.25500000920E-02 0.  1.
       -2    1    3    3    0  502  0.36025679844E+03 -0.76525561968E+02  0.11960074885E+04  0.12514291970E+04  0.25500000920E-02 0. -1.
</event>
<event>
 5   0  0.3837524E-07  0.2500873E+04  0.7818609E-02  0.8402675E-01
       -1   -1    0    0    0  501  0.00000000000E+00  0.00000000000E+00  0.70458201047E+03  0.70458201049E+03  0.50400001928E-02 0.  1.
        1   -1    0    0  501    0  0.00000000000E+00  0.00000000000E+00 -0.22191762933E+04  0.22191762933E+04  0.50400001928E-02 0. -1.
    10030    2    1    2    0    0  0.00000000000E+00  0.00000000000E+00 -0.15145942828E+04  0.29237583038E+04  0.25008732030E+04 0.  0.
        5    1    3    3  502    0  0.24323364595E+03  0.39252717838E+03 -0.21158284727E+04  0.21656390300E+04  0.46999998093E+01 0. -1.
       -5    1    3    3    0  502 -0.24323364595E+03 -0.39252717838E+03  0.60123418986E+03  0.75811927382E+03  0.46999998093E+01 0.  1.
</event>
<event>
 5   0  0.3873231E-07  0.2500463E+04  0.7818609E-02  0.8402820E-01
       -1   -1    0    0    0  501  0.00000000000E+00  0.00000000000E+00  0.12588136957E+04  0.12588136957E+04  0.50400001928E-02 0.  1.
        1   -1    0    0  501    0  0.00000000000E+00  0.00000000000E+00 -0.12417082696E+04  0.12417082696E+04  0.50400001928E-02 0. -1.
    10030    2    1    2    0    0  0.00000000000E+00  0.00000000000E+00  0.17105426094E+02  0.25005219653E+04  0.25004634577E+04 0.  0.
        2    1    3    3  502    0 -0.28878117296E+03  0.69071266290E+03 -0.99277028529E+03  0.12434111902E+04  0.25500000920E-02 0. -1.
       -2    1    3    3    0  502  0.28878117296E+03 -0.69071266290E+03  0.10098757114E+04  0.12571107751E+04  0.25500000920E-02 0.  1.
</event>
<event>
 5   0  0.9768582E-07  0.2502805E+04  0.7818609E-02  0.8401987E-01
       -2   -1    0    0    0  501  0.00000000000E+00  0.00000000000E+00  0.11450515435E+04  0.11450515435E+04  0.25500000920E-02 0.  1.
        2   -1    0    0  501    0  0.00000000000E+00  0.00000000000E+00 -0.13676309127E+04  0.13676309127E+04  0.25500000920E-02 0. -1.
    10030    2    1    2    0    0  0.00000000000E+00  0.00000000000E+00 -0.22257936913E+03  0.25126824562E+04  0.25028047367E+04 0.  0.
        3    1    3    3  502    0 -0.18794041183E+03 -0.51563168695E+03 -0.12403660749E+04  0.13563574916E+04  0.10100000352E+00 0. -1.
       -3    1    3    3    0  502  0.18794041183E+03  0.51563168695E+03  0.10177867058E+04  0.11563249646E+04  0.10100000352E+00 0.  1.
</event>
<event>
 5   0  0.9508784E-07  0.2499406E+04  0.7818609E-02  0.8403197E-01
       -2   -1    0    0    0  501  0.00000000000E+00  0.00000000000E+00  0.83769088071E+03  0.83769088072E+03  0.25500000920E-02 0. -1.
        2   -1    0    0  501    0  0.00000000000E+00  0.00000000000E+00 -0.18643604385E+04  0.18643604385E+04  0.25500000920E-02 0.  1.
    10030    2    1    2    0    0  0.00000000000E+00  0.00000000000E+00 -0.10266695578E+04  0.27020513192E+04  0.24994061196E+04 0.  0.
        2    1    3    3  502    0  0.44481695742E+03  0.77305472186E+03  0.43301367945E+03  0.99145175132E+03  0.25500000920E-02 0. -1.
       -2    1    3    3    0  502 -0.44481695742E+03 -0.77305472186E+03 -0.14596832372E+04  0.17105995679E+04  0.25500000920E-02 0.  1.
</event>
<event>
 5   0  0.8997210E-07  0.2500491E+04  0.7818609E-02  0.8402811E-01
       -2   -1    0    0    0  501  0.00000000000E+00  0.00000000000E+00  0.11918358230E+04  0.11918358231E+04  0.25500000920E-02 0. -1.
        2   -1    0    0  501    0  0.00000000000E+00  0.00000000000E+00 -0.13115177061E+04  0.13115177061E+04  0.25500000920E-02 0.  1.
    10030    2    1    2    0    0  0.00000000000E+00  0.00000000000E+00 -0.11968188300E+03  0.25033535291E+04  0.25004909795E+04 0.  0.
        1    1    3    3  502    0  0.67858388630E+03 -0.22768788740E+03  0.96641594096E+03  0.12026128370E+04  0.50400001928E-02 0. -1.
       -1    1    3    3    0  502 -0.67858388630E+03  0.22768788740E+03 -0.10860978240E+04  0.13007406921E+04  0.50400001928E-02 0.  1.
</event>
<event>
 5   0  0.3873231E-07  0.2481259E+04  0.7818609E-02  0.8409693E-01
       -1   -1    0    0    0  501  0.00000000000E+00  0.00000000000E+00  0.10227884684E+04  0.10227884684E+04  0.50400001928E-02 0.  1.
        1   -1    0    0  501    0  0.00000000000E+00  0.00000000000E+00 -0.15048676197E+04  0.15048676197E+04  0.50400001928E-02 0. -1.
    10030    2    1    2    0    0  0.00000000000E+00  0.00000000000E+00 -0.48207915135E+03  0.25276560881E+04  0.24812587515E+04 0.  0.
        2    1    3    3  502    0 -0.84120972078E+03 -0.63066381866E+03  0.42990399708E+03  0.11358644696E+04  0.25500000920E-02 0.  1.
       -2    1    3    3    0  502  0.84120972078E+03  0.63066381866E+03 -0.91198314843E+03  0.13917916186E+04  0.25500000920E-02 0. -1.
</event>
<event>
 5   0  0.9261602E-07  0.2499232E+04  0.7818609E-02  0.8403259E-01
       -2   -1    0    0    0  501  0.00000000000E+00  0.00000000000E+00  0.16170357806E+04  0.16170357806E+04  0.25500000920E-02 0.  1.
        2   -1    0    0  501    0  0.00000000000E+00  0.00000000000E+00 -0.96568049807E+03  0.96568049807E+03  0.25500000920E-02 0. -1.
    10030    2    1    2    0    0  0.00000000000E+00  0.00000000000E+00  0.65135528249E+03  0.25827162786E+04  0.24992318164E+04 0.  0.
        4    1    3    3  502    0 -0.26834695737E+03 -0.11062609093E+04  0.85837213520E+03  0.14257025021E+04  0.12699999809E+01 0.  1.
       -4    1    3    3    0  502  0.26834695737E+03  0.11062609093E+04 -0.20701685271E+03  0.11570137766E+04  0.12699999809E+01 0. -1.
</event>
<event>
 5   0  0.3991066E-07  0.2501993E+04  0.7818609E-02  0.8402276E-01
        1   -1    0    0  501    0  0.00000000000E+00  0.00000000000E+00  0.75484965453E+03  0.75484965455E+03  0.50400001928E-02 0. -1.
       -1   -1    0    0    0  501  0.00000000000E+00  0.00000000000E+00 -0.20732501089E+04  0.20732501089E+04  0.50400001928E-02 0.  1.
    10030    2    1    2    0    0  0.00000000000E+00  0.00000000000E+00 -0.13184004544E+04  0.28280997634E+04  0.25019929084E+04 0.  0.
        1    1    3    3  502    0  0.81273348724E+03 -0.29019715106E+03  0.36451616676E+03  0.93681489293E+03  0.50400001928E-02 0. -1.
       -1    1    3    3    0  502 -0.81273348724E+03  0.29019715106E+03 -0.16829166211E+04  0.18912848705E+04  0.50400001928E-02 0.  1.
</event>
<event>
 5   0  0.3805418E-07  0.2500465E+04  0.7818609E-02  0.8402820E-01
       -1   -1    0    0    0  501  0.00000000000E+00  0.00000000000E+00  0.10356509575E+04  0.10356509575E+04  0.50400001928E-02 0. -1.
        1   -1    0    0  501    0  0.00000000000E+00  0.00000000000E+00 -0.15092739209E+04  0.15092739209E+04  0.50400001928E-02 0.  1.
    10030    2    1    2    0    0  0.00000000000E+00  0.00000000000E+00 -0.47362296346E+03  0.25449248784E+04  0.25004647419E+04 0.  0.
        4    1    3    3  502    0  0.95475799717E+03  0.79911808235E+03 -0.12109367872E+03  0.12509267903E+04  0.12699999809E+01 0. -1.
       -4    1    3    3    0  502 -0.95475799717E+03 -0.79911808235E+03 -0.35252928474E+03  0.12939980882E+04  0.12699999809E+01 0.  1.
</event>
<event>
 5   0  0.9768582E-07  0.2500162E+04  0.7818609E-02  0.8402928E-01
        2   -1    0    0  501    0  0.00000000000E+00  0.00000000000E+00  0.14347818300E+04  0.14347818300E+04  0.25500000920E-02 0.  1.
       -2   -1    0    0    0  501  0.00000000000E+00  0.00000000000E+00 -0.10891572590E+04  0.10891572590E+04  0.25500000920E-02 0. -1.
    10030    2    1    2    0    0  0.00000000000E+00  0.00000000000E+00  0.34562457098E+03  0.25239390890E+04  0.25001624310E+04 0.  0.
        3    1    3    3  502    0  0.14216686997E+02 -0.12475754962E+04  0.94249944468E+02  0.12512113311E+04  0.10100000352E+00 0. -1.
       -3    1    3    3    0  502 -0.14216686997E+02  0.12475754962E+04  0.25137462651E+03  0.12727277580E+04  0.10100000352E+00 0.  1.
</event>
<event>
 5   0  0.3837524E-07  0.2504525E+04  0.7818609E-02  0.8401375E-01
        1   -1    0    0  501    0  0.00000000000E+00  0.00000000000E+00  0.19365010081E+04  0.19365010081E+04  0.50400001928E-02 0. -1.
       -1   -1    0    0    0  501  0.00000000000E+00  0.00000000000E+00 -0.80979096081E+03  0.80979096083E+03  0.50400001928E-02 0.  1.
    10030    2    1    2    0    0  0.00000000000E+00  0.00000000000E+00  0.11267100473E+04  0.27462919689E+04  0.25045247150E+04 0.  0.
        5    1    3    3  502    0  0.37463101758E+03 -0.11525625267E+04  0.90904998269E+03  0.15149728507E+04  0.46999998093E+01 0. -1.
       -5    1    3    3    0  502 -0.37463101758E+03  0.11525625267E+04  0.21766006459E+03  0.12313191183E+04  0.46999998093E+01 0.  1.
</event>
<event>
 5   0  0.9768582E-07  0.2502489E+04  0.7818609E-02  0.8402099E-01
        2   -1    0    0  501    0  0.00000000000E+00  0.00000000000E+00  0.21235133338E+04  0.21235133338E+04  0.25500000920E-02 0.  1.
       -2   -1    0    0    0  501  0.00000000000E+00  0.00000000000E+00 -0.73727504282E+03  0.73727504282E+03  0.25500000920E-02 0. -1.
    10030    2    1    2    0    0  0.00000000000E+00  0.00000000000E+00  0.13862382909E+04  0.28607883766E+04  0.25024894678E+04 0.  0.
        3    1    3    3  502    0  0.10393798723E+04  0.69225283588E+03  0.78232260239E+03  0.14736190730E+04  0.10100000352E+00 0.  1.
       -3    1    3    3    0  502 -0.10393798723E+04 -0.69225283588E+03  0.60391568855E+03  0.13871693036E+04  0.10100000352E+00 0. -1.
</event>
<event>
 5   0  0.3805418E-07  0.2500002E+04  0.7818609E-02  0.8402985E-01
       -1   -1    0    0    0  501  0.00000000000E+00  0.00000000000E+00  0.18078350532E+04  0.18078350532E+04  0.50400001928E-02 0. -1.
        1   -1    0    0  501    0  0.00000000000E+00  0.00000000000E+00 -0.86429470500E+03  0.86429470501E+03  0.50400001928E-02 0.  1.
    10030    2    1    2    0    0  0.00000000000E+00  0.00000000000E+00  0.94354034816E+03  0.26721297582E+04  0.25000018112E+04 0.  0.
        4    1    3    3  502    0 -0.66680617726E+03  0.87849180236E+03  0.11005983997E+04  0.15581067919E+04  0.12699999809E+01 0. -1.
       -4    1    3    3    0  502  0.66680617726E+03 -0.87849180236E+03 -0.15705805151E+03  0.11140229662E+04  0.12699999809E+01 0.  1.
</event>
<event>
 5   0  0.3837524E-07  0.2502566E+04  0.7818609E-02  0.8402072E-01
        1   -1    0    0  501    0  0.00000000000E+00  0.00000000000E+00  0.15429914830E+04  0.15429914830E+04  0.50400001928E-02 0. -1.
       -1   -1    0    0    0  501  0.00000000000E+00  0.00000000000E+00 -0.10147232270E+04  0.10147232270E+04  0.50400001928E-02 0.  1.
    10030    2    1    2    0    0  0.00000000000E+00  0.00000000000E+00  0.52826825608E+03  0.25577147100E+04  0.25025661205E+04 0.  0.
        5    1    3    3  502    0  0.34308035794E+03  0.26171527105E+03 -0.93626462068E+03  0.10309280019E+04  0.46999998093E+01 0.  1.
       -5    1    3    3    0  502 -0.34308035794E+03 -0.26171527105E+03  0.14645328768E+04  0.15267867082E+04  0.46999998093E+01 0. -1.
</event>
<event>
 5   0  0.9251138E-07  0.2500253E+04  0.7818609E-02  0.8402895E-01
        2   -1    0    0  501    0  0.00000000000E+00  0.00000000000E+00  0.19661175687E+04  0.19661175687E+04  0.25500000920E-02 0. -1.
       -2   -1    0    0    0  501  0.00000000000E+00  0.00000000000E+00 -0.79487427966E+03  0.79487427966E+03  0.25500000920E-02 0.  1.
    10030    2    1    2    0    0  0.00000000000E+00  0.00000000000E+00  0.11712432890E+04  0.27609918483E+04  0.25002530161E+04 0.  0.
        5    1    3    3  502    0  0.24260519789E+03 -0.88689074076E+03 -0.34967691620E+03  0.98373192680E+03  0.46999998093E+01 0.  1.
       -5    1    3    3    0  502 -0.24260519789E+03  0.88689074076E+03  0.15209202052E+04  0.17772599215E+04  0.46999998093E+01 0. -1.
</event>
<event>
 5   0  0.3991066E-07  0.2499861E+04  0.7818609E-02  0.8403035E-01
       -1   -1    0    0    0  501  0.00000000000E+00  0.00000000000E+00  0.13468229110E+04  0.13468229110E+04  0.50400001928E-02 0.  1.
        1   -1    0    0  501    0  0.00000000000E+00  0.00000000000E+00 -0.11600089581E+04  0.11600089582E+04  0.50400001928E-02 0. -1.
    10030    2    1    2    0    0  0.00000000000E+00  0.00000000000E+00  0.18681395283E+03  0.25068318691E+04  0.24998613096E+04 0.  0.
        1    1    3    3  502    0  0.13145265941E+03  0.12394960097E+04  0.18692193677E+03  0.12603848500E+04  0.50400001928E-02 0.  1.
       -1    1    3    3    0  502 -0.13145265941E+03 -0.12394960097E+04 -0.10798393756E+00  0.12464470191E+04  0.50400001928E-02 0. -1.
</event>
<event>
 5   0  0.9251138E-07  0.2490905E+04  0.7818609E-02  0.8406233E-01
       -2   -1    0    0    0  501  0.00000000000E+00  0.00000000000E+00  0.92954800013E+03  0.92954800013E+03  0.25500000920E-02 0.  1.
        2   -1    0    0  501    0  0.00000000000E+00  0.00000000000E+00 -0.16687158195E+04  0.16687158195E+04  0.25500000920E-02 0. -1.
    10030    2    1    2    0    0  0.00000000000E+00  0.00000000000E+00 -0.73916781935E+03  0.25982638196E+04  0.24909046170E+04 0.  0.
        5    1    3    3  502    0 -0.12374030630E+03 -0.11020410801E+04  0.22170149775E+03  0.11309199130E+04  0.46999998093E+01 0.  1.
       -5    1    3    3    0  502  0.12374030630E+03  0.11020410801E+04 -0.96086931710E+03  0.14673439066E+04  0.46999998093E+01 0. -1.
</event>
<event>
 5   0  0.3873231E-07  0.2501896E+04  0.7818609E-02  0.8402310E-01
        1   -1    0    0  501    0  0.00000000000E+00  0.00000000000E+00  0.13614840100E+04  0.13614840100E+04  0.50400001928E-02 0.  1.
       -1   -1    0    0    0  501  0.00000000000E+00  0.00000000000E+00 -0.11493862912E+04  0.11493862912E+04  0.50400001928E-02 0. -1.
    10030    2    1    2    0    0  0.00000000000E+00  0.00000000000E+00  0.21209771877E+03  0.25108703012E+04  0.25018961263E+04 0.  0.
        2    1    3    3  502    0  0.23661975944E+03 -0.17489615183E+01 -0.11267216167E+04  0.11513008169E+04  0.25500000920E-02 0. -1.
       -2    1    3    3    0  502 -0.23661975944E+03  0.17489615183E+01  0.13388193355E+04  0.13595694843E+04  0.25500000920E-02 0.  1.
</event>
<event>
 5   0  0.3972587E-07  0.2499642E+04  0.7818609E-02  0.8403113E-01
        1   -1    0    0  501    0  0.00000000000E+00  0.00000000000E+00  0.22050532203E+04  0.22050532203E+04  0.50400001928E-02 0. -1.
       -1   -1    0    0    0  501  0.00000000000E+00  0.00000000000E+00 -0.70839699408E+03  0.70839699410E+03  0.50400001928E-02 0.  1.
    10030    2    1    2    0    0  0.00000000000E+00  0.00000000000E+00  0.14966562262E+04  0.29134502144E+04  0.24996424329E+04 0.  0.
        3    1    3    3  502    0  0.74223130701E+02  0.11813731002E+04  0.28079768871E+03  0.12165520240E+04  0.10100000352E+00 0.  1.
       -3    1    3    3    0  502 -0.74223130701E+02 -0.11813731002E+04  0.12158585375E+04  0.16968981903E+04  0.10100000352E+00 0. -1.
</event>
<event>
 5   0  0.3837524E-07  0.2498247E+04  0.7818609E-02  0.8403610E-01
        1   -1    0    0  501    0  0.00000000000E+00  0.00000000000E+00  0.15887280940E+04  0.15887280940E+04  0.50400001928E-02 0.  1.
       -1   -1    0    0    0  501  0.00000000000E+00  0.00000000000E+00 -0.98211233637E+03  0.98211233638E+03  0.50400001928E-02 0. -1.
    10030    2    1    2    0    0  0.00000000000E+00  0.00000000000E+00  0.60661575765E+03  0.25708404304E+04  0.24982469536E+04 0.  0.
        5    1    3    3  502    0 -0.32214950549E+03  0.40703711207E+03  0.14724677996E+04  0.15612953037E+04  0.46999998093E+01 0.  1.
       -5    1    3    3    0  502  0.32214950549E+03 -0.40703711207E+03 -0.86585204191E+03  0.10095451268E+04  0.46999998093E+01 0. -1.
</event>
<event>
 5   0  0.9508784E-07  0.2499302E+04  0.7818609E-02  0.8403234E-01
       -2   -1    0    0    0  501  0.00000000000E+00  0.00000000000E+00  0.68868861550E+03  0.68868861550E+03  0.25500000920E-02 0.  1.
        2   -1    0    0  501    0  0.00000000000E+00  0.00000000000E+00 -0.22675386110E+04  0.22675386110E+04  0.25500000920E-02 0. -1.
    10030    2    1    2    0    0  0.00000000000E+00  0.00000000000E+00 -0.15788499955E+04  0.29562272265E+04  0.24993023239E+04 0.  0.
        2    1    3    3  502    0  0.66084807526E+03 -0.10416398962E+04 -0.55317393999E+03  0.13519375947E+04  0.25500000920E-02 0.  1.
       -2    1    3    3    0  502 -0.66084807526E+03  0.10416398962E+04 -0.10256760555E+04  0.16042896319E+04  0.25500000920E-02 0. -1.
</event>
<event>
 5   0  0.8997210E-07  0.2500885E+04  0.7818609E-02  0.8402670E-01
        2   -1    0    0  501    0  0.00000000000E+00  0.00000000000E+00  0.13167571154E+04  0.13167571154E+04  0.25500000920E-02 0. -1.
       -2   -1    0    0    0  501  0.00000000000E+00  0.00000000000E+00 -0.11874676993E+04  0.11874676993E+04  0.25500000920E-02 0.  1.
    10030    2    1    2    0    0  0.00000000000E+00  0.00000000000E+00  0.12928941603E+03  0.25042248147E+04  0.25008850772E+04 0.  0.
        1    1    3    3  502    0 -0.10368942666E+04  0.12726485422E+03  0.75277453277E+03  0.12876395304E+04  0.50400001928E-02 0. -1.
       -1    1    3    3    0  502  0.10368942666E+04 -0.12726485422E+03 -0.62348511674E+03  0.12165852843E+04  0.50400001928E-02 0.  1.
</event>
<event>
 5   0  0.3991066E-07  0.2499974E+04  0.7818609E-02  0.8402995E-01
       -1   -1    0    0    0  501  0.00000000000E+00  0.00000000000E+00  0.86383444462E+03  0.86383444463E+03  0.50400001928E-02 0. -1.
        1   -1    0    0  501    0  0.00000000000E+00  0.00000000000E+00 -0.18087586277E+04  0.18087586277E+04  0.50400001928E-02 0.  1.
    10030    2    1    2    0    0  0.00000000000E+00  0.00000000000E+00 -0.94492418311E+03  0.26725930724E+04  0.24999744036E+04 0.  0.
        1    1    3    3  502    0  0.30853009229E+03 -0.42888003858E+03 -0.16835285866E+04  0.17644821924E+04  0.50400001928E-02 0.  1.
       -1    1    3    3    0  502 -0.30853009229E+03  0.42888003858E+03  0.73860440353E+03  0.90811087995E+03  0.50400001928E-02 0. -1.
</event>
<event>
 5   0  0.3972587E-07  0.2500281E+04  0.7818609E-02  0.8402885E-01
       -1   -1    0    0    0  501  0.00000000000E+00  0.00000000000E+00  0.81544377400E+03  0.81544377401E+03  0.50400001928E-02 0.  1.
        1   -1    0    0  501    0  0.00000000000E+00  0.00000000000E+00 -0.19165657069E+04  0.19165657069E+04  0.50400001928E-02 0. -1.
    10030    2    1    2    0    0  0.00000000000E+00  0.00000000000E+00 -0.11011219329E+04  0.27320094809E+04  0.25002812427E+04 0.  0.
        3    1    3    3  502    0  0.57024357839E+03  0.60096566036E+03 -0.15735542741E+04  0.17783167680E+04  0.10100000352E+00 0. -1.
       -3    1    3    3    0  502 -0.57024357839E+03 -0.60096566036E+03  0.47243234114E+03  0.95369271297E+03  0.10100000352E+00 0.  1.
</event>
<event>
 5   0  0.3972587E-07  0.2499703E+04  0.7818609E-02  0.8403091E-01
        1   -1    0    0  501    0  0.00000000000E+00  0.00000000000E+00  0.16828685636E+04  0.16828685636E+04  0.50400001928E-02 0. -1.
       -1   -1    0    0    0  501  0.00000000000E+00  0.00000000000E+00 -0.92825391025E+03  0.92825391026E+03  0.50400001928E-02 0.  1.
    10030    2    1    2    0    0  0.00000000000E+00  0.00000000000E+00  0.75461465336E+03  0.26111224739E+04  0.24997034421E+04 0.  0.
        3    1    3    3  502    0  0.63684281706E+03 -0.97201820373E+03 -0.10335644584E+03  0.11666493591E+04  0.10100000352E+00 0.  1.
       -3    1    3    3    0  502 -0.63684281706E+03  0.97201820373E+03  0.85797109919E+03  0.14444731148E+04  0.10100000352E+00 0. -1.
</event>
<event>
 5   0  0.3873231E-07  0.2500478E+04  0.7818609E-02  0.8402815E-01
        1   -1    0    0  501    0  0.00000000000E+00  0.00000000000E+00  0.11707681132E+04  0.11707681132E+04  0.50400001928E-02 0. -1.
       -1   -1    0    0    0  501  0.00000000000E+00  0.00000000000E+00 -0.13351041059E+04  0.13351041059E+04  0.50400001928E-02 0.  1.
    10030    2    1    2    0    0  0.00000000000E+00  0.00000000000E+00 -0.16433599277E+03  0.25058722191E+04  0.25004778064E+04 0.  0.
        2    1    3    3  502    0  0.10776285125E+04  0.32867215601E+02 -0.71656910281E+03  0.12945403601E+04  0.25500000920E-02 0.  1.
       -2    1    3    3    0  502 -0.10776285125E+04 -0.32867215601E+02  0.55223311003E+03  0.12113318590E+04  0.25500000920E-02 0. -1.
</event>
<event>
 5   0  0.8997210E-07  0.2499198E+04  0.7818609E-02  0.8403271E-01
       -2   -1    0    0    0  501  0.00000000000E+00  0.00000000000E+00  0.10782751212E+04  0.10782751212E+04  0.25500000920E-02 0.  1.
        2   -1    0    0  501    0  0.00000000000E+00  0.00000000000E+00 -0.14481442834E+04  0.14481442834E+04  0.25500000920E-02 0. -1.
    10030    2    1    2    0    0  0.00000000000E+00  0.00000000000E+00 -0.36986916222E+03  0.25264194046E+04  0.24991982336E+04 0.  0.
        1    1    3    3  502    0  0.33793493249E+03 -0.94529720011E+03 -0.93715717305E+03  0.13733354951E+04  0.50400001928E-02 0. -1.
       -1    1    3    3    0  502 -0.33793493249E+03  0.94529720011E+03  0.56728801083E+03  0.11530839095E+04  0.50400001928E-02 0.  1.
</event>
<event>
 5   0  0.9768582E-07  0.2500229E+04  0.7818609E-02  0.8402904E-01
        2   -1    0    0  501    0  0.00000000000E+00  0.00000000000E+00  0.15080727117E+04  0.15080727117E+04  0.25500000920E-02 0.  1.
       -2   -1    0    0    0  501  0.00000000000E+00  0.00000000000E+00 -0.10362803905E+04  0.10362803905E+04  0.25500000920E-02 0. -1.
    10030    2    1    2    0    0  0.00000000000E+00  0.00000000000E+00  0.47179232124E+03  0.25443531022E+04  0.25002289323E+04 0.  0.
        3    1    3    3  502    0 -0.27584960885E+03 -0.55120397953E+03  0.13426871757E+04  0.14774057316E+04  0.10100000352E+00 0.  1.
       -3    1    3    3    0  502  0.27584960885E+03  0.55120397953E+03 -0.87089485449E+03  0.10669473706E+04  0.10100000352E+00 0. -1.
</event>
<event>
 5   0  0.3972587E-07  0.2499837E+04  0.7818609E-02  0.8403044E-01
       -1   -1    0    0    0  501  0.00000000000E+00  0.00000000000E+00  0.10797780586E+04  0.10797780586E+04  0.50400001928E-02 0.  1.
        1   -1    0    0  501    0  0.00000000000E+00  0.00000000000E+00 -0.14468675621E+04  0.14468675621E+04  0.50400001928E-02 0. -1.
    10030    2    1    2    0    0  0.00000000000E+00  0.00000000000E+00 -0.36708950354E+03  0.25266456207E+04  0.24998366725E+04 0.  0.
        3    1    3    3  502    0  0.12223691718E+04  0.23977916367E+03 -0.28768073762E+03  0.12784524459E+04  0.10100000352E+00 0. -1.
       -3    1    3    3    0  502 -0.12223691718E+04 -0.23977916367E+03 -0.79408765925E+02  0.12481931748E+04  0.10100000352E+00 0.  1.
</event>
<event>
 5   0  0.9261602E-07  0.2500502E+04  0.7818609E-02  0.8402807E-01
       -2   -1    0    0    0  501  0.00000000000E+00  0.00000000000E+00  0.77113336653E+03  0.77113336653E+03  0.25500000920E-02 0. -1.
        2   -1    0    0  501    0  0.00000000000E+00  0.00000000000E+00 -0.20270524894E+04  0.20270524894E+04  0.25500000920E-02 0.  1.
    10030    2    1    2    0    0  0.00000000000E+00  0.00000000000E+00 -0.12559191229E+04  0.27981858559E+04  0.25005021978E+04 0.  0.
        4    1    3    3  502    0 -0.67928900751E+03 -0.21927924083E+02  0.54635581125E+03  0.87202102897E+03  0.12699999809E+01 0. -1.
       -4    1    3    3    0  502  0.67928900751E+03  0.21927924083E+02 -0.18022749341E+04  0.19261648270E+04  0.12699999809E+01 0.  1.
</event>
<event>
 5   0  0.3972587E-07  0.2500649E+04  0.7818609E-02  0.8402754E-01
       -1   -1    0    0    0  501  0.00000000000E+00  0.00000000000E+00  0.10684983733E+04  0.10684983733E+04  0.50400001928E-02 0.  1.
        1   -1    0    0  501    0  0.00000000000E+00  0.00000000000E+00 -0.14630922883E+04  0.14630922883E+04  0.50400001928E-02 0. -1.
    10030    2    1    2    0    0  0.00000000000E+00  0.00000000000E+00 -0.39459391504E+03  0.25315906616E+04  0.25006492997E+04 0.  0.
        3    1    3    3  502    0  0.91190830035E+03  0.38144753677E+02  0.66784103496E+03  0.11309480221E+04  0.10100000352E+00 0. -1.
       -3    1    3    3    0  502 -0.91190830035E+03 -0.38144753677E+02 -0.10624349500E+04  0.14006426395E+04  0.10100000352E+00 0.  1.
</event>
<event>
 5   0  0.3972587E-07  0.2504768E+04  0.7818609E-02  0.8401289E-01
        1   -1    0    0  501    0  0.00000000000E+00  0.00000000000E+00  0.14970447452E+04  0.14970447452E+04  0.50400001928E-02 0. -1.
       -1   -1    0    0    0  501  0.00000000000E+00  0.00000000000E+00 -0.10477083225E+04  0.10477083225E+04  0.50400001928E-02 0.  1.
    10030    2    1    2    0    0  0.00000000000E+00  0.00000000000E+00  0.44933642273E+03  0.25447530677E+04  0.25047684433E+04 0.  0.
        3    1    3    3  502    0  0.77164726935E+03 -0.47394033357E+03 -0.65424717078E+03  0.11171832073E+04  0.10100000352E+00 0.  1.
       -3    1    3    3    0  502 -0.77164726935E+03  0.47394033357E+03  0.11035835935E+04  0.14275698603E+04  0.10100000352E+00 0. -1.
</event>
<event>
 5   0  0.9768582E-07  0.2516301E+04  0.7818609E-02  0.8397201E-01
        2   -1    0    0  501    0  0.00000000000E+00  0.00000000000E+00  0.15223730927E+04  0.15223730927E+04  0.25500000920E-02 0.  1.
       -2   -1    0    0    0  501  0.00000000000E+00  0.00000000000E+00 -0.10397863574E+04  0.10397863574E+04  0.25500000920E-02 0. -1.
    10030    2    1    2    0    0  0.00000000000E+00  0.00000000000E+00  0.48258673530E+03  0.25621594501E+04  0.25163010731E+04 0.  0.
        3    1    3    3  502    0 -0.23375373212E+03  0.98344355929E+03  0.10040384980E+04  0.14247439620E+04  0.10100000352E+00 0.  1.
       -3    1    3    3    0  502  0.23375373212E+03 -0.98344355929E+03 -0.52145176270E+03  0.11374154881E+04  0.10100000352E+00 0. -1.
</event>
<event>
 5   0  0.3805418E-07  0.2501652E+04  0.7818609E-02  0.8402397E-01
       -1   -1    0    0    0  501  0.00000000000E+00  0.00000000000E+00  0.63745645124E+03  0.63745645126E+03  0.50400001928E-02 0. -1.
        1   -1    0    0  501    0  0.00000000000E+00  0.00000000000E+00 -0.24543889486E+04  0.24543889486E+04  0.50400001928E-02 0.  1.
    10030    2    1    2    0    0  0.00000000000E+00  0.00000000000E+00 -0.18169324974E+04  0.30918453999E+04  0.25016523093E+04 0.  0.
        4    1    3    3  502    0 -0.18335308122E+03 -0.31620178005E+02  0.62025713925E+03  0.64756368007E+03  0.12699999809E+01 0. -1.
       -4    1    3    3    0  502  0.18335308122E+03  0.31620178005E+02 -0.24371896366E+04  0.24442817198E+04  0.12699999809E+01 0.  1.
</event>
<event>
 5   0  0.3972587E-07  0.2499974E+04  0.7818609E-02  0.8402995E-01
       -1   -1    0    0    0  501  0.00000000000E+00  0.00000000000E+00  0.10023618445E+04  0.10023618445E+04  0.50400001928E-02 0. -1.
        1   -1    0    0  501    0  0.00000000000E+00  0.00000000000E+00 -0.15587864746E+04  0.15587864746E+04  0.50400001928E-02 0.  1.
    10030    2    1    2    0    0  0.00000000000E+00  0.00000000000E+00 -0.55642463010E+03  0.25611483191E+04  0.24999744686E+04 0.  0.
        3    1    3    3  502    0  0.76627612843E+03 -0.84834621114E+03 -0.79615011456E+03  0.13930992119E+04  0.10100000352E+00 0.  1.
       -3    1    3    3    0  502 -0.76627612843E+03  0.84834621114E+03  0.23972548446E+03  0.11680491073E+04  0.10100000352E+00 0. -1.
</event>
<event>
 5   0  0.9508784E-07  0.2499325E+04  0.7818609E-02  0.8403226E-01
       -2   -1    0    0    0  501  0.00000000000E+00  0.00000000000E+00  0.13421698857E+04  0.13421698857E+04  0.25500000920E-02 0.  1.
        2   -1    0    0  501    0  0.00000000000E+00  0.00000000000E+00 -0.11635308920E+04  0.11635308920E+04  0.25500000920E-02 0. -1.
    10030    2    1    2    0    0  0.00000000000E+00  0.00000000000E+00  0.17863899366E+03  0.25057007776E+04  0.24993248082E+04 0.  0.
        2    1    3    3  502    0  0.52445356419E+03  0.32486142735E+01 -0.10478554251E+04  0.11717777462E+04  0.25500000920E-02 0. -1.
       -2    1    3    3    0  502 -0.52445356419E+03 -0.32486142735E+01  0.12264944188E+04  0.13339230314E+04  0.25500000920E-02 0.  1.
</event>
<event>
 5   0  0.3805418E-07  0.2500213E+04  0.7818609E-02  0.8402910E-01
       -1   -1    0    0    0  501  0.00000000000E+00  0.00000000000E+00  0.10657209148E+04  0.10657209148E+04  0.50400001928E-02 0. -1.
        1   -1    0    0  501    0  0.00000000000E+00  0.00000000000E+00 -0.14663934380E+04  0.14663934380E+04  0.50400001928E-02 0.  1.
    10030    2    1    2    0    0  0.00000000000E+00  0.00000000000E+00 -0.40067252321E+03  0.25321143528E+04  0.25002129158E+04 0.  0.
        4    1    3    3  502    0  0.27925974109E+03 -0.36640941483E+03 -0.13772842249E+04  0.14522931217E+04  0.12699999809E+01 0.  1.
       -4    1    3    3    0  502 -0.27925974109E+03  0.36640941483E+03  0.97661170169E+03  0.10798212311E+04  0.12699999809E+01 0. -1.
</event>
<event>
 5   0  0.8997210E-07  0.2500007E+04  0.7818609E-02  0.8402983E-01
       -2   -1    0    0    0  501  0.00000000000E+00  0.00000000000E+00  0.74792840745E+03  0.74792840745E+03  0.25500000920E-02 0.  1.
        2   -1    0    0  501    0  0.00000000000E+00  0.00000000000E+00 -0.20891149674E+04  0.20891149674E+04  0.25500000920E-02 0. -1.
    10030    2    1    2    0    0  0.00000000000E+00  0.00000000000E+00 -0.13411865599E+04  0.28370433748E+04  0.25000067444E+04 0.  0.
        1    1    3    3  502    0 -0.24775719656E+03 -0.56891937671E+03 -0.19019873418E+04  0.20006520772E+04  0.50400001928E-02 0. -1.
       -1    1    3    3    0  502  0.24775719656E+03  0.56891937671E+03  0.56080078191E+03  0.83639129758E+03  0.50400001928E-02 0.  1.
</event>
<event>
 5   0  0.3873231E-07  0.2499244E+04  0.7818609E-02  0.8403255E-01
        1   -1    0    0  501    0  0.00000000000E+00  0.00000000000E+00  0.80632219103E+03  0.80632219104E+03  0.50400001928E-02 0. -1.
       -1   -1    0    0    0  501  0.00000000000E+00  0.00000000000E+00 -0.19366396147E+04  0.19366396147E+04  0.50400001928E-02 0.  1.
    10030    2    1    2    0    0  0.00000000000E+00  0.00000000000E+00 -0.11303174236E+04  0.27429618057E+04  0.24992442837E+04 0.  0.
        2    1    3    3  502    0 -0.64761388685E+03  0.70226756110E+03 -0.14493048218E+04  0.17358190978E+04  0.25500000920E-02 0.  1.
       -2    1    3    3    0  502  0.64761388685E+03 -0.70226756110E+03  0.31898739819E+03  0.10071427079E+04  0.25500000920E-02 0. -1.
</event>
<event>
 5   0  0.3805418E-07  0.2499763E+04  0.7818609E-02  0.8403070E-01
        1   -1    0    0  501    0  0.00000000000E+00  0.00000000000E+00  0.13228043037E+04  0.13228043037E+04  0.50400001928E-02 0.  1.
       -1   -1    0    0    0  501  0.00000000000E+00  0.00000000000E+00 -0.11809791929E+04  0.11809791929E+04  0.50400001928E-02 0. -1.
    10030    2    1    2    0    0  0.00000000000E+00  0.00000000000E+00  0.14182511082E+03  0.25037834966E+04  0.24997634759E+04 0.  0.
        4    1    3    3  502    0  0.10375172185E+04  0.44300656802E+03 -0.46801029678E+03  0.12213648304E+04  0.12699999809E+01 0. -1.
       -4    1    3    3    0  502 -0.10375172185E+04 -0.44300656802E+03  0.60983540760E+03  0.12824186662E+04  0.12699999809E+01 0.  1.
</event>
<event>
 5   0  0.9768582E-07  0.2499763E+04  0.7818609E-02  0.8403070E-01
       -2   -1    0    0    0  501  0.00000000000E+00  0.00000000000E+00  0.17710974874E+04  0.17710974874E+04  0.25500000920E-02 0. -1.
        2   -1    0    0  501    0  0.00000000000E+00  0.00000000000E+00 -0.88205386863E+03  0.88205386864E+03  0.25500000920E-02 0.  1.
    10030    2    1    2    0    0  0.00000000000E+00  0.00000000000E+00  0.88904361878E+03  0.26531513561E+04  0.24997627011E+04 0.  0.
        3    1    3    3  502    0 -0.18247926878E+03  0.60502683439E+03 -0.70000131872E+03  0.94305779795E+03  0.10100000352E+00 0.  1.
       -3    1    3    3    0  502  0.18247926878E+03 -0.60502683439E+03  0.15890449375E+04  0.17100935581E+04  0.10100000352E+00 0. -1.
</event>
<event>
 5   0  0.3972587E-07  0.2500428E+04  0.7818609E-02  0.8402833E-01
       -1   -1    0    0    0  501  0.00000000000E+00  0.00000000000E+00  0.95068233983E+03  0.95068233984E+03  0.50400001928E-02 0. -1.
        1   -1    0    0  501    0  0.00000000000E+00  0.00000000000E+00 -0.16441185845E+04  0.16441185845E+04  0.50400001928E-02 0.  1.
    10030    2    1    2    0    0  0.00000000000E+00  0.00000000000E+00 -0.69343624464E+03  0.25948009243E+04  0.25004275657E+04 0.  0.
        3    1    3    3  502    0  0.85350484305E+03 -0.45482265821E+03 -0.11688962946E+04  0.15171198783E+04  0.10100000352E+00 0. -1.
       -3    1    3    3    0  502 -0.85350484305E+03  0.45482265821E+03  0.47546004997E+03  0.10776810460E+04  0.10100000352E+00 0.  1.
</event>
<event>
 5   0  0.9508784E-07  0.2499452E+04  0.7818609E-02  0.8403181E-01
        2   -1    0    0  501    0  0.00000000000E+00  0.00000000000E+00  0.73444017274E+03  0.73444017274E+03  0.25500000920E-02 0.  1.
       -2   -1    0    0    0  501  0.00000000000E+00  0.00000000000E+00 -0.21265381223E+04  0.21265381223E+04  0.25500000920E-02 0. -1.
    10030    2    1    2    0    0  0.00000000000E+00  0.00000000000E+00 -0.13920979495E+04  0.28609782950E+04  0.24994519606E+04 0.  0.
        2    1    3    3  502    0 -0.18042987836E+03 -0.12902319311E+03  0.71172748126E+03  0.74549173902E+03  0.25500000920E-02 0.  1.
       -2    1    3    3    0  502  0.18042987836E+03  0.12902319311E+03 -0.21038254308E+04  0.21154865560E+04  0.25500000920E-02 0. -1.
</event>
<event>
 5   0  0.9768582E-07  0.2501652E+04  0.7818609E-02  0.8402397E-01
        2   -1    0    0  501    0  0.00000000000E+00  0.00000000000E+00  0.12133189294E+04  0.12133189294E+04  0.25500000920E-02 0.  1.
       -2   -1    0    0    0  501  0.00000000000E+00  0.00000000000E+00 -0.12894921739E+04  0.12894921739E+04  0.25500000920E-02 0. -1.
    10030    2    1    2    0    0  0.00000000000E+00  0.00000000000E+00 -0.76173244516E+02  0.25028111034E+04  0.25016516656E+04 0.  0.
        3    1    3    3  502    0  0.31500795232E+03  0.55024257225E+03 -0.11168109771E+04  0.12842366087E+04  0.10100000352E+00 0. -1.
       -3    1    3    3    0  502 -0.31500795232E+03 -0.55024257225E+03  0.10406377326E+04  0.12185744947E+04  0.10100000352E+00 0.  1.
</event>
<event>
 5   0  0.9508784E-07  0.2499593E+04  0.7818609E-02  0.8403131E-01
        2   -1    0    0  501    0  0.00000000000E+00  0.00000000000E+00  0.18028271955E+04  0.18028271955E+04  0.25500000920E-02 0.  1.
       -2   -1    0    0    0  501  0.00000000000E+00  0.00000000000E+00 -0.86641175939E+03  0.86641175939E+03  0.25500000920E-02 0. -1.
    10030    2    1    2    0    0  0.00000000000E+00  0.00000000000E+00  0.93641543608E+03  0.26692389549E+04  0.24995925126E+04 0.  0.
        2    1    3    3  502    0 -0.94111453985E+02 -0.12271262126E+04  0.70044168416E+03  0.14160911907E+04  0.25500000920E-02 0.  1.
       -2    1    3    3    0  502  0.94111453985E+02  0.12271262126E+04  0.23597375192E+03  0.12531477642E+04  0.25500000920E-02 0. -1.
</event>
<event>
 5   0  0.9508784E-07  0.2489453E+04  0.7818609E-02  0.8406752E-01
       -2   -1    0    0    0  501  0.00000000000E+00  0.00000000000E+00  0.92360604514E+03  0.92360604515E+03  0.25500000920E-02 0. -1.
        2   -1    0    0  501    0  0.00000000000E+00  0.00000000000E+00 -0.16774949536E+04  0.16774949536E+04  0.25500000920E-02 0.  1.
    10030    2    1    2    0    0  0.00000000000E+00  0.00000000000E+00 -0.75388890850E+03  0.26011009988E+04  0.24894533375E+04 0.  0.
        2    1    3    3  502    0 -0.45939555748E+03  0.52312446133E+03 -0.14550339612E+04  0.16130180745E+04  0.25500000920E-02 0.  1.
       -2    1    3    3    0  502  0.45939555748E+03 -0.52312446133E+03  0.70114505274E+03  0.98808292429E+03  0.25500000920E-02 0. -1.
</event>
<event>
 5   0  0.3837524E-07  0.2501046E+04  0.7818609E-02  0.8402613E-01
       -1   -1    0    0    0  501  0.00000000000E+00  0.00000000000E+00  0.11203366158E+04  0.11203366158E+04  0.50400001928E-02 0. -1.
        1   -1    0    0  501    0  0.00000000000E+00  0.00000000000E+00 -0.13958371291E+04  0.13958371291E+04  0.50400001928E-02 0.  1.
    10030    2    1    2    0    0  0.00000000000E+00  0.00000000000E+00 -0.27550051325E+03  0.25161737449E+04  0.25010457376E+04 0.  0.
        5    1    3    3  502    0  0.68572787097E+03 -0.57679920390E+03 -0.10153023114E+04  0.13541716687E+04  0.46999998093E+01 0.  1.
       -5    1    3    3    0  502 -0.68572787097E+03  0.57679920390E+03  0.73980179816E+03  0.11620020762E+04  0.46999998093E+01 0. -1.
</event>
<event>
 5   0  0.3805418E-07  0.2502505E+04  0.7818609E-02  0.8402094E-01
        1   -1    0    0  501    0  0.00000000000E+00  0.00000000000E+00  0.14206444861E+04  0.14206444861E+04  0.50400001928E-02 0. -1.
       -1   -1    0    0    0  501  0.00000000000E+00  0.00000000000E+00 -0.11020582498E+04  0.11020582498E+04  0.50400001928E-02 0.  1.
    10030    2    1    2    0    0  0.00000000000E+00  0.00000000000E+00  0.31858623626E+03  0.25227027359E+04  0.25025051256E+04 0.  0.
        4    1    3    3  502    0  0.11587378848E+04 -0.16060847223E+03  0.60690704111E+03  0.13178794848E+04  0.12699999809E+01 0. -1.
       -4    1    3    3    0  502 -0.11587378848E+04  0.16060847223E+03 -0.28832080485E+03  0.12048232511E+04  0.12699999809E+01 0.  1.
</event>
<event>
 5   0  0.9508784E-07  0.2500395E+04  0.7818609E-02  0.8402845E-01
       -2   -1    0    0    0  501  0.00000000000E+00  0.00000000000E+00  0.62889192073E+03  0.62889192073E+03  0.25500000920E-02 0.  1.
        2   -1    0    0  501    0  0.00000000000E+00  0.00000000000E+00 -0.24853146720E+04  0.24853146720E+04  0.25500000920E-02 0. -1.
    10030    2    1    2    0    0  0.00000000000E+00  0.00000000000E+00 -0.18564227513E+04  0.31142065927E+04  0.25003954229E+04 0.  0.
        2    1    3    3  502    0  0.74839594171E+03  0.89553173597E+03 -0.36993260795E+03  0.12243053990E+04  0.25500000920E-02 0. -1.
       -2    1    3    3    0  502 -0.74839594171E+03 -0.89553173597E+03 -0.14864901433E+04  0.18899011937E+04  0.25500000920E-02 0.  1.
</event>
<event>
 5   0  0.9508784E-07  0.2499873E+04  0.7818609E-02  0.8403031E-01
        2   -1    0    0  501    0  0.00000000000E+00  0.00000000000E+00  0.17843875457E+04  0.17843875457E+04  0.25500000920E-02 0.  1.
       -2   -1    0    0    0  501  0.00000000000E+00  0.00000000000E+00 -0.87556189580E+03  0.87556189580E+03  0.25500000920E-02 0. -1.
    10030    2    1    2    0    0  0.00000000000E+00  0.00000000000E+00  0.90882564993E+03  0.26599494415E+04  0.24998733907E+04 0.  0.
        2    1    3    3  502    0  0.88435714288E+03 -0.70543858084E+03 -0.11123951460E+03  0.11367081319E+04  0.25500000920E-02 0. -1.
       -2    1    3    3    0  502 -0.88435714288E+03  0.70543858084E+03  0.10200651645E+04  0.15232413096E+04  0.25500000920E-02 0.  1.
</event>
<event>
 5   0  0.3214375E-07  0.2502034E+04  0.7818609E-02  0.8402261E-01
        3   -1    0    0  501    0  0.00000000000E+00  0.00000000000E+00  0.24447978486E+04  0.24447978507E+04  0.10100000352E+00 0. -1.
       -3   -1    0    0    0  501  0.00000000000E+00  0.00000000000E+00 -0.64015239333E+03  0.64015240130E+03  0.10100000352E+00 0.  1.
    10030    2    1    2    0    0  0.00000000000E+00  0.00000000000E+00  0.18046454552E+04  0.30849502520E+04  0.25020337404E+04 0.  0.
        3    1    3    3  502    0  0.68387250025E+03  0.33839036755E+03 -0.32003806380E+03  0.82741404987E+03  0.10100000352E+00 0.  1.
       -3    1    3    3    0  502 -0.68387250025E+03 -0.33839036755E+03  0.21246835190E+04  0.22575362021E+04  0.10100000352E+00 0. -1.
</event>
<event>
 5   0  0.9768582E-07  0.2499956E+04  0.7818609E-02  0.8403001E-01
        2   -1    0    0  501    0  0.00000000000E+00  0.00000000000E+00  0.19237434429E+04  0.19237434429E+04  0.25500000920E-02 0. -1.
       -2   -1    0    0    0  501  0.00000000000E+00  0.00000000000E+00 -0.81219000497E+03  0.81219000498E+03  0.25500000920E-02 0.  1.
    10030    2    1    2    0    0  0.00000000000E+00  0.00000000000E+00  0.11115534379E+04  0.27359334478E+04  0.24999561568E+04 0.  0.
        3    1    3    3  502    0  0.35161750762E+02  0.22153735616E+03  0.19015370015E+04  0.19147214229E+04  0.10100000352E+00 0. -1.
       -3    1    3    3    0  502 -0.35161750762E+02 -0.22153735616E+03 -0.78998356364E+03  0.82121202495E+03  0.10100000352E+00 0.  1.
</event>
<event>
 5   0  0.3873231E-07  0.2499123E+04  0.7818609E-02  0.8403298E-01
        1   -1    0    0  501    0  0.00000000000E+00  0.00000000000E+00  0.15819329671E+04  0.15819329671E+04  0.50400001928E-02 0. -1.
       -1   -1    0    0    0  501  0.00000000000E+00  0.00000000000E+00 -0.98702319586E+03  0.98702319587E+03  0.50400001928E-02 0.  1.
    10030    2    1    2    0    0  0.00000000000E+00  0.00000000000E+00  0.59490977124E+03  0.25689561630E+04  0.24991234726E+04 0.  0.
        2    1    3    3  502    0 -0.70935045587E+03  0.79276137196E+02 -0.75684662178E+03  0.10403266718E+04  0.25500000920E-02 0.  1.
       -2    1    3    3    0  502  0.70935045587E+03 -0.79276137196E+02  0.13517563930E+04  0.15286294912E+04  0.25500000920E-02 0. -1.
</event>
<event>
 5   0  0.3991066E-07  0.2499755E+04  0.7818609E-02  0.8403073E-01
       -1   -1    0    0    0  501  0.00000000000E+00  0.00000000000E+00  0.74575641922E+03  0.74575641924E+03  0.50400001928E-02 0. -1.
        1   -1    0    0  501    0  0.00000000000E+00  0.00000000000E+00 -0.20947778734E+04  0.20947778734E+04  0.50400001928E-02 0.  1.
    10030    2    1    2    0    0  0.00000000000E+00  0.00000000000E+00 -0.13490214541E+04  0.28405342926E+04  0.24997552248E+04 0.  0.
        1    1    3    3  502    0 -0.22952146845E+03 -0.12248384378E+04 -0.56501744087E+03  0.13682667911E+04  0.50400001928E-02 0. -1.
       -1    1    3    3    0  502  0.22952146845E+03  0.12248384378E+04 -0.78400401326E+03  0.14722675015E+04  0.50400001928E-02 0.  1.
</event>
<event>
 5   0  0.9508784E-07  0.2498562E+04  0.7818609E-02  0.8403498E-01
        2   -1    0    0  501    0  0.00000000000E+00  0.00000000000E+00  0.17156527400E+04  0.17156527400E+04  0.25500000920E-02 0. -1.
       -2   -1    0    0    0  501  0.00000000000E+00  0.00000000000E+00 -0.90968471487E+03  0.90968471487E+03  0.25500000920E-02 0.  1.
    10030    2    1    2    0    0  0.00000000000E+00  0.00000000000E+00  0.80596802517E+03  0.26253374549E+04  0.24985620454E+04 0.  0.
        2    1    3    3  502    0 -0.10040555750E+04  0.27937765006E+03  0.11267928918E+04  0.15348751382E+04  0.25500000920E-02 0. -1.
       -2    1    3    3    0  502  0.10040555750E+04 -0.27937765006E+03 -0.32082486660E+03  0.10904623167E+04  0.25500000920E-02 0.  1.
</event>
<event>
 5   0  0.9251138E-07  0.2499792E+04  0.7818609E-02  0.8403060E-01
       -2   -1    0    0    0  501  0.00000000000E+00  0.00000000000E+00  0.13825055522E+04  0.13825055522E+04  0.25500000920E-02 0. -1.
        2   -1    0    0  501    0  0.00000000000E+00  0.00000000000E+00 -0.11300063867E+04  0.11300063867E+04  0.25500000920E-02 0.  1.
    10030    2    1    2    0    0  0.00000000000E+00  0.00000000000E+00  0.25249916551E+03  0.25125119389E+04  0.24997920742E+04 0.  0.
        5    1    3    3  502    0 -0.19707193140E+03  0.11321803617E+04  0.62022602320E+03  0.13058989729E+04  0.46999998093E+01 0. -1.
       -5    1    3    3    0  502  0.19707193140E+03 -0.11321803617E+04 -0.36772685768E+03  0.12066129659E+04  0.46999998093E+01 0.  1.
</event>
<event>
 5   0  0.3214375E-07  0.2500051E+04  0.7818609E-02  0.8402967E-01
       -4   -1    0    0    0  501  0.00000000000E+00  0.00000000000E+00  0.10453452757E+04  0.10453460472E+04  0.12699999809E+01 0. -1.
        4   -1    0    0  501    0  0.00000000000E+00  0.00000000000E+00 -0.14947804035E+04  0.14947809430E+04  0.12699999809E+01 0.  1.
    10030    2    1    2    0    0  0.00000000000E+00  0.00000000000E+00 -0.44943512774E+03  0.25401269902E+04  0.25000506379E+04 0.  0.
        5    1    3    3  502    0  0.87726128580E+03  0.24053285097E+03 -0.10958399672E+04  0.14241947689E+04  0.46999998093E+01 0.  1.
       -5    1    3    3    0  502 -0.87726128580E+03 -0.24053285097E+03  0.64640483949E+03  0.11159322213E+04  0.46999998093E+01 0. -1.
</event>
<event>
 5   0  0.3837524E-07  0.2500275E+04  0.7818609E-02  0.8402888E-01
       -1   -1    0    0    0  501  0.00000000000E+00  0.00000000000E+00  0.14907166220E+04  0.14907166220E+04  0.50400001928E-02 0. -1.
        1   -1    0    0  501    0  0.00000000000E+00  0.00000000000E+00 -0.10483843721E+04  0.10483843721E+04  0.50400001928E-02 0.  1.
    10030    2    1    2    0    0  0.00000000000E+00  0.00000000000E+00  0.44233224995E+03  0.25391009941E+04  0.25002751926E+04 0.  0.
        5    1    3    3  502    0 -0.15458269198E+03 -0.10865006324E+04  0.82916378031E+03  0.13754686828E+04  0.46999998093E+01 0. -1.
       -5    1    3    3    0  502  0.15458269198E+03  0.10865006324E+04 -0.38683153036E+03  0.11636323113E+04  0.46999998093E+01 0.  1.
</event>
<event>
 5   0  0.9261602E-07  0.2499538E+04  0.7818609E-02  0.8403150E-01
       -2   -1    0    0    0  501  0.00000000000E+00  0.00000000000E+00  0.97718786965E+03  0.97718786965E+03  0.25500000920E-02 0. -1.
        2   -1    0    0  501    0  0.00000000000E+00  0.00000000000E+00 -0.15983849824E+04  0.15983849824E+04  0.25500000920E-02 0.  1.
    10030    2    1    2    0    0  0.00000000000E+00  0.00000000000E+00 -0.62119711276E+03  0.25755728521E+04  0.24995378900E+04 0.  0.
        4    1    3    3  502    0 -0.45100982562E+02  0.93447404409E+03  0.54324879232E+03  0.10818487422E+04  0.12699999809E+01 0. -1.
       -4    1    3    3    0  502  0.45100982562E+02 -0.93447404409E+03 -0.11644459051E+04  0.14937241099E+04  0.12699999809E+01 0.  1.
</event>
<event>
 5   0  0.3972587E-07  0.2501890E+04  0.7818609E-02  0.8402313E-01
        1   -1    0    0  501    0  0.00000000000E+00  0.00000000000E+00  0.11745796997E+04  0.11745796997E+04  0.50400001928E-02 0. -1.
       -1   -1    0    0    0  501  0.00000000000E+00  0.00000000000E+00 -0.13322748304E+04  0.13322748304E+04  0.50400001928E-02 0.  1.
    10030    2    1    2    0    0  0.00000000000E+00  0.00000000000E+00 -0.15769513071E+03  0.25068545302E+04  0.25018896621E+04 0.  0.
        3    1    3    3  502    0  0.10972911987E+04  0.57951724093E+03 -0.23719519988E+03  0.12633882144E+04  0.10100000352E+00 0. -1.
       -3    1    3    3    0  502 -0.10972911987E+04 -0.57951724093E+03  0.79500069173E+02  0.12434663158E+04  0.10100000352E+00 0.  1.
</event>
<event>
 5   0  0.3873231E-07  0.2501464E+04  0.7818609E-02  0.8402464E-01
        1   -1    0    0  501    0  0.00000000000E+00  0.00000000000E+00  0.13334657868E+04  0.13334657868E+04  0.50400001928E-02 0. -1.
       -1   -1    0    0    0  501  0.00000000000E+00  0.00000000000E+00 -0.11731312625E+04  0.11731312625E+04  0.50400001928E-02 0.  1.
    10030    2    1    2    0    0  0.00000000000E+00  0.00000000000E+00  0.16033452430E+03  0.25065970494E+04  0.25014638931E+04 0.  0.
        2    1    3    3  502    0  0.34635803476E+03  0.29527551822E+03 -0.10872035550E+04  0.11786276299E+04  0.25500000920E-02 0.  1.
       -2    1    3    3    0  502 -0.34635803476E+03 -0.29527551822E+03  0.12475380793E+04  0.13279694195E+04  0.25500000920E-02 0. -1.
</event>
<event>
 5   0  0.9508784E-07  0.2500085E+04  0.7818609E-02  0.8402955E-01
       -2   -1    0    0    0  501  0.00000000000E+00  0.00000000000E+00  0.10212399972E+04  0.10212399972E+04  0.25500000920E-02 0.  1.
        2   -1    0    0  501    0  0.00000000000E+00  0.00000000000E+00 -0.15301071743E+04  0.15301071743E+04  0.25500000920E-02 0. -1.
    10030    2    1    2    0    0  0.00000000000E+00  0.00000000000E+00 -0.50886717706E+03  0.25513471715E+04  0.25000853157E+04 0.  0.
        2    1    3    3  502    0  0.99910628310E+03 -0.40997606128E+03 -0.89687546177E+03  0.14038088651E+04  0.25500000920E-02 0. -1.
       -2    1    3    3    0  502 -0.99910628310E+03  0.40997606128E+03  0.38800828472E+03  0.11475383065E+04  0.25500000920E-02 0.  1.
</event>
<event>
 5   0  0.9768582E-07  0.2501730E+04  0.7818609E-02  0.8402369E-01
       -2   -1    0    0    0  501  0.00000000000E+00  0.00000000000E+00  0.76857991887E+03  0.76857991887E+03  0.25500000920E-02 0. -1.
        2   -1    0    0  501    0  0.00000000000E+00  0.00000000000E+00 -0.20357848931E+04  0.20357848931E+04  0.25500000920E-02 0.  1.
    10030    2    1    2    0    0  0.00000000000E+00  0.00000000000E+00 -0.12672049742E+04  0.28043648120E+04  0.25017301117E+04 0.  0.
        3    1    3    3  502    0  0.66435197373E+02  0.34085323154E+02  0.76607945082E+03  0.76970980238E+03  0.10100000352E+00 0. -1.
       -3    1    3    3    0  502 -0.66435197373E+02 -0.34085323154E+02 -0.20332844250E+04  0.20346550096E+04  0.10100000352E+00 0.  1.
</event>
<event>
 5   0  0.3805418E-07  0.2500010E+04  0.7818609E-02  0.8402982E-01
        1   -1    0    0  501    0  0.00000000000E+00  0.00000000000E+00  0.22634306150E+04  0.22634306150E+04  0.50400001928E-02 0.  1.
       -1   -1    0    0    0  501  0.00000000000E+00  0.00000000000E+00 -0.69032940988E+03  0.69032940990E+03  0.50400001928E-02 0. -1.
    10030    2    1    2    0    0  0.00000000000E+00  0.00000000000E+00  0.15731012052E+04  0.29537600249E+04  0.25000101766E+04 0.  0.
        4    1    3    3  502    0  0.31424048058E+03  0.72837686287E+03 -0.35482359619E+03  0.86901169803E+03  0.12699999809E+01 0. -1.
       -4    1    3    3    0  502 -0.31424048058E+03 -0.72837686287E+03  0.19279248013E+04  0.20847483269E+04  0.12699999809E+01 0.  1.
</event>
<event>
 5   0  0.9251138E-07  0.2501002E+04  0.7818609E-02  0.8402629E-01
        2   -1    0    0  501    0  0.00000000000E+00  0.00000000000E+00  0.71972805593E+03  0.71972805593E+03  0.25500000920E-02 0. -1.
       -2   -1    0    0    0  501  0.00000000000E+00  0.00000000000E+00 -0.21726989724E+04  0.21726989724E+04  0.25500000920E-02 0.  1.
    10030    2    1    2    0    0  0.00000000000E+00  0.00000000000E+00 -0.14529709165E+04  0.28924270283E+04  0.25010017253E+04 0.  0.
        5    1    3    3  502    0 -0.76111194315E+03  0.80717851875E+02 -0.18701558385E+04  0.20207205922E+04  0.46999998093E+01 0.  1.
       -5    1    3    3    0  502  0.76111194315E+03 -0.80717851875E+02  0.41718492201E+03  0.87170643612E+03  0.46999998093E+01 0. -1.
</event>
<event>
 5   0  0.3972587E-07  0.2499568E+04  0.7818609E-02  0.8403139E-01
        1   -1    0    0  501    0  0.00000000000E+00  0.00000000000E+00  0.18700793875E+04  0.18700793875E+04  0.50400001928E-02 0. -1.
       -1   -1    0    0    0  501  0.00000000000E+00  0.00000000000E+00 -0.83523743283E+03  0.83523743285E+03  0.50400001928E-02 0.  1.
    10030    2    1    2    0    0  0.00000000000E+00  0.00000000000E+00  0.10348419546E+04  0.27053168203E+04  0.24995682082E+04 0.  0.
        3    1    3    3  502    0 -0.39802207784E+03 -0.18700022044E+03 -0.74873319716E+03  0.86832716624E+03  0.10100000352E+00 0.  1.
       -3    1    3    3    0  502  0.39802207784E+03  0.18700022044E+03  0.17835751518E+04  0.18369896541E+04  0.10100000352E+00 0. -1.
</event>
<event>
 5   0  0.9508784E-07  0.2500710E+04  0.7818609E-02  0.8402733E-01
        2   -1    0    0  501    0  0.00000000000E+00  0.00000000000E+00  0.12016968476E+04  0.12016968476E+04  0.25500000920E-02 0. -1.
       -2   -1    0    0    0  501  0.00000000000E+00  0.00000000000E+00 -0.13009828887E+04  0.13009828887E+04  0.25500000920E-02 0.  1.
    10030    2    1    2    0    0  0.00000000000E+00  0.00000000000E+00 -0.99286041132E+02  0.25026797364E+04  0.25007095283E+04 0.  0.
        2    1    3    3  502    0  0.26064684862E+03 -0.84416038115E+03 -0.93512454771E+03  0.12864685960E+04  0.25500000920E-02 0.  1.
       -2    1    3    3    0  502 -0.26064684862E+03  0.84416038115E+03  0.83583850658E+03  0.12162111403E+04  0.25500000920E-02 0. -1.
</event>
<event>
 5   0  0.9768582E-07  0.2499555E+04  0.7818609E-02  0.8403144E-01
        2   -1    0    0  501    0  0.00000000000E+00  0.00000000000E+00  0.16924623949E+04  0.16924623949E+04  0.25500000920E-02 0. -1.
       -2   -1    0    0    0  501  0.00000000000E+00  0.00000000000E+00 -0.92288243797E+03  0.92288243798E+03  0.25500000920E-02 0.  1.
    10030    2    1    2    0    0  0.00000000000E+00  0.00000000000E+00  0.76957995690E+03  0.26153448328E+04  0.24995550173E+04 0.  0.
        3    1    3    3  502    0 -0.11836953911E+04 -0.33011590874E+03  0.14657590511E+03  0.12375765828E+04  0.10100000352E+00 0.  1.
       -3    1    3    3    0  502  0.11836953911E+04  0.33011590874E+03  0.62300405179E+03  0.13777682501E+04  0.10100000352E+00 0. -1.
</event>
<event>
 5   0  0.8997210E-07  0.2498887E+04  0.7818609E-02  0.8403382E-01
       -2   -1    0    0    0  501  0.00000000000E+00  0.00000000000E+00  0.15388680923E+04  0.15388680923E+04  0.25500000920E-02 0.  1.
        2   -1    0    0  501    0  0.00000000000E+00  0.00000000000E+00 -0.10144525937E+04  0.10144525937E+04  0.25500000920E-02 0. -1.
    10030    2    1    2    0    0  0.00000000000E+00  0.00000000000E+00  0.52441549863E+03  0.25533206860E+04  0.24988867342E+04 0.  0.
        1    1    3    3  502    0 -0.74293345064E+03 -0.68757259324E+03 -0.48614129240E+03  0.11229601682E+04  0.50400001928E-02 0. -1.
       -1    1    3    3    0  502  0.74293345064E+03  0.68757259324E+03  0.10105567910E+04  0.14303605178E+04  0.50400001928E-02 0.  1.
</event>
<event>
 5   0  0.3991066E-07  0.2501615E+04  0.7818609E-02  0.8402410E-01
        1   -1    0    0  501    0  0.00000000000E+00  0.00000000000E+00  0.16211191007E+04  0.16211191007E+04  0.50400001928E-02 0. -1.
       -1   -1    0    0    0  501  0.00000000000E+00  0.00000000000E+00 -0.96508611938E+03  0.96508611940E+03  0.50400001928E-02 0.  1.
    10030    2    1    2    0    0  0.00000000000E+00  0.00000000000E+00  0.65603298127E+03  0.25862052201E+04  0.25016151118E+04 0.  0.
        1    1    3    3  502    0 -0.24224796190E+03  0.12270566968E+04  0.31464348108E+03  0.12897103288E+04  0.50400001928E-02 0. -1.
       -1    1    3    3    0  502  0.24224796190E+03 -0.12270566968E+04  0.34138950019E+03  0.12964948912E+04  0.50400001928E-02 0.  1.
</event>
<event>
 5   0  0.9768582E-07  0.2498950E+04  0.7818609E-02  0.8403360E-01
       -2   -1    0    0    0  501  0.00000000000E+00  0.00000000000E+00  0.92729201064E+03  0.92729201065E+03  0.25500000920E-02 0.  1.
        2   -1    0    0  501    0  0.00000000000E+00  0.00000000000E+00 -0.16835994531E+04  0.16835994531E+04  0.25500000920E-02 0. -1.
    10030    2    1    2    0    0  0.00000000000E+00  0.00000000000E+00 -0.75630744246E+03  0.26108914638E+04  0.24989504373E+04 0.  0.
        3    1    3    3  502    0  0.68866102436E+03  0.10098485008E+04 -0.64887528440E+03  0.13838667371E+04  0.10100000352E+00 0. -1.
       -3    1    3    3    0  502 -0.68866102436E+03 -0.10098485008E+04 -0.10743215806E+03  0.12270247267E+04  0.10100000352E+00 0.  1.
</event>
<event>
 5   0  0.3805418E-07  0.2500032E+04  0.7818609E-02  0.8402974E-01
        1   -1    0    0  501    0  0.00000000000E+00  0.00000000000E+00  0.18154192239E+04  0.18154192239E+04  0.50400001928E-02 0.  1.
       -1   -1    0    0    0  501  0.00000000000E+00  0.00000000000E+00 -0.86070452549E+03  0.86070452550E+03  0.50400001928E-02 0. -1.
    10030    2    1    2    0    0  0.00000000000E+00  0.00000000000E+00  0.95471469845E+03  0.26761237495E+04  0.25000316332E+04 0.  0.
        4    1    3    3  502    0 -0.11078303356E+04  0.14885848914E+03  0.10763148371E+04  0.15517416485E+04  0.12699999809E+01 0.  1.
       -4    1    3    3    0  502  0.11078303356E+04 -0.14885848914E+03 -0.12160013860E+03  0.11243821010E+04  0.12699999809E+01 0. -1.
</event>
<event>
 5   0  0.9251138E-07  0.2500100E+04  0.7818609E-02  0.8402950E-01
       -2   -1    0    0    0  501  0.00000000000E+00  0.00000000000E+00  0.95767488395E+03  0.95767488396E+03  0.25500000920E-02 0. -1.
        2   -1    0    0  501    0  0.00000000000E+00  0.00000000000E+00 -0.16316867549E+04  0.16316867549E+04  0.25500000920E-02 0.  1.
    10030    2    1    2    0    0  0.00000000000E+00  0.00000000000E+00 -0.67401187092E+03  0.25893616388E+04  0.25001003369E+04 0.  0.
        5    1    3    3  502    0 -0.21473262667E+03  0.91228730265E+03 -0.11937177875E+04  0.15176832574E+04  0.46999998093E+01 0.  1.
       -5    1    3    3    0  502  0.21473262667E+03 -0.91228730265E+03  0.51970591659E+03  0.10716783814E+04  0.46999998093E+01 0. -1.
</event>
<event>
 5   0  0.3805418E-07  0.2500671E+04  0.7818609E-02  0.8402747E-01
       -1   -1    0    0    0  501  0.00000000000E+00  0.00000000000E+00  0.25869529050E+04  0.25869529050E+04  0.50400001928E-02 0. -1.
        1   -1    0    0  501    0  0.00000000000E+00  0.00000000000E+00 -0.60431651213E+03  0.60431651215E+03  0.50400001928E-02 0.  1.
    10030    2    1    2    0    0  0.00000000000E+00  0.00000000000E+00  0.19826363929E+04  0.31912694172E+04  0.25006705954E+04 0.  0.
        4    1    3    3  502    0  0.11910966318E+03  0.12435876978E+04  0.10568796968E+04  0.16363660288E+04  0.12699999809E+01 0. -1.
       -4    1    3    3    0  502 -0.11910966318E+03 -0.12435876978E+04  0.92575669607E+03  0.15549033883E+04  0.12699999809E+01 0.  1.
</event>
<event>
 5   0  0.3972587E-07  0.2500138E+04  0.7818609E-02  0.8402936E-01
       -1   -1    0    0    0  501  0.00000000000E+00  0.00000000000E+00  0.10540119851E+04  0.10540119851E+04  0.50400001928E-02 0. -1.
        1   -1    0    0  501    0  0.00000000000E+00  0.00000000000E+00 -0.14825945506E+04  0.14825945506E+04  0.50400001928E-02 0.  1.
    10030    2    1    2    0    0  0.00000000000E+00  0.00000000000E+00 -0.42858256546E+03  0.25366065358E+04  0.25001379366E+04 0.  0.
        3    1    3    3  502    0 -0.45876884563E+03 -0.77511453161E+03 -0.10937693806E+04  0.14168990292E+04  0.10100000352E+00 0.  1.
       -3    1    3    3    0  502  0.45876884563E+03  0.77511453161E+03  0.66518681519E+03  0.11197075065E+04  0.10100000352E+00 0. -1.
</event>
<event>
 5   0  0.8997210E-07  0.2501146E+04  0.7818609E-02  0.8402577E-01
        2   -1    0    0  501    0  0.00000000000E+00  0.00000000000E+00  0.17379407001E+04  0.17379407001E+04  0.25500000920E-02 0.  1.
       -2   -1    0    0    0  501  0.00000000000E+00  0.00000000000E+00 -0.89987681562E+03  0.89987681562E+03  0.25500000920E-02 0. -1.
    10030    2    1    2    0    0  0.00000000000E+00  0.00000000000E+00  0.83806388451E+03  0.26378175158E+04  0.25011457718E+04 0.  0.
        1    1    3    3  502    0  0.61093046596E+03 -0.21607390654E+03  0.15470612509E+04  0.16772961818E+04  0.50400001928E-02 0.  1.
       -1    1    3    3    0  502 -0.61093046596E+03  0.21607390654E+03 -0.70899736643E+03  0.96052133394E+03  0.50400001928E-02 0. -1.
</event>
<event>
 5   0  0.9261602E-07  0.2496662E+04  0.7818609E-02  0.8404176E-01
        2   -1    0    0  501    0  0.00000000000E+00  0.00000000000E+00  0.14802642391E+04  0.14802642391E+04  0.25500000920E-02 0. -1.
       -2   -1    0    0    0  501  0.00000000000E+00  0.00000000000E+00 -0.10527375304E+04  0.10527375304E+04  0.25500000920E-02 0.  1.
    10030    2    1    2    0    0  0.00000000000E+00  0.00000000000E+00  0.42752670862E+03  0.25330017695E+04  0.24966615465E+04 0.  0.
        4    1    3    3  502    0  0.78886332034E+02  0.41886918906E+03  0.14041503314E+04  0.14674175333E+04  0.12699999809E+01 0. -1.
       -4    1    3    3    0  502 -0.78886332034E+02 -0.41886918906E+03 -0.97662362281E+03  0.10655842362E+04  0.12699999809E+01 0.  1.
</event>
<event>
 5   0  0.9768582E-07  0.2499788E+04  0.7818609E-02  0.8403061E-01
       -2   -1    0    0    0  501  0.00000000000E+00  0.00000000000E+00  0.98340936875E+03  0.98340936875E+03  0.25500000920E-02 0. -1.
        2   -1    0    0  501    0  0.00000000000E+00  0.00000000000E+00 -0.15885910998E+04  0.15885910998E+04  0.25500000920E-02 0.  1.
    10030    2    1    2    0    0  0.00000000000E+00  0.00000000000E+00 -0.60518173107E+03  0.25720004686E+04  0.24997882876E+04 0.  0.
        3    1    3    3  502    0  0.76387835735E+03  0.79632110130E+03  0.30139133472E+03  0.11438855660E+04  0.10100000352E+00 0. -1.
       -3    1    3    3    0  502 -0.76387835735E+03 -0.79632110130E+03 -0.90657306579E+03  0.14281149026E+04  0.10100000352E+00 0.  1.
</event>
<event>
 5   0  0.3805418E-07  0.2500078E+04  0.7818609E-02  0.8402958E-01
        1   -1    0    0  501    0  0.00000000000E+00  0.00000000000E+00  0.14980266355E+04  0.14980266355E+04  0.50400001928E-02 0. -1.
       -1   -1    0    0    0  501  0.00000000000E+00  0.00000000000E+00 -0.10431035535E+04  0.10431035535E+04  0.50400001928E-02 0.  1.
    10030    2    1    2    0    0  0.00000000000E+00  0.00000000000E+00  0.45492308203E+03  0.25411301890E+04  0.25000775241E+04 0.  0.
        4    1    3    3  502    0  0.57010357163E+03  0.48348734924E+03 -0.79089710545E+03  0.10882545399E+04  0.12699999809E+01 0.  1.
       -4    1    3    3    0  502 -0.57010357163E+03 -0.48348734924E+03  0.12458201875E+04  0.14528756491E+04  0.12699999809E+01 0. -1.
</event>
<event>
 5   0  0.3873231E-07  0.2499519E+04  0.7818609E-02  0.8403157E-01
        1   -1    0    0  501    0  0.00000000000E+00  0.00000000000E+00  0.91353027644E+03  0.91353027645E+03  0.50400001928E-02 0.  1.
       -1   -1    0    0    0  501  0.00000000000E+00  0.00000000000E+00 -0.17097394341E+04  0.17097394342E+04  0.50400001928E-02 0. -1.
    10030    2    1    2    0    0  0.00000000000E+00  0.00000000000E+00 -0.79620915771E+03  0.26232697106E+04  0.24995189441E+04 0.  0.
        2    1    3    3  502    0  0.22790642885E+03 -0.10364689279E+04 -0.10908522723E+04  0.15218961392E+04  0.25500000920E-02 0.  1.
       -2    1    3    3    0  502 -0.22790642885E+03  0.10364689279E+04  0.29464311454E+03  0.11013735714E+04  0.25500000920E-02 0. -1.
</event>
<event>
 5   0  0.9251138E-07  0.2500183E+04  0.7818609E-02  0.8402920E-01
       -2   -1    0    0    0  501  0.00000000000E+00  0.00000000000E+00  0.92136409770E+03  0.92136409770E+03  0.25500000920E-02 0.  1.
        2   -1    0    0  501    0  0.00000000000E+00  0.00000000000E+00 -0.16961031316E+04  0.16961031317E+04  0.25500000920E-02 0. -1.
    10030    2    1    2    0    0  0.00000000000E+00  0.00000000000E+00 -0.77473903395E+03  0.26174672294E+04  0.25001828185E+04 0.  0.
        5    1    3    3  502    0 -0.13706377712E+03 -0.46840677808E+03 -0.15922332604E+04  0.16653588905E+04  0.46999998093E+01 0. -1.
       -5    1    3    3    0  502  0.13706377712E+03  0.46840677808E+03  0.81749422640E+03  0.95210833887E+03  0.46999998093E+01 0.  1.
</event>
<event>
 5   0  0.3991066E-07  0.2496988E+04  0.7818609E-02  0.8404060E-01
       -1   -1    0    0    0  501  0.00000000000E+00  0.00000000000E+00  0.68769244274E+03  0.68769244276E+03  0.50400001928E-02 0. -1.
        1   -1    0    0  501    0  0.00000000000E+00  0.00000000000E+00 -0.22666189258E+04  0.22666189258E+04  0.50400001928E-02 0.  1.
    10030    2    1    2    0    0  0.00000000000E+00  0.00000000000E+00 -0.15789264830E+04  0.29543113685E+04  0.24969875497E+04 0.  0.
        1    1    3    3  502    0  0.52599544735E+03  0.23757711871E+03 -0.20993033068E+04  0.21771973893E+04  0.50400001928E-02 0.  1.
       -1    1    3    3    0  502 -0.52599544735E+03 -0.23757711871E+03  0.52037682378E+03  0.77711397923E+03  0.50400001928E-02 0. -1.
</event>
<event>
 5   0  0.9768582E-07  0.2499294E+04  0.7818609E-02  0.8403237E-01
       -2   -1    0    0    0  501  0.00000000000E+00  0.00000000000E+00  0.52386740429E+03  0.52386740430E+03  0.25500000920E-02 0. -1.
        2   -1    0    0  501    0  0.00000000000E+00  0.00000000000E+00 -0.29809411520E+04  0.29809411520E+04  0.25500000920E-02 0.  1.
    10030    2    1    2    0    0  0.00000000000E+00  0.00000000000E+00 -0.24570737477E+04  0.35048085563E+04  0.24992942233E+04 0.  0.
        3    1    3    3  502    0 -0.46257194838E+03 -0.37067174813E+02  0.39855912921E+03  0.61171576124E+03  0.10100000352E+00 0. -1.
       -3    1    3    3    0  502  0.46257194838E+03  0.37067174813E+02 -0.28556328769E+04  0.28930927950E+04  0.10100000352E+00 0.  1.
</event>
<event>
 5   0  0.3873231E-07  0.2513632E+04  0.7818609E-02  0.8398145E-01
       -1   -1    0    0    0  501  0.00000000000E+00  0.00000000000E+00  0.62651551682E+03  0.62651551684E+03  0.50400001928E-02 0.  1.
        1   -1    0    0  501    0  0.00000000000E+00  0.00000000000E+00 -0.25212253404E+04  0.25212253404E+04  0.50400001928E-02 0. -1.
    10030    2    1    2    0    0  0.00000000000E+00  0.00000000000E+00 -0.18947098235E+04  0.31477408572E+04  0.25136322700E+04 0.  0.
        2    1    3    3  502    0 -0.16526693433E+03 -0.35595298731E+03 -0.24425286850E+04  0.24738557084E+04  0.25500000920E-02 0. -1.
       -2    1    3    3    0  502  0.16526693433E+03  0.35595298731E+03  0.54781886150E+03  0.67388514880E+03  0.25500000920E-02 0.  1.
</event>
<event>
 5   0  0.3805418E-07  0.2499702E+04  0.7818609E-02  0.8403092E-01
        1   -1    0    0  501    0  0.00000000000E+00  0.00000000000E+00  0.10983619138E+04  0.10983619138E+04  0.50400001928E-02 0.  1.
       -1   -1    0    0    0  501  0.00000000000E+00  0.00000000000E+00 -0.14222342851E+04  0.14222342851E+04  0.50400001928E-02 0. -1.
    10030    2    1    2    0    0  0.00000000000E+00  0.00000000000E+00 -0.32387237127E+03  0.25205961990E+04  0.24997023593E+04 0.  0.
        4    1    3    3  502    0 -0.90851784361E+03 -0.52321838194E+03  0.52416581661E+03  0.11721405904E+04  0.12699999809E+01 0.  1.
       -4    1    3    3    0  502  0.90851784361E+03  0.52321838194E+03 -0.84803818788E+03  0.13484556086E+04  0.12699999809E+01 0. -1.
</event>
<event>
 5   0  0.3214375E-07  0.2499756E+04  0.7818609E-02  0.8403072E-01
        3   -1    0    0  501    0  0.00000000000E+00  0.00000000000E+00  0.13687984830E+04  0.13687984867E+04  0.10100000352E+00 0.  1.
       -3   -1    0    0    0  501  0.00000000000E+00  0.00000000000E+00 -0.11412892119E+04  0.11412892163E+04  0.10100000352E+00 0. -1.
    10030    2    1    2    0    0  0.00000000000E+00  0.00000000000E+00  0.22750927112E+03  0.25100877030E+04  0.24997559498E+04 0.  0.
        2    1    3    3  502    0  0.38336397576E+02  0.88352075850E+03  0.10006471169E+04  0.13354299917E+04  0.25500000920E-02 0.  1.
       -2    1    3    3    0  502 -0.38336397576E+02 -0.88352075850E+03 -0.77313784583E+03  0.11746577113E+04  0.25500000920E-02 0. -1.
</event>
<event>
 5   0  0.9261602E-07  0.2500972E+04  0.7818609E-02  0.8402639E-01
        2   -1    0    0  501    0  0.00000000000E+00  0.00000000000E+00  0.15471299932E+04  0.15471299932E+04  0.25500000920E-02 0. -1.
       -2   -1    0    0    0  501  0.00000000000E+00  0.00000000000E+00 -0.10107199956E+04  0.10107199956E+04  0.25500000920E-02 0.  1.
    10030    2    1    2    0    0  0.00000000000E+00  0.00000000000E+00  0.53640999765E+03  0.25578499888E+04  0.25009719870E+04 0.  0.
        4    1    3    3  502    0  0.56750317701E+03  0.11022678168E+04  0.10121459303E+03  0.12439052225E+04  0.12699999809E+01 0.  1.
       -4    1    3    3    0  502 -0.56750317701E+03 -0.11022678168E+04  0.43519540462E+03  0.13139447663E+04  0.12699999809E+01 0. -1.
</event>
<event>
 5   0  0.3837524E-07  0.2499831E+04  0.7818609E-02  0.8403046E-01
       -1   -1    0    0    0  501  0.00000000000E+00  0.00000000000E+00  0.10020866950E+04  0.10020866950E+04  0.50400001928E-02 0. -1.
        1   -1    0    0  501    0  0.00000000000E+00  0.00000000000E+00 -0.15590350481E+04  0.15590350481E+04  0.50400001928E-02 0.  1.
    10030    2    1    2    0    0  0.00000000000E+00  0.00000000000E+00 -0.55694835308E+03  0.25611217431E+04  0.24998306172E+04 0.  0.
        5    1    3    3  502    0  0.12129080736E+04 -0.96689996797E+02 -0.57144200182E+03  0.13442704348E+04  0.46999998093E+01 0. -1.
       -5    1    3    3    0  502 -0.12129080736E+04  0.96689996797E+02  0.14493648738E+02  0.12168513082E+04  0.46999998093E+01 0.  1.
</event>
<event>
 5   0  0.9508784E-07  0.2500119E+04  0.7818609E-02  0.8402943E-01
        2   -1    0    0  501    0  0.00000000000E+00  0.00000000000E+00  0.17481201656E+04  0.17481201656E+04  0.25500000920E-02 0.  1.
       -2   -1    0    0    0  501  0.00000000000E+00  0.00000000000E+00 -0.89390260424E+03  0.89390260424E+03  0.25500000920E-02 0. -1.
    10030    2    1    2    0    0  0.00000000000E+00  0.00000000000E+00  0.85421756131E+03  0.26420227698E+04  0.25001193320E+04 0.  0.
        2    1    3    3  502    0 -0.11422474232E+04  0.33294018157E+03  0.21843791336E+02  0.11899812989E+04  0.25500000920E-02 0. -1.
       -2    1    3    3    0  502  0.11422474232E+04 -0.33294018157E+03  0.83237376998E+03  0.14520414709E+04  0.25500000920E-02 0.  1.
</event>
<event>
 5   0  0.3873231E-07  0.2500028E+04  0.7818609E-02  0.8402975E-01
       -1   -1    0    0    0  501  0.00000000000E+00  0.00000000000E+00  0.74340609371E+03  0.74340609373E+03  0.50400001928E-02 0. -1.
        1   -1    0    0  501    0  0.00000000000E+00  0.00000000000E+00 -0.21018598866E+04  0.21018598866E+04  0.50400001928E-02 0.  1.
    10030    2    1    2    0    0  0.00000000000E+00  0.00000000000E+00 -0.13584537929E+04  0.28452659803E+04  0.25000283581E+04 0.  0.
        2    1    3    3  502    0  0.11215579410E+04 -0.31469473581E+03 -0.16316649681E+03  0.11762432986E+04  0.25500000920E-02 0. -1.
       -2    1    3    3    0  502 -0.11215579410E+04  0.31469473581E+03 -0.11952872961E+04  0.16690226817E+04  0.25500000920E-02 0.  1.
</event>
<event>
 5   0  0.3991066E-07  0.2501182E+04  0.7818609E-02  0.8402565E-01
       -1   -1    0    0    0  501  0.00000000000E+00  0.00000000000E+00  0.13908331339E+04  0.13908331339E+04  0.50400001928E-02 0.  1.
        1   -1    0    0  501    0  0.00000000000E+00  0.00000000000E+00 -0.11244899032E+04  0.11244899032E+04  0.50400001928E-02 0. -1.
    10030    2    1    2    0    0  0.00000000000E+00  0.00000000000E+00  0.26634323070E+03  0.25153230371E+04  0.25011819735E+04 0.  0.
        1    1    3    3  502    0  0.89832870145E+03  0.77192756718E+02 -0.73834479859E+03  0.11653781443E+04  0.50400001928E-02 0. -1.
       -1    1    3    3    0  502 -0.89832870145E+03 -0.77192756718E+02  0.10046880293E+04  0.13499448929E+04  0.50400001928E-02 0.  1.
</event>
<event>
 5   0  0.9508784E-07  0.2500908E+04  0.7818609E-02  0.8402662E-01
        2   -1    0    0  501    0  0.00000000000E+00  0.00000000000E+00  0.11214423610E+04  0.11214423610E+04  0.25500000920E-02 0. -1.
       -2   -1    0    0    0  501  0.00000000000E+00  0.00000000000E+00 -0.13943077921E+04  0.13943077921E+04  0.25500000920E-02 0.  1.
    10030    2    1    2    0    0  0.00000000000E+00  0.00000000000E+00 -0.27286543109E+03  0.25157501532E+04  0.25009084929E+04 0.  0.
        2    1    3    3  502    0 -0.12467210073E+04  0.44748794329E+00 -0.23355803481E+03  0.12684095655E+04  0.25500000920E-02 0.  1.
       -2    1    3    3    0  502  0.12467210073E+04 -0.44748794329E+00 -0.39307396281E+02  0.12473405877E+04  0.25500000920E-02 0. -1.
</event>
<event>
 5   0  0.8997210E-07  0.2498500E+04  0.7818609E-02  0.8403520E-01
       -2   -1    0    0    0  501  0.00000000000E+00  0.00000000000E+00  0.82251899908E+03  0.82251899908E+03  0.25500000920E-02 0. -1.
        2   -1    0    0  501    0  0.00000000000E+00  0.00000000000E+00 -0.18973739034E+04  0.18973739034E+04  0.25500000920E-02 0.  1.
    10030    2    1    2    0    0  0.00000000000E+00  0.00000000000E+00 -0.10748549043E+04  0.27198929025E+04  0.24985004174E+04 0.  0.
        1    1    3    3  502    0 -0.11410173882E+04  0.41979884021E+03 -0.22479662812E+03  0.12364001255E+04  0.50400001928E-02 0.  1.
       -1    1    3    3    0  502  0.11410173882E+04 -0.41979884021E+03 -0.85005827619E+03  0.14834927770E+04  0.50400001928E-02 0. -1.
</event>
<event>
 5   0  0.3873231E-07  0.2500085E+04  0.7818609E-02  0.8402955E-01
       -1   -1    0    0    0  501  0.00000000000E+00  0.00000000000E+00  0.10349150722E+04  0.10349150722E+04  0.50400001928E-02 0. -1.
        1   -1    0    0  501    0  0.00000000000E+00  0.00000000000E+00 -0.15098885632E+04  0.15098885632E+04  0.50400001928E-02 0.  1.
    10030    2    1    2    0    0  0.00000000000E+00  0.00000000000E+00 -0.47497349099E+03  0.25448036355E+04  0.25000851438E+04 0.  0.
        2    1    3    3  502    0 -0.23987330362E+03 -0.84310011538E+03 -0.11446342949E+04  0.14417158789E+04  0.25500000920E-02 0.  1.
       -2    1    3    3    0  502  0.23987330362E+03  0.84310011538E+03  0.66966080396E+03  0.11030877566E+04  0.25500000920E-02 0. -1.
</event>
<event>
 5   0  0.3991066E-07  0.2501065E+04  0.7818609E-02  0.8402606E-01
        1   -1    0    0  501    0  0.00000000000E+00  0.00000000000E+00  0.21105711984E+04  0.21105711984E+04  0.50400001928E-02 0.  1.
       -1   -1    0    0    0  501  0.00000000000E+00  0.00000000000E+00 -0.74095184527E+03  0.74095184529E+03  0.50400001928E-02 0. -1.
    10030    2    1    2    0    0  0.00000000000E+00  0.00000000000E+00  0.13696193531E+04  0.28515230437E+04  0.25010650724E+04 0.  0.
        1    1    3    3  502    0 -0.70709633303E+03  0.23788085037E+03  0.18290638215E+04  0.19753599637E+04  0.50400001928E-02 0.  1.
       -1    1    3    3    0  502  0.70709633303E+03 -0.23788085037E+03 -0.45944446837E+03  0.87616307997E+03  0.50400001928E-02 0. -1.
</event>
<event>
 5   0  0.3805418E-07  0.2503324E+04  0.7818609E-02  0.8401802E-01
        1   -1    0    0  501    0  0.00000000000E+00  0.00000000000E+00  0.26901508552E+04  0.26901508552E+04  0.50400001928E-02 0. -1.
       -1   -1    0    0    0  501  0.00000000000E+00  0.00000000000E+00 -0.58236803385E+03  0.58236803387E+03  0.50400001928E-02 0.  1.
    10030    2    1    2    0    0  0.00000000000E+00  0.00000000000E+00  0.21077828213E+04  0.32725188890E+04  0.25033240815E+04 0.  0.
        4    1    3    3  502    0  0.97524973056E+03  0.73497123087E+03  0.69501917183E+03  0.14051149452E+04  0.12699999809E+01 0.  1.
       -4    1    3    3    0  502 -0.97524973056E+03 -0.73497123087E+03  0.14127636495E+04  0.18674039438E+04  0.12699999809E+01 0. -1.
</event>
<event>
 5   0  0.9261602E-07  0.2503768E+04  0.7818609E-02  0.8401644E-01
       -2   -1    0    0    0  501  0.00000000000E+00  0.00000000000E+00  0.13880145290E+04  0.13880145290E+04  0.25500000920E-02 0.  1.
        2   -1    0    0  501    0  0.00000000000E+00  0.00000000000E+00 -0.11291046466E+04  0.11291046466E+04  0.25500000920E-02 0. -1.
    10030    2    1    2    0    0  0.00000000000E+00  0.00000000000E+00  0.25890988237E+03  0.25171191755E+04  0.25037680836E+04 0.  0.
        4    1    3    3  502    0 -0.80925149980E+03  0.15252908051E+03 -0.81847218989E+03  0.11610561782E+04  0.12699999809E+01 0. -1.
       -4    1    3    3    0  502  0.80925149980E+03 -0.15252908051E+03  0.10773820723E+04  0.13560629974E+04  0.12699999809E+01 0.  1.
</event>
<event>
 5   0  0.3972587E-07  0.2499705E+04  0.7818609E-02  0.8403091E-01
        1   -1    0    0  501    0  0.00000000000E+00  0.00000000000E+00  0.15023417442E+04  0.15023417442E+04  0.50400001928E-02 0.  1.
       -1   -1    0    0    0  501  0.00000000000E+00  0.00000000000E+00 -0.10397976980E+04  0.10397976980E+04  0.50400001928E-02 0. -1.
    10030    2    1    2    0    0  0.00000000000E+00  0.00000000000E+00  0.46254404627E+03  0.25421394422E+04  0.24997051724E+04 0.  0.
        3    1    3    3  502    0  0.71650970291E+03  0.18758354104E+03 -0.79257442226E+03  0.10847801456E+04  0.10100000352E+00 0. -1.
       -3    1    3    3    0  502 -0.71650970291E+03 -0.18758354104E+03  0.12551184685E+04  0.14573592966E+04  0.10100000352E+00 0.  1.
</event>
<event>
 5   0  0.3991066E-07  0.2499965E+04  0.7818609E-02  0.8402998E-01
        1   -1    0    0  501    0  0.00000000000E+00  0.00000000000E+00  0.81297351390E+03  0.81297351391E+03  0.50400001928E-02 0. -1.
       -1   -1    0    0    0  501  0.00000000000E+00  0.00000000000E+00 -0.19219026943E+04  0.19219026943E+04  0.50400001928E-02 0.  1.
    10030    2    1    2    0    0  0.00000000000E+00  0.00000000000E+00 -0.11089291804E+04  0.27348762082E+04  0.24999647892E+04 0.  0.
        1    1    3    3  502    0 -0.11806241221E+03  0.77810393704E+02 -0.19131256555E+04  0.19183438077E+04  0.50400001928E-02 0.  1.
       -1    1    3    3    0  502  0.11806241221E+03 -0.77810393704E+02  0.80419647512E+03  0.81653240056E+03  0.50400001928E-02 0. -1.
</event>
<event>
 5   0  0.3991066E-07  0.2499340E+04  0.7818609E-02  0.8403221E-01
       -1   -1    0    0    0  501  0.00000000000E+00  0.00000000000E+00  0.11683691074E+04  0.11683691074E+04  0.50400001928E-02 0.  1.
        1   -1    0    0  501    0  0.00000000000E+00  0.00000000000E+00 -0.13366279483E+04  0.13366279483E+04  0.50400001928E-02 0. -1.
    10030    2    1    2    0    0  0.00000000000E+00  0.00000000000E+00 -0.16825884084E+03  0.25049970557E+04  0.24993397552E+04 0.  0.
        1    1    3    3  502    0  0.59680294583E+03 -0.69703434446E+03 -0.93436804080E+03  0.13096084412E+04  0.50400001928E-02 0. -1.
       -1    1    3    3    0  502 -0.59680294583E+03  0.69703434446E+03  0.76610919996E+03  0.11953886145E+04  0.50400001928E-02 0.  1.
</event>
<event>
 5   0  0.9261602E-07  0.2500453E+04  0.7818609E-02  0.8402824E-01
       -2   -1    0    0    0  501  0.00000000000E+00  0.00000000000E+00  0.10418232930E+04  0.10418232930E+04  0.25500000920E-02 0. -1.
        2   -1    0    0  501    0  0.00000000000E+00  0.00000000000E+00 -0.15003179168E+04  0.15003179168E+04  0.25500000920E-02 0.  1.
    10030    2    1    2    0    0  0.00000000000E+00  0.00000000000E+00 -0.45849462376E+03  0.25421412098E+04  0.25004528811E+04 0.  0.
        4    1    3    3  502    0 -0.55638635488E+03 -0.99175038821E+03  0.29896256531E+03  0.11758039108E+04  0.12699999809E+01 0. -1.
       -4    1    3    3    0  502  0.55638635488E+03  0.99175038821E+03 -0.75745718907E+03  0.13663372990E+04  0.12699999809E+01 0.  1.
</event>
<event>
 5   0  0.9768582E-07  0.2500196E+04  0.7818609E-02  0.8402916E-01
       -2   -1    0    0    0  501  0.00000000000E+00  0.00000000000E+00  0.75456353145E+03  0.75456353145E+03  0.25500000920E-02 0. -1.
        2   -1    0    0  501    0  0.00000000000E+00  0.00000000000E+00 -0.20710589123E+04  0.20710589123E+04  0.25500000920E-02 0.  1.
    10030    2    1    2    0    0  0.00000000000E+00  0.00000000000E+00 -0.13164953809E+04  0.28256224438E+04  0.25001964137E+04 0.  0.
        3    1    3    3  502    0  0.64558644850E+03  0.10130640964E+04 -0.10491994719E+04  0.15949608985E+04  0.10100000352E+00 0.  1.
       -3    1    3    3    0  502 -0.64558644850E+03 -0.10130640964E+04 -0.26729590901E+03  0.12306615453E+04  0.10100000352E+00 0. -1.
</event>
<event>
 5   0  0.9251138E-07  0.2500088E+04  0.7818609E-02  0.8402954E-01
       -2   -1    0    0    0  501  0.00000000000E+00  0.00000000000E+00  0.10276524232E+04  0.10276524232E+04  0.25500000920E-02 0. -1.
        2   -1    0    0  501    0  0.00000000000E+00  0.00000000000E+00 -0.15205623938E+04  0.15205623938E+04  0.25500000920E-02 0.  1.
    10030    2    1    2    0    0  0.00000000000E+00  0.00000000000E+00 -0.49290997060E+03  0.25482148170E+04  0.25000877013E+04 0.  0.
        5    1    3    3  502    0 -0.99512013858E+03 -0.42154267161E+03  0.39382984690E+03  0.11502549076E+04  0.46999998093E+01 0. -1.
       -5    1    3    3    0  502  0.99512013858E+03  0.42154267161E+03 -0.88673981749E+03  0.13979599093E+04  0.46999998093E+01 0.  1.
</event>
<event>
 5   0  0.9768582E-07  0.2505837E+04  0.7818609E-02  0.8400909E-01
       -2   -1    0    0    0  501  0.00000000000E+00  0.00000000000E+00  0.66346581521E+03  0.66346581521E+03  0.25500000920E-02 0.  1.
        2   -1    0    0  501    0  0.00000000000E+00  0.00000000000E+00 -0.23660681678E+04  0.23660681678E+04  0.25500000920E-02 0. -1.
    10030    2    1    2    0    0  0.00000000000E+00  0.00000000000E+00 -0.17026023526E+04  0.30295339830E+04  0.25058374614E+04 0.  0.
        3    1    3    3  502    0 -0.92818732933E+03  0.83945923982E+03 -0.77894531569E+03  0.14741028962E+04  0.10100000352E+00 0.  1.
       -3    1    3    3    0  502  0.92818732933E+03 -0.83945923982E+03 -0.92365703689E+03  0.15554310868E+04  0.10100000352E+00 0. -1.
</event>
<event>
 5   0  0.3837524E-07  0.2500104E+04  0.7818609E-02  0.8402949E-01
       -1   -1    0    0    0  501  0.00000000000E+00  0.00000000000E+00  0.11824975795E+04  0.11824975795E+04  0.50400001928E-02 0. -1.
        1   -1    0    0  501    0  0.00000000000E+00  0.00000000000E+00 -0.13214653427E+04  0.13214653427E+04  0.50400001928E-02 0.  1.
    10030    2    1    2    0    0  0.00000000000E+00  0.00000000000E+00 -0.13896776320E+03  0.25039629222E+04  0.25001036532E+04 0.  0.
        5    1    3    3  502    0 -0.10633464018E+04 -0.35494683327E+03 -0.62343318424E+03  0.12827251653E+04  0.46999998093E+01 0.  1.
       -5    1    3    3    0  502  0.10633464018E+04  0.35494683327E+03  0.48446542104E+03  0.12212377569E+04  0.46999998093E+01 0. -1.
</event>
<event>
 5   0  0.9251138E-07  0.2499043E+04  0.7818609E-02  0.8403327E-01
       -2   -1    0    0    0  501  0.00000000000E+00  0.00000000000E+00  0.71001065566E+03  0.71001065567E+03  0.25500000920E-02 0. -1.
        2   -1    0    0  501    0  0.00000000000E+00  0.00000000000E+00 -0.21989864289E+04  0.21989864289E+04  0.25500000920E-02 0.  1.
    10030    2    1    2    0    0  0.00000000000E+00  0.00000000000E+00 -0.14889757732E+04  0.29089970846E+04  0.24990428537E+04 0.  0.
        5    1    3    3  502    0  0.90377641373E+03 -0.57052601330E+02  0.25768270241E+03  0.94153559171E+03  0.46999998093E+01 0. -1.
       -5    1    3    3    0  502 -0.90377641373E+03  0.57052601330E+02 -0.17466584757E+04  0.19674614929E+04  0.46999998093E+01 0.  1.
</event>
<event>
 5   0  0.9508784E-07  0.2500924E+04  0.7818609E-02  0.8402657E-01
        2   -1    0    0  501    0  0.00000000000E+00  0.00000000000E+00  0.25110777479E+04  0.25110777479E+04  0.25500000920E-02 0. -1.
       -2   -1    0    0    0  501  0.00000000000E+00  0.00000000000E+00 -0.62270262891E+03  0.62270262891E+03  0.25500000920E-02 0.  1.
    10030    2    1    2    0    0  0.00000000000E+00  0.00000000000E+00  0.18883751189E+04  0.31337803768E+04  0.25009236014E+04 0.  0.
        2    1    3    3  502    0 -0.90451550875E+03 -0.33688784682E+03  0.19403522257E+04  0.21671660035E+04  0.25500000920E-02 0. -1.
       -2    1    3    3    0  502  0.90451550875E+03  0.33688784682E+03 -0.51977106798E+02  0.96661437324E+03  0.25500000920E-02 0.  1.
</event>
<event>
 5   0  0.9251138E-07  0.2499604E+04  0.7818609E-02  0.8403126E-01
       -2   -1    0    0    0  501  0.00000000000E+00  0.00000000000E+00  0.72372640305E+03  0.72372640306E+03  0.25500000920E-02 0. -1.
        2   -1    0    0  501    0  0.00000000000E+00  0.00000000000E+00 -0.21582819346E+04  0.21582819346E+04  0.25500000920E-02 0.  1.
    10030    2    1    2    0    0  0.00000000000E+00  0.00000000000E+00 -0.14345555315E+04  0.28820083376E+04  0.24996044657E+04 0.  0.
        5    1    3    3  502    0  0.12044017948E+04  0.32104047874E+03 -0.82252748836E+03  0.14933935286E+04  0.46999998093E+01 0.  1.
       -5    1    3    3    0  502 -0.12044017948E+04 -0.32104047874E+03 -0.61202804315E+03  0.13886148090E+04  0.46999998093E+01 0. -1.
</event>
<event>
 5   0  0.3991066E-07  0.2500450E+04  0.7818609E-02  0.8402825E-01
       -1   -1    0    0    0  501  0.00000000000E+00  0.00000000000E+00  0.94170153677E+03  0.94170153678E+03  0.50400001928E-02 0. -1.
        1   -1    0    0  501    0  0.00000000000E+00  0.00000000000E+00 -0.16598279488E+04  0.16598279488E+04  0.50400001928E-02 0.  1.
    10030    2    1    2    0    0  0.00000000000E+00  0.00000000000E+00 -0.71812641200E+03  0.26015294856E+04  0.25004499836E+04 0.  0.
        1    1    3    3  502    0 -0.73563803754E+03 -0.73440218272E+03 -0.10818046008E+04  0.15002703365E+04  0.50400001928E-02 0.  1.
       -1    1    3    3    0  502  0.73563803754E+03  0.73440218272E+03  0.36367818883E+03  0.11012591490E+04  0.50400001928E-02 0. -1.
</event>
<event>
 5   0  0.9508784E-07  0.2499686E+04  0.7818609E-02  0.8403097E-01
       -2   -1    0    0    0  501  0.00000000000E+00  0.00000000000E+00  0.33991758726E+04  0.33991758726E+04  0.25500000920E-02 0.  1.
        2   -1    0    0  501    0  0.00000000000E+00  0.00000000000E+00 -0.45955474151E+03  0.45955474152E+03  0.25500000920E-02 0. -1.
    10030    2    1    2    0    0  0.00000000000E+00  0.00000000000E+00  0.29396211311E+04  0.38587306141E+04  0.24996858919E+04 0.  0.
        2    1    3    3  502    0 -0.39379945640E+03  0.69251164645E+03 -0.16829772400E+02  0.79682722944E+03  0.25500000920E-02 0. -1.
       -2    1    3    3    0  502  0.39379945640E+03 -0.69251164645E+03  0.29564509035E+04  0.30619033847E+04  0.25500000920E-02 0.  1.
</event>
<event>
 5   0  0.3837524E-07  0.2500013E+04  0.7818609E-02  0.8402981E-01
       -1   -1    0    0    0  501  0.00000000000E+00  0.00000000000E+00  0.83373966434E+03  0.83373966436E+03  0.50400001928E-02 0. -1.
        1   -1    0    0  501    0  0.00000000000E+00  0.00000000000E+00 -0.18741055540E+04  0.18741055540E+04  0.50400001928E-02 0.  1.
    10030    2    1    2    0    0  0.00000000000E+00  0.00000000000E+00 -0.10403658897E+04  0.27078452184E+04  0.25000129084E+04 0.  0.
        5    1    3    3  502    0 -0.11770125281E+04  0.29675725576E+03 -0.84344072202E+03  0.14781196507E+04  0.46999998093E+01 0.  1.
       -5    1    3    3    0  502  0.11770125281E+04 -0.29675725576E+03 -0.19692516763E+03  0.12297255677E+04  0.46999998093E+01 0. -1.
</event>
<event>
 5   0  0.3972587E-07  0.2500786E+04  0.7818609E-02  0.8402706E-01
       -1   -1    0    0    0  501  0.00000000000E+00  0.00000000000E+00  0.66428471500E+03  0.66428471502E+03  0.50400001928E-02 0. -1.
        1   -1    0    0  501    0  0.00000000000E+00  0.00000000000E+00 -0.23536335110E+04  0.23536335110E+04  0.50400001928E-02 0.  1.
    10030    2    1    2    0    0  0.00000000000E+00  0.00000000000E+00 -0.16893487960E+04  0.30179182260E+04  0.25007860893E+04 0.  0.
        3    1    3    3  502    0  0.76367839978E+03 -0.25483853588E+03 -0.19992464675E+04  0.21552572528E+04  0.10100000352E+00 0.  1.
       -3    1    3    3    0  502 -0.76367839978E+03  0.25483853588E+03  0.30989767154E+03  0.86266097320E+03  0.10100000352E+00 0. -1.
</event>
<event>
 5   0  0.9261602E-07  0.2500007E+04  0.7818609E-02  0.8402983E-01
       -2   -1    0    0    0  501  0.00000000000E+00  0.00000000000E+00  0.90397106340E+03  0.90397106340E+03  0.25500000920E-02 0. -1.
        2   -1    0    0  501    0  0.00000000000E+00  0.00000000000E+00 -0.17284945525E+04  0.17284945525E+04  0.25500000920E-02 0.  1.
    10030    2    1    2    0    0  0.00000000000E+00  0.00000000000E+00 -0.82452348908E+03  0.26324656159E+04  0.25000072469E+04 0.  0.
        4    1    3    3  502    0 -0.33180138261E+02 -0.24595508843E+02  0.90325169253E+03  0.90419637999E+03  0.12699999809E+01 0. -1.
       -4    1    3    3    0  502  0.33180138261E+02  0.24595508843E+02 -0.17277751816E+04  0.17282692359E+04  0.12699999809E+01 0.  1.
</event>
<event>
 5   0  0.3837524E-07  0.2500390E+04  0.7818609E-02  0.8402847E-01
       -1   -1    0    0    0  501  0.00000000000E+00  0.00000000000E+00  0.14753006159E+04  0.14753006159E+04  0.50400001928E-02 0.  1.
        1   -1    0    0  501    0  0.00000000000E+00  0.00000000000E+00 -0.10594368540E+04  0.10594368540E+04  0.50400001928E-02 0. -1.
    10030    2    1    2    0    0  0.00000000000E+00  0.00000000000E+00  0.41586376188E+03  0.25347374700E+04  0.25003902442E+04 0.  0.
        5    1    3    3  502    0  0.25950499007E+03  0.99237469284E+03  0.93246321548E+03  0.13862395569E+04  0.46999998093E+01 0.  1.
       -5    1    3    3    0  502 -0.25950499007E+03 -0.99237469284E+03 -0.51659945360E+03  0.11484979131E+04  0.46999998093E+01 0. -1.
</event>
<event>
 5   0  0.3805418E-07  0.2499959E+04  0.7818609E-02  0.8403000E-01
        1   -1    0    0  501    0  0.00000000000E+00  0.00000000000E+00  0.23034191877E+04  0.23034191877E+04  0.50400001928E-02 0.  1.
       -1   -1    0    0    0  501  0.00000000000E+00  0.00000000000E+00 -0.67831699862E+03  0.67831699864E+03  0.50400001928E-02 0. -1.
    10030    2    1    2    0    0  0.00000000000E+00  0.00000000000E+00  0.16251021890E+04  0.29817361863E+04  0.24999587116E+04 0.  0.
        4    1    3    3  502    0 -0.84833162158E+03  0.81463479632E+03  0.30772098054E+03  0.12157262053E+04  0.12699999809E+01 0.  1.
       -4    1    3    3    0  502  0.84833162158E+03 -0.81463479632E+03  0.13173812085E+04  0.17660099810E+04  0.12699999809E+01 0. -1.
</event>
<event>
 5   0  0.3972587E-07  0.2510116E+04  0.7818609E-02  0.8399390E-01
        1   -1    0    0  501    0  0.00000000000E+00  0.00000000000E+00  0.13548409104E+04  0.13548409104E+04  0.50400001928E-02 0.  1.
       -1   -1    0    0    0  501  0.00000000000E+00  0.00000000000E+00 -0.11626243087E+04  0.11626243087E+04  0.50400001928E-02 0. -1.
    10030    2    1    2    0    0  0.00000000000E+00  0.00000000000E+00  0.19221660172E+03  0.25174652191E+04  0.25101163135E+04 0.  0.
        3    1    3    3  502    0  0.12024489697E+04 -0.86399377743E+02  0.44616109309E+03  0.12854602710E+04  0.10100000352E+00 0.  1.
       -3    1    3    3    0  502 -0.12024489697E+04  0.86399377743E+02 -0.25394449136E+03  0.12320049481E+04  0.10100000352E+00 0. -1.
</event>
<event>
 5   0  0.9251138E-07  0.2499831E+04  0.7818609E-02  0.8403046E-01
       -2   -1    0    0    0  501  0.00000000000E+00  0.00000000000E+00  0.10045260317E+04  0.10045260317E+04  0.25500000920E-02 0. -1.
        2   -1    0    0  501    0  0.00000000000E+00  0.00000000000E+00 -0.15552500710E+04  0.15552500710E+04  0.25500000920E-02 0.  1.
    10030    2    1    2    0    0  0.00000000000E+00  0.00000000000E+00 -0.55072403930E+03  0.25597761026E+04  0.24998313399E+04 0.  0.
        5    1    3    3  502    0 -0.55925479578E+02  0.57085941872E+03  0.86178969625E+03  0.10352350969E+04  0.46999998093E+01 0. -1.
       -5    1    3    3    0  502  0.55925479578E+02 -0.57085941872E+03 -0.14125137355E+04  0.15245410058E+04  0.46999998093E+01 0.  1.
</event>
<event>
 5   0  0.3805418E-07  0.2502549E+04  0.7818609E-02  0.8402078E-01
       -1   -1    0    0    0  501  0.00000000000E+00  0.00000000000E+00  0.85050008980E+03  0.85050008982E+03  0.50400001928E-02 0. -1.
        1   -1    0    0  501    0  0.00000000000E+00  0.00000000000E+00 -0.18409027208E+04  0.18409027208E+04  0.50400001928E-02 0.  1.
    10030    2    1    2    0    0  0.00000000000E+00  0.00000000000E+00 -0.99040263099E+03  0.26914028106E+04  0.25025490440E+04 0.  0.
        4    1    3    3  502    0 -0.12180847431E+04 -0.86899978545E+02 -0.78855735328E+03  0.14536527645E+04  0.12699999809E+01 0.  1.
       -4    1    3    3    0  502  0.12180847431E+04  0.86899978545E+02 -0.20184527771E+03  0.12377500461E+04  0.12699999809E+01 0. -1.
</event>
<event>
 5   0  0.3837524E-07  0.2499902E+04  0.7818609E-02  0.8403021E-01
       -1   -1    0    0    0  501  0.00000000000E+00  0.00000000000E+00  0.23016852557E+04  0.23016852557E+04  0.50400001928E-02 0.  1.
        1   -1    0    0  501    0  0.00000000000E+00  0.00000000000E+00 -0.67879706914E+03  0.67879706916E+03  0.50400001928E-02 0. -1.
    10030    2    1    2    0    0  0.00000000000E+00  0.00000000000E+00  0.16228881866E+04  0.29804823249E+04  0.24999017626E+04 0.  0.
        5    1    3    3  502    0 -0.62393869965E+03  0.78168353571E+03  0.17052474699E+04  0.19769217674E+04  0.46999998093E+01 0.  1.
       -5    1    3    3    0  502  0.62393869965E+03 -0.78168353571E+03 -0.82359283334E+02  0.10035605575E+04  0.46999998093E+01 0. -1.
</event>
<event>
 5   0  0.9251138E-07  0.2500271E+04  0.7818609E-02  0.8402889E-01
       -2   -1    0    0    0  501  0.00000000000E+00  0.00000000000E+00  0.69588498009E+03  0.69588498009E+03  0.25500000920E-02 0. -1.
        2   -1    0    0  501    0  0.00000000000E+00  0.00000000000E+00 -0.22458283416E+04  0.22458283416E+04  0.25500000920E-02 0.  1.
    10030    2    1    2    0    0  0.00000000000E+00  0.00000000000E+00 -0.15499433615E+04  0.29417133217E+04  0.25002705540E+04 0.  0.
        5    1    3    3  502    0 -0.46846938319E+03 -0.32143948379E+03  0.53520329401E+03  0.78054568133E+03  0.46999998093E+01 0. -1.
       -5    1    3    3    0  502  0.46846938319E+03  0.32143948379E+03 -0.20851466555E+04  0.21611676404E+04  0.46999998093E+01 0.  1.
</event>
<event>
 5   0  0.3837524E-07  0.2499087E+04  0.7818609E-02  0.8403311E-01
       -1   -1    0    0    0  501  0.00000000000E+00  0.00000000000E+00  0.12235029352E+04  0.12235029352E+04  0.50400001928E-02 0.  1.
        1   -1    0    0  501    0  0.00000000000E+00  0.00000000000E+00 -0.12761379532E+04  0.12761379532E+04  0.50400001928E-02 0. -1.
    10030    2    1    2    0    0  0.00000000000E+00  0.00000000000E+00 -0.52635017966E+02  0.24996408884E+04  0.24990866583E+04 0.  0.
        5    1    3    3  502    0  0.40328538765E+03  0.21146486816E+03  0.11375469875E+04  0.12253129123E+04  0.46999998093E+01 0.  1.
       -5    1    3    3    0  502 -0.40328538765E+03 -0.21146486816E+03 -0.11901820055E+04  0.12743279760E+04  0.46999998093E+01 0. -1.
</event>
<event>
 5   0  0.9261602E-07  0.2499742E+04  0.7818609E-02  0.8403077E-01
       -2   -1    0    0    0  501  0.00000000000E+00  0.00000000000E+00  0.82800615564E+03  0.82800615565E+03  0.25500000920E-02 0.  1.
        2   -1    0    0  501    0  0.00000000000E+00  0.00000000000E+00 -0.18866739940E+04  0.18866739940E+04  0.25500000920E-02 0. -1.
    10030    2    1    2    0    0  0.00000000000E+00  0.00000000000E+00 -0.10586678383E+04  0.27146801496E+04  0.24997421313E+04 0.  0.
        4    1    3    3  502    0  0.85530186832E+03 -0.61230601240E+03 -0.12624464742E+04  0.16432384647E+04  0.12699999809E+01 0. -1.
       -4    1    3    3    0  502 -0.85530186832E+03  0.61230601240E+03  0.20377863589E+03  0.10714416849E+04  0.12699999809E+01 0.  1.
</event>
<event>
 5   0  0.3805418E-07  0.2501038E+04  0.7818609E-02  0.8402616E-01
       -1   -1    0    0    0  501  0.00000000000E+00  0.00000000000E+00  0.13898094409E+04  0.13898094409E+04  0.50400001928E-02 0. -1.
        1   -1    0    0  501    0  0.00000000000E+00  0.00000000000E+00 -0.11251883073E+04  0.11251883073E+04  0.50400001928E-02 0.  1.
    10030    2    1    2    0    0  0.00000000000E+00  0.00000000000E+00  0.26462113369E+03  0.25149977482E+04  0.25010376505E+04 0.  0.
        4    1    3    3  502    0 -0.19323511659E+03 -0.11539257460E+04 -0.31164127256E+03  0.12107874848E+04  0.12699999809E+01 0.  1.
       -4    1    3    3    0  502  0.19323511659E+03  0.11539257460E+04  0.57626240625E+03  0.13042102635E+04  0.12699999809E+01 0. -1.
</event>
<event>
 5   0  0.3873231E-07  0.2500446E+04  0.7818609E-02  0.8402827E-01
       -1   -1    0    0    0  501  0.00000000000E+00  0.00000000000E+00  0.96128768736E+03  0.96128768737E+03  0.50400001928E-02 0. -1.
        1   -1    0    0  501    0  0.00000000000E+00  0.00000000000E+00 -0.16260040133E+04  0.16260040133E+04  0.50400001928E-02 0.  1.
    10030    2    1    2    0    0  0.00000000000E+00  0.00000000000E+00 -0.66471632590E+03  0.25872917006E+04  0.25004460702E+04 0.  0.
        2    1    3    3  502    0  0.26988429369E+03  0.72763066504E+03  0.68187652814E+03  0.10330728514E+04  0.25500000920E-02 0. -1.
       -2    1    3    3    0  502 -0.26988429369E+03 -0.72763066504E+03 -0.13465928540E+04  0.15542188492E+04  0.25500000920E-02 0.  1.
</event>
<event>
 5   0  0.3972587E-07  0.2499704E+04  0.7818609E-02  0.8403091E-01
       -1   -1    0    0    0  501  0.00000000000E+00  0.00000000000E+00  0.81822701452E+03  0.81822701453E+03  0.50400001928E-02 0. -1.
        1   -1    0    0  501    0  0.00000000000E+00  0.00000000000E+00 -0.19091644435E+04  0.19091644435E+04  0.50400001928E-02 0.  1.
    10030    2    1    2    0    0  0.00000000000E+00  0.00000000000E+00 -0.10909374290E+04  0.27273914580E+04  0.24997039207E+04 0.  0.
        3    1    3    3  502    0 -0.12351770029E+04 -0.17970134697E+03 -0.47496810598E+03  0.13354959807E+04  0.10100000352E+00 0. -1.
       -3    1    3    3    0  502  0.12351770029E+04  0.17970134697E+03 -0.61596932298E+03  0.13918954773E+04  0.10100000352E+00 0.  1.
</event>
<event>
 5   0  0.9768582E-07  0.2499529E+04  0.7818609E-02  0.8403153E-01
       -2   -1    0    0    0  501  0.00000000000E+00  0.00000000000E+00  0.83132823084E+03  0.83132823084E+03  0.25500000920E-02 0. -1.
        2   -1    0    0  501    0  0.00000000000E+00  0.00000000000E+00 -0.18788140171E+04  0.18788140171E+04  0.25500000920E-02 0.  1.
    10030    2    1    2    0    0  0.00000000000E+00  0.00000000000E+00 -0.10474857862E+04  0.27101422479E+04  0.24995288619E+04 0.  0.
        3    1    3    3  502    0  0.42378473558E+03  0.43072253023E+03 -0.17099047233E+04  0.18135295898E+04  0.10100000352E+00 0.  1.
       -3    1    3    3    0  502 -0.42378473558E+03 -0.43072253023E+03  0.66241893711E+03  0.89661265807E+03  0.10100000352E+00 0. -1.
</event>
<event>
 5   0  0.3873231E-07  0.2501641E+04  0.7818609E-02  0.8402401E-01
       -1   -1    0    0    0  501  0.00000000000E+00  0.00000000000E+00  0.72234772552E+03  0.72234772554E+03  0.50400001928E-02 0.  1.
        1   -1    0    0  501    0  0.00000000000E+00  0.00000000000E+00 -0.21659270309E+04  0.21659270309E+04  0.50400001928E-02 0. -1.
    10030    2    1    2    0    0  0.00000000000E+00  0.00000000000E+00 -0.14435793054E+04  0.28882747565E+04  0.25016414327E+04 0.  0.
        2    1    3    3  502    0 -0.47336543531E+03 -0.10082455323E+04 -0.64689799014E+02  0.11157144163E+04  0.25500000920E-02 0.  1.
       -2    1    3    3    0  502  0.47336543531E+03  0.10082455323E+04 -0.13788895064E+04  0.17725603402E+04  0.25500000920E-02 0. -1.
</event>
<event>
 5   0  0.3873231E-07  0.2499897E+04  0.7818609E-02  0.8403022E-01
       -1   -1    0    0    0  501  0.00000000000E+00  0.00000000000E+00  0.12041491453E+04  0.12041491453E+04  0.50400001928E-02 0.  1.
        1   -1    0    0  501    0  0.00000000000E+00  0.00000000000E+00 -0.12974893623E+04  0.12974893623E+04  0.50400001928E-02 0. -1.
    10030    2    1    2    0    0  0.00000000000E+00  0.00000000000E+00 -0.93340217019E+02  0.25016385077E+04  0.24998965633E+04 0.  0.
        2    1    3    3  502    0  0.19023808812E+03 -0.82213847938E+03 -0.96941268124E+03  0.12852482857E+04  0.25500000920E-02 0. -1.
       -2    1    3    3    0  502 -0.19023808812E+03  0.82213847938E+03  0.87607246422E+03  0.12163902219E+04  0.25500000920E-02 0.  1.
</event>
<event>
 5   0  0.9251138E-07  0.2500282E+04  0.7818609E-02  0.8402885E-01
        2   -1    0    0  501    0  0.00000000000E+00  0.00000000000E+00  0.17432158236E+04  0.17432158236E+04  0.25500000920E-02 0. -1.
       -2   -1    0    0    0  501  0.00000000000E+00  0.00000000000E+00 -0.89653444974E+03  0.89653444974E+03  0.25500000920E-02 0.  1.
    10030    2    1    2    0    0  0.00000000000E+00  0.00000000000E+00  0.84668137390E+03  0.26397502734E+04  0.25002824154E+04 0.  0.
        5    1    3    3  502    0 -0.49673253894E+03  0.59204293024E+03 -0.61410725092E+03  0.98712099163E+03  0.46999998093E+01 0.  1.
       -5    1    3    3    0  502  0.49673253894E+03 -0.59204293024E+03  0.14607886248E+04  0.16526292818E+04  0.46999998093E+01 0. -1.
</event>
<event>
 5   0  0.9261602E-07  0.2501255E+04  0.7818609E-02  0.8402539E-01
       -2   -1    0    0    0  501  0.00000000000E+00  0.00000000000E+00  0.13984516128E+04  0.13984516128E+04  0.25500000920E-02 0.  1.
        2   -1    0    0  501    0  0.00000000000E+00  0.00000000000E+00 -0.11184292376E+04  0.11184292376E+04  0.25500000920E-02 0. -1.
    10030    2    1    2    0    0  0.00000000000E+00  0.00000000000E+00  0.28002237523E+03  0.25168808505E+04  0.25012550219E+04 0.  0.
        4    1    3    3  502    0 -0.16020403810E+03  0.19447148197E+03 -0.10926244041E+04  0.11213002240E+04  0.12699999809E+01 0. -1.
       -4    1    3    3    0  502  0.16020403810E+03 -0.19447148197E+03  0.13726467793E+04  0.13955806264E+04  0.12699999809E+01 0.  1.
</event>
<event>
 5   0  0.3873231E-07  0.2499922E+04  0.7818609E-02  0.8403013E-01
        1   -1    0    0  501    0  0.00000000000E+00  0.00000000000E+00  0.21098837561E+04  0.21098837561E+04  0.50400001928E-02 0.  1.
       -1   -1    0    0    0  501  0.00000000000E+00  0.00000000000E+00 -0.74051584837E+03  0.74051584839E+03  0.50400001928E-02 0. -1.
    10030    2    1    2    0    0  0.00000000000E+00  0.00000000000E+00  0.13693679077E+04  0.28503996045E+04  0.24999218865E+04 0.  0.
        2    1    3    3  502    0  0.81327788974E+03 -0.20828652343E+02 -0.39732946578E+03  0.90538691347E+03  0.25500000920E-02 0. -1.
       -2    1    3    3    0  502 -0.81327788974E+03  0.20828652343E+02  0.17666973735E+04  0.19450126910E+04  0.25500000920E-02 0.  1.
</event>
<event>
 5   0  0.3991066E-07  0.2499466E+04  0.7818609E-02  0.8403176E-01
        1   -1    0    0  501    0  0.00000000000E+00  0.00000000000E+00  0.19628513529E+04  0.19628513529E+04  0.50400001928E-02 0.  1.
       -1   -1    0    0    0  501  0.00000000000E+00  0.00000000000E+00 -0.79569583035E+03  0.79569583037E+03  0.50400001928E-02 0. -1.
    10030    2    1    2    0    0  0.00000000000E+00  0.00000000000E+00  0.11671555225E+04  0.27585471832E+04  0.24994660527E+04 0.  0.
        1    1    3    3  502    0 -0.12141073227E+04  0.79229724547E+02  0.26850670717E+03  0.12459654057E+04  0.50400001928E-02 0. -1.
       -1    1    3    3    0  502  0.12141073227E+04 -0.79229724547E+02  0.89864881533E+03  0.15125817775E+04  0.50400001928E-02 0.  1.
</event>
<event>
 5   0  0.3972587E-07  0.2483803E+04  0.7818609E-02  0.8408779E-01
       -1   -1    0    0    0  501  0.00000000000E+00  0.00000000000E+00  0.13111022544E+04  0.13111022544E+04  0.50400001928E-02 0.  1.
        1   -1    0    0  501    0  0.00000000000E+00  0.00000000000E+00 -0.11763534085E+04  0.11763534085E+04  0.50400001928E-02 0. -1.
    10030    2    1    2    0    0  0.00000000000E+00  0.00000000000E+00  0.13474884593E+03  0.24874556629E+04  0.24838032176E+04 0.  0.
        3    1    3    3  502    0 -0.92408244141E+01  0.60279184669E+03  0.11547316911E+04  0.13026314490E+04  0.10100000352E+00 0.  1.
       -3    1    3    3    0  502  0.92408244141E+01 -0.60279184669E+03 -0.10199828452E+04  0.11848242139E+04  0.10100000352E+00 0. -1.
</event>
<event>
 5   0  0.9508784E-07  0.2498619E+04  0.7818609E-02  0.8403478E-01
       -2   -1    0    0    0  501  0.00000000000E+00  0.00000000000E+00  0.97253842029E+03  0.97253842030E+03  0.25500000920E-02 0. -1.
        2   -1    0    0  501    0  0.00000000000E+00  0.00000000000E+00 -0.16048458317E+04  0.16048458317E+04  0.25500000920E-02 0.  1.
    10030    2    1    2    0    0  0.00000000000E+00  0.00000000000E+00 -0.63230741136E+03  0.25773842520E+04  0.24986190025E+04 0.  0.
        2    1    3    3  502    0 -0.37404060248E+02 -0.11682332923E+04 -0.77120190737E+03  0.14003287010E+04  0.25500000920E-02 0.  1.
       -2    1    3    3    0  502  0.37404060248E+02  0.11682332923E+04  0.13889449601E+03  0.11770555509E+04  0.25500000920E-02 0. -1.
</event>
<event>
 5   0  0.3991066E-07  0.2498903E+04  0.7818609E-02  0.8403377E-01
       -1   -1    0    0    0  501  0.00000000000E+00  0.00000000000E+00  0.60252093344E+03  0.60252093346E+03  0.50400001928E-02 0.  1.
        1   -1    0    0  501    0  0.00000000000E+00  0.00000000000E+00 -0.25909947546E+04  0.25909947546E+04  0.50400001928E-02 0. -1.
    10030    2    1    2    0    0  0.00000000000E+00  0.00000000000E+00 -0.19884738211E+04  0.31935156880E+04  0.24989026216E+04 0.  0.
        1    1    3    3  502    0  0.11324208653E+04  0.25236619685E+03 -0.15868925680E+04  0.19657806937E+04  0.50400001928E-02 0. -1.
       -1    1    3    3    0  502 -0.11324208653E+04 -0.25236619685E+03 -0.40158125310E+03  0.12277349943E+04  0.50400001928E-02 0.  1.
</event>
<event>
 5   0  0.9251138E-07  0.2499944E+04  0.7818609E-02  0.8403006E-01
        2   -1    0    0  501    0  0.00000000000E+00  0.00000000000E+00  0.16158671267E+04  0.16158671267E+04  0.25500000920E-02 0.  1.
       -2   -1    0    0    0  501  0.00000000000E+00  0.00000000000E+00 -0.96692950079E+03  0.96692950079E+03  0.25500000920E-02 0. -1.
    10030    2    1    2    0    0  0.00000000000E+00  0.00000000000E+00  0.64893762595E+03  0.25827966275E+04  0.24999436747E+04 0.  0.
        5    1    3    3  502    0 -0.13623510115E+03 -0.72588003679E+03 -0.71738998461E+03  0.10296272678E+04  0.46999998093E+01 0. -1.
       -5    1    3    3    0  502  0.13623510115E+03  0.72588003679E+03  0.13663276106E+04  0.15531693597E+04  0.46999998093E+01 0.  1.
</event>
<event>
 5   0  0.3972587E-07  0.2497647E+04  0.7818609E-02  0.8403824E-01
       -1   -1    0    0    0  501  0.00000000000E+00  0.00000000000E+00  0.12077528259E+04  0.12077528259E+04  0.50400001928E-02 0.  1.
        1   -1    0    0  501    0  0.00000000000E+00  0.00000000000E+00 -0.12912908091E+04  0.12912908091E+04  0.50400001928E-02 0. -1.
    10030    2    1    2    0    0  0.00000000000E+00  0.00000000000E+00 -0.83537983262E+02  0.24990436350E+04  0.24976469917E+04 0.  0.
        3    1    3    3  502    0 -0.81441980600E+03  0.52173600393E+03  0.74865505423E+03  0.12230995375E+04  0.10100000352E+00 0.  1.
       -3    1    3    3    0  502  0.81441980600E+03 -0.52173600393E+03 -0.83219303749E+03  0.12759440975E+04  0.10100000352E+00 0. -1.
</event>
<event>
 5   0  0.9508784E-07  0.2500297E+04  0.7818609E-02  0.8402880E-01
        2   -1    0    0  501    0  0.00000000000E+00  0.00000000000E+00  0.23961587670E+04  0.23961587670E+04  0.25500000920E-02 0. -1.
       -2   -1    0    0    0  501  0.00000000000E+00  0.00000000000E+00 -0.65224025005E+03  0.65224025006E+03  0.25500000920E-02 0.  1.
    10030    2    1    2    0    0  0.00000000000E+00  0.00000000000E+00  0.17439185169E+04  0.30483990170E+04  0.25002969370E+04 0.  0.
        2    1    3    3  502    0 -0.65414359796E+03 -0.24329284831E+03 -0.39260568149E+03  0.80077117702E+03  0.25500000920E-02 0.  1.
       -2    1    3    3    0  502  0.65414359796E+03  0.24329284831E+03  0.21365241984E+04  0.22476278400E+04  0.25500000920E-02 0. -1.
</event>
<event>
 5   0  0.3214375E-07  0.2494601E+04  0.7818609E-02  0.8404911E-01
        3   -1    0    0  501    0  0.00000000000E+00  0.00000000000E+00  0.26060100819E+04  0.26060100839E+04  0.10100000352E+00 0. -1.
       -3   -1    0    0    0  501  0.00000000000E+00  0.00000000000E+00 -0.59698874425E+03  0.59698875279E+03  0.10100000352E+00 0.  1.
    10030    2    1    2    0    0  0.00000000000E+00  0.00000000000E+00  0.20090213377E+04  0.32029988367E+04  0.24946011329E+04 0.  0.
        3    1    3    3  502    0  0.21851075362E+03  0.62099226685E+02 -0.57020454560E+03  0.61378864231E+03  0.10100000352E+00 0.  1.
       -3    1    3    3    0  502 -0.21851075362E+03 -0.62099226685E+02  0.25792258833E+04  0.25892101943E+04  0.10100000352E+00 0. -1.
</event>
<event>
 5   0  0.9251138E-07  0.2500099E+04  0.7818609E-02  0.8402950E-01
        2   -1    0    0  501    0  0.00000000000E+00  0.00000000000E+00  0.23860030874E+04  0.23860030874E+04  0.25500000920E-02 0. -1.
       -2   -1    0    0    0  501  0.00000000000E+00  0.00000000000E+00 -0.65491279598E+03  0.65491279599E+03  0.25500000920E-02 0.  1.
    10030    2    1    2    0    0  0.00000000000E+00  0.00000000000E+00  0.17310902914E+04  0.30409158833E+04  0.25000991606E+04 0.  0.
        5    1    3    3  502    0  0.71209401323E+03  0.73304736062E+03  0.17410961271E+04  0.20188794244E+04  0.46999998093E+01 0. -1.
       -5    1    3    3    0  502 -0.71209401323E+03 -0.73304736062E+03 -0.10005835739E+02  0.10220364589E+04  0.46999998093E+01 0.  1.
</event>
<event>
 5   0  0.3991066E-07  0.2498155E+04  0.7818609E-02  0.8403643E-01
       -1   -1    0    0    0  501  0.00000000000E+00  0.00000000000E+00  0.24750159347E+04  0.24750159347E+04  0.50400001928E-02 0. -1.
        1   -1    0    0  501    0  0.00000000000E+00  0.00000000000E+00 -0.63037745930E+03  0.63037745932E+03  0.50400001928E-02 0.  1.
    10030    2    1    2    0    0  0.00000000000E+00  0.00000000000E+00  0.18446384754E+04  0.31053933940E+04  0.24981547243E+04 0.  0.
        1    1    3    3  502    0 -0.46562282621E+02 -0.24547060919E+03  0.24436369164E+04  0.24563764462E+04  0.50400001928E-02 0. -1.
       -1    1    3    3    0  502  0.46562282621E+02  0.24547060919E+03 -0.59899844104E+03  0.64901694780E+03  0.50400001928E-02 0.  1.
</event>
<event>
 5   0  0.3805418E-07  0.2499821E+04  0.7818609E-02  0.8403049E-01
       -1   -1    0    0    0  501  0.00000000000E+00  0.00000000000E+00  0.13464608208E+04  0.13464608208E+04  0.50400001928E-02 0.  1.
        1   -1    0    0  501    0  0.00000000000E+00  0.00000000000E+00 -0.11602835960E+04  0.11602835960E+04  0.50400001928E-02 0. -1.
    10030    2    1    2    0    0  0.00000000000E+00  0.00000000000E+00  0.18617722487E+03  0.25067444168E+04  0.24998211161E+04 0.  0.
        4    1    3    3  502    0 -0.67398949944E+03 -0.82043669348E+03 -0.56820468164E+03  0.12042576080E+04  0.12699999809E+01 0. -1.
       -4    1    3    3    0  502  0.67398949944E+03  0.82043669348E+03  0.75438190651E+03  0.13024868088E+04  0.12699999809E+01 0.  1.
</event>
<event>
 5   0  0.9768582E-07  0.2499458E+04  0.7818609E-02  0.8403179E-01
       -2   -1    0    0    0  501  0.00000000000E+00  0.00000000000E+00  0.11226680906E+04  0.11226680906E+04  0.25500000920E-02 0.  1.
        2   -1    0    0  501    0  0.00000000000E+00  0.00000000000E+00 -0.13911700672E+04  0.13911700672E+04  0.25500000920E-02 0. -1.
    10030    2    1    2    0    0  0.00000000000E+00  0.00000000000E+00 -0.26850197657E+03  0.25138381577E+04  0.24994577356E+04 0.  0.
        3    1    3    3  502    0 -0.14461222431E+03  0.24331777971E+03  0.10900058422E+04  0.11261567313E+04  0.10100000352E+00 0.  1.
       -3    1    3    3    0  502  0.14461222431E+03 -0.24331777971E+03 -0.13585078188E+04  0.13876814264E+04  0.10100000352E+00 0. -1.
</event>
<event>
 5   0  0.3837524E-07  0.2498596E+04  0.7818609E-02  0.8403486E-01
        1   -1    0    0  501    0  0.00000000000E+00  0.00000000000E+00  0.12285530301E+04  0.12285530301E+04  0.50400001928E-02 0. -1.
       -1   -1    0    0    0  501  0.00000000000E+00  0.00000000000E+00 -0.12703932258E+04  0.12703932258E+04  0.50400001928E-02 0.  1.
    10030    2    1    2    0    0  0.00000000000E+00  0.00000000000E+00 -0.41840195715E+02  0.24989462559E+04  0.24985959633E+04 0.  0.
        5    1    3    3  502    0 -0.22227456327E+03  0.84134755255E+03 -0.91740042007E+03  0.12644830194E+04  0.46999998093E+01 0.  1.
       -5    1    3    3    0  502  0.22227456327E+03 -0.84134755255E+03  0.87556022436E+03  0.12344632364E+04  0.46999998093E+01 0. -1.
</event>
<event>
 5   0  0.8997210E-07  0.2492468E+04  0.7818609E-02  0.8405674E-01
       -2   -1    0    0    0  501  0.00000000000E+00  0.00000000000E+00  0.91019710683E+03  0.91019710683E+03  0.25500000920E-02 0. -1.
        2   -1    0    0  501    0  0.00000000000E+00  0.00000000000E+00 -0.17063323036E+04  0.17063323036E+04  0.25500000920E-02 0.  1.
    10030    2    1    2    0    0  0.00000000000E+00  0.00000000000E+00 -0.79613519676E+03  0.26165294104E+04  0.24924676335E+04 0.  0.
        1    1    3    3  502    0 -0.70784826493E+03 -0.46372410517E+03  0.56235261224E+03  0.10160362555E+04  0.50400001928E-02 0. -1.
       -1    1    3    3    0  502  0.70784826493E+03  0.46372410517E+03 -0.13584878090E+04  0.16004931550E+04  0.50400001928E-02 0.  1.
</event>
<event>
 5   0  0.3991066E-07  0.2499805E+04  0.7818609E-02  0.8403055E-01
        1   -1    0    0  501    0  0.00000000000E+00  0.00000000000E+00  0.79323844476E+03  0.79323844478E+03  0.50400001928E-02 0.  1.
       -1   -1    0    0    0  501  0.00000000000E+00  0.00000000000E+00 -0.19694667783E+04  0.19694667783E+04  0.50400001928E-02 0. -1.
    10030    2    1    2    0    0  0.00000000000E+00  0.00000000000E+00 -0.11762283336E+04  0.27627052231E+04  0.24998054039E+04 0.  0.
        1    1    3    3  502    0 -0.20431292554E+03 -0.11155867504E+04 -0.11687001116E+04  0.16285384614E+04  0.50400001928E-02 0. -1.
       -1    1    3    3    0  502  0.20431292554E+03  0.11155867504E+04 -0.75282219566E+01  0.11341667617E+04  0.50400001928E-02 0.  1.
</event>
<event>
 5   0  0.9508784E-07  0.2499951E+04  0.7818609E-02  0.8403003E-01
        2   -1    0    0  501    0  0.00000000000E+00  0.00000000000E+00  0.11263306611E+04  0.11263306611E+04  0.25500000920E-02 0. -1.
       -2   -1    0    0    0  501  0.00000000000E+00  0.00000000000E+00 -0.13871941152E+04  0.13871941152E+04  0.25500000920E-02 0.  1.
    10030    2    1    2    0    0  0.00000000000E+00  0.00000000000E+00 -0.26086345414E+03  0.25135247762E+04  0.24999514113E+04 0.  0.
        2    1    3    3  502    0 -0.64138951587E+02 -0.12295551014E+04 -0.34728706279E+03  0.12792684849E+04  0.25500000920E-02 0. -1.
       -2    1    3    3    0  502  0.64138951587E+02  0.12295551014E+04  0.86423608653E+02  0.12342562913E+04  0.25500000920E-02 0.  1.
</event>
<event>
 5   0  0.3972587E-07  0.2500621E+04  0.7818609E-02  0.8402764E-01
        1   -1    0    0  501    0  0.00000000000E+00  0.00000000000E+00  0.14083767504E+04  0.14083767504E+04  0.50400001928E-02 0. -1.
       -1   -1    0    0    0  501  0.00000000000E+00  0.00000000000E+00 -0.11099848652E+04  0.11099848652E+04  0.50400001928E-02 0.  1.
    10030    2    1    2    0    0  0.00000000000E+00  0.00000000000E+00  0.29839188523E+03  0.25183616156E+04  0.25006214247E+04 0.  0.
        3    1    3    3  502    0 -0.96234558799E+03 -0.49742749393E+03  0.77791139957E+03  0.13336751097E+04  0.10100000352E+00 0. -1.
       -3    1    3    3    0  502  0.96234558799E+03  0.49742749393E+03 -0.47951951435E+03  0.11846865059E+04  0.10100000352E+00 0.  1.
</event>
<event>
 5   0  0.9261602E-07  0.2502034E+04  0.7818609E-02  0.8402261E-01
       -2   -1    0    0    0  501  0.00000000000E+00  0.00000000000E+00  0.71239148546E+03  0.71239148546E+03  0.25500000920E-02 0.  1.
        2   -1    0    0  501    0  0.00000000000E+00  0.00000000000E+00 -0.21968866046E+04  0.21968866046E+04  0.25500000920E-02 0. -1.
    10030    2    1    2    0    0  0.00000000000E+00  0.00000000000E+00 -0.14844951191E+04  0.29092780900E+04  0.25020338220E+04 0.  0.
        4    1    3    3  502    0 -0.24844496262E+03  0.12114843617E+04 -0.96170681226E+03  0.15666208424E+04  0.12699999809E+01 0.  1.
       -4    1    3    3    0  502  0.24844496262E+03 -0.12114843617E+04 -0.52278830686E+03  0.13426572477E+04  0.12699999809E+01 0. -1.
</event>
<event>
 5   0  0.8997210E-07  0.2501337E+04  0.7818609E-02  0.8402509E-01
        2   -1    0    0  501    0  0.00000000000E+00  0.00000000000E+00  0.10688312128E+04  0.10688312128E+04  0.25500000920E-02 0. -1.
       -2   -1    0    0    0  501  0.00000000000E+00  0.00000000000E+00 -0.14634417214E+04  0.14634417214E+04  0.25500000920E-02 0.  1.
    10030    2    1    2    0    0  0.00000000000E+00  0.00000000000E+00 -0.39461050858E+03  0.25322729343E+04  0.25013373943E+04 0.  0.
        1    1    3    3  502    0 -0.85756685364E+03  0.90970014334E+03 -0.23232981908E+03  0.12715944338E+04  0.50400001928E-02 0. -1.
       -1    1    3    3    0  502  0.85756685364E+03 -0.90970014334E+03 -0.16228068949E+03  0.12606785004E+04  0.50400001928E-02 0.  1.
</event>
<event>
 5   0  0.3972587E-07  0.2502233E+04  0.7818609E-02  0.8402190E-01
       -1   -1    0    0    0  501  0.00000000000E+00  0.00000000000E+00  0.18167043701E+04  0.18167043701E+04  0.50400001928E-02 0. -1.
        1   -1    0    0  501    0  0.00000000000E+00  0.00000000000E+00 -0.86161124619E+03  0.86161124620E+03  0.50400001928E-02 0.  1.
    10030    2    1    2    0    0  0.00000000000E+00  0.00000000000E+00  0.95509312393E+03  0.26783156163E+04  0.25022333355E+04 0.  0.
        3    1    3    3  502    0 -0.36942715955E+03 -0.28764145124E+03 -0.76430361152E+03  0.89631135855E+03  0.10100000352E+00 0.  1.
       -3    1    3    3    0  502  0.36942715955E+03  0.28764145124E+03  0.17193967354E+04  0.17820042578E+04  0.10100000352E+00 0. -1.
</event>
<event>
 5   0  0.3837524E-07  0.2500493E+04  0.7818609E-02  0.8402810E-01
       -1   -1    0    0    0  501  0.00000000000E+00  0.00000000000E+00  0.95329169424E+03  0.95329169426E+03  0.50400001928E-02 0.  1.
        1   -1    0    0  501    0  0.00000000000E+00  0.00000000000E+00 -0.16397042184E+04  0.16397042184E+04  0.50400001928E-02 0. -1.
    10030    2    1    2    0    0  0.00000000000E+00  0.00000000000E+00 -0.68641252412E+03  0.25929959126E+04  0.25004930813E+04 0.  0.
        5    1    3    3  502    0  0.74933318479E+03 -0.40196220618E+03 -0.12936384010E+04  0.15480943897E+04  0.46999998093E+01 0. -1.
       -5    1    3    3    0  502 -0.74933318479E+03  0.40196220618E+03  0.60722587686E+03  0.10449015229E+04  0.46999998093E+01 0.  1.
</event>
<event>
 5   0  0.3972587E-07  0.2501282E+04  0.7818609E-02  0.8402529E-01
        1   -1    0    0  501    0  0.00000000000E+00  0.00000000000E+00  0.13656931296E+04  0.13656931296E+04  0.50400001928E-02 0.  1.
       -1   -1    0    0    0  501  0.00000000000E+00  0.00000000000E+00 -0.11452817554E+04  0.11452817554E+04  0.50400001928E-02 0. -1.
    10030    2    1    2    0    0  0.00000000000E+00  0.00000000000E+00  0.22041137424E+03  0.25109748850E+04  0.25012824109E+04 0.  0.
        3    1    3    3  502    0  0.16733793530E+03 -0.11999609236E+04 -0.20114968797E+03  0.12281569158E+04  0.10100000352E+00 0. -1.
       -3    1    3    3    0  502 -0.16733793530E+03  0.11999609236E+04  0.42156106221E+03  0.12828179692E+04  0.10100000352E+00 0.  1.
</event>
<event>
 5   0  0.3837524E-07  0.2497409E+04  0.7818609E-02  0.8403909E-01
        1   -1    0    0  501    0  0.00000000000E+00  0.00000000000E+00  0.57924821066E+03  0.57924821068E+03  0.50400001928E-02 0. -1.
       -1   -1    0    0    0  501  0.00000000000E+00  0.00000000000E+00 -0.26918741113E+04  0.26918741113E+04  0.50400001928E-02 0.  1.
    10030    2    1    2    0    0  0.00000000000E+00  0.00000000000E+00 -0.21126259007E+04  0.32711223220E+04  0.24974092675E+04 0.  0.
        5    1    3    3  502    0  0.35857322061E+03  0.13991296030E+02  0.51024528194E+03  0.62381315203E+03  0.46999998093E+01 0. -1.
       -5    1    3    3    0  502 -0.35857322061E+03 -0.13991296030E+02 -0.26228711826E+04  0.26473091700E+04  0.46999998093E+01 0.  1.
</event>
<event>
 5   0  0.9508784E-07  0.2499902E+04  0.7818609E-02  0.8403021E-01
       -2   -1    0    0    0  501  0.00000000000E+00  0.00000000000E+00  0.15450298495E+04  0.15450298495E+04  0.25500000920E-02 0.  1.
        2   -1    0    0  501    0  0.00000000000E+00  0.00000000000E+00 -0.10112276998E+04  0.10112276999E+04  0.25500000920E-02 0. -1.
    10030    2    1    2    0    0  0.00000000000E+00  0.00000000000E+00  0.53380214963E+03  0.25562575493E+04  0.24999015828E+04 0.  0.
        2    1    3    3  502    0 -0.10646186006E+04 -0.32351709500E+03  0.84921312452E+03  0.13997281902E+04  0.25500000920E-02 0.  1.
       -2    1    3    3    0  502  0.10646186006E+04  0.32351709500E+03 -0.31541097490E+03  0.11565293592E+04  0.25500000920E-02 0. -1.
</event>
<event>
 5   0  0.3972587E-07  0.2500390E+04  0.7818609E-02  0.8402847E-01
       -1   -1    0    0    0  501  0.00000000000E+00  0.00000000000E+00  0.66786838167E+03  0.66786838169E+03  0.50400001928E-02 0.  1.
        1   -1    0    0  501    0  0.00000000000E+00  0.00000000000E+00 -0.23402631087E+04  0.23402631087E+04  0.50400001928E-02 0. -1.
    10030    2    1    2    0    0  0.00000000000E+00  0.00000000000E+00 -0.16723947270E+04  0.30081314904E+04  0.25003901577E+04 0.  0.
        3    1    3    3  502    0  0.11699167483E+04 -0.43799179388E+03 -0.89569394243E+03  0.15371433434E+04  0.10100000352E+00 0.  1.
       -3    1    3    3    0  502 -0.11699167483E+04  0.43799179388E+03 -0.77670078459E+03  0.14709881470E+04  0.10100000352E+00 0. -1.
</event>
<event>
 5   0  0.8997210E-07  0.2486522E+04  0.7818609E-02  0.8407803E-01
        2   -1    0    0  501    0  0.00000000000E+00  0.00000000000E+00  0.13465555300E+04  0.13465555300E+04  0.25500000920E-02 0.  1.
       -2   -1    0    0    0  501  0.00000000000E+00  0.00000000000E+00 -0.11478901519E+04  0.11478901519E+04  0.25500000920E-02 0. -1.
    10030    2    1    2    0    0  0.00000000000E+00  0.00000000000E+00  0.19866537809E+03  0.24944456819E+04  0.24865219338E+04 0.  0.
        1    1    3    3  502    0 -0.96501227231E+03  0.25881198352E+03 -0.64293428230E+03  0.11881064009E+04  0.50400001928E-02 0. -1.
       -1    1    3    3    0  502  0.96501227231E+03 -0.25881198352E+03  0.84159966039E+03  0.13063392809E+04  0.50400001928E-02 0.  1.
</event>
<event>
 5   0  0.9261602E-07  0.2499267E+04  0.7818609E-02  0.8403247E-01
       -2   -1    0    0    0  501  0.00000000000E+00  0.00000000000E+00  0.12034806837E+04  0.12034806837E+04  0.25500000920E-02 0.  1.
        2   -1    0    0  501    0  0.00000000000E+00  0.00000000000E+00 -0.12975560839E+04  0.12975560839E+04  0.25500000920E-02 0. -1.
    10030    2    1    2    0    0  0.00000000000E+00  0.00000000000E+00 -0.94075400208E+02  0.25010367676E+04  0.24992668388E+04 0.  0.
        4    1    3    3  502    0 -0.20396655284E+03  0.11628551724E+04  0.36282232257E+03  0.12351016789E+04  0.12699999809E+01 0.  1.
       -4    1    3    3    0  502  0.20396655284E+03 -0.11628551724E+04 -0.45689772278E+03  0.12659350886E+04  0.12699999809E+01 0. -1.
</event>
<event>
 5   0  0.3972587E-07  0.2494785E+04  0.7818609E-02  0.8404846E-01
       -1   -1    0    0    0  501  0.00000000000E+00  0.00000000000E+00  0.14395152350E+04  0.14395152350E+04  0.50400001928E-02 0. -1.
        1   -1    0    0  501    0  0.00000000000E+00  0.00000000000E+00 -0.10809113004E+04  0.10809113004E+04  0.50400001928E-02 0.  1.
    10030    2    1    2    0    0  0.00000000000E+00  0.00000000000E+00  0.35860393467E+03  0.25204265354E+04  0.24947851888E+04 0.  0.
        3    1    3    3  502    0  0.10078990378E+04 -0.44569451823E+03  0.76967456812E+03  0.13442109302E+04  0.10100000352E+00 0. -1.
       -3    1    3    3    0  502 -0.10078990378E+04  0.44569451823E+03 -0.41107063345E+03  0.11762156052E+04  0.10100000352E+00 0.  1.
</event>
<event>
 5   0  0.9768582E-07  0.2500283E+04  0.7818609E-02  0.8402885E-01
        2   -1    0    0  501    0  0.00000000000E+00  0.00000000000E+00  0.14260750581E+04  0.14260750581E+04  0.25500000920E-02 0. -1.
       -2   -1    0    0    0  501  0.00000000000E+00  0.00000000000E+00 -0.10959124466E+04  0.10959124466E+04  0.25500000920E-02 0.  1.
    10030    2    1    2    0    0  0.00000000000E+00  0.00000000000E+00  0.33016261150E+03  0.25219875047E+04  0.25002827088E+04 0.  0.
        3    1    3    3  502    0  0.69182043848E+03 -0.57173576555E+03 -0.71273546614E+03  0.11460755471E+04  0.10100000352E+00 0.  1.
       -3    1    3    3    0  502 -0.69182043848E+03  0.57173576555E+03  0.10428980776E+04  0.13759119577E+04  0.10100000352E+00 0. -1.
</event>
<event>
 5   0  0.8997210E-07  0.2499716E+04  0.7818609E-02  0.8403087E-01
        2   -1    0    0  501    0  0.00000000000E+00  0.00000000000E+00  0.15890607420E+04  0.15890607420E+04  0.25500000920E-02 0. -1.
       -2   -1    0    0    0  501  0.00000000000E+00  0.00000000000E+00 -0.98306156726E+03  0.98306156726E+03  0.25500000920E-02 0.  1.
    10030    2    1    2    0    0  0.00000000000E+00  0.00000000000E+00  0.60599917471E+03  0.25721223092E+04  0.24997156186E+04 0.  0.
        1    1    3    3  502    0 -0.17782363735E+03 -0.95809629299E+03  0.11083420024E+04  0.14758020690E+04  0.50400001928E-02 0. -1.
       -1    1    3    3    0  502  0.17782363735E+03  0.95809629299E+03 -0.50234282764E+03  0.10963202402E+04  0.50400001928E-02 0.  1.
</event>
<event>
 5   0  0.3873231E-07  0.2500557E+04  0.7818609E-02  0.8402787E-01
       -1   -1    0    0    0  501  0.00000000000E+00  0.00000000000E+00  0.11214896757E+04  0.11214896757E+04  0.50400001928E-02 0.  1.
        1   -1    0    0  501    0  0.00000000000E+00  0.00000000000E+00 -0.13938567063E+04  0.13938567063E+04  0.50400001928E-02 0. -1.
    10030    2    1    2    0    0  0.00000000000E+00  0.00000000000E+00 -0.27236703062E+03  0.25153463820E+04  0.25005566625E+04 0.  0.
        2    1    3    3  502    0 -0.66272734353E+02  0.32149846462E+03 -0.13497361999E+04  0.13890792445E+04  0.25500000920E-02 0. -1.
       -2    1    3    3    0  502  0.66272734353E+02 -0.32149846462E+03  0.10773691693E+04  0.11262671375E+04  0.25500000920E-02 0.  1.
</event>
<event>
 5   0  0.3837524E-07  0.2497565E+04  0.7818609E-02  0.8403854E-01
       -1   -1    0    0    0  501  0.00000000000E+00  0.00000000000E+00  0.82837042437E+03  0.82837042438E+03  0.50400001928E-02 0. -1.
        1   -1    0    0  501    0  0.00000000000E+00  0.00000000000E+00 -0.18825607222E+04  0.18825607222E+04  0.50400001928E-02 0.  1.
    10030    2    1    2    0    0  0.00000000000E+00  0.00000000000E+00 -0.10541902978E+04  0.27109311466E+04  0.24975649136E+04 0.  0.
        5    1    3    3  502    0 -0.59091040827E+03  0.88015935523E+03 -0.12434622529E+04  0.16340367394E+04  0.46999998093E+01 0.  1.
       -5    1    3    3    0  502  0.59091040827E+03 -0.88015935523E+03  0.18927195513E+03  0.10768944072E+04  0.46999998093E+01 0. -1.
</event>
<event>
 5   0  0.3991066E-07  0.2499692E+04  0.7818609E-02  0.8403095E-01
       -1   -1    0    0    0  501  0.00000000000E+00  0.00000000000E+00  0.14665817120E+04  0.14665817120E+04  0.50400001928E-02 0. -1.
        1   -1    0    0  501    0  0.00000000000E+00  0.00000000000E+00 -0.10651404090E+04  0.10651404091E+04  0.50400001928E-02 0.  1.
    10030    2    1    2    0    0  0.00000000000E+00  0.00000000000E+00  0.40144130295E+03  0.25317221211E+04  0.24996923368E+04 0.  0.
        1    1    3    3  502    0  0.57004401162E+03  0.35172855211E+03  0.12694439687E+04  0.14353226604E+04  0.50400001928E-02 0. -1.
       -1    1    3    3    0  502 -0.57004401162E+03 -0.35172855211E+03 -0.86800266579E+03  0.10963994607E+04  0.50400001928E-02 0.  1.
</event>
<event>
 5   0  0.9251138E-07  0.2499708E+04  0.7818609E-02  0.8403089E-01
        2   -1    0    0  501    0  0.00000000000E+00  0.00000000000E+00  0.74556494166E+03  0.74556494166E+03  0.25500000920E-02 0. -1.
       -2   -1    0    0    0  501  0.00000000000E+00  0.00000000000E+00 -0.20952371214E+04  0.20952371214E+04  0.25500000920E-02 0.  1.
    10030    2    1    2    0    0  0.00000000000E+00  0.00000000000E+00 -0.13496721798E+04  0.28408020631E+04  0.24997082567E+04 0.  0.
        5    1    3    3  502    0 -0.67831461871E+03 -0.10007818673E+04 -0.10350007331E+04  0.15915161562E+04  0.46999998093E+01 0.  1.
       -5    1    3    3    0  502  0.67831461871E+03  0.10007818673E+04 -0.31467144665E+03  0.12492859069E+04  0.46999998093E+01 0. -1.
</event>
<event>
 5   0  0.9768582E-07  0.2499025E+04  0.7818609E-02  0.8403333E-01
       -2   -1    0    0    0  501  0.00000000000E+00  0.00000000000E+00  0.83708191150E+03  0.83708191150E+03  0.25500000920E-02 0. -1.
        2   -1    0    0  501    0  0.00000000000E+00  0.00000000000E+00 -0.18651478668E+04  0.18651478668E+04  0.25500000920E-02 0.  1.
    10030    2    1    2    0    0  0.00000000000E+00  0.00000000000E+00 -0.10280659552E+04  0.27022297783E+04  0.24990250431E+04 0.  0.
        3    1    3    3  502    0 -0.57623526299E+03 -0.38064611861E+03 -0.16400241986E+04  0.17794993476E+04  0.10100000352E+00 0.  1.
       -3    1    3    3    0  502  0.57623526299E+03  0.38064611861E+03  0.61195824333E+03  0.92273043068E+03  0.10100000352E+00 0. -1.
</event>
<event>
 5   0  0.9261602E-07  0.2500934E+04  0.7818609E-02  0.8402653E-01
        2   -1    0    0  501    0  0.00000000000E+00  0.00000000000E+00  0.16387107019E+04  0.16387107019E+04  0.25500000920E-02 0.  1.
       -2   -1    0    0    0  501  0.00000000000E+00  0.00000000000E+00 -0.95420608981E+03  0.95420608982E+03  0.25500000920E-02 0. -1.
    10030    2    1    2    0    0  0.00000000000E+00  0.00000000000E+00  0.68450461212E+03  0.25929167918E+04  0.25009340105E+04 0.  0.
        4    1    3    3  502    0 -0.97724972579E+03 -0.63473728535E+03 -0.12803620004E+03  0.11723068410E+04  0.12699999809E+01 0. -1.
       -4    1    3    3    0  502  0.97724972579E+03  0.63473728535E+03  0.81254081216E+03  0.14206099508E+04  0.12699999809E+01 0.  1.
</event>
<event>
 5   0  0.9768582E-07  0.2498933E+04  0.7818609E-02  0.8403366E-01
        2   -1    0    0  501    0  0.00000000000E+00  0.00000000000E+00  0.84774074153E+03  0.84774074153E+03  0.25500000920E-02 0. -1.
       -2   -1    0    0    0  501  0.00000000000E+00  0.00000000000E+00 -0.18415611980E+04  0.18415611980E+04  0.25500000920E-02 0.  1.
    10030    2    1    2    0    0  0.00000000000E+00  0.00000000000E+00 -0.99382045644E+03  0.26893019395E+04  0.24989329367E+04 0.  0.
        3    1    3    3  502    0 -0.12129913444E+03 -0.47916087380E+03  0.73805408449E+03  0.88827499392E+03  0.10100000352E+00 0. -1.
       -3    1    3    3    0  502  0.12129913444E+03  0.47916087380E+03 -0.17318745409E+04  0.18010269456E+04  0.10100000352E+00 0.  1.
</event>
<event>
 5   0  0.3837524E-07  0.2498778E+04  0.7818609E-02  0.8403421E-01
        1   -1    0    0  501    0  0.00000000000E+00  0.00000000000E+00  0.18940013647E+04  0.18940013647E+04  0.50400001928E-02 0.  1.
       -1   -1    0    0    0  501  0.00000000000E+00  0.00000000000E+00 -0.82416665188E+03  0.82416665189E+03  0.50400001928E-02 0. -1.
    10030    2    1    2    0    0  0.00000000000E+00  0.00000000000E+00  0.10698347128E+04  0.27181680166E+04  0.24987779121E+04 0.  0.
        5    1    3    3  502    0  0.11492621602E+04  0.12806812000E+03  0.10494654877E+04  0.15616032966E+04  0.46999998093E+01 0.  1.
       -5    1    3    3    0  502 -0.11492621602E+04 -0.12806812000E+03  0.20369225166E+02  0.11565647200E+04  0.46999998093E+01 0. -1.
</event>
<event>
 5   0  0.3805418E-07  0.2501151E+04  0.7818609E-02  0.8402575E-01
        1   -1    0    0  501    0  0.00000000000E+00  0.00000000000E+00  0.18015055503E+04  0.18015055503E+04  0.50400001928E-02 0.  1.
       -1   -1    0    0    0  501  0.00000000000E+00  0.00000000000E+00 -0.86812921472E+03  0.86812921473E+03  0.50400001928E-02 0. -1.
    10030    2    1    2    0    0  0.00000000000E+00  0.00000000000E+00  0.93337633558E+03  0.26696347650E+04  0.25011514138E+04 0.  0.
        4    1    3    3  502    0  0.33582887394E+03 -0.12009028776E+04  0.56788645411E+03  0.13701990336E+04  0.12699999809E+01 0. -1.
       -4    1    3    3    0  502 -0.33582887394E+03  0.12009028776E+04  0.36548988147E+03  0.12994357315E+04  0.12699999809E+01 0.  1.
</event>
<event>
 5   0  0.3837524E-07  0.2500673E+04  0.7818609E-02  0.8402746E-01
        1   -1    0    0  501    0  0.00000000000E+00  0.00000000000E+00  0.17830357852E+04  0.17830357852E+04  0.50400001928E-02 0.  1.
       -1   -1    0    0    0  501  0.00000000000E+00  0.00000000000E+00 -0.87678602809E+03  0.87678602810E+03  0.50400001928E-02 0. -1.
    10030    2    1    2    0    0  0.00000000000E+00  0.00000000000E+00  0.90624975715E+03  0.26598218133E+04  0.25006726008E+04 0.  0.
        5    1    3    3  502    0  0.17261683890E+03 -0.78630532157E+03 -0.56444598034E+03  0.98320597360E+03  0.46999998093E+01 0. -1.
       -5    1    3    3    0  502 -0.17261683890E+03  0.78630532157E+03  0.14706957375E+04  0.16766158397E+04  0.46999998093E+01 0.  1.
</event>
<event>
 5   0  0.3805418E-07  0.2502345E+04  0.7818609E-02  0.8402151E-01
       -1   -1    0    0    0  501  0.00000000000E+00  0.00000000000E+00  0.79132244212E+03  0.79132244213E+03  0.50400001928E-02 0. -1.
        1   -1    0    0  501    0  0.00000000000E+00  0.00000000000E+00 -0.19782483428E+04  0.19782483428E+04  0.50400001928E-02 0.  1.
    10030    2    1    2    0    0  0.00000000000E+00  0.00000000000E+00 -0.11869259007E+04  0.27695707849E+04  0.25023447482E+04 0.  0.
        4    1    3    3  502    0 -0.76814066560E+03 -0.16899615820E+03  0.48350193065E+03  0.92324184994E+03  0.12699999809E+01 0. -1.
       -4    1    3    3    0  502  0.76814066560E+03  0.16899615820E+03 -0.16704278313E+04  0.18463289350E+04  0.12699999809E+01 0.  1.
</event>
<event>
 5   0  0.9768582E-07  0.2498993E+04  0.7818609E-02  0.8403344E-01
        2   -1    0    0  501    0  0.00000000000E+00  0.00000000000E+00  0.19888654274E+04  0.19888654274E+04  0.25500000920E-02 0.  1.
       -2   -1    0    0    0  501  0.00000000000E+00  0.00000000000E+00 -0.78499121620E+03  0.78499121620E+03  0.25500000920E-02 0. -1.
    10030    2    1    2    0    0  0.00000000000E+00  0.00000000000E+00  0.12038742112E+04  0.27738566436E+04  0.24989933099E+04 0.  0.
        3    1    3    3  502    0 -0.10953140749E+04  0.45225472452E+03  0.16213094693E+03  0.11960492100E+04  0.10100000352E+00 0. -1.
       -3    1    3    3    0  502  0.10953140749E+04 -0.45225472452E+03  0.10417432643E+04  0.15778074336E+04  0.10100000352E+00 0.  1.
</event>
<event>
 5   0  0.3972587E-07  0.2500080E+04  0.7818609E-02  0.8402957E-01
        1   -1    0    0  501    0  0.00000000000E+00  0.00000000000E+00  0.11146428903E+04  0.11146428903E+04  0.50400001928E-02 0.  1.
       -1   -1    0    0    0  501  0.00000000000E+00  0.00000000000E+00 -0.14018835963E+04  0.14018835963E+04  0.50400001928E-02 0. -1.
    10030    2    1    2    0    0  0.00000000000E+00  0.00000000000E+00 -0.28724070601E+03  0.25165264867E+04  0.25000796657E+04 0.  0.
        3    1    3    3  502    0  0.80091347229E+03  0.67537086195E+03 -0.83002379027E+03  0.13366105244E+04  0.10100000352E+00 0. -1.
       -3    1    3    3    0  502 -0.80091347229E+03 -0.67537086195E+03  0.54278308426E+03  0.11799159623E+04  0.10100000352E+00 0.  1.
</event>
<event>
 5   0  0.9251138E-07  0.2501124E+04  0.7818609E-02  0.8402585E-01
        2   -1    0    0  501    0  0.00000000000E+00  0.00000000000E+00  0.10327190023E+04  0.10327190024E+04  0.25500000920E-02 0. -1.
       -2   -1    0    0    0  501  0.00000000000E+00  0.00000000000E+00 -0.15143568616E+04  0.15143568616E+04  0.25500000920E-02 0.  1.
    10030    2    1    2    0    0  0.00000000000E+00  0.00000000000E+00 -0.48163785925E+03  0.25470758640E+04  0.25011238333E+04 0.  0.
        5    1    3    3  502    0 -0.31578029828E+03 -0.88132074482E+02 -0.14698045627E+04  0.15059322700E+04  0.46999998093E+01 0.  1.
       -5    1    3    3    0  502  0.31578029828E+03  0.88132074482E+02  0.98816670346E+03  0.10411435939E+04  0.46999998093E+01 0. -1.
</event>
<event>
 5   0  0.9768582E-07  0.2499210E+04  0.7818609E-02  0.8403267E-01
        2   -1    0    0  501    0  0.00000000000E+00  0.00000000000E+00  0.16890094267E+04  0.16890094267E+04  0.25500000920E-02 0. -1.
       -2   -1    0    0    0  501  0.00000000000E+00  0.00000000000E+00 -0.92451359306E+03  0.92451359306E+03  0.25500000920E-02 0.  1.
    10030    2    1    2    0    0  0.00000000000E+00  0.00000000000E+00  0.76449583366E+03  0.26135230198E+04  0.24992096141E+04 0.  0.
        3    1    3    3  502    0 -0.82194154621E+03 -0.74000381157E+03 -0.22600835440E+03  0.11288371596E+04  0.10100000352E+00 0.  1.
       -3    1    3    3    0  502  0.82194154621E+03  0.74000381157E+03  0.99050418806E+03  0.14846858601E+04  0.10100000352E+00 0. -1.
</event>
<event>
 5   0  0.3972587E-07  0.2499841E+04  0.7818609E-02  0.8403042E-01
       -1   -1    0    0    0  501  0.00000000000E+00  0.00000000000E+00  0.13054735046E+04  0.13054735046E+04  0.50400001928E-02 0. -1.
        1   -1    0    0  501    0  0.00000000000E+00  0.00000000000E+00 -0.11967317527E+04  0.11967317527E+04  0.50400001928E-02 0.  1.
    10030    2    1    2    0    0  0.00000000000E+00  0.00000000000E+00  0.10874175190E+03  0.25022052574E+04  0.24998412712E+04 0.  0.
        3    1    3    3  502    0  0.12256428735E+04 -0.18232585643E+03 -0.10966947091E+03  0.12439737033E+04  0.10100000352E+00 0.  1.
       -3    1    3    3    0  502 -0.12256428735E+04  0.18232585643E+03  0.21841122281E+03  0.12582315541E+04  0.10100000352E+00 0. -1.
</event>
<event>
 5   0  0.9261602E-07  0.2500526E+04  0.7818609E-02  0.8402798E-01
        2   -1    0    0  501    0  0.00000000000E+00  0.00000000000E+00  0.16563472249E+04  0.16563472249E+04  0.25500000920E-02 0. -1.
       -2   -1    0    0    0  501  0.00000000000E+00  0.00000000000E+00 -0.94373770924E+03  0.94373770925E+03  0.25500000920E-02 0.  1.
    10030    2    1    2    0    0  0.00000000000E+00  0.00000000000E+00  0.71260951565E+03  0.26000849341E+04  0.25005258133E+04 0.  0.
        4    1    3    3  502    0  0.23440320853E+03 -0.10356558661E+04  0.10426047263E+04  0.14881378180E+04  0.12699999809E+01 0. -1.
       -4    1    3    3    0  502 -0.23440320853E+03  0.10356558661E+04 -0.32999521065E+03  0.11119471161E+04  0.12699999809E+01 0.  1.
</event>
<event>
 5   0  0.9251138E-07  0.2497970E+04  0.7818609E-02  0.8403709E-01
       -2   -1    0    0    0  501  0.00000000000E+00  0.00000000000E+00  0.11943272838E+04  0.11943272838E+04  0.25500000920E-02 0. -1.
        2   -1    0    0  501    0  0.00000000000E+00  0.00000000000E+00 -0.13061438540E+04  0.13061438540E+04  0.25500000920E-02 0.  1.
    10030    2    1    2    0    0  0.00000000000E+00  0.00000000000E+00 -0.11181657023E+03  0.25004711378E+04  0.24979697688E+04 0.  0.
        5    1    3    3  502    0  0.45673311341E+03 -0.53573980217E+03  0.97678309211E+03  0.12040554686E+04  0.46999998093E+01 0. -1.
       -5    1    3    3    0  502 -0.45673311341E+03  0.53573980217E+03 -0.10885996623E+04  0.12964156692E+04  0.46999998093E+01 0.  1.
</event>
<event>
 5   0  0.3873231E-07  0.2501018E+04  0.7818609E-02  0.8402623E-01
        1   -1    0    0  501    0  0.00000000000E+00  0.00000000000E+00  0.12824304402E+04  0.12824304403E+04  0.50400001928E-02 0. -1.
       -1   -1    0    0    0  501  0.00000000000E+00  0.00000000000E+00 -0.12193825395E+04  0.12193825395E+04  0.50400001928E-02 0.  1.
    10030    2    1    2    0    0  0.00000000000E+00  0.00000000000E+00  0.63047900779E+02  0.25018129797E+04  0.25010184221E+04 0.  0.
        2    1    3    3  502    0  0.34110931817E+02  0.56799259432E+03 -0.10823800606E+04  0.12228351232E+04  0.25500000920E-02 0.  1.
       -2    1    3    3    0  502 -0.34110931817E+02 -0.56799259432E+03  0.11454279614E+04  0.12789778566E+04  0.25500000920E-02 0. -1.
</event>
<event>
 5   0  0.3805418E-07  0.2500036E+04  0.7818609E-02  0.8402973E-01
       -1   -1    0    0    0  501  0.00000000000E+00  0.00000000000E+00  0.94886012357E+03  0.94886012358E+03  0.50400001928E-02 0.  1.
        1   -1    0    0  501    0  0.00000000000E+00  0.00000000000E+00 -0.16467607317E+04  0.16467607317E+04  0.50400001928E-02 0. -1.
    10030    2    1    2    0    0  0.00000000000E+00  0.00000000000E+00 -0.69790060809E+03  0.25956208552E+04  0.25000364728E+04 0.  0.
        4    1    3    3  502    0 -0.12396715398E+03  0.98920448229E+03  0.43397020013E+03  0.10873017569E+04  0.12699999809E+01 0.  1.
       -4    1    3    3    0  502  0.12396715398E+03 -0.98920448229E+03 -0.11318708082E+04  0.15083190984E+04  0.12699999809E+01 0. -1.
</event>
<event>
 5   0  0.3972587E-07  0.2500249E+04  0.7818609E-02  0.8402897E-01
        1   -1    0    0  501    0  0.00000000000E+00  0.00000000000E+00  0.95538772222E+03  0.95538772223E+03  0.50400001928E-02 0.  1.
       -1   -1    0    0    0  501  0.00000000000E+00  0.00000000000E+00 -0.16357877496E+04  0.16357877496E+04  0.50400001928E-02 0. -1.
    10030    2    1    2    0    0  0.00000000000E+00  0.00000000000E+00 -0.68040002742E+03  0.25911754719E+04  0.25002492133E+04 0.  0.
        3    1    3    3  502    0  0.27986292483E+03  0.11086221344E+04 -0.86399630856E+03  0.14331280211E+04  0.10100000352E+00 0.  1.
       -3    1    3    3    0  502 -0.27986292483E+03 -0.11086221344E+04  0.18359628114E+03  0.11580474507E+04  0.10100000352E+00 0. -1.
</event>
<event>
 5   0  0.3837524E-07  0.2504990E+04  0.7818609E-02  0.8401210E-01
       -1   -1    0    0    0  501  0.00000000000E+00  0.00000000000E+00  0.12880330425E+04  0.12880330425E+04  0.50400001928E-02 0. -1.
        1   -1    0    0  501    0  0.00000000000E+00  0.00000000000E+00 -0.12179377747E+04  0.12179377747E+04  0.50400001928E-02 0.  1.
    10030    2    1    2    0    0  0.00000000000E+00  0.00000000000E+00  0.70095267742E+02  0.25059708172E+04  0.25049902974E+04 0.  0.
        5    1    3    3  502    0 -0.91771762755E+03 -0.80470193767E+03  0.31617570086E+03  0.12608489268E+04  0.46999998093E+01 0. -1.
       -5    1    3    3    0  502  0.91771762755E+03  0.80470193767E+03 -0.24608043312E+03  0.12451218904E+04  0.46999998093E+01 0.  1.
</event>
<event>
 5   0  0.8997210E-07  0.2499281E+04  0.7818609E-02  0.8403242E-01
       -2   -1    0    0    0  501  0.00000000000E+00  0.00000000000E+00  0.71869205732E+03  0.71869205732E+03  0.25500000920E-02 0. -1.
        2   -1    0    0  501    0  0.00000000000E+00  0.00000000000E+00 -0.21728380746E+04  0.21728380746E+04  0.25500000920E-02 0.  1.
    10030    2    1    2    0    0  0.00000000000E+00  0.00000000000E+00 -0.14541460173E+04  0.28915301319E+04  0.24992810695E+04 0.  0.
        1    1    3    3  502    0  0.10855752286E+04  0.61794135499E+03 -0.68573961508E+03  0.14249785665E+04  0.50400001928E-02 0.  1.
       -1    1    3    3    0  502 -0.10855752286E+04 -0.61794135499E+03 -0.76840640218E+03  0.14665515654E+04  0.50400001928E-02 0. -1.
</event>
<event>
 5   0  0.3991066E-07  0.2499730E+04  0.7818609E-02  0.8403082E-01
        1   -1    0    0  501    0  0.00000000000E+00  0.00000000000E+00  0.11625791151E+04  0.11625791151E+04  0.50400001928E-02 0.  1.
       -1   -1    0    0    0  501  0.00000000000E+00  0.00000000000E+00 -0.13437045633E+04  0.13437045633E+04  0.50400001928E-02 0. -1.
    10030    2    1    2    0    0  0.00000000000E+00  0.00000000000E+00 -0.18112544827E+03  0.25062836784E+04  0.24997302752E+04 0.  0.
        1    1    3    3  502    0 -0.94784384190E+03 -0.75001775862E+03 -0.40956074928E+03  0.12761953590E+04  0.50400001928E-02 0. -1.
       -1    1    3    3    0  502  0.94784384190E+03  0.75001775862E+03  0.22843530100E+03  0.12300883195E+04  0.50400001928E-02 0.  1.
</event>
<event>
 5   0  0.8997210E-07  0.2500789E+04  0.7818609E-02  0.8402705E-01
       -2   -1    0    0    0  501  0.00000000000E+00  0.00000000000E+00  0.17771349285E+04  0.17771349285E+04  0.25500000920E-02 0. -1.
        2   -1    0    0  501    0  0.00000000000E+00  0.00000000000E+00 -0.87977911432E+03  0.87977911432E+03  0.25500000920E-02 0.  1.
    10030    2    1    2    0    0  0.00000000000E+00  0.00000000000E+00  0.89735581417E+03  0.26569140428E+04  0.25007888303E+04 0.  0.
        1    1    3    3  502    0 -0.90886637754E+02  0.10847706874E+04  0.11023086778E+04  0.15492166557E+04  0.50400001928E-02 0. -1.
       -1    1    3    3    0  502  0.90886637754E+02 -0.10847706874E+04 -0.20495286365E+03  0.11076973871E+04  0.50400001928E-02 0.  1.
</event>
<event>
 5   0  0.3972587E-07  0.2499772E+04  0.7818609E-02  0.8403067E-01
        1   -1    0    0  501    0  0.00000000000E+00  0.00000000000E+00  0.96976060024E+03  0.96976060025E+03  0.50400001928E-02 0. -1.
       -1   -1    0    0    0  501  0.00000000000E+00  0.00000000000E+00 -0.16109284004E+04  0.16109284004E+04  0.50400001928E-02 0.  1.
    10030    2    1    2    0    0  0.00000000000E+00  0.00000000000E+00 -0.64116780020E+03  0.25806890007E+04  0.24997719037E+04 0.  0.
        3    1    3    3  502    0 -0.87842780200E+03  0.60771580544E+03 -0.99063959798E+03  0.14568187007E+04  0.10100000352E+00 0. -1.
       -3    1    3    3    0  502  0.87842780200E+03 -0.60771580544E+03  0.34947179778E+03  0.11238703000E+04  0.10100000352E+00 0.  1.
</event>
<event>
 5   0  0.3873231E-07  0.2499899E+04  0.7818609E-02  0.8403022E-01
        1   -1    0    0  501    0  0.00000000000E+00  0.00000000000E+00  0.19307286812E+04  0.19307286812E+04  0.50400001928E-02 0. -1.
       -1   -1    0    0    0  501  0.00000000000E+00  0.00000000000E+00 -0.80921434073E+03  0.80921434075E+03  0.50400001928E-02 0.  1.
    10030    2    1    2    0    0  0.00000000000E+00  0.00000000000E+00  0.11215143404E+04  0.27399430219E+04  0.24998986675E+04 0.  0.
        2    1    3    3  502    0 -0.46593248318E+03 -0.82546601667E+03  0.14537869033E+04  0.17355067225E+04  0.25500000920E-02 0. -1.
       -2    1    3    3    0  502  0.46593248318E+03  0.82546601667E+03 -0.33227256288E+03  0.10044362994E+04  0.25500000920E-02 0.  1.
</event>
<event>
 5   0  0.3837524E-07  0.2500545E+04  0.7818609E-02  0.8402791E-01
        1   -1    0    0  501    0  0.00000000000E+00  0.00000000000E+00  0.16162540385E+04  0.16162540385E+04  0.50400001928E-02 0. -1.
       -1   -1    0    0    0  501  0.00000000000E+00  0.00000000000E+00 -0.96716318320E+03  0.96716318321E+03  0.50400001928E-02 0.  1.
    10030    2    1    2    0    0  0.00000000000E+00  0.00000000000E+00  0.64909085530E+03  0.25834172217E+04  0.25005450612E+04 0.  0.
        5    1    3    3  502    0 -0.38317546788E+03 -0.10217837341E+04 -0.30583512884E+03  0.11333237200E+04  0.46999998093E+01 0. -1.
       -5    1    3    3    0  502  0.38317546788E+03  0.10217837341E+04  0.95492598414E+03  0.14500935017E+04  0.46999998093E+01 0.  1.
</event>
<event>
 5   0  0.9251138E-07  0.2500318E+04  0.7818609E-02  0.8402872E-01
       -2   -1    0    0    0  501  0.00000000000E+00  0.00000000000E+00  0.93204546527E+03  0.93204546527E+03  0.25500000920E-02 0.  1.
        2   -1    0    0  501    0  0.00000000000E+00  0.00000000000E+00 -0.16768474171E+04  0.16768474171E+04  0.25500000920E-02 0. -1.
    10030    2    1    2    0    0  0.00000000000E+00  0.00000000000E+00 -0.74480195183E+03  0.26088928824E+04  0.25003184046E+04 0.  0.
        5    1    3    3  502    0  0.12019609018E+03 -0.29402750012E+03  0.88922653727E+03  0.94426966250E+03  0.46999998093E+01 0.  1.
       -5    1    3    3    0  502 -0.12019609018E+03  0.29402750012E+03 -0.16340284891E+04  0.16646232199E+04  0.46999998093E+01 0. -1.
</event>
<event>
 5   0  0.9251138E-07  0.2500056E+04  0.7818609E-02  0.8402966E-01
        2   -1    0    0  501    0  0.00000000000E+00  0.00000000000E+00  0.19757837922E+04  0.19757837922E+04  0.25500000920E-02 0.  1.
       -2   -1    0    0    0  501  0.00000000000E+00  0.00000000000E+00 -0.79086064360E+03  0.79086064360E+03  0.25500000920E-02 0. -1.
    10030    2    1    2    0    0  0.00000000000E+00  0.00000000000E+00  0.11849231486E+04  0.27666444358E+04  0.25000557126E+04 0.  0.
        5    1    3    3  502    0  0.38898083147E+03 -0.63962995333E+03 -0.51534117791E+03  0.90886257712E+03  0.46999998093E+01 0. -1.
       -5    1    3    3    0  502 -0.38898083147E+03  0.63962995333E+03  0.17002643265E+04  0.18577818587E+04  0.46999998093E+01 0.  1.
</event>
<event>
 5   0  0.9251138E-07  0.2500246E+04  0.7818609E-02  0.8402898E-01
       -2   -1    0    0    0  501  0.00000000000E+00  0.00000000000E+00  0.19191633310E+04  0.19191633310E+04  0.25500000920E-02 0. -1.
        2   -1    0    0  501    0  0.00000000000E+00  0.00000000000E+00 -0.81431730169E+03  0.81431730169E+03  0.25500000920E-02 0.  1.
    10030    2    1    2    0    0  0.00000000000E+00  0.00000000000E+00  0.11048460293E+04  0.27334806327E+04  0.25002463120E+04 0.  0.
        5    1    3    3  502    0 -0.62899884899E+03 -0.46184636211E+03  0.16201787864E+04  0.17983167141E+04  0.46999998093E+01 0. -1.
       -5    1    3    3    0  502  0.62899884899E+03  0.46184636211E+03 -0.51533275706E+03  0.93516391864E+03  0.46999998093E+01 0.  1.
</event>
<event>
 5   0  0.3805418E-07  0.2503290E+04  0.7818609E-02  0.8401814E-01
        1   -1    0    0  501    0  0.00000000000E+00  0.00000000000E+00  0.28238376032E+04  0.28238376032E+04  0.50400001928E-02 0.  1.
       -1   -1    0    0    0  501  0.00000000000E+00  0.00000000000E+00 -0.55478224771E+03  0.55478224773E+03  0.50400001928E-02 0. -1.
    10030    2    1    2    0    0  0.00000000000E+00  0.00000000000E+00  0.22690553555E+04  0.33786198510E+04  0.25032898136E+04 0.  0.
        4    1    3    3  502    0  0.12409580900E+04  0.12520915382E+03  0.12758187047E+04  0.17841999029E+04  0.12699999809E+01 0. -1.
       -4    1    3    3    0  502 -0.12409580900E+04 -0.12520915382E+03  0.99323665077E+03  0.15944199480E+04  0.12699999809E+01 0.  1.
</event>
<event>
 5   0  0.9508784E-07  0.2502375E+04  0.7818609E-02  0.8402140E-01
       -2   -1    0    0    0  501  0.00000000000E+00  0.00000000000E+00  0.86189051549E+03  0.86189051549E+03  0.25500000920E-02 0. -1.
        2   -1    0    0  501    0  0.00000000000E+00  0.00000000000E+00 -0.18163208646E+04  0.18163208646E+04  0.25500000920E-02 0.  1.
    10030    2    1    2    0    0  0.00000000000E+00  0.00000000000E+00 -0.95443034912E+03  0.26782113801E+04  0.25023746532E+04 0.  0.
        2    1    3    3  502    0 -0.88409824831E+03 -0.43062793844E+02 -0.14236525863E+04  0.16763862333E+04  0.25500000920E-02 0.  1.
       -2    1    3    3    0  502  0.88409824831E+03  0.43062793844E+02  0.46922223715E+03  0.10018251468E+04  0.25500000920E-02 0. -1.
</event>
<event>
 5   0  0.9768582E-07  0.2503172E+04  0.7818609E-02  0.8401856E-01
        2   -1    0    0  501    0  0.00000000000E+00  0.00000000000E+00  0.13842529222E+04  0.13842529222E+04  0.25500000920E-02 0.  1.
       -2   -1    0    0    0  501  0.00000000000E+00  0.00000000000E+00 -0.11316340839E+04  0.11316340839E+04  0.25500000920E-02 0. -1.
    10030    2    1    2    0    0  0.00000000000E+00  0.00000000000E+00  0.25261883827E+03  0.25158870061E+04  0.25031722174E+04 0.  0.
        3    1    3    3  502    0  0.92632123346E+02  0.48861384531E+03 -0.10280643130E+04  0.11420334679E+04  0.10100000352E+00 0. -1.
       -3    1    3    3    0  502 -0.92632123346E+02 -0.48861384531E+03  0.12806831512E+04  0.13738535381E+04  0.10100000352E+00 0.  1.
</event>
<event>
 5   0  0.3991066E-07  0.2503410E+04  0.7818609E-02  0.8401772E-01
        1   -1    0    0  501    0  0.00000000000E+00  0.00000000000E+00  0.11274529062E+04  0.11274529062E+04  0.50400001928E-02 0.  1.
       -1   -1    0    0    0  501  0.00000000000E+00  0.00000000000E+00 -0.13896505938E+04  0.13896505938E+04  0.50400001928E-02 0. -1.
    10030    2    1    2    0    0  0.00000000000E+00  0.00000000000E+00 -0.26219768762E+03  0.25171035000E+04  0.25034101546E+04 0.  0.
        1    1    3    3  502    0 -0.73240625215E+03 -0.98334757643E+03  0.12202053672E+03  0.12321852075E+04  0.50400001928E-02 0. -1.
       -1    1    3    3    0  502  0.73240625215E+03  0.98334757643E+03 -0.38421822434E+03  0.12849182924E+04  0.50400001928E-02 0.  1.
</event>
<event>
 5   0  0.9768582E-07  0.2499583E+04  0.7818609E-02  0.8403134E-01
        2   -1    0    0  501    0  0.00000000000E+00  0.00000000000E+00  0.13904705342E+04  0.13904705342E+04  0.25500000920E-02 0.  1.
       -2   -1    0    0    0  501  0.00000000000E+00  0.00000000000E+00 -0.11233452561E+04  0.11233452561E+04  0.25500000920E-02 0. -1.
    10030    2    1    2    0    0  0.00000000000E+00  0.00000000000E+00  0.26712527813E+03  0.25138157903E+04  0.24995827479E+04 0.  0.
        3    1    3    3  502    0  0.90056507889E+03  0.17063797386E+03  0.98801432934E+03  0.13477043832E+04  0.10100000352E+00 0.  1.
       -3    1    3    3    0  502 -0.90056507889E+03 -0.17063797386E+03 -0.72088905121E+03  0.11661114071E+04  0.10100000352E+00 0. -1.
</event>
<event>
 5   0  0.3805418E-07  0.2502030E+04  0.7818609E-02  0.8402263E-01
        1   -1    0    0  501    0  0.00000000000E+00  0.00000000000E+00  0.12357601028E+04  0.12357601028E+04  0.50400001928E-02 0. -1.
       -1   -1    0    0    0  501  0.00000000000E+00  0.00000000000E+00 -0.12664579558E+04  0.12664579558E+04  0.50400001928E-02 0.  1.
    10030    2    1    2    0    0  0.00000000000E+00  0.00000000000E+00 -0.30697852976E+02  0.25022180586E+04  0.25020297469E+04 0.  0.
        4    1    3    3  502    0  0.79621814333E+03 -0.91082766176E+03  0.30321270571E+03  0.12472008335E+04  0.12699999809E+01 0.  1.
       -4    1    3    3    0  502 -0.79621814333E+03  0.91082766176E+03 -0.33391055868E+03  0.12550172251E+04  0.12699999809E+01 0. -1.
</event>
<event>
 5   0  0.9251138E-07  0.2500674E+04  0.7818609E-02  0.8402746E-01
       -2   -1    0    0    0  501  0.00000000000E+00  0.00000000000E+00  0.12028485126E+04  0.12028485126E+04  0.25500000920E-02 0.  1.
        2   -1    0    0  501    0  0.00000000000E+00  0.00000000000E+00 -0.12996999964E+04  0.12996999964E+04  0.25500000920E-02 0. -1.
    10030    2    1    2    0    0  0.00000000000E+00  0.00000000000E+00 -0.96851483807E+02  0.25025485090E+04  0.25006736752E+04 0.  0.
        5    1    3    3  502    0  0.14885995145E+03  0.73519597936E+02  0.11917594754E+04  0.12032776710E+04  0.46999998093E+01 0.  1.
       -5    1    3    3    0  502 -0.14885995145E+03 -0.73519597936E+02 -0.12886109592E+04  0.12992708380E+04  0.46999998093E+01 0. -1.
</event>
<event>
 5   0  0.3972587E-07  0.2500840E+04  0.7818609E-02  0.8402686E-01
       -1   -1    0    0    0  501  0.00000000000E+00  0.00000000000E+00  0.10443853663E+04  0.10443853663E+04  0.50400001928E-02 0. -1.
        1   -1    0    0  501    0  0.00000000000E+00  0.00000000000E+00 -0.14971012348E+04  0.14971012348E+04  0.50400001928E-02 0.  1.
    10030    2    1    2    0    0  0.00000000000E+00  0.00000000000E+00 -0.45271586855E+03  0.25414866011E+04  0.25008403560E+04 0.  0.
        3    1    3    3  502    0  0.10827941791E+04  0.17602237163E+03 -0.83621433693E+03  0.13793772280E+04  0.10100000352E+00 0.  1.
       -3    1    3    3    0  502 -0.10827941791E+04 -0.17602237163E+03  0.38349846837E+03  0.11621093731E+04  0.10100000352E+00 0. -1.
</event>
<event>
 5   0  0.9508784E-07  0.2494703E+04  0.7818609E-02  0.8404875E-01
        2   -1    0    0  501    0  0.00000000000E+00  0.00000000000E+00  0.13375602877E+04  0.13375602877E+04  0.25500000920E-02 0.  1.
       -2   -1    0    0    0  501  0.00000000000E+00  0.00000000000E+00 -0.11632268444E+04  0.11632268444E+04  0.25500000920E-02 0. -1.
    10030    2    1    2    0    0  0.00000000000E+00  0.00000000000E+00  0.17433344327E+03  0.25007871321E+04  0.24947032149E+04 0.  0.
        2    1    3    3  502    0 -0.97153585158E+02 -0.39491073531E+03 -0.10949005683E+04  0.11679899667E+04  0.25500000920E-02 0. -1.
       -2    1    3    3    0  502  0.97153585158E+02  0.39491073531E+03  0.12692340115E+04  0.13327971654E+04  0.25500000920E-02 0.  1.
</event>
<event>
 5   0  0.3837524E-07  0.2501266E+04  0.7818609E-02  0.8402535E-01
        1   -1    0    0  501    0  0.00000000000E+00  0.00000000000E+00  0.17974379635E+04  0.17974379635E+04  0.50400001928E-02 0. -1.
       -1   -1    0    0    0  501  0.00000000000E+00  0.00000000000E+00 -0.87017368199E+03  0.87017368201E+03  0.50400001928E-02 0.  1.
    10030    2    1    2    0    0  0.00000000000E+00  0.00000000000E+00  0.92726428154E+03  0.26676116455E+04  0.25012662481E+04 0.  0.
        5    1    3    3  502    0  0.98156041741E+03  0.64465086500E+03  0.92238471103E+03  0.14932686416E+04  0.46999998093E+01 0. -1.
       -5    1    3    3    0  502 -0.98156041741E+03 -0.64465086500E+03  0.48795705157E+01  0.11743430040E+04  0.46999998093E+01 0.  1.
</event>
<event>
 5   0  0.3873231E-07  0.2500949E+04  0.7818609E-02  0.8402648E-01
        1   -1    0    0  501    0  0.00000000000E+00  0.00000000000E+00  0.12286387549E+04  0.12286387549E+04  0.50400001928E-02 0. -1.
       -1   -1    0    0    0  501  0.00000000000E+00  0.00000000000E+00 -0.12726982564E+04  0.12726982564E+04  0.50400001928E-02 0.  1.
    10030    2    1    2    0    0  0.00000000000E+00  0.00000000000E+00 -0.44059501524E+02  0.25013370114E+04  0.25009489409E+04 0.  0.
        2    1    3    3  502    0 -0.10402052293E+04  0.53943273793E+03  0.41469783121E+03  0.12429758199E+04  0.25500000920E-02 0. -1.
       -2    1    3    3    0  502  0.10402052293E+04 -0.53943273793E+03 -0.45875733274E+03  0.12583611914E+04  0.25500000920E-02 0.  1.
</event>
<event>
 5   0  0.3837524E-07  0.2498268E+04  0.7818609E-02  0.8403603E-01
        1   -1    0    0  501    0  0.00000000000E+00  0.00000000000E+00  0.12439458298E+04  0.12439458298E+04  0.50400001928E-02 0.  1.
       -1   -1    0    0    0  501  0.00000000000E+00  0.00000000000E+00 -0.12543434768E+04  0.12543434768E+04  0.50400001928E-02 0. -1.
    10030    2    1    2    0    0  0.00000000000E+00  0.00000000000E+00 -0.10397647001E+02  0.24982893066E+04  0.24982676695E+04 0.  0.
        5    1    3    3  502    0  0.57978482846E+03  0.10873096260E+04 -0.20994574799E+03  0.12499967909E+04  0.46999998093E+01 0. -1.
       -5    1    3    3    0  502 -0.57978482846E+03 -0.10873096260E+04  0.19954810099E+03  0.12482925157E+04  0.46999998093E+01 0.  1.
</event>
<event>
 5   0  0.9251138E-07  0.2500449E+04  0.7818609E-02  0.8402825E-01
       -2   -1    0    0    0  501  0.00000000000E+00  0.00000000000E+00  0.11940229135E+04  0.11940229135E+04  0.25500000920E-02 0.  1.
        2   -1    0    0  501    0  0.00000000000E+00  0.00000000000E+00 -0.13090719458E+04  0.13090719458E+04  0.25500000920E-02 0. -1.
    10030    2    1    2    0    0  0.00000000000E+00  0.00000000000E+00 -0.11504903231E+03  0.25030948593E+04  0.25004494786E+04 0.  0.
        5    1    3    3  502    0  0.47608402209E+03 -0.60044423115E+03  0.93137206888E+03  0.12060950591E+04  0.46999998093E+01 0.  1.
       -5    1    3    3    0  502 -0.47608402209E+03  0.60044423115E+03 -0.10464211012E+04  0.12969998002E+04  0.46999998093E+01 0. -1.
</event>
<event>
 5   0  0.3837524E-07  0.2499931E+04  0.7818609E-02  0.8403010E-01
       -1   -1    0    0    0  501  0.00000000000E+00  0.00000000000E+00  0.15649184040E+04  0.15649184040E+04  0.50400001928E-02 0.  1.
        1   -1    0    0  501    0  0.00000000000E+00  0.00000000000E+00 -0.99839977472E+03  0.99839977473E+03  0.50400001928E-02 0. -1.
    10030    2    1    2    0    0  0.00000000000E+00  0.00000000000E+00  0.56651862932E+03  0.25633181788E+04  0.24999313447E+04 0.  0.
        5    1    3    3  502    0 -0.73766036665E+02 -0.88227487275E+03 -0.62146315953E+03  0.10817064888E+04  0.46999998093E+01 0. -1.
       -5    1    3    3    0  502  0.73766036665E+02  0.88227487275E+03  0.11879817888E+04  0.14816116900E+04  0.46999998093E+01 0.  1.
</event>
<event>
 5   0  0.8997210E-07  0.2500151E+04  0.7818609E-02  0.8402932E-01
       -2   -1    0    0    0  501  0.00000000000E+00  0.00000000000E+00  0.12856921907E+04  0.12856921907E+04  0.25500000920E-02 0.  1.
        2   -1    0    0  501    0  0.00000000000E+00  0.00000000000E+00 -0.12154451255E+04  0.12154451255E+04  0.25500000920E-02 0. -1.
    10030    2    1    2    0    0  0.00000000000E+00  0.00000000000E+00  0.70247065202E+02  0.25011373162E+04  0.25001506403E+04 0.  0.
        1    1    3    3  502    0  0.42202863852E+03  0.11761353775E+04  0.70994453542E+02  0.12515761305E+04  0.50400001928E-02 0. -1.
       -1    1    3    3    0  502 -0.42202863852E+03 -0.11761353775E+04 -0.74738833932E+00  0.12495611856E+04  0.50400001928E-02 0.  1.
</event>
<event>
 5   0  0.9251138E-07  0.2494663E+04  0.7818609E-02  0.8404889E-01
       -2   -1    0    0    0  501  0.00000000000E+00  0.00000000000E+00  0.17904251462E+04  0.17904251462E+04  0.25500000920E-02 0.  1.
        2   -1    0    0  501    0  0.00000000000E+00  0.00000000000E+00 -0.86897583598E+03  0.86897583598E+03  0.25500000920E-02 0. -1.
    10030    2    1    2    0    0  0.00000000000E+00  0.00000000000E+00  0.92144931020E+03  0.26594009822E+04  0.24946632544E+04 0.  0.
        5    1    3    3  502    0  0.12425114448E+04 -0.10416409211E+03  0.49654805905E+03  0.13421128543E+04  0.46999998093E+01 0. -1.
       -5    1    3    3    0  502 -0.12425114448E+04  0.10416409211E+03  0.42490125114E+03  0.13172881279E+04  0.46999998093E+01 0.  1.
</event>
<event>
 5   0  0.9251138E-07  0.2500149E+04  0.7818609E-02  0.8402932E-01
       -2   -1    0    0    0  501  0.00000000000E+00  0.00000000000E+00  0.89797360321E+03  0.89797360321E+03  0.25500000920E-02 0.  1.
        2   -1    0    0  501    0  0.00000000000E+00  0.00000000000E+00 -0.17402363517E+04  0.17402363517E+04  0.25500000920E-02 0. -1.
    10030    2    1    2    0    0  0.00000000000E+00  0.00000000000E+00 -0.84226274851E+03  0.26382099549E+04  0.25001490413E+04 0.  0.
        5    1    3    3  502    0 -0.75254800039E+03  0.74735384707E+02 -0.14714608954E+04  0.16544283386E+04  0.46999998093E+01 0. -1.
       -5    1    3    3    0  502  0.75254800039E+03 -0.74735384707E+02  0.62919814693E+03  0.98378161637E+03  0.46999998093E+01 0.  1.
</event>
<event>
 5   0  0.3837524E-07  0.2501093E+04  0.7818609E-02  0.8402596E-01
        1   -1    0    0  501    0  0.00000000000E+00  0.00000000000E+00  0.17510404217E+04  0.17510404217E+04  0.50400001928E-02 0.  1.
       -1   -1    0    0    0  501  0.00000000000E+00  0.00000000000E+00 -0.89310737142E+03  0.89310737143E+03  0.50400001928E-02 0. -1.
    10030    2    1    2    0    0  0.00000000000E+00  0.00000000000E+00  0.85793305027E+03  0.26441477931E+04  0.25010934475E+04 0.  0.
        5    1    3    3  502    0  0.12477181188E+04  0.30160278981E+02  0.34616114411E+03  0.12952064600E+04  0.46999998093E+01 0. -1.
       -5    1    3    3    0  502 -0.12477181188E+04 -0.30160278981E+02  0.51177190616E+03  0.13489413331E+04  0.46999998093E+01 0.  1.
</event>
<event>
 5   0  0.3837524E-07  0.2499703E+04  0.7818609E-02  0.8403091E-01
       -1   -1    0    0    0  501  0.00000000000E+00  0.00000000000E+00  0.70523639806E+03  0.70523639808E+03  0.50400001928E-02 0.  1.
        1   -1    0    0  501    0  0.00000000000E+00  0.00000000000E+00 -0.22150423540E+04  0.22150423540E+04  0.50400001928E-02 0. -1.
    10030    2    1    2    0    0  0.00000000000E+00  0.00000000000E+00 -0.15098059559E+04  0.29202787520E+04  0.24997027754E+04 0.  0.
        5    1    3    3  502    0  0.38932276713E+03 -0.65126221158E+03 -0.19151772019E+04  0.20600098276E+04  0.46999998093E+01 0. -1.
       -5    1    3    3    0  502 -0.38932276713E+03  0.65126221158E+03  0.40537124600E+03  0.86026892442E+03  0.46999998093E+01 0.  1.
</event>
<event>
 5   0  0.9251138E-07  0.2500469E+04  0.7818609E-02  0.8402819E-01
        2   -1    0    0  501    0  0.00000000000E+00  0.00000000000E+00  0.28497914380E+04  0.28497914380E+04  0.25500000920E-02 0. -1.
       -2   -1    0    0    0  501  0.00000000000E+00  0.00000000000E+00 -0.54849141377E+03  0.54849141378E+03  0.25500000920E-02 0.  1.
    10030    2    1    2    0    0  0.00000000000E+00  0.00000000000E+00  0.23013000243E+04  0.33982828518E+04  0.25004688639E+04 0.  0.
        5    1    3    3  502    0 -0.75810417058E+03 -0.77592494813E+03  0.19953269526E+04  0.22711523939E+04  0.46999998093E+01 0. -1.
       -5    1    3    3    0  502  0.75810417058E+03  0.77592494813E+03  0.30597307167E+03  0.11271304579E+04  0.46999998093E+01 0.  1.
</event>
<event>
 5   0  0.3805418E-07  0.2501997E+04  0.7818609E-02  0.8402274E-01
       -1   -1    0    0    0  501  0.00000000000E+00  0.00000000000E+00  0.94662729320E+03  0.94662729321E+03  0.50400001928E-02 0.  1.
        1   -1    0    0  501    0  0.00000000000E+00  0.00000000000E+00 -0.16532353542E+04  0.16532353542E+04  0.50400001928E-02 0. -1.
    10030    2    1    2    0    0  0.00000000000E+00  0.00000000000E+00 -0.70660806102E+03  0.25998626474E+04  0.25019973688E+04 0.  0.
        4    1    3    3  502    0 -0.30736574218E+03  0.10333603477E+04 -0.10127030920E+04  0.14791472114E+04  0.12699999809E+01 0. -1.
       -4    1    3    3    0  502  0.30736574218E+03 -0.10333603477E+04  0.30609503098E+03  0.11207154360E+04  0.12699999809E+01 0.  1.
</event>
<event>
 5   0  0.8997210E-07  0.2494710E+04  0.7818609E-02  0.8404873E-01
       -2   -1    0    0    0  501  0.00000000000E+00  0.00000000000E+00  0.54975428076E+03  0.54975428077E+03  0.25500000920E-02 0. -1.
        2   -1    0    0  501    0  0.00000000000E+00  0.00000000000E+00 -0.28301633897E+04  0.28301633897E+04  0.25500000920E-02 0.  1.
    10030    2    1    2    0    0  0.00000000000E+00  0.00000000000E+00 -0.22804091090E+04  0.33799176705E+04  0.24947099541E+04 0.  0.
        1    1    3    3  502    0  0.51953559704E+03  0.94464751726E+03 -0.19902138714E+04  0.22634547538E+04  0.50400001928E-02 0.  1.
       -1    1    3    3    0  502 -0.51953559704E+03 -0.94464751726E+03 -0.29019523756E+03  0.11164629167E+04  0.50400001928E-02 0. -1.
</event>
<event>
 5   0  0.3837524E-07  0.2499318E+04  0.7818609E-02  0.8403228E-01
       -1   -1    0    0    0  501  0.00000000000E+00  0.00000000000E+00  0.11000710356E+04  0.11000710356E+04  0.50400001928E-02 0. -1.
        1   -1    0    0  501    0  0.00000000000E+00  0.00000000000E+00 -0.14195881357E+04  0.14195881357E+04  0.50400001928E-02 0.  1.
    10030    2    1    2    0    0  0.00000000000E+00  0.00000000000E+00 -0.31951710012E+03  0.25196591713E+04  0.24993181394E+04 0.  0.
        5    1    3    3  502    0 -0.58028562157E+03  0.11033993434E+04 -0.73010654948E+02  0.12488291153E+04  0.46999998093E+01 0.  1.
       -5    1    3    3    0  502  0.58028562157E+03 -0.11033993434E+04 -0.24650644517E+03  0.12708300559E+04  0.46999998093E+01 0. -1.
</event>
<event>
 5   0  0.3991066E-07  0.2499284E+04  0.7818609E-02  0.8403240E-01
        1   -1    0    0  501    0  0.00000000000E+00  0.00000000000E+00  0.17649924224E+04  0.17649924224E+04  0.50400001928E-02 0. -1.
       -1   -1    0    0    0  501  0.00000000000E+00  0.00000000000E+00 -0.88476623859E+03  0.88476623860E+03  0.50400001928E-02 0.  1.
    10030    2    1    2    0    0  0.00000000000E+00  0.00000000000E+00  0.88022618378E+03  0.26497586610E+04  0.24992844630E+04 0.  0.
        1    1    3    3  502    0  0.56383672005E+03  0.59861559609E+03 -0.55746962987E+03  0.99349125160E+03  0.50400001928E-02 0.  1.
       -1    1    3    3    0  502 -0.56383672005E+03 -0.59861559609E+03  0.14376958136E+04  0.16562674094E+04  0.50400001928E-02 0. -1.
</event>
<event>
 5   0  0.3991066E-07  0.2500321E+04  0.7818609E-02  0.8402871E-01
        1   -1    0    0  501    0  0.00000000000E+00  0.00000000000E+00  0.22723999587E+04  0.22723999587E+04  0.50400001928E-02 0. -1.
       -1   -1    0    0    0  501  0.00000000000E+00  0.00000000000E+00 -0.68777585847E+03  0.68777585849E+03  0.50400001928E-02 0.  1.
    10030    2    1    2    0    0  0.00000000000E+00  0.00000000000E+00  0.15846241002E+04  0.29601758172E+04  0.25003214452E+04 0.  0.
        1    1    3    3  502    0 -0.49960679054E+03  0.11242860550E+03  0.21425262379E+04  0.22028767139E+04  0.50400001928E-02 0. -1.
       -1    1    3    3    0  502  0.49960679054E+03 -0.11242860550E+03 -0.55790213772E+03  0.75729910325E+03  0.50400001928E-02 0.  1.
</event>
<event>
 5   0  0.3805418E-07  0.2499969E+04  0.7818609E-02  0.8402997E-01
       -1   -1    0    0    0  501  0.00000000000E+00  0.00000000000E+00  0.89556087827E+03  0.89556087829E+03  0.50400001928E-02 0.  1.
        1   -1    0    0  501    0  0.00000000000E+00  0.00000000000E+00 -0.17446730128E+04  0.17446730128E+04  0.50400001928E-02 0. -1.
    10030    2    1    2    0    0  0.00000000000E+00  0.00000000000E+00 -0.84911213452E+03  0.26402338911E+04  0.24999687163E+04 0.  0.
        4    1    3    3  502    0  0.49763823929E+03 -0.10549968195E+04  0.49866533587E+02  0.11675403164E+04  0.12699999809E+01 0.  1.
       -4    1    3    3    0  502 -0.49763823929E+03  0.10549968195E+04 -0.89897866811E+03  0.14726935747E+04  0.12699999809E+01 0. -1.
</event>
<event>
 5   0  0.9261602E-07  0.2499765E+04  0.7818609E-02  0.8403069E-01
       -2   -1    0    0    0  501  0.00000000000E+00  0.00000000000E+00  0.86525911693E+03  0.86525911693E+03  0.25500000920E-02 0.  1.
        2   -1    0    0  501    0  0.00000000000E+00  0.00000000000E+00 -0.18054779140E+04  0.18054779140E+04  0.25500000920E-02 0. -1.
    10030    2    1    2    0    0  0.00000000000E+00  0.00000000000E+00 -0.94021879710E+03  0.26707370310E+04  0.24997649694E+04 0.  0.
        4    1    3    3  502    0  0.49445680075E+03  0.11430539475E+04 -0.58289853491E+03  0.13750753323E+04  0.12699999809E+01 0.  1.
       -4    1    3    3    0  502 -0.49445680075E+03 -0.11430539475E+04 -0.35732026220E+03  0.12956616986E+04  0.12699999809E+01 0. -1.
</event>
<event>
 5   0  0.8997210E-07  0.2501357E+04  0.7818609E-02  0.8402502E-01
       -2   -1    0    0    0  501  0.00000000000E+00  0.00000000000E+00  0.92395180173E+03  0.92395180173E+03  0.25500000920E-02 0.  1.
        2   -1    0    0  501    0  0.00000000000E+00  0.00000000000E+00 -0.16929414510E+04  0.16929414510E+04  0.25500000920E-02 0. -1.
    10030    2    1    2    0    0  0.00000000000E+00  0.00000000000E+00 -0.76898964927E+03  0.26168932527E+04  0.25013566750E+04 0.  0.
        1    1    3    3  502    0 -0.40054364344E+03 -0.67230202994E+03  0.63615469373E+03  0.10085226939E+04  0.50400001928E-02 0.  1.
       -1    1    3    3    0  502  0.40054364344E+03  0.67230202994E+03 -0.14051443430E+04  0.16083705588E+04  0.50400001928E-02 0. -1.
</event>
<event>
 5   0  0.3805418E-07  0.2499835E+04  0.7818609E-02  0.8403044E-01
        1   -1    0    0  501    0  0.00000000000E+00  0.00000000000E+00  0.18307405286E+04  0.18307405286E+04  0.50400001928E-02 0.  1.
       -1   -1    0    0    0  501  0.00000000000E+00  0.00000000000E+00 -0.85336714247E+03  0.85336714249E+03  0.50400001928E-02 0. -1.
    10030    2    1    2    0    0  0.00000000000E+00  0.00000000000E+00  0.97737338614E+03  0.26841076711E+04  0.24998350454E+04 0.  0.
        4    1    3    3  502    0  0.16236008396E+03 -0.59201854197E+03  0.16577266845E+04  0.17677404007E+04  0.12699999809E+01 0.  1.
       -4    1    3    3    0  502 -0.16236008396E+03  0.59201854197E+03 -0.68035329832E+03  0.91636727044E+03  0.12699999809E+01 0. -1.
</event>
<event>
 5   0  0.9251138E-07  0.2497098E+04  0.7818609E-02  0.8404020E-01
        2   -1    0    0  501    0  0.00000000000E+00  0.00000000000E+00  0.14236620457E+04  0.14236620457E+04  0.25500000920E-02 0.  1.
       -2   -1    0    0    0  501  0.00000000000E+00  0.00000000000E+00 -0.10949755178E+04  0.10949755178E+04  0.25500000920E-02 0. -1.
    10030    2    1    2    0    0  0.00000000000E+00  0.00000000000E+00  0.32868652796E+03  0.25186375635E+04  0.24970983846E+04 0.  0.
        5    1    3    3  502    0  0.11730982453E+04 -0.25043701483E+03 -0.18501823907E+03  0.12137265055E+04  0.46999998093E+01 0. -1.
       -5    1    3    3    0  502 -0.11730982453E+04  0.25043701483E+03  0.51370476703E+03  0.13049110579E+04  0.46999998093E+01 0.  1.
</event>
<event>
 5   0  0.9768582E-07  0.2499441E+04  0.7818609E-02  0.8403185E-01
        2   -1    0    0  501    0  0.00000000000E+00  0.00000000000E+00  0.12981814997E+04  0.12981814997E+04  0.25500000920E-02 0.  1.
       -2   -1    0    0    0  501  0.00000000000E+00  0.00000000000E+00 -0.12030688744E+04  0.12030688744E+04  0.25500000920E-02 0. -1.
    10030    2    1    2    0    0  0.00000000000E+00  0.00000000000E+00  0.95112625265E+02  0.25012503740E+04  0.24994413420E+04 0.  0.
        3    1    3    3  502    0 -0.27371330918E+02  0.19976738325E+03  0.12817962722E+04  0.12975584345E+04  0.10100000352E+00 0.  1.
       -3    1    3    3    0  502  0.27371330918E+02 -0.19976738325E+03 -0.11866836470E+04  0.12036919396E+04  0.10100000352E+00 0. -1.
</event>
<event>
 5   0  0.9261602E-07  0.2500172E+04  0.7818609E-02  0.8402924E-01
        2   -1    0    0  501    0  0.00000000000E+00  0.00000000000E+00  0.13647577220E+04  0.13647577220E+04  0.25500000920E-02 0. -1.
       -2   -1    0    0    0  501  0.00000000000E+00  0.00000000000E+00 -0.11450490271E+04  0.11450490271E+04  0.25500000920E-02 0.  1.
    10030    2    1    2    0    0  0.00000000000E+00  0.00000000000E+00  0.21970869485E+03  0.25098067491E+04  0.25001715956E+04 0.  0.
        4    1    3    3  502    0  0.43355302142E+03  0.37842219292E+03  0.12238794015E+04  0.13524252219E+04  0.12699999809E+01 0. -1.
       -4    1    3    3    0  502 -0.43355302142E+03 -0.37842219292E+03 -0.10041707067E+04  0.11573815272E+04  0.12699999809E+01 0.  1.
</event>
<event>
 5   0  0.9508784E-07  0.2500363E+04  0.7818609E-02  0.8402856E-01
        2   -1    0    0  501    0  0.00000000000E+00  0.00000000000E+00  0.19889561293E+04  0.19889561293E+04  0.25500000920E-02 0.  1.
       -2   -1    0    0    0  501  0.00000000000E+00  0.00000000000E+00 -0.78581580408E+03  0.78581580408E+03  0.25500000920E-02 0. -1.
    10030    2    1    2    0    0  0.00000000000E+00  0.00000000000E+00  0.12031403252E+04  0.27747719333E+04  0.25003625017E+04 0.  0.
        2    1    3    3  502    0 -0.40771604939E+03 -0.60590684422E+03  0.17276212475E+04  0.18756413985E+04  0.25500000920E-02 0.  1.
       -2    1    3    3    0  502  0.40771604939E+03  0.60590684422E+03 -0.52448092234E+03  0.89913053486E+03  0.25500000920E-02 0. -1.
</event>
<event>
 5   0  0.9508784E-07  0.2498675E+04  0.7818609E-02  0.8403458E-01
       -2   -1    0    0    0  501  0.00000000000E+00  0.00000000000E+00  0.66247512091E+03  0.66247512091E+03  0.25500000920E-02 0.  1.
        2   -1    0    0  501    0  0.00000000000E+00  0.00000000000E+00 -0.23560797072E+04  0.23560797072E+04  0.25500000920E-02 0. -1.
    10030    2    1    2    0    0  0.00000000000E+00  0.00000000000E+00 -0.16936045863E+04  0.30185548281E+04  0.24986750000E+04 0.  0.
        2    1    3    3  502    0 -0.10837771863E+04 -0.20930340389E+03 -0.13983991024E+03  0.11126257704E+04  0.25500000920E-02 0.  1.
       -2    1    3    3    0  502  0.10837771863E+04  0.20930340389E+03 -0.15537646761E+04  0.19059290577E+04  0.25500000920E-02 0. -1.
</event>
<event>
 5   0  0.9508784E-07  0.2500426E+04  0.7818609E-02  0.8402834E-01
        2   -1    0    0  501    0  0.00000000000E+00  0.00000000000E+00  0.16526555413E+04  0.16526555413E+04  0.25500000920E-02 0.  1.
       -2   -1    0    0    0  501  0.00000000000E+00  0.00000000000E+00 -0.94577051075E+03  0.94577051076E+03  0.25500000920E-02 0. -1.
    10030    2    1    2    0    0  0.00000000000E+00  0.00000000000E+00  0.70688503059E+03  0.25984260521E+04  0.25004262640E+04 0.  0.
        2    1    3    3  502    0  0.63391022067E+03 -0.10737618040E+04  0.44769622872E+03  0.13248541402E+04  0.25500000920E-02 0.  1.
       -2    1    3    3    0  502 -0.63391022067E+03  0.10737618040E+04  0.25918880187E+03  0.12735719119E+04  0.25500000920E-02 0. -1.
</event>
<event>
 5   0  0.9768582E-07  0.2499905E+04  0.7818609E-02  0.8403019E-01
        2   -1    0    0  501    0  0.00000000000E+00  0.00000000000E+00  0.12333109727E+04  0.12333109727E+04  0.25500000920E-02 0. -1.
       -2   -1    0    0    0  501  0.00000000000E+00  0.00000000000E+00 -0.12668184468E+04  0.12668184468E+04  0.25500000920E-02 0.  1.
    10030    2    1    2    0    0  0.00000000000E+00  0.00000000000E+00 -0.33507474109E+02  0.25001294195E+04  0.24999048708E+04 0.  0.
        3    1    3    3  502    0 -0.11640679835E+03 -0.10633991404E+04 -0.66335090979E+03  0.12587305963E+04  0.10100000352E+00 0.  1.
       -3    1    3    3    0  502  0.11640679835E+03  0.10633991404E+04  0.62984343568E+03  0.12413988231E+04  0.10100000352E+00 0. -1.
</event>
<event>
 5   0  0.9261602E-07  0.2501229E+04  0.7818609E-02  0.8402548E-01
        2   -1    0    0  501    0  0.00000000000E+00  0.00000000000E+00  0.17126225758E+04  0.17126225758E+04  0.25500000920E-02 0.  1.
       -2   -1    0    0    0  501  0.00000000000E+00  0.00000000000E+00 -0.91324046374E+03  0.91324046374E+03  0.25500000920E-02 0. -1.
    10030    2    1    2    0    0  0.00000000000E+00  0.00000000000E+00  0.79938211201E+03  0.26258630395E+04  0.25012286863E+04 0.  0.
        4    1    3    3  502    0 -0.63993034590E+03  0.10737697908E+04  0.35846321431E+03  0.13003806751E+04  0.12699999809E+01 0.  1.
       -4    1    3    3    0  502  0.63993034590E+03 -0.10737697908E+04  0.44091889770E+03  0.13254823644E+04  0.12699999809E+01 0. -1.
</event>
<event>
 5   0  0.8997210E-07  0.2499574E+04  0.7818609E-02  0.8403137E-01
        2   -1    0    0  501    0  0.00000000000E+00  0.00000000000E+00  0.20412725211E+04  0.20412725211E+04  0.25500000920E-02 0. -1.
       -2   -1    0    0    0  501  0.00000000000E+00  0.00000000000E+00 -0.76519333900E+03  0.76519333900E+03  0.25500000920E-02 0.  1.
    10030    2    1    2    0    0  0.00000000000E+00  0.00000000000E+00  0.12760791821E+04  0.28064658601E+04  0.24995744728E+04 0.  0.
        1    1    3    3  502    0 -0.10588384701E+04 -0.42647648547E+02 -0.10588872804E+03  0.10649742487E+04  0.50400001928E-02 0.  1.
       -1    1    3    3    0  502  0.10588384701E+04  0.42647648547E+02  0.13819679101E+04  0.17414916113E+04  0.50400001928E-02 0. -1.
</event>
<event>
 5   0  0.3991066E-07  0.2497983E+04  0.7818609E-02  0.8403704E-01
        1   -1    0    0  501    0  0.00000000000E+00  0.00000000000E+00  0.12493936148E+04  0.12493936149E+04  0.50400001928E-02 0.  1.
       -1   -1    0    0    0  501  0.00000000000E+00  0.00000000000E+00 -0.12485895993E+04  0.12485895993E+04  0.50400001928E-02 0. -1.
    10030    2    1    2    0    0  0.00000000000E+00  0.00000000000E+00  0.80401558971E+00  0.24979832141E+04  0.24979830847E+04 0.  0.
        1    1    3    3  502    0  0.71589241537E+03  0.30616497575E+03  0.97699866400E+03  0.12493059402E+04  0.50400001928E-02 0.  1.
       -1    1    3    3    0  502 -0.71589241537E+03 -0.30616497575E+03 -0.97619464841E+03  0.12486772739E+04  0.50400001928E-02 0. -1.
</event>
<event>
 5   0  0.3972587E-07  0.2499997E+04  0.7818609E-02  0.8402987E-01
        1   -1    0    0  501    0  0.00000000000E+00  0.00000000000E+00  0.19048288846E+04  0.19048288846E+04  0.50400001928E-02 0.  1.
       -1   -1    0    0    0  501  0.00000000000E+00  0.00000000000E+00 -0.82028169100E+03  0.82028169102E+03  0.50400001928E-02 0. -1.
    10030    2    1    2    0    0  0.00000000000E+00  0.00000000000E+00  0.10845471936E+04  0.27251105756E+04  0.24999970069E+04 0.  0.
        3    1    3    3  502    0 -0.73153673997E+03  0.86433694695E+02  0.16431005734E+04  0.18006655130E+04  0.10100000352E+00 0.  1.
       -3    1    3    3    0  502  0.73153673997E+03 -0.86433694695E+02 -0.55855337975E+03  0.92444506259E+03  0.10100000352E+00 0. -1.
</event>
<event>
 5   0  0.3991066E-07  0.2499981E+04  0.7818609E-02  0.8402992E-01
        1   -1    0    0  501    0  0.00000000000E+00  0.00000000000E+00  0.23525244977E+04  0.23525244977E+04  0.50400001928E-02 0. -1.
       -1   -1    0    0    0  501  0.00000000000E+00  0.00000000000E+00 -0.66416995529E+03  0.66416995531E+03  0.50400001928E-02 0.  1.
    10030    2    1    2    0    0  0.00000000000E+00  0.00000000000E+00  0.16883545424E+04  0.30166944530E+04  0.24999808723E+04 0.  0.
        1    1    3    3  502    0  0.36062940476E+03  0.11815863876E+04  0.10740064275E+04  0.16369757986E+04  0.50400001928E-02 0. -1.
       -1    1    3    3    0  502 -0.36062940476E+03 -0.11815863876E+04  0.61434811493E+03  0.13797186544E+04  0.50400001928E-02 0.  1.
</event>
<event>
 5   0  0.9261602E-07  0.2500903E+04  0.7818609E-02  0.8402664E-01
        2   -1    0    0  501    0  0.00000000000E+00  0.00000000000E+00  0.13996106614E+04  0.13996106614E+04  0.25500000920E-02 0. -1.
       -2   -1    0    0    0  501  0.00000000000E+00  0.00000000000E+00 -0.11171887777E+04  0.11171887777E+04  0.25500000920E-02 0.  1.
    10030    2    1    2    0    0  0.00000000000E+00  0.00000000000E+00  0.28242188374E+03  0.25167994391E+04  0.25009032961E+04 0.  0.
        4    1    3    3  502    0  0.11120493871E+02 -0.10689879886E+04 -0.51157897273E+03  0.11851470978E+04  0.12699999809E+01 0.  1.
       -4    1    3    3    0  502 -0.11120493871E+02  0.10689879886E+04  0.79400085647E+03  0.13316523413E+04  0.12699999809E+01 0. -1.
</event>
<event>
 5   0  0.9508784E-07  0.2499296E+04  0.7818609E-02  0.8403236E-01
       -2   -1    0    0    0  501  0.00000000000E+00  0.00000000000E+00  0.18647186794E+04  0.18647186794E+04  0.25500000920E-02 0.  1.
        2   -1    0    0  501    0  0.00000000000E+00  0.00000000000E+00 -0.83745599244E+03  0.83745599244E+03  0.25500000920E-02 0. -1.
    10030    2    1    2    0    0  0.00000000000E+00  0.00000000000E+00  0.10272626869E+04  0.27021746718E+04  0.24992957666E+04 0.  0.
        2    1    3    3  502    0 -0.40344368653E+03 -0.98570388480E+03 -0.19306389235E+03  0.10824290384E+04  0.25500000920E-02 0. -1.
       -2    1    3    3    0  502  0.40344368653E+03  0.98570388480E+03  0.12203265793E+04  0.16197456334E+04  0.25500000920E-02 0.  1.
</event>
<event>
 5   0  0.9508784E-07  0.2500294E+04  0.7818609E-02  0.8402881E-01
        2   -1    0    0  501    0  0.00000000000E+00  0.00000000000E+00  0.17150416026E+04  0.17150416026E+04  0.25500000920E-02 0. -1.
       -2   -1    0    0    0  501  0.00000000000E+00  0.00000000000E+00 -0.91127086141E+03  0.91127086141E+03  0.25500000920E-02 0.  1.
    10030    2    1    2    0    0  0.00000000000E+00  0.00000000000E+00  0.80377074118E+03  0.26263124640E+04  0.25002939336E+04 0.  0.
        2    1    3    3  502    0  0.26261255533E+03 -0.94242957354E+03  0.12193977945E+04  0.15633521154E+04  0.25500000920E-02 0. -1.
       -2    1    3    3    0  502 -0.26261255533E+03  0.94242957354E+03 -0.41562705335E+03  0.10629603486E+04  0.25500000920E-02 0.  1.
</event>
<event>
 5   0  0.8997210E-07  0.2500202E+04  0.7818609E-02  0.8402914E-01
        2   -1    0    0  501    0  0.00000000000E+00  0.00000000000E+00  0.13209340443E+04  0.13209340444E+04  0.25500000920E-02 0.  1.
       -2   -1    0    0    0  501  0.00000000000E+00  0.00000000000E+00 -0.11830660622E+04  0.11830660622E+04  0.25500000920E-02 0. -1.
    10030    2    1    2    0    0  0.00000000000E+00  0.00000000000E+00  0.13786798215E+03  0.25040001065E+04  0.25002017825E+04 0.  0.
        1    1    3    3  502    0  0.56463257563E+03  0.10805066131E+04  0.34584590536E+03  0.12672465729E+04  0.50400001928E-02 0.  1.
       -1    1    3    3    0  502 -0.56463257563E+03 -0.10805066131E+04 -0.20797792321E+03  0.12367535336E+04  0.50400001928E-02 0. -1.
</event>
<event>
 5   0  0.9251138E-07  0.2499492E+04  0.7818609E-02  0.8403167E-01
       -2   -1    0    0    0  501  0.00000000000E+00  0.00000000000E+00  0.10306799015E+04  0.10306799015E+04  0.25500000920E-02 0.  1.
        2   -1    0    0  501    0  0.00000000000E+00  0.00000000000E+00 -0.15153731241E+04  0.15153731241E+04  0.25500000920E-02 0. -1.
    10030    2    1    2    0    0  0.00000000000E+00  0.00000000000E+00 -0.48469322261E+03  0.25460530257E+04  0.24994916462E+04 0.  0.
        5    1    3    3  502    0  0.30050260334E+03 -0.47946315952E+03  0.89270697403E+03  0.10569458678E+04  0.46999998093E+01 0.  1.
       -5    1    3    3    0  502 -0.30050260334E+03  0.47946315952E+03 -0.13774001966E+04  0.14891071579E+04  0.46999998093E+01 0. -1.
</event>
<event>
 5   0  0.3873231E-07  0.2499447E+04  0.7818609E-02  0.8403183E-01
       -1   -1    0    0    0  501  0.00000000000E+00  0.00000000000E+00  0.18388832300E+04  0.18388832300E+04  0.50400001928E-02 0. -1.
        1   -1    0    0  501    0  0.00000000000E+00  0.00000000000E+00 -0.84932445347E+03  0.84932445349E+03  0.50400001928E-02 0.  1.
    10030    2    1    2    0    0  0.00000000000E+00  0.00000000000E+00  0.98955877651E+03  0.26882076835E+04  0.24994467342E+04 0.  0.
        2    1    3    3  502    0  0.63527172134E+03 -0.10415469435E+04  0.20335822265E+03  0.12368285096E+04  0.25500000920E-02 0. -1.
       -2    1    3    3    0  502 -0.63527172134E+03  0.10415469435E+04  0.78620055386E+03  0.14513791739E+04  0.25500000920E-02 0.  1.
</event>
<event>
 5   0  0.3972587E-07  0.2499228E+04  0.7818609E-02  0.8403261E-01
        1   -1    0    0  501    0  0.00000000000E+00  0.00000000000E+00  0.12671013200E+04  0.12671013200E+04  0.50400001928E-02 0.  1.
       -1   -1    0    0    0  501  0.00000000000E+00  0.00000000000E+00 -0.12323677865E+04  0.12323677865E+04  0.50400001928E-02 0. -1.
    10030    2    1    2    0    0  0.00000000000E+00  0.00000000000E+00  0.34733533567E+02  0.24994691065E+04  0.24992277600E+04 0.  0.
        3    1    3    3  502    0  0.63809689008E+03  0.64856922559E+03 -0.83929353553E+03  0.12378300895E+04  0.10100000352E+00 0. -1.
       -3    1    3    3    0  502 -0.63809689008E+03 -0.64856922559E+03  0.87402706910E+03  0.12616390170E+04  0.10100000352E+00 0.  1.
</event>
<event>
 5   0  0.3991066E-07  0.2499605E+04  0.7818609E-02  0.8403126E-01
        1   -1    0    0  501    0  0.00000000000E+00  0.00000000000E+00  0.21327559177E+04  0.21327559177E+04  0.50400001928E-02 0.  1.
       -1   -1    0    0    0  501  0.00000000000E+00  0.00000000000E+00 -0.73238850448E+03  0.73238850450E+03  0.50400001928E-02 0. -1.
    10030    2    1    2    0    0  0.00000000000E+00  0.00000000000E+00  0.14003674132E+04  0.28651444222E+04  0.24996047024E+04 0.  0.
        1    1    3    3  502    0  0.65859756958E+03  0.87449872836E+03  0.13912690038E+04  0.17703469224E+04  0.50400001928E-02 0.  1.
       -1    1    3    3    0  502 -0.65859756958E+03 -0.87449872836E+03  0.90984093916E+01  0.10947974998E+04  0.50400001928E-02 0. -1.
</event>
<event>
 5   0  0.3873231E-07  0.2501288E+04  0.7818609E-02  0.8402527E-01
        1   -1    0    0  501    0  0.00000000000E+00  0.00000000000E+00  0.14498517004E+04  0.14498517004E+04  0.50400001928E-02 0.  1.
       -1   -1    0    0    0  501  0.00000000000E+00  0.00000000000E+00 -0.10788074000E+04  0.10788074000E+04  0.50400001928E-02 0. -1.
    10030    2    1    2    0    0  0.00000000000E+00  0.00000000000E+00  0.37104430044E+03  0.25286591004E+04  0.25012882627E+04 0.  0.
        2    1    3    3  502    0 -0.10331536547E+04 -0.14242431975E+03 -0.51226238638E+03  0.11619397203E+04  0.25500000920E-02 0. -1.
       -2    1    3    3    0  502  0.10331536547E+04  0.14242431975E+03  0.88330668682E+03  0.13667193801E+04  0.25500000920E-02 0.  1.
</event>
<event>
 5   0  0.9768582E-07  0.2500173E+04  0.7818609E-02  0.8402924E-01
        2   -1    0    0  501    0  0.00000000000E+00  0.00000000000E+00  0.24271222269E+04  0.24271222269E+04  0.25500000920E-02 0. -1.
       -2   -1    0    0    0  501  0.00000000000E+00  0.00000000000E+00 -0.64385582986E+03  0.64385582987E+03  0.25500000920E-02 0.  1.
    10030    2    1    2    0    0  0.00000000000E+00  0.00000000000E+00  0.17832663970E+04  0.30709780568E+04  0.25001734305E+04 0.  0.
        3    1    3    3  502    0 -0.97705385076E+03  0.38492266734E+03  0.17246357957E+04  0.20191999220E+04  0.10100000352E+00 0. -1.
       -3    1    3    3    0  502  0.97705385076E+03 -0.38492266734E+03  0.58630601343E+02  0.10517781347E+04  0.10100000352E+00 0.  1.
</event>
<event>
 5   0  0.3873231E-07  0.2499717E+04  0.7818609E-02  0.8403086E-01
        1   -1    0    0  501    0  0.00000000000E+00  0.00000000000E+00  0.15002587813E+04  0.15002587813E+04  0.50400001928E-02 0.  1.
       -1   -1    0    0    0  501  0.00000000000E+00  0.00000000000E+00 -0.10412509390E+04  0.10412509390E+04  0.50400001928E-02 0. -1.
    10030    2    1    2    0    0  0.00000000000E+00  0.00000000000E+00  0.45900784226E+03  0.25415097203E+04  0.24997166757E+04 0.  0.
        2    1    3    3  502    0  0.32537393819E+03 -0.11990733907E+04  0.36779517140E+03  0.12957308686E+04  0.25500000920E-02 0.  1.
       -2    1    3    3    0  502 -0.32537393819E+03  0.11990733907E+04  0.91212670862E+02  0.12457788516E+04  0.25500000920E-02 0. -1.
</event>
<event>
 5   0  0.9251138E-07  0.2500241E+04  0.7818609E-02  0.8402900E-01
       -2   -1    0    0    0  501  0.00000000000E+00  0.00000000000E+00  0.92141858064E+03  0.92141858064E+03  0.25500000920E-02 0.  1.
        2   -1    0    0  501    0  0.00000000000E+00  0.00000000000E+00 -0.16960813242E+04  0.16960813242E+04  0.25500000920E-02 0. -1.
    10030    2    1    2    0    0  0.00000000000E+00  0.00000000000E+00 -0.77466274360E+03  0.26174999049E+04  0.25002406656E+04 0.  0.
        5    1    3    3  502    0  0.11718300483E+04 -0.22758015872E+03  0.12930107220E+01  0.11937345403E+04  0.46999998093E+01 0.  1.
       -5    1    3    3    0  502 -0.11718300483E+04  0.22758015872E+03 -0.77595575432E+03  0.14237653646E+04  0.46999998093E+01 0. -1.
</event>
<event>
 5   0  0.8997210E-07  0.2505583E+04  0.7818609E-02  0.8400999E-01
       -2   -1    0    0    0  501  0.00000000000E+00  0.00000000000E+00  0.13340740746E+04  0.13340740746E+04  0.25500000920E-02 0.  1.
        2   -1    0    0  501    0  0.00000000000E+00  0.00000000000E+00 -0.11764613913E+04  0.11764613913E+04  0.25500000920E-02 0. -1.
    10030    2    1    2    0    0  0.00000000000E+00  0.00000000000E+00  0.15761268324E+03  0.25105354659E+04  0.25055830794E+04 0.  0.
        1    1    3    3  502    0  0.30881754744E+03 -0.52728781723E+03 -0.10170124479E+04  0.11864716765E+04  0.50400001928E-02 0. -1.
       -1    1    3    3    0  502 -0.30881754744E+03  0.52728781723E+03  0.11746251311E+04  0.13240637895E+04  0.50400001928E-02 0.  1.
</event>
<event>
 5   0  0.3837524E-07  0.2499776E+04  0.7818609E-02  0.8403065E-01
        1   -1    0    0  501    0  0.00000000000E+00  0.00000000000E+00  0.15343119490E+04  0.15343119490E+04  0.50400001928E-02 0.  1.
       -1   -1    0    0    0  501  0.00000000000E+00  0.00000000000E+00 -0.10181890228E+04  0.10181890228E+04  0.50400001928E-02 0. -1.
    10030    2    1    2    0    0  0.00000000000E+00  0.00000000000E+00  0.51612292616E+03  0.25525009718E+04  0.24997756572E+04 0.  0.
        5    1    3    3  502    0  0.36259699524E+03  0.80062246238E+03  0.11654696868E+04  0.14597309989E+04  0.46999998093E+01 0.  1.
       -5    1    3    3    0  502 -0.36259699524E+03 -0.80062246238E+03 -0.64934676064E+03  0.10927699729E+04  0.46999998093E+01 0. -1.
</event>
<event>
 5   0  0.3972587E-07  0.2501238E+04  0.7818609E-02  0.8402544E-01
        1   -1    0    0  501    0  0.00000000000E+00  0.00000000000E+00  0.24869709732E+04  0.24869709732E+04  0.50400001928E-02 0. -1.
       -1   -1    0    0    0  501  0.00000000000E+00  0.00000000000E+00 -0.62889689657E+03  0.62889689659E+03  0.50400001928E-02 0.  1.
    10030    2    1    2    0    0  0.00000000000E+00  0.00000000000E+00  0.18580740767E+04  0.31158678698E+04  0.25012383549E+04 0.  0.
        3    1    3    3  502    0 -0.49139686749E+03 -0.65871483361E+02 -0.50124251306E+03  0.70502056764E+03  0.10100000352E+00 0.  1.
       -3    1    3    3    0  502  0.49139686749E+03  0.65871483361E+02  0.23593165897E+04  0.24108473022E+04  0.10100000352E+00 0. -1.
</event>
<event>
 5   0  0.3805418E-07  0.2503333E+04  0.7818609E-02  0.8401799E-01
        1   -1    0    0  501    0  0.00000000000E+00  0.00000000000E+00  0.13085960868E+04  0.13085960868E+04  0.50400001928E-02 0.  1.
       -1   -1    0    0    0  501  0.00000000000E+00  0.00000000000E+00 -0.11972136785E+04  0.11972136785E+04  0.50400001928E-02 0. -1.
    10030    2    1    2    0    0  0.00000000000E+00  0.00000000000E+00  0.11138240835E+03  0.25058097653E+04  0.25033330859E+04 0.  0.
        4    1    3    3  502    0  0.58898423160E+03 -0.38125441313E+03 -0.98187188409E+03  0.12067855494E+04  0.12699999809E+01 0. -1.
       -4    1    3    3    0  502 -0.58898423160E+03  0.38125441313E+03  0.10932542924E+04  0.12990242159E+04  0.12699999809E+01 0.  1.
</event>
<event>
 5   0  0.3837524E-07  0.2501130E+04  0.7818609E-02  0.8402583E-01
       -1   -1    0    0    0  501  0.00000000000E+00  0.00000000000E+00  0.97805710152E+03  0.97805710153E+03  0.50400001928E-02 0.  1.
        1   -1    0    0  501    0  0.00000000000E+00  0.00000000000E+00 -0.15989993479E+04  0.15989993479E+04  0.50400001928E-02 0. -1.
    10030    2    1    2    0    0  0.00000000000E+00  0.00000000000E+00 -0.62094224642E+03  0.25770564495E+04  0.25011298788E+04 0.  0.
        5    1    3    3  502    0  0.15292035988E+03 -0.91346872174E+03  0.55532352979E+03  0.10799148368E+04  0.46999998093E+01 0.  1.
       -5    1    3    3    0  502 -0.15292035988E+03  0.91346872174E+03 -0.11762657762E+04  0.14971416127E+04  0.46999998093E+01 0. -1.
</event>
<event>
 5   0  0.9508784E-07  0.2500031E+04  0.7818609E-02  0.8402975E-01
       -2   -1    0    0    0  501  0.00000000000E+00  0.00000000000E+00  0.12011441410E+04  0.12011441410E+04  0.25500000920E-02 0. -1.
        2   -1    0    0  501    0  0.00000000000E+00  0.00000000000E+00 -0.13008750359E+04  0.13008750359E+04  0.25500000920E-02 0.  1.
    10030    2    1    2    0    0  0.00000000000E+00  0.00000000000E+00 -0.99730894883E+02  0.25020191769E+04  0.25000307418E+04 0.  0.
        2    1    3    3  502    0  0.34648591897E+03  0.10007120081E+04 -0.71451821415E+03  0.12775027568E+04  0.25500000920E-02 0.  1.
       -2    1    3    3    0  502 -0.34648591897E+03 -0.10007120081E+04  0.61478731926E+03  0.12245164201E+04  0.25500000920E-02 0. -1.
</event>
<event>
 5   0  0.3873231E-07  0.2499261E+04  0.7818609E-02  0.8403249E-01
        1   -1    0    0  501    0  0.00000000000E+00  0.00000000000E+00  0.21428340678E+04  0.21428340678E+04  0.50400001928E-02 0. -1.
       -1   -1    0    0    0  501  0.00000000000E+00  0.00000000000E+00 -0.72874348639E+03  0.72874348641E+03  0.50400001928E-02 0.  1.
    10030    2    1    2    0    0  0.00000000000E+00  0.00000000000E+00  0.14140905814E+04  0.28715775542E+04  0.24992609862E+04 0.  0.
        2    1    3    3  502    0  0.60261205124E+02 -0.10595886132E+04 -0.50941835117E+02  0.10625227116E+04  0.25500000920E-02 0.  1.
       -2    1    3    3    0  502 -0.60261205124E+02  0.10595886132E+04  0.14650324165E+04  0.18090548426E+04  0.25500000920E-02 0. -1.
</event>
<event>
 5   0  0.9251138E-07  0.2505054E+04  0.7818609E-02  0.8401187E-01
       -2   -1    0    0    0  501  0.00000000000E+00  0.00000000000E+00  0.10271189305E+04  0.10271189305E+04  0.25500000920E-02 0. -1.
        2   -1    0    0  501    0  0.00000000000E+00  0.00000000000E+00 -0.15274020297E+04  0.15274020297E+04  0.25500000920E-02 0.  1.
    10030    2    1    2    0    0  0.00000000000E+00  0.00000000000E+00 -0.50028309917E+03  0.25545209603E+04  0.25050537234E+04 0.  0.
        5    1    3    3  502    0  0.78623043572E+03 -0.63962475810E+03 -0.10005556885E+04  0.14242232637E+04  0.46999998093E+01 0.  1.
       -5    1    3    3    0  502 -0.78623043572E+03  0.63962475810E+03  0.50027258929E+03  0.11302976965E+04  0.46999998093E+01 0. -1.
</event>
<event>
 5   0  0.3991066E-07  0.2502271E+04  0.7818609E-02  0.8402177E-01
        1   -1    0    0  501    0  0.00000000000E+00  0.00000000000E+00  0.11543259221E+04  0.11543259221E+04  0.50400001928E-02 0. -1.
       -1   -1    0    0    0  501  0.00000000000E+00  0.00000000000E+00 -0.13560645108E+04  0.13560645108E+04  0.50400001928E-02 0.  1.
    10030    2    1    2    0    0  0.00000000000E+00  0.00000000000E+00 -0.20173858869E+03  0.25103904329E+04  0.25022713017E+04 0.  0.
        1    1    3    3  502    0 -0.94454895069E+03  0.19192694182E+03 -0.90116165465E+03  0.13195078625E+04  0.50400001928E-02 0.  1.
       -1    1    3    3    0  502  0.94454895069E+03 -0.19192694182E+03  0.69942306596E+03  0.11908825704E+04  0.50400001928E-02 0. -1.
</event>
<event>
 5   0  0.9768582E-07  0.2501349E+04  0.7818609E-02  0.8402505E-01
       -2   -1    0    0    0  501  0.00000000000E+00  0.00000000000E+00  0.96785761878E+03  0.96785761878E+03  0.25500000920E-02 0. -1.
        2   -1    0    0  501    0  0.00000000000E+00  0.00000000000E+00 -0.16161327899E+04  0.16161327899E+04  0.25500000920E-02 0.  1.
    10030    2    1    2    0    0  0.00000000000E+00  0.00000000000E+00 -0.64827517111E+03  0.25839904087E+04  0.25013487831E+04 0.  0.
        3    1    3    3  502    0 -0.97781882460E+03  0.71505942938E+03 -0.28196938199E+01  0.12113825169E+04  0.10100000352E+00 0. -1.
       -3    1    3    3    0  502  0.97781882460E+03 -0.71505942938E+03 -0.64545547729E+03  0.13726078918E+04  0.10100000352E+00 0.  1.
</event>
<event>
 5   0  0.9251138E-07  0.2499510E+04  0.7818609E-02  0.8403160E-01
        2   -1    0    0  501    0  0.00000000000E+00  0.00000000000E+00  0.15673919439E+04  0.15673919439E+04  0.25500000920E-02 0.  1.
       -2   -1    0    0    0  501  0.00000000000E+00  0.00000000000E+00 -0.99648818179E+03  0.99648818179E+03  0.25500000920E-02 0. -1.
    10030    2    1    2    0    0  0.00000000000E+00  0.00000000000E+00  0.57090376215E+03  0.25638801257E+04  0.24995099907E+04 0.  0.
        5    1    3    3  502    0  0.74095573062E+03 -0.46950444467E+03 -0.62765025392E+03  0.10786179813E+04  0.46999998093E+01 0. -1.
       -5    1    3    3    0  502 -0.74095573062E+03  0.46950444467E+03  0.11985540161E+04  0.14852621444E+04  0.46999998093E+01 0.  1.
</event>
<event>
 5   0  0.9251138E-07  0.2500870E+04  0.7818609E-02  0.8402676E-01
       -2   -1    0    0    0  501  0.00000000000E+00  0.00000000000E+00  0.98597012534E+03  0.98597012535E+03  0.25500000920E-02 0.  1.
        2   -1    0    0  501    0  0.00000000000E+00  0.00000000000E+00 -0.15858371271E+04  0.15858371271E+04  0.25500000920E-02 0. -1.
    10030    2    1    2    0    0  0.00000000000E+00  0.00000000000E+00 -0.59986700173E+03  0.25718072524E+04  0.25008702733E+04 0.  0.
        5    1    3    3  502    0  0.11077226576E+04 -0.44781292072E+03  0.79280915380E+02  0.11974529017E+04  0.46999998093E+01 0.  1.
       -5    1    3    3    0  502 -0.11077226576E+04  0.44781292072E+03 -0.67914791711E+03  0.13743543508E+04  0.46999998093E+01 0. -1.
</event>
<event>
 5   0  0.9768582E-07  0.2500790E+04  0.7818609E-02  0.8402704E-01
        2   -1    0    0  501    0  0.00000000000E+00  0.00000000000E+00  0.11830162899E+04  0.11830162899E+04  0.25500000920E-02 0.  1.
       -2   -1    0    0    0  501  0.00000000000E+00  0.00000000000E+00 -0.13216112372E+04  0.13216112372E+04  0.25500000920E-02 0. -1.
    10030    2    1    2    0    0  0.00000000000E+00  0.00000000000E+00 -0.13859494730E+03  0.25046275270E+04  0.25007899731E+04 0.  0.
        3    1    3    3  502    0 -0.54004519895E+03 -0.97293312779E+03  0.50187577083E+03  0.12207075766E+04  0.10100000352E+00 0.  1.
       -3    1    3    3    0  502  0.54004519895E+03  0.97293312779E+03 -0.64047071813E+03  0.12839199504E+04  0.10100000352E+00 0. -1.
</event>
<event>
 5   0  0.3991066E-07  0.2499691E+04  0.7818609E-02  0.8403095E-01
        1   -1    0    0  501    0  0.00000000000E+00  0.00000000000E+00  0.23570115175E+04  0.23570115175E+04  0.50400001928E-02 0.  1.
       -1   -1    0    0    0  501  0.00000000000E+00  0.00000000000E+00 -0.66275211485E+03  0.66275211486E+03  0.50400001928E-02 0. -1.
    10030    2    1    2    0    0  0.00000000000E+00  0.00000000000E+00  0.16942594026E+04  0.30197636324E+04  0.24996914753E+04 0.  0.
        1    1    3    3  502    0  0.72665519394E+03  0.88836662484E+03  0.14449535725E+04  0.18452950598E+04  0.50400001928E-02 0.  1.
       -1    1    3    3    0  502 -0.72665519394E+03 -0.88836662484E+03  0.24930583018E+03  0.11744685726E+04  0.50400001928E-02 0. -1.
</event>
<event>
 5   0  0.3805418E-07  0.2499276E+04  0.7818609E-02  0.8403244E-01
        1   -1    0    0  501    0  0.00000000000E+00  0.00000000000E+00  0.16676327919E+04  0.16676327919E+04  0.50400001928E-02 0.  1.
       -1   -1    0    0    0  501  0.00000000000E+00  0.00000000000E+00 -0.93641412318E+03  0.93641412319E+03  0.50400001928E-02 0. -1.
    10030    2    1    2    0    0  0.00000000000E+00  0.00000000000E+00  0.73121866871E+03  0.26040469151E+04  0.24992758140E+04 0.  0.
        4    1    3    3  502    0 -0.10085296927E+04 -0.50842165977E+03  0.92278708088E+03  0.14584794598E+04  0.12699999809E+01 0. -1.
       -4    1    3    3    0  502  0.10085296927E+04  0.50842165977E+03 -0.19156841217E+03  0.11455674553E+04  0.12699999809E+01 0.  1.
</event>
<event>
 5   0  0.3837524E-07  0.2504174E+04  0.7818609E-02  0.8401500E-01
        1   -1    0    0  501    0  0.00000000000E+00  0.00000000000E+00  0.17448375249E+04  0.17448375250E+04  0.50400001928E-02 0. -1.
       -1   -1    0    0    0  501  0.00000000000E+00  0.00000000000E+00 -0.89849193242E+03  0.89849193243E+03  0.50400001928E-02 0.  1.
    10030    2    1    2    0    0  0.00000000000E+00  0.00000000000E+00  0.84634559253E+03  0.26433294574E+04  0.25041744664E+04 0.  0.
        5    1    3    3  502    0 -0.72867289032E+03  0.99824412067E+03  0.21141381588E+03  0.12538633885E+04  0.46999998093E+01 0.  1.
       -5    1    3    3    0  502  0.72867289032E+03 -0.99824412067E+03  0.63493177665E+03  0.13894660689E+04  0.46999998093E+01 0. -1.
</event>
<event>
 5   0  0.9508784E-07  0.2500668E+04  0.7818609E-02  0.8402748E-01
        2   -1    0    0  501    0  0.00000000000E+00  0.00000000000E+00  0.21900154490E+04  0.21900154490E+04  0.25500000920E-02 0.  1.
       -2   -1    0    0    0  501  0.00000000000E+00  0.00000000000E+00 -0.71384661012E+03  0.71384661013E+03  0.25500000920E-02 0. -1.
    10030    2    1    2    0    0  0.00000000000E+00  0.00000000000E+00  0.14761688389E+04  0.29038620591E+04  0.25006679943E+04 0.  0.
        2    1    3    3  502    0  0.95303156457E+03  0.65896044364E+03  0.12837869151E+04  0.17293371194E+04  0.25500000920E-02 0.  1.
       -2    1    3    3    0  502 -0.95303156457E+03 -0.65896044364E+03  0.19238192381E+03  0.11745249397E+04  0.25500000920E-02 0. -1.
</event>
<event>
 5   0  0.3972587E-07  0.2499442E+04  0.7818609E-02  0.8403184E-01
        1   -1    0    0  501    0  0.00000000000E+00  0.00000000000E+00  0.20128817121E+04  0.20128817121E+04  0.50400001928E-02 0.  1.
       -1   -1    0    0    0  501  0.00000000000E+00  0.00000000000E+00 -0.77590404957E+03  0.77590404959E+03  0.50400001928E-02 0. -1.
    10030    2    1    2    0    0  0.00000000000E+00  0.00000000000E+00  0.12369776626E+04  0.27887857617E+04  0.24994423952E+04 0.  0.
        3    1    3    3  502    0  0.12143033366E+04  0.90295019756E+02  0.30464926988E+03  0.12551880225E+04  0.10100000352E+00 0.  1.
       -3    1    3    3    0  502 -0.12143033366E+04 -0.90295019756E+02  0.93232839269E+03  0.15335977393E+04  0.10100000352E+00 0. -1.
</event>
<event>
 5   0  0.3805418E-07  0.2502818E+04  0.7818609E-02  0.8401982E-01
        1   -1    0    0  501    0  0.00000000000E+00  0.00000000000E+00  0.13652536478E+04  0.13652536478E+04  0.50400001928E-02 0.  1.
       -1   -1    0    0    0  501  0.00000000000E+00  0.00000000000E+00 -0.11470571803E+04  0.11470571803E+04  0.50400001928E-02 0. -1.
    10030    2    1    2    0    0  0.00000000000E+00  0.00000000000E+00  0.21819646756E+03  0.25123108281E+04  0.25028176119E+04 0.  0.
        4    1    3    3  502    0  0.79868000343E+03 -0.87493033590E+03  0.51390139260E+03  0.12913129345E+04  0.12699999809E+01 0. -1.
       -4    1    3    3    0  502 -0.79868000343E+03  0.87493033590E+03 -0.29570492504E+03  0.12209978936E+04  0.12699999809E+01 0.  1.
</event>
<event>
 5   0  0.9261602E-07  0.2500013E+04  0.7818609E-02  0.8402981E-01
        2   -1    0    0  501    0  0.00000000000E+00  0.00000000000E+00  0.16448511668E+04  0.16448511668E+04  0.25500000920E-02 0. -1.
       -2   -1    0    0    0  501  0.00000000000E+00  0.00000000000E+00 -0.94994407441E+03  0.94994407442E+03  0.25500000920E-02 0.  1.
    10030    2    1    2    0    0  0.00000000000E+00  0.00000000000E+00  0.69490709242E+03  0.25947952413E+04  0.25000132954E+04 0.  0.
        4    1    3    3  502    0 -0.11172728438E+04 -0.43845400461E+03 -0.15035819520E+02  0.12003200450E+04  0.12699999809E+01 0. -1.
       -4    1    3    3    0  502  0.11172728438E+04  0.43845400461E+03  0.70994291194E+03  0.13944751962E+04  0.12699999809E+01 0.  1.
</event>
<event>
 5   0  0.3805418E-07  0.2500813E+04  0.7818609E-02  0.8402696E-01
        1   -1    0    0  501    0  0.00000000000E+00  0.00000000000E+00  0.21617187800E+04  0.21617187800E+04  0.50400001928E-02 0. -1.
       -1   -1    0    0    0  501  0.00000000000E+00  0.00000000000E+00 -0.72327457155E+03  0.72327457157E+03  0.50400001928E-02 0.  1.
    10030    2    1    2    0    0  0.00000000000E+00  0.00000000000E+00  0.14384442085E+04  0.28849933516E+04  0.25008128474E+04 0.  0.
        4    1    3    3  502    0 -0.28596271895E+03 -0.11861773425E+04  0.10345711294E+04  0.15997282267E+04  0.12699999809E+01 0. -1.
       -4    1    3    3    0  502  0.28596271895E+03  0.11861773425E+04  0.40387307911E+03  0.12852651250E+04  0.12699999809E+01 0.  1.
</event>
<event>
 5   0  0.3805418E-07  0.2499880E+04  0.7818609E-02  0.8403028E-01
        1   -1    0    0  501    0  0.00000000000E+00  0.00000000000E+00  0.15140569891E+04  0.15140569891E+04  0.50400001928E-02 0. -1.
       -1   -1    0    0    0  501  0.00000000000E+00  0.00000000000E+00 -0.10318961936E+04  0.10318961936E+04  0.50400001928E-02 0.  1.
    10030    2    1    2    0    0  0.00000000000E+00  0.00000000000E+00  0.48216079552E+03  0.25459531828E+04  0.24998797123E+04 0.  0.
        4    1    3    3  502    0  0.20006284950E+03  0.12316898705E+04  0.31496363858E+03  0.12869688370E+04  0.12699999809E+01 0. -1.
       -4    1    3    3    0  502 -0.20006284950E+03 -0.12316898705E+04  0.16719715694E+03  0.12589843458E+04  0.12699999809E+01 0.  1.
</event>
<event>
 5   0  0.3991066E-07  0.2499375E+04  0.7818609E-02  0.8403208E-01
       -1   -1    0    0    0  501  0.00000000000E+00  0.00000000000E+00  0.15459287950E+04  0.15459287950E+04  0.50400001928E-02 0.  1.
        1   -1    0    0  501    0  0.00000000000E+00  0.00000000000E+00 -0.10102142746E+04  0.10102142746E+04  0.50400001928E-02 0. -1.
    10030    2    1    2    0    0  0.00000000000E+00  0.00000000000E+00  0.53571452040E+03  0.25561430696E+04  0.24993753909E+04 0.  0.
        1    1    3    3  502    0  0.96193189654E+03  0.15720725416E+03 -0.53201411441E+03  0.11104351004E+04  0.50400001928E-02 0. -1.
       -1    1    3    3    0  502 -0.96193189654E+03 -0.15720725416E+03  0.10677286348E+04  0.14457079691E+04  0.50400001928E-02 0.  1.
</event>
<event>
 5   0  0.8997210E-07  0.2500426E+04  0.7818609E-02  0.8402834E-01
        2   -1    0    0  501    0  0.00000000000E+00  0.00000000000E+00  0.85192382783E+03  0.85192382783E+03  0.25500000920E-02 0.  1.
       -2   -1    0    0    0  501  0.00000000000E+00  0.00000000000E+00 -0.18347097946E+04  0.18347097946E+04  0.25500000920E-02 0. -1.
    10030    2    1    2    0    0  0.00000000000E+00  0.00000000000E+00 -0.98278596673E+03  0.26866336224E+04  0.25004263566E+04 0.  0.
        1    1    3    3  502    0 -0.25136960674E+02  0.31910724442E+03 -0.17899344327E+04  0.18183307107E+04  0.50400001928E-02 0. -1.
       -1    1    3    3    0  502  0.25136960674E+02 -0.31910724442E+03  0.80714846597E+03  0.86830291165E+03  0.50400001928E-02 0.  1.
</event>
<event>
 5   0  0.3972587E-07  0.2499499E+04  0.7818609E-02  0.8403164E-01
        1   -1    0    0  501    0  0.00000000000E+00  0.00000000000E+00  0.11652348266E+04  0.11652348266E+04  0.50400001928E-02 0.  1.
       -1   -1    0    0    0  501  0.00000000000E+00  0.00000000000E+00 -0.13403940052E+04  0.13403940053E+04  0.50400001928E-02 0. -1.
    10030    2    1    2    0    0  0.00000000000E+00  0.00000000000E+00 -0.17515917863E+03  0.25056288319E+04  0.24994989709E+04 0.  0.
        3    1    3    3  502    0 -0.21776254088E+03  0.72123509176E+03  0.91199829502E+03  0.11829376493E+04  0.10100000352E+00 0.  1.
       -3    1    3    3    0  502  0.21776254088E+03 -0.72123509176E+03 -0.10871574737E+04  0.13226911826E+04  0.10100000352E+00 0. -1.
</event>
<event>
 5   0  0.9508784E-07  0.2500262E+04  0.7818609E-02  0.8402892E-01
        2   -1    0    0  501    0  0.00000000000E+00  0.00000000000E+00  0.14247907055E+04  0.14247907055E+04  0.25500000920E-02 0.  1.
       -2   -1    0    0    0  501  0.00000000000E+00  0.00000000000E+00 -0.10968823636E+04  0.10968823636E+04  0.25500000920E-02 0. -1.
    10030    2    1    2    0    0  0.00000000000E+00  0.00000000000E+00  0.32790834196E+03  0.25216730691E+04  0.25002622236E+04 0.  0.
        2    1    3    3  502    0  0.66140629661E+03 -0.29691620316E+03 -0.86320234722E+03  0.11272691840E+04  0.25500000920E-02 0. -1.
       -2    1    3    3    0  502 -0.66140629661E+03  0.29691620316E+03  0.11911106892E+04  0.13944038851E+04  0.25500000920E-02 0.  1.
</event>
<event>
 5   0  0.9768582E-07  0.2500645E+04  0.7818609E-02  0.8402756E-01
        2   -1    0    0  501    0  0.00000000000E+00  0.00000000000E+00  0.17573791561E+04  0.17573791561E+04  0.25500000920E-02 0. -1.
       -2   -1    0    0    0  501  0.00000000000E+00  0.00000000000E+00 -0.88956711279E+03  0.88956711279E+03  0.25500000920E-02 0.  1.
    10030    2    1    2    0    0  0.00000000000E+00  0.00000000000E+00  0.86781204329E+03  0.26469462689E+04  0.25006452783E+04 0.  0.
        3    1    3    3  502    0 -0.75770722183E+03 -0.32634129499E+03  0.14283872759E+04  0.16495178371E+04  0.10100000352E+00 0. -1.
       -3    1    3    3    0  502  0.75770722183E+03  0.32634129499E+03 -0.56057523262E+03  0.99742843175E+03  0.10100000352E+00 0.  1.
</event>
<event>
 5   0  0.3214375E-07  0.2500995E+04  0.7818609E-02  0.8402631E-01
       -3   -1    0    0    0  501  0.00000000000E+00  0.00000000000E+00  0.13500321578E+04  0.13500321616E+04  0.10100000352E+00 0. -1.
        3   -1    0    0  501    0  0.00000000000E+00  0.00000000000E+00 -0.11583015583E+04  0.11583015627E+04  0.10100000352E+00 0.  1.
    10030    2    1    2    0    0  0.00000000000E+00  0.00000000000E+00  0.19173059953E+03  0.25083337242E+04  0.25009952918E+04 0.  0.
        5    1    3    3  502    0 -0.17395283057E+03 -0.81852869083E+03 -0.83609398988E+03  0.11829302832E+04  0.46999998093E+01 0.  1.
       -5    1    3    3    0  502  0.17395283057E+03  0.81852869083E+03  0.10278245894E+04  0.13254034411E+04  0.46999998093E+01 0. -1.
</event>
<event>
 5   0  0.3837524E-07  0.2501239E+04  0.7818609E-02  0.8402544E-01
       -1   -1    0    0    0  501  0.00000000000E+00  0.00000000000E+00  0.90978999049E+03  0.90978999050E+03  0.50400001928E-02 0.  1.
        1   -1    0    0  501    0  0.00000000000E+00  0.00000000000E+00 -0.17191316061E+04  0.17191316061E+04  0.50400001928E-02 0. -1.
    10030    2    1    2    0    0  0.00000000000E+00  0.00000000000E+00 -0.80934161558E+03  0.26289215966E+04  0.25012386752E+04 0.  0.
        5    1    3    3  502    0  0.24065226714E+03 -0.95339290018E+03  0.40753496581E+03  0.10644145687E+04  0.46999998093E+01 0.  1.
       -5    1    3    3    0  502 -0.24065226714E+03  0.95339290018E+03 -0.12168765814E+04  0.15645070278E+04  0.46999998093E+01 0. -1.
</event>
<event>
 5   0  0.9261602E-07  0.2499328E+04  0.7818609E-02  0.8403225E-01
        2   -1    0    0  501    0  0.00000000000E+00  0.00000000000E+00  0.14379936664E+04  0.14379936664E+04  0.25500000920E-02 0. -1.
       -2   -1    0    0    0  501  0.00000000000E+00  0.00000000000E+00 -0.10859989994E+04  0.10859989994E+04  0.25500000920E-02 0.  1.
    10030    2    1    2    0    0  0.00000000000E+00  0.00000000000E+00  0.35199466705E+03  0.25239926658E+04  0.24993276559E+04 0.  0.
        4    1    3    3  502    0 -0.93037618162E+03  0.49383956753E+03 -0.50308262043E+03  0.11672922058E+04  0.12699999809E+01 0.  1.
       -4    1    3    3    0  502  0.93037618162E+03 -0.49383956753E+03  0.85507728748E+03  0.13567004600E+04  0.12699999809E+01 0. -1.
</event>
<event>
 5   0  0.9261602E-07  0.2506126E+04  0.7818609E-02  0.8400806E-01
        2   -1    0    0  501    0  0.00000000000E+00  0.00000000000E+00  0.19339040560E+04  0.19339040560E+04  0.25500000920E-02 0.  1.
       -2   -1    0    0    0  501  0.00000000000E+00  0.00000000000E+00 -0.81191539057E+03  0.81191539058E+03  0.25500000920E-02 0. -1.
    10030    2    1    2    0    0  0.00000000000E+00  0.00000000000E+00  0.11219886655E+04  0.27458194466E+04  0.25061256688E+04 0.  0.
        4    1    3    3  502    0  0.76797006001E+03 -0.71062851045E+03 -0.19443868402E+03  0.10642269061E+04  0.12699999809E+01 0. -1.
       -4    1    3    3    0  502 -0.76797006001E+03  0.71062851045E+03  0.13164273495E+04  0.16815925405E+04  0.12699999809E+01 0.  1.
</event>
<event>
 5   0  0.9508784E-07  0.2500119E+04  0.7818609E-02  0.8402943E-01
       -2   -1    0    0    0  501  0.00000000000E+00  0.00000000000E+00  0.13237380147E+04  0.13237380147E+04  0.25500000920E-02 0. -1.
        2   -1    0    0  501    0  0.00000000000E+00  0.00000000000E+00 -0.11804816528E+04  0.11804816528E+04  0.25500000920E-02 0.  1.
    10030    2    1    2    0    0  0.00000000000E+00  0.00000000000E+00  0.14325636187E+03  0.25042196675E+04  0.25001187488E+04 0.  0.
        2    1    3    3  502    0 -0.10389641424E+04  0.67086108075E+03 -0.11073462345E+03  0.12416775892E+04  0.25500000920E-02 0.  1.
       -2    1    3    3    0  502  0.10389641424E+04 -0.67086108075E+03  0.25399098532E+03  0.12625420783E+04  0.25500000920E-02 0. -1.
</event>
<event>
 5   0  0.3837524E-07  0.2500814E+04  0.7818609E-02  0.8402695E-01
        1   -1    0    0  501    0  0.00000000000E+00  0.00000000000E+00  0.19622869534E+04  0.19622869534E+04  0.50400001928E-02 0.  1.
       -1   -1    0    0    0  501  0.00000000000E+00  0.00000000000E+00 -0.79678371324E+03  0.79678371325E+03  0.50400001928E-02 0. -1.
    10030    2    1    2    0    0  0.00000000000E+00  0.00000000000E+00  0.11655032402E+04  0.27590706667E+04  0.25008144955E+04 0.  0.
        5    1    3    3  502    0 -0.71079838936E+03 -0.21510721154E+03  0.16926152342E+04  0.18483706024E+04  0.46999998093E+01 0.  1.
       -5    1    3    3    0  502  0.71079838936E+03  0.21510721154E+03 -0.52711199404E+03  0.91070006426E+03  0.46999998093E+01 0. -1.
</event>
<event>
 5   0  0.9768582E-07  0.2500061E+04  0.7818609E-02  0.8402964E-01
        2   -1    0    0  501    0  0.00000000000E+00  0.00000000000E+00  0.17168640761E+04  0.17168640761E+04  0.25500000920E-02 0. -1.
       -2   -1    0    0    0  501  0.00000000000E+00  0.00000000000E+00 -0.91013428277E+03  0.91013428277E+03  0.25500000920E-02 0.  1.
    10030    2    1    2    0    0  0.00000000000E+00  0.00000000000E+00  0.80672979336E+03  0.26269983589E+04  0.25000614829E+04 0.  0.
        3    1    3    3  502    0 -0.38627404997E+02  0.86098009592E+03  0.13547635902E+04  0.16056659670E+04  0.10100000352E+00 0. -1.
       -3    1    3    3    0  502  0.38627404997E+02 -0.86098009592E+03 -0.54803379688E+03  0.10213323919E+04  0.10100000352E+00 0.  1.
</event>
<event>
 5   0  0.3214375E-07  0.2500567E+04  0.7818609E-02  0.8402784E-01
       -3   -1    0    0    0  501  0.00000000000E+00  0.00000000000E+00  0.11663155822E+04  0.11663155866E+04  0.10100000352E+00 0. -1.
        3   -1    0    0  501    0  0.00000000000E+00  0.00000000000E+00 -0.13402962319E+04  0.13402962357E+04  0.10100000352E+00 0.  1.
    10030    2    1    2    0    0  0.00000000000E+00  0.00000000000E+00 -0.17398064972E+03  0.25066118223E+04  0.25005666480E+04 0.  0.
        4    1    3    3  502    0  0.74231054595E+03 -0.10535339298E+03 -0.10899502550E+04  0.13229200487E+04  0.12699999809E+01 0.  1.
       -4    1    3    3    0  502 -0.74231054595E+03  0.10535339298E+03  0.91596960531E+03  0.11836917736E+04  0.12699999809E+01 0. -1.
</event>
<event>
 5   0  0.3972587E-07  0.2515058E+04  0.7818609E-02  0.8397641E-01
        1   -1    0    0  501    0  0.00000000000E+00  0.00000000000E+00  0.13798455848E+04  0.13798455848E+04  0.50400001928E-02 0.  1.
       -1   -1    0    0    0  501  0.00000000000E+00  0.00000000000E+00 -0.11460547721E+04  0.11460547721E+04  0.50400001928E-02 0. -1.
    10030    2    1    2    0    0  0.00000000000E+00  0.00000000000E+00  0.23379081266E+03  0.25259003569E+04  0.25150575479E+04 0.  0.
        3    1    3    3  502    0  0.61582537095E+03  0.82703459758E+03 -0.60603528863E+03  0.11960375807E+04  0.10100000352E+00 0. -1.
       -3    1    3    3    0  502 -0.61582537095E+03 -0.82703459758E+03  0.83982610129E+03  0.13298627763E+04  0.10100000352E+00 0.  1.
</event>
<event>
 5   0  0.3214375E-07  0.2498304E+04  0.7818609E-02  0.8403590E-01
        3   -1    0    0  501    0  0.00000000000E+00  0.00000000000E+00  0.80677568566E+03  0.80677569198E+03  0.10100000352E+00 0.  1.
       -3   -1    0    0    0  501  0.00000000000E+00  0.00000000000E+00 -0.19340954637E+04  0.19340954663E+04  0.10100000352E+00 0. -1.
    10030    2    1    2    0    0  0.00000000000E+00  0.00000000000E+00 -0.11273197780E+04  0.27408711583E+04  0.24983043899E+04 0.  0.
        1    1    3    3  502    0  0.11448377253E+04 -0.48696163519E+03 -0.44053034708E+03  0.13197924223E+04  0.50400001928E-02 0. -1.
       -1    1    3    3    0  502 -0.11448377253E+04  0.48696163519E+03 -0.68678943095E+03  0.14210787360E+04  0.50400001928E-02 0.  1.
</event>
<event>
 5   0  0.9261602E-07  0.2499664E+04  0.7818609E-02  0.8403105E-01
       -2   -1    0    0    0  501  0.00000000000E+00  0.00000000000E+00  0.77147474271E+03  0.77147474271E+03  0.25500000920E-02 0. -1.
        2   -1    0    0  501    0  0.00000000000E+00  0.00000000000E+00 -0.20247978964E+04  0.20247978964E+04  0.25500000920E-02 0.  1.
    10030    2    1    2    0    0  0.00000000000E+00  0.00000000000E+00 -0.12533231537E+04  0.27962726391E+04  0.24996643264E+04 0.  0.
        4    1    3    3  502    0 -0.11476772679E+04 -0.26205367415E+03 -0.15703304006E+03  0.11876431400E+04  0.12699999809E+01 0. -1.
       -4    1    3    3    0  502  0.11476772679E+04  0.26205367415E+03 -0.10962901136E+04  0.16086294991E+04  0.12699999809E+01 0.  1.
</event>
<event>
 5   0  0.3805418E-07  0.2498778E+04  0.7818609E-02  0.8403421E-01
        1   -1    0    0  501    0  0.00000000000E+00  0.00000000000E+00  0.23981144716E+04  0.23981144716E+04  0.50400001928E-02 0. -1.
       -1   -1    0    0    0  501  0.00000000000E+00  0.00000000000E+00 -0.65091666482E+03  0.65091666483E+03  0.50400001928E-02 0.  1.
    10030    2    1    2    0    0  0.00000000000E+00  0.00000000000E+00  0.17471978068E+04  0.30490311364E+04  0.24987778402E+04 0.  0.
        4    1    3    3  502    0 -0.22827474761E+03  0.49423110887E+02 -0.62404000345E+03  0.66631789942E+03  0.12699999809E+01 0.  1.
       -4    1    3    3    0  502  0.22827474761E+03 -0.49423110887E+02  0.23712378102E+04  0.23827132370E+04  0.12699999809E+01 0. -1.
</event>
<event>
 5   0  0.3972587E-07  0.2499966E+04  0.7818609E-02  0.8402998E-01
       -1   -1    0    0    0  501  0.00000000000E+00  0.00000000000E+00  0.15342888853E+04  0.15342888853E+04  0.50400001928E-02 0. -1.
        1   -1    0    0  501    0  0.00000000000E+00  0.00000000000E+00 -0.10183595889E+04  0.10183595889E+04  0.50400001928E-02 0.  1.
    10030    2    1    2    0    0  0.00000000000E+00  0.00000000000E+00  0.51592929640E+03  0.25526484741E+04  0.24999662385E+04 0.  0.
        3    1    3    3  502    0 -0.53063805488E+03 -0.26409389074E+03 -0.86574271928E+03  0.10492057923E+04  0.10100000352E+00 0.  1.
       -3    1    3    3    0  502  0.53063805488E+03  0.26409389074E+03  0.13816720157E+04  0.15034426818E+04  0.10100000352E+00 0. -1.
</event>
<event>
 5   0  0.9508784E-07  0.2499695E+04  0.7818609E-02  0.8403094E-01
        2   -1    0    0  501    0  0.00000000000E+00  0.00000000000E+00  0.13876028764E+04  0.13876028764E+04  0.25500000920E-02 0. -1.
       -2   -1    0    0    0  501  0.00000000000E+00  0.00000000000E+00 -0.11257682133E+04  0.11257682133E+04  0.25500000920E-02 0.  1.
    10030    2    1    2    0    0  0.00000000000E+00  0.00000000000E+00  0.26183466309E+03  0.25133710898E+04  0.24996953503E+04 0.  0.
        2    1    3    3  502    0 -0.10803844306E+04  0.39338012200E+03  0.62363993383E+03  0.13080157512E+04  0.25500000920E-02 0. -1.
       -2    1    3    3    0  502  0.10803844306E+04 -0.39338012200E+03 -0.36180527074E+03  0.12053553386E+04  0.25500000920E-02 0.  1.
</event>
<event>
 5   0  0.3972587E-07  0.2500295E+04  0.7818609E-02  0.8402881E-01
       -1   -1    0    0    0  501  0.00000000000E+00  0.00000000000E+00  0.11381292892E+04  0.11381292892E+04  0.50400001928E-02 0.  1.
        1   -1    0    0  501    0  0.00000000000E+00  0.00000000000E+00 -0.13731904495E+04  0.13731904495E+04  0.50400001928E-02 0. -1.
    10030    2    1    2    0    0  0.00000000000E+00  0.00000000000E+00 -0.23506116025E+03  0.25113197387E+04  0.25002945988E+04 0.  0.
        3    1    3    3  502    0 -0.64045085942E+03  0.15275027786E+03 -0.11849293629E+04  0.13555690894E+04  0.10100000352E+00 0. -1.
       -3    1    3    3    0  502  0.64045085942E+03 -0.15275027786E+03  0.94986820269E+03  0.11557506493E+04  0.10100000352E+00 0.  1.
</event>
<event>
 5   0  0.9261602E-07  0.2499664E+04  0.7818609E-02  0.8403105E-01
        2   -1    0    0  501    0  0.00000000000E+00  0.00000000000E+00  0.68137289745E+03  0.68137289746E+03  0.25500000920E-02 0.  1.
       -2   -1    0    0    0  501  0.00000000000E+00  0.00000000000E+00 -0.22925471577E+04  0.22925471577E+04  0.25500000920E-02 0. -1.
    10030    2    1    2    0    0  0.00000000000E+00  0.00000000000E+00 -0.16111742602E+04  0.29739200551E+04  0.24996635769E+04 0.  0.
        4    1    3    3  502    0  0.30247524787E+03  0.36171678727E+02 -0.22477016451E+04  0.22682513010E+04  0.12699999809E+01 0. -1.
       -4    1    3    3    0  502 -0.30247524787E+03 -0.36171678727E+02  0.63652738493E+03  0.70566875415E+03  0.12699999809E+01 0.  1.
</event>
<event>
 5   0  0.8997210E-07  0.2500590E+04  0.7818609E-02  0.8402775E-01
       -2   -1    0    0    0  501  0.00000000000E+00  0.00000000000E+00  0.13555041983E+04  0.13555041983E+04  0.25500000920E-02 0. -1.
        2   -1    0    0  501    0  0.00000000000E+00  0.00000000000E+00 -0.11532521738E+04  0.11532521738E+04  0.25500000920E-02 0.  1.
    10030    2    1    2    0    0  0.00000000000E+00  0.00000000000E+00  0.20225202445E+03  0.25087563721E+04  0.25005904609E+04 0.  0.
        1    1    3    3  502    0  0.59519606716E+03  0.23290541514E+02 -0.10017532976E+04  0.11654657768E+04  0.50400001928E-02 0.  1.
       -1    1    3    3    0  502 -0.59519606716E+03 -0.23290541514E+02  0.12040053221E+04  0.13432905953E+04  0.50400001928E-02 0. -1.
</event>
<event>
 5   0  0.8997210E-07  0.2497418E+04  0.7818609E-02  0.8403906E-01
       -2   -1    0    0    0  501  0.00000000000E+00  0.00000000000E+00  0.12579557540E+04  0.12579557540E+04  0.25500000920E-02 0. -1.
        2   -1    0    0  501    0  0.00000000000E+00  0.00000000000E+00 -0.12395304730E+04  0.12395304730E+04  0.25500000920E-02 0.  1.
    10030    2    1    2    0    0  0.00000000000E+00  0.00000000000E+00  0.18425280998E+02  0.24974862271E+04  0.24974182596E+04 0.  0.
        1    1    3    3  502    0 -0.91217678744E+03  0.55678835601E+03 -0.63671106566E+03  0.12439777916E+04  0.50400001928E-02 0.  1.
       -1    1    3    3    0  502  0.91217678744E+03 -0.55678835601E+03  0.65513634666E+03  0.12535084354E+04  0.50400001928E-02 0. -1.
</event>
<event>
 5   0  0.9768582E-07  0.2499240E+04  0.7818609E-02  0.8403256E-01
       -2   -1    0    0    0  501  0.00000000000E+00  0.00000000000E+00  0.13792893241E+04  0.13792893241E+04  0.25500000920E-02 0.  1.
        2   -1    0    0  501    0  0.00000000000E+00  0.00000000000E+00 -0.11321410118E+04  0.11321410118E+04  0.25500000920E-02 0. -1.
    10030    2    1    2    0    0  0.00000000000E+00  0.00000000000E+00  0.24714831230E+03  0.25114303359E+04  0.24992398932E+04 0.  0.
        3    1    3    3  502    0 -0.77157401153E+03 -0.96013850387E+03  0.33521388960E+03  0.12765425037E+04  0.10100000352E+00 0. -1.
       -3    1    3    3    0  502  0.77157401153E+03  0.96013850387E+03 -0.88065577307E+02  0.12348878321E+04  0.10100000352E+00 0.  1.
</event>
<event>
 5   0  0.9251138E-07  0.2501470E+04  0.7818609E-02  0.8402462E-01
       -2   -1    0    0    0  501  0.00000000000E+00  0.00000000000E+00  0.10095182388E+04  0.10095182388E+04  0.25500000920E-02 0.  1.
        2   -1    0    0  501    0  0.00000000000E+00  0.00000000000E+00 -0.15495886163E+04  0.15495886163E+04  0.25500000920E-02 0. -1.
    10030    2    1    2    0    0  0.00000000000E+00  0.00000000000E+00 -0.54007037743E+03  0.25591068551E+04  0.25014699445E+04 0.  0.
        5    1    3    3  502    0  0.10213720200E+04 -0.68364548846E+03 -0.50720413045E+03  0.13296052336E+04  0.46999998093E+01 0. -1.
       -5    1    3    3    0  502 -0.10213720200E+04  0.68364548846E+03 -0.32866246984E+02  0.12295016216E+04  0.46999998093E+01 0.  1.
</event>
<event>
 5   0  0.3972587E-07  0.2499892E+04  0.7818609E-02  0.8403024E-01
       -1   -1    0    0    0  501  0.00000000000E+00  0.00000000000E+00  0.15330866612E+04  0.15330866612E+04  0.50400001928E-02 0. -1.
        1   -1    0    0  501    0  0.00000000000E+00  0.00000000000E+00 -0.10190975549E+04  0.10190975549E+04  0.50400001928E-02 0.  1.
    10030    2    1    2    0    0  0.00000000000E+00  0.00000000000E+00  0.51398910635E+03  0.25521842161E+04  0.24998918920E+04 0.  0.
        3    1    3    3  502    0 -0.58462716818E+03 -0.97086088219E+03  0.79528559936E+03  0.13844995389E+04  0.10100000352E+00 0. -1.
       -3    1    3    3    0  502  0.58462716818E+03  0.97086088219E+03 -0.28129649301E+03  0.11676846773E+04  0.10100000352E+00 0.  1.
</event>
<event>
 5   0  0.3805418E-07  0.2499416E+04  0.7818609E-02  0.8403194E-01
       -1   -1    0    0    0  501  0.00000000000E+00  0.00000000000E+00  0.80535453935E+03  0.80535453936E+03  0.50400001928E-02 0.  1.
        1   -1    0    0  501    0  0.00000000000E+00  0.00000000000E+00 -0.19392324689E+04  0.19392324689E+04  0.50400001928E-02 0. -1.
    10030    2    1    2    0    0  0.00000000000E+00  0.00000000000E+00 -0.11338779296E+04  0.27445870083E+04  0.24994156691E+04 0.  0.
        4    1    3    3  502    0  0.36227601963E+03 -0.87997928274E+03  0.32255620023E+03  0.10048141956E+04  0.12699999809E+01 0.  1.
       -4    1    3    3    0  502 -0.36227601963E+03  0.87997928274E+03 -0.14564341298E+04  0.17397728127E+04  0.12699999809E+01 0. -1.
</event>
<event>
 5   0  0.9261602E-07  0.2500311E+04  0.7818609E-02  0.8402875E-01
       -2   -1    0    0    0  501  0.00000000000E+00  0.00000000000E+00  0.72149245979E+03  0.72149245979E+03  0.25500000920E-02 0. -1.
        2   -1    0    0  501    0  0.00000000000E+00  0.00000000000E+00 -0.21661892166E+04  0.21661892166E+04  0.25500000920E-02 0.  1.
    10030    2    1    2    0    0  0.00000000000E+00  0.00000000000E+00 -0.14446967568E+04  0.28876816764E+04  0.25003113296E+04 0.  0.
        4    1    3    3  502    0  0.11955576762E+04 -0.12884742583E+03 -0.32742391397E+03  0.12462615490E+04  0.12699999809E+01 0. -1.
       -4    1    3    3    0  502 -0.11955576762E+04  0.12884742583E+03 -0.11172728428E+04  0.16414201273E+04  0.12699999809E+01 0.  1.
</event>
<event>
 5   0  0.3972587E-07  0.2500588E+04  0.7818609E-02  0.8402776E-01
        1   -1    0    0  501    0  0.00000000000E+00  0.00000000000E+00  0.73019725366E+03  0.73019725367E+03  0.50400001928E-02 0.  1.
       -1   -1    0    0    0  501  0.00000000000E+00  0.00000000000E+00 -0.21408397624E+04  0.21408397624E+04  0.50400001928E-02 0. -1.
    10030    2    1    2    0    0  0.00000000000E+00  0.00000000000E+00 -0.14106425087E+04  0.28710370161E+04  0.25005881829E+04 0.  0.
        3    1    3    3  502    0 -0.11611558969E+04  0.10373658616E+03 -0.18650338658E+03  0.11806048533E+04  0.10100000352E+00 0.  1.
       -3    1    3    3    0  502  0.11611558969E+04 -0.10373658616E+03 -0.12241391222E+04  0.16904321628E+04  0.10100000352E+00 0. -1.
</event>
<event>
 5   0  0.3873231E-07  0.2500386E+04  0.7818609E-02  0.8402848E-01
       -1   -1    0    0    0  501  0.00000000000E+00  0.00000000000E+00  0.75675606652E+03  0.75675606653E+03  0.50400001928E-02 0.  1.
        1   -1    0    0  501    0  0.00000000000E+00  0.00000000000E+00 -0.20653722557E+04  0.20653722557E+04  0.50400001928E-02 0. -1.
    10030    2    1    2    0    0  0.00000000000E+00  0.00000000000E+00 -0.13086161892E+04  0.28221283222E+04  0.25003863574E+04 0.  0.
        2    1    3    3  502    0 -0.62549989690E+03  0.18038690605E+03 -0.18589788620E+04  0.19696679838E+04  0.25500000920E-02 0. -1.
       -2    1    3    3    0  502  0.62549989690E+03 -0.18038690605E+03  0.55036267286E+03  0.85246033843E+03  0.25500000920E-02 0.  1.
</event>
<event>
 5   0  0.3972587E-07  0.2500474E+04  0.7818609E-02  0.8402817E-01
        1   -1    0    0  501    0  0.00000000000E+00  0.00000000000E+00  0.14446841325E+04  0.14446841325E+04  0.50400001928E-02 0. -1.
       -1   -1    0    0    0  501  0.00000000000E+00  0.00000000000E+00 -0.10819616258E+04  0.10819616258E+04  0.50400001928E-02 0.  1.
    10030    2    1    2    0    0  0.00000000000E+00  0.00000000000E+00  0.36272250671E+03  0.25266457584E+04  0.25004741893E+04 0.  0.
        3    1    3    3  502    0  0.35844608333E+03 -0.72301697522E+03  0.11462672952E+04  0.14018437372E+04  0.10100000352E+00 0. -1.
       -3    1    3    3    0  502 -0.35844608333E+03  0.72301697522E+03 -0.78354478853E+03  0.11248020212E+04  0.10100000352E+00 0.  1.
</event>
<event>
 5   0  0.3972587E-07  0.2498753E+04  0.7818609E-02  0.8403430E-01
       -1   -1    0    0    0  501  0.00000000000E+00  0.00000000000E+00  0.11586269278E+04  0.11586269278E+04  0.50400001928E-02 0.  1.
        1   -1    0    0  501    0  0.00000000000E+00  0.00000000000E+00 -0.13472340771E+04  0.13472340771E+04  0.50400001928E-02 0. -1.
    10030    2    1    2    0    0  0.00000000000E+00  0.00000000000E+00 -0.18860714926E+03  0.25058610049E+04  0.24987530328E+04 0.  0.
        3    1    3    3  502    0  0.11047374951E+03  0.18881246120E+03 -0.13278787027E+04  0.13457772676E+04  0.10100000352E+00 0. -1.
       -3    1    3    3    0  502 -0.11047374951E+03 -0.18881246120E+03  0.11392715534E+04  0.11600837373E+04  0.10100000352E+00 0.  1.
</event>
<event>
 5   0  0.3837524E-07  0.2506178E+04  0.7818609E-02  0.8400788E-01
       -1   -1    0    0    0  501  0.00000000000E+00  0.00000000000E+00  0.15232288316E+04  0.15232288316E+04  0.50400001928E-02 0.  1.
        1   -1    0    0  501    0  0.00000000000E+00  0.00000000000E+00 -0.10308576718E+04  0.10308576718E+04  0.50400001928E-02 0. -1.
    10030    2    1    2    0    0  0.00000000000E+00  0.00000000000E+00  0.49237115982E+03  0.25540865035E+04  0.25061780679E+04 0.  0.
        5    1    3    3  502    0 -0.11492586763E+04 -0.27026366496E+03 -0.18180932560E+03  0.11945353383E+04  0.46999998093E+01 0. -1.
       -5    1    3    3    0  502  0.11492586763E+04  0.27026366496E+03  0.67418048541E+03  0.13595511651E+04  0.46999998093E+01 0.  1.
</event>
<event>
 5   0  0.3873231E-07  0.2499564E+04  0.7818609E-02  0.8403141E-01
        1   -1    0    0  501    0  0.00000000000E+00  0.00000000000E+00  0.24385740250E+04  0.24385740250E+04  0.50400001928E-02 0.  1.
       -1   -1    0    0    0  501  0.00000000000E+00  0.00000000000E+00 -0.64051967630E+03  0.64051967632E+03  0.50400001928E-02 0. -1.
    10030    2    1    2    0    0  0.00000000000E+00  0.00000000000E+00  0.17980543487E+04  0.30790937013E+04  0.24995636781E+04 0.  0.
        2    1    3    3  502    0 -0.63058514972E+03 -0.10762640525E+04  0.99422875905E+03  0.15951403597E+04  0.25500000920E-02 0.  1.
       -2    1    3    3    0  502  0.63058514972E+03  0.10762640525E+04  0.80382558967E+03  0.14839533417E+04  0.25500000920E-02 0. -1.
</event>
<event>
 5   0  0.3873231E-07  0.2500010E+04  0.7818609E-02  0.8402982E-01
        1   -1    0    0  501    0  0.00000000000E+00  0.00000000000E+00  0.13655285086E+04  0.13655285086E+04  0.50400001928E-02 0.  1.
       -1   -1    0    0    0  501  0.00000000000E+00  0.00000000000E+00 -0.11442544015E+04  0.11442544016E+04  0.50400001928E-02 0. -1.
    10030    2    1    2    0    0  0.00000000000E+00  0.00000000000E+00  0.22127410704E+03  0.25097829102E+04  0.25000096051E+04 0.  0.
        2    1    3    3  502    0 -0.43862612153E+03  0.11522744750E+04  0.31731237284E+03  0.12731129102E+04  0.25500000920E-02 0.  1.
       -2    1    3    3    0  502  0.43862612153E+03 -0.11522744750E+04 -0.96038265803E+02  0.12366699999E+04  0.25500000920E-02 0. -1.
</event>
<event>
 5   0  0.9251138E-07  0.2499624E+04  0.7818609E-02  0.8403120E-01
        2   -1    0    0  501    0  0.00000000000E+00  0.00000000000E+00  0.10471514703E+04  0.10471514703E+04  0.25500000920E-02 0. -1.
       -2   -1    0    0    0  501  0.00000000000E+00  0.00000000000E+00 -0.14916940838E+04  0.14916940838E+04  0.25500000920E-02 0.  1.
    10030    2    1    2    0    0  0.00000000000E+00  0.00000000000E+00 -0.44454261345E+03  0.25388455541E+04  0.24996236942E+04 0.  0.
        5    1    3    3  502    0 -0.21509034818E+03 -0.11098721443E+02 -0.14726941192E+04  0.14883672592E+04  0.46999998093E+01 0.  1.
       -5    1    3    3    0  502  0.21509034818E+03  0.11098721443E+02  0.10281515057E+04  0.10504782950E+04  0.46999998093E+01 0. -1.
</event>
<event>
 5   0  0.3972587E-07  0.2499351E+04  0.7818609E-02  0.8403217E-01
        1   -1    0    0  501    0  0.00000000000E+00  0.00000000000E+00  0.24459529927E+04  0.24459529927E+04  0.50400001928E-02 0. -1.
       -1   -1    0    0    0  501  0.00000000000E+00  0.00000000000E+00 -0.63847855739E+03  0.63847855741E+03  0.50400001928E-02 0.  1.
    10030    2    1    2    0    0  0.00000000000E+00  0.00000000000E+00  0.18074744353E+04  0.30844315501E+04  0.24993507463E+04 0.  0.
        3    1    3    3  502    0 -0.93193852420E+03 -0.81157435171E+03  0.11330468182E+04  0.16765910186E+04  0.10100000352E+00 0. -1.
       -3    1    3    3    0  502  0.93193852420E+03  0.81157435171E+03  0.67442761706E+03  0.14078405315E+04  0.10100000352E+00 0.  1.
</event>
<event>
 5   0  0.9251138E-07  0.2497588E+04  0.7818609E-02  0.8403845E-01
        2   -1    0    0  501    0  0.00000000000E+00  0.00000000000E+00  0.16122890793E+04  0.16122890793E+04  0.25500000920E-02 0. -1.
       -2   -1    0    0    0  501  0.00000000000E+00  0.00000000000E+00 -0.96724997095E+03  0.96724997096E+03  0.25500000920E-02 0.  1.
    10030    2    1    2    0    0  0.00000000000E+00  0.00000000000E+00  0.64503910838E+03  0.25795390503E+04  0.24975880887E+04 0.  0.
        5    1    3    3  502    0  0.18512436781E+03 -0.45826528587E+03 -0.86192556381E+03  0.99358737479E+03  0.46999998093E+01 0.  1.
       -5    1    3    3    0  502 -0.18512436781E+03  0.45826528587E+03  0.15069646722E+04  0.15859516755E+04  0.46999998093E+01 0. -1.
</event>
<event>
 5   0  0.3972587E-07  0.2499886E+04  0.7818609E-02  0.8403026E-01
       -1   -1    0    0    0  501  0.00000000000E+00  0.00000000000E+00  0.73877402641E+03  0.73877402643E+03  0.50400001928E-02 0.  1.
        1   -1    0    0  501    0  0.00000000000E+00  0.00000000000E+00 -0.21147982468E+04  0.21147982468E+04  0.50400001928E-02 0. -1.
    10030    2    1    2    0    0  0.00000000000E+00  0.00000000000E+00 -0.13760242204E+04  0.28535722732E+04  0.24998864101E+04 0.  0.
        3    1    3    3  502    0  0.11699702252E+04  0.23131980539E+03 -0.26088039867E+03  0.12208184848E+04  0.10100000352E+00 0.  1.
       -3    1    3    3    0  502 -0.11699702252E+04 -0.23131980539E+03 -0.11151438217E+04  0.16327537884E+04  0.10100000352E+00 0. -1.
</event>
<event>
 5   0  0.9261602E-07  0.2499782E+04  0.7818609E-02  0.8403063E-01
        2   -1    0    0  501    0  0.00000000000E+00  0.00000000000E+00  0.78046402346E+03  0.78046402346E+03  0.25500000920E-02 0. -1.
       -2   -1    0    0    0  501  0.00000000000E+00  0.00000000000E+00 -0.20016649099E+04  0.20016649100E+04  0.25500000920E-02 0.  1.
    10030    2    1    2    0    0  0.00000000000E+00  0.00000000000E+00 -0.12212008865E+04  0.27821289334E+04  0.24997819499E+04 0.  0.
        4    1    3    3  502    0 -0.59569161557E+03 -0.59685321497E+03  0.41617751616E+03  0.94036567299E+03  0.12699999809E+01 0. -1.
       -4    1    3    3    0  502  0.59569161557E+03  0.59685321497E+03 -0.16373784027E+04  0.18417632604E+04  0.12699999809E+01 0.  1.
</event>
<event>
 5   0  0.3805418E-07  0.2500511E+04  0.7818609E-02  0.8402803E-01
       -1   -1    0    0    0  501  0.00000000000E+00  0.00000000000E+00  0.90788463042E+03  0.90788463043E+03  0.50400001928E-02 0.  1.
        1   -1    0    0  501    0  0.00000000000E+00  0.00000000000E+00 -0.17217375793E+04  0.17217375793E+04  0.50400001928E-02 0. -1.
    10030    2    1    2    0    0  0.00000000000E+00  0.00000000000E+00 -0.81385294884E+03  0.26296222097E+04  0.25005112164E+04 0.  0.
        4    1    3    3  502    0  0.14558109807E+03  0.94772587099E+03 -0.12507008008E+04  0.15759544056E+04  0.12699999809E+01 0. -1.
       -4    1    3    3    0  502 -0.14558109807E+03 -0.94772587099E+03  0.43684785195E+03  0.10536678041E+04  0.12699999809E+01 0.  1.
</event>
<event>
 5   0  0.9261602E-07  0.2500818E+04  0.7818609E-02  0.8402694E-01
       -2   -1    0    0    0  501  0.00000000000E+00  0.00000000000E+00  0.24127102331E+04  0.24127102331E+04  0.25500000920E-02 0. -1.
        2   -1    0    0  501    0  0.00000000000E+00  0.00000000000E+00 -0.64803605843E+03  0.64803605843E+03  0.25500000920E-02 0.  1.
    10030    2    1    2    0    0  0.00000000000E+00  0.00000000000E+00  0.17646741747E+04  0.30607462915E+04  0.25008184497E+04 0.  0.
        4    1    3    3  502    0  0.22040299168E+03  0.53148288334E+03  0.22410676997E+04  0.23137496800E+04  0.12699999809E+01 0. -1.
       -4    1    3    3    0  502 -0.22040299168E+03 -0.53148288334E+03 -0.47639352506E+03  0.74699661153E+03  0.12699999809E+01 0.  1.
</event>
<event>
 5   0  0.9508784E-07  0.2500046E+04  0.7818609E-02  0.8402969E-01
       -2   -1    0    0    0  501  0.00000000000E+00  0.00000000000E+00  0.10527387963E+04  0.10527387963E+04  0.25500000920E-02 0. -1.
        2   -1    0    0  501    0  0.00000000000E+00  0.00000000000E+00 -0.14842779134E+04  0.14842779134E+04  0.25500000920E-02 0.  1.
    10030    2    1    2    0    0  0.00000000000E+00  0.00000000000E+00 -0.43153911709E+03  0.25370167097E+04  0.25000455547E+04 0.  0.
        2    1    3    3  502    0 -0.90313627117E+03  0.63144830656E+03 -0.81455896385E+03  0.13703606802E+04  0.25500000920E-02 0.  1.
       -2    1    3    3    0  502  0.90313627117E+03 -0.63144830656E+03  0.38301984675E+03  0.11666560295E+04  0.25500000920E-02 0. -1.
</event>
<event>
 5   0  0.3991066E-07  0.2499967E+04  0.7818609E-02  0.8402997E-01
        1   -1    0    0  501    0  0.00000000000E+00  0.00000000000E+00  0.15809096989E+04  0.15809096989E+04  0.50400001928E-02 0. -1.
       -1   -1    0    0    0  501  0.00000000000E+00  0.00000000000E+00 -0.98832891737E+03  0.98832891739E+03  0.50400001928E-02 0.  1.
    10030    2    1    2    0    0  0.00000000000E+00  0.00000000000E+00  0.59258078157E+03  0.25692386163E+04  0.24999670168E+04 0.  0.
        1    1    3    3  502    0  0.66650403892E+03  0.40585938393E+03  0.12998256320E+04  0.15160792021E+04  0.50400001928E-02 0. -1.
       -1    1    3    3    0  502 -0.66650403892E+03 -0.40585938393E+03 -0.70724485039E+03  0.10531594143E+04  0.50400001928E-02 0.  1.
</event>
<event>
 5   0  0.3214375E-07  0.2500249E+04  0.7818609E-02  0.8402897E-01
       -3   -1    0    0    0  501  0.00000000000E+00  0.00000000000E+00  0.12359502898E+04  0.12359502939E+04  0.10100000352E+00 0.  1.
        3   -1    0    0  501    0  0.00000000000E+00  0.00000000000E+00 -0.12644616680E+04  0.12644616720E+04  0.10100000352E+00 0. -1.
    10030    2    1    2    0    0  0.00000000000E+00  0.00000000000E+00 -0.28511378184E+02  0.25004119660E+04  0.25002494077E+04 0.  0.
        1    1    3    3  502    0  0.67516747307E+03 -0.13012730528E+03  0.10298560328E+04  0.12383003192E+04  0.50400001928E-02 0.  1.
       -1    1    3    3    0  502 -0.67516747307E+03  0.13012730528E+03 -0.10583674110E+04  0.12621116468E+04  0.50400001928E-02 0. -1.
</event>
<event>
 5   0  0.3991066E-07  0.2506003E+04  0.7818609E-02  0.8400850E-01
       -1   -1    0    0    0  501  0.00000000000E+00  0.00000000000E+00  0.11498094500E+04  0.11498094500E+04  0.50400001928E-02 0.  1.
        1   -1    0    0  501    0  0.00000000000E+00  0.00000000000E+00 -0.13654542154E+04  0.13654542155E+04  0.50400001928E-02 0. -1.
    10030    2    1    2    0    0  0.00000000000E+00  0.00000000000E+00 -0.21564476542E+03  0.25152636655E+04  0.25060025224E+04 0.  0.
        1    1    3    3  502    0  0.50713707678E+03 -0.10470282995E+03 -0.12530304513E+04  0.13558156250E+04  0.50400001928E-02 0. -1.
       -1    1    3    3    0  502 -0.50713707678E+03  0.10470282995E+03  0.10373856859E+04  0.11594480404E+04  0.50400001928E-02 0.  1.
</event>
<event>
 5   0  0.9251138E-07  0.2502426E+04  0.7818609E-02  0.8402122E-01
       -2   -1    0    0    0  501  0.00000000000E+00  0.00000000000E+00  0.82330141619E+03  0.82330141619E+03  0.25500000920E-02 0. -1.
        2   -1    0    0  501    0  0.00000000000E+00  0.00000000000E+00 -0.19015317854E+04  0.19015317854E+04  0.25500000920E-02 0.  1.
    10030    2    1    2    0    0  0.00000000000E+00  0.00000000000E+00 -0.10782303692E+04  0.27248332016E+04  0.25024258725E+04 0.  0.
        5    1    3    3  502    0  0.58076248759E+03  0.98764179724E+03  0.83530604947E+01  0.11457806292E+04  0.46999998093E+01 0. -1.
       -5    1    3    3    0  502 -0.58076248759E+03 -0.98764179724E+03 -0.10865834297E+04  0.15790525724E+04  0.46999998093E+01 0.  1.
</event>
<event>
 5   0  0.9768582E-07  0.2487839E+04  0.7818609E-02  0.8407331E-01
       -2   -1    0    0    0  501  0.00000000000E+00  0.00000000000E+00  0.87506499665E+03  0.87506499665E+03  0.25500000920E-02 0.  1.
        2   -1    0    0  501    0  0.00000000000E+00  0.00000000000E+00 -0.17682521561E+04  0.17682521561E+04  0.25500000920E-02 0. -1.
    10030    2    1    2    0    0  0.00000000000E+00  0.00000000000E+00 -0.89318715942E+03  0.26433171527E+04  0.24878388750E+04 0.  0.
        3    1    3    3  502    0  0.13735938297E+03  0.39060797541E+03 -0.16928844474E+04  0.17427851138E+04  0.10100000352E+00 0. -1.
       -3    1    3    3    0  502 -0.13735938297E+03 -0.39060797541E+03  0.79969728795E+03  0.90053203891E+03  0.10100000352E+00 0.  1.
</event>
<event>
 5   0  0.9251138E-07  0.2500206E+04  0.7818609E-02  0.8402912E-01
       -2   -1    0    0    0  501  0.00000000000E+00  0.00000000000E+00  0.98165093899E+03  0.98165093899E+03  0.25500000920E-02 0. -1.
        2   -1    0    0  501    0  0.00000000000E+00  0.00000000000E+00 -0.15919689609E+04  0.15919689609E+04  0.25500000920E-02 0.  1.
    10030    2    1    2    0    0  0.00000000000E+00  0.00000000000E+00 -0.61031802194E+03  0.25736198999E+04  0.25002062518E+04 0.  0.
        5    1    3    3  502    0 -0.11838544321E+03 -0.61125659167E+02  0.97431244359E+03  0.98339121773E+03  0.46999998093E+01 0. -1.
       -5    1    3    3    0  502  0.11838544321E+03  0.61125659167E+02 -0.15846304655E+04  0.15902286822E+04  0.46999998093E+01 0.  1.
</event>
<event>
 5   0  0.3873231E-07  0.2500334E+04  0.7818609E-02  0.8402867E-01
       -1   -1    0    0    0  501  0.00000000000E+00  0.00000000000E+00  0.55025653079E+03  0.55025653081E+03  0.50400001928E-02 0. -1.
        1   -1    0    0  501    0  0.00000000000E+00  0.00000000000E+00 -0.28403432584E+04  0.28403432584E+04  0.50400001928E-02 0.  1.
    10030    2    1    2    0    0  0.00000000000E+00  0.00000000000E+00 -0.22900867276E+04  0.33905997892E+04  0.25003339198E+04 0.  0.
        2    1    3    3  502    0  0.49758438025E+03  0.89318335467E+03 -0.21206055791E+04  0.23542163755E+04  0.25500000920E-02 0.  1.
       -2    1    3    3    0  502 -0.49758438025E+03 -0.89318335467E+03 -0.16948114851E+03  0.10363834137E+04  0.25500000920E-02 0. -1.
</event>
<event>
 5   0  0.9261602E-07  0.2503799E+04  0.7818609E-02  0.8401633E-01
       -2   -1    0    0    0  501  0.00000000000E+00  0.00000000000E+00  0.79763515879E+03  0.79763515879E+03  0.25500000920E-02 0.  1.
        2   -1    0    0  501    0  0.00000000000E+00  0.00000000000E+00 -0.19648731784E+04  0.19648731784E+04  0.25500000920E-02 0. -1.
    10030    2    1    2    0    0  0.00000000000E+00  0.00000000000E+00 -0.11672380196E+04  0.27625083372E+04  0.25037986578E+04 0.  0.
        4    1    3    3  502    0  0.28935232617E+03 -0.84919682956E+03  0.37975044922E+03  0.97420328504E+03  0.12699999809E+01 0.  1.
       -4    1    3    3    0  502 -0.28935232617E+03  0.84919682956E+03 -0.15469884689E+04  0.17883050522E+04  0.12699999809E+01 0. -1.
</event>
<event>
 5   0  0.3991066E-07  0.2501021E+04  0.7818609E-02  0.8402622E-01
        1   -1    0    0  501    0  0.00000000000E+00  0.00000000000E+00  0.17241754421E+04  0.17241754421E+04  0.50400001928E-02 0.  1.
       -1   -1    0    0    0  501  0.00000000000E+00  0.00000000000E+00 -0.90697034477E+03  0.90697034478E+03  0.50400001928E-02 0. -1.
    10030    2    1    2    0    0  0.00000000000E+00  0.00000000000E+00  0.81720509730E+03  0.26311457869E+04  0.25010205878E+04 0.  0.
        1    1    3    3  502    0 -0.30051697116E+03 -0.11252928435E+04  0.88745663359E+03  0.14642997337E+04  0.50400001928E-02 0. -1.
       -1    1    3    3    0  502  0.30051697116E+03  0.11252928435E+04 -0.70251536284E+02  0.11668460532E+04  0.50400001928E-02 0.  1.
</event>
<event>
 5   0  0.9768582E-07  0.2498410E+04  0.7818609E-02  0.8403552E-01
       -2   -1    0    0    0  501  0.00000000000E+00  0.00000000000E+00  0.75327761917E+03  0.75327761918E+03  0.25500000920E-02 0.  1.
        2   -1    0    0  501    0  0.00000000000E+00  0.00000000000E+00 -0.20716310306E+04  0.20716310306E+04  0.25500000920E-02 0. -1.
    10030    2    1    2    0    0  0.00000000000E+00  0.00000000000E+00 -0.13183534114E+04  0.28249086497E+04  0.24984101269E+04 0.  0.
        3    1    3    3  502    0 -0.10406818918E+04 -0.16749879959E+03  0.98834938531E+02  0.10586987310E+04  0.10100000352E+00 0.  1.
       -3    1    3    3    0  502  0.10406818918E+04  0.16749879959E+03 -0.14171883499E+04  0.17662099188E+04  0.10100000352E+00 0. -1.
</event>
<event>
 5   0  0.3991066E-07  0.2500248E+04  0.7818609E-02  0.8402897E-01
        1   -1    0    0  501    0  0.00000000000E+00  0.00000000000E+00  0.17106289807E+04  0.17106289807E+04  0.50400001928E-02 0.  1.
       -1   -1    0    0    0  501  0.00000000000E+00  0.00000000000E+00 -0.91358825317E+03  0.91358825319E+03  0.50400001928E-02 0. -1.
    10030    2    1    2    0    0  0.00000000000E+00  0.00000000000E+00  0.79704072750E+03  0.26242172339E+04  0.25002484215E+04 0.  0.
        1    1    3    3  502    0 -0.11291154413E+04 -0.49193602025E+03  0.62340507467E+03  0.13804117556E+04  0.50400001928E-02 0. -1.
       -1    1    3    3    0  502  0.11291154413E+04  0.49193602025E+03  0.17363565283E+03  0.12438054783E+04  0.50400001928E-02 0.  1.
</event>
<event>
 5   0  0.9251138E-07  0.2499808E+04  0.7818609E-02  0.8403054E-01
        2   -1    0    0  501    0  0.00000000000E+00  0.00000000000E+00  0.18927554055E+04  0.18927554055E+04  0.25500000920E-02 0.  1.
       -2   -1    0    0    0  501  0.00000000000E+00  0.00000000000E+00 -0.82538938824E+03  0.82538938824E+03  0.25500000920E-02 0. -1.
    10030    2    1    2    0    0  0.00000000000E+00  0.00000000000E+00  0.10673660172E+04  0.27181447937E+04  0.24998081736E+04 0.  0.
        5    1    3    3  502    0 -0.36069669905E+03  0.11928834156E+04  0.63777959851E+03  0.13999492342E+04  0.46999998093E+01 0.  1.
       -5    1    3    3    0  502  0.36069669905E+03 -0.11928834156E+04  0.42958641871E+03  0.13181955595E+04  0.46999998093E+01 0. -1.
</event>
<event>
 5   0  0.3214375E-07  0.2498923E+04  0.7818609E-02  0.8403369E-01
        3   -1    0    0  501    0  0.00000000000E+00  0.00000000000E+00  0.21153080264E+04  0.21153080288E+04  0.10100000352E+00 0.  1.
       -3   -1    0    0    0  501  0.00000000000E+00  0.00000000000E+00 -0.73802653971E+03  0.73802654662E+03  0.10100000352E+00 0. -1.
    10030    2    1    2    0    0  0.00000000000E+00  0.00000000000E+00  0.13772814866E+04  0.28533345754E+04  0.24989225490E+04 0.  0.
        5    1    3    3  502    0  0.74465876766E+03  0.62658228933E+03  0.15833612516E+04  0.18585416296E+04  0.46999998093E+01 0.  1.
       -5    1    3    3    0  502 -0.74465876766E+03 -0.62658228933E+03 -0.20607976501E+03  0.99479294584E+03  0.46999998093E+01 0. -1.
</event>
<event>
 5   0  0.3805418E-07  0.2499551E+04  0.7818609E-02  0.8403145E-01
       -1   -1    0    0    0  501  0.00000000000E+00  0.00000000000E+00  0.10317860319E+04  0.10317860319E+04  0.50400001928E-02 0. -1.
        1   -1    0    0  501    0  0.00000000000E+00  0.00000000000E+00 -0.15138205066E+04  0.15138205066E+04  0.50400001928E-02 0.  1.
    10030    2    1    2    0    0  0.00000000000E+00  0.00000000000E+00 -0.48203447466E+03  0.25456065385E+04  0.24995510425E+04 0.  0.
        4    1    3    3  502    0  0.10790982255E+04  0.55867555676E+03  0.56540628863E+02  0.12164578963E+04  0.12699999809E+01 0. -1.
       -4    1    3    3    0  502 -0.10790982255E+04 -0.55867555676E+03 -0.53857510352E+03  0.13291486422E+04  0.12699999809E+01 0.  1.
</event>
<event>
 5   0  0.9508784E-07  0.2499635E+04  0.7818609E-02  0.8403116E-01
       -2   -1    0    0    0  501  0.00000000000E+00  0.00000000000E+00  0.80393446569E+03  0.80393446569E+03  0.25500000920E-02 0. -1.
        2   -1    0    0  501    0  0.00000000000E+00  0.00000000000E+00 -0.19429984380E+04  0.19429984380E+04  0.25500000920E-02 0.  1.
    10030    2    1    2    0    0  0.00000000000E+00  0.00000000000E+00 -0.11390639723E+04  0.27469329037E+04  0.24996347022E+04 0.  0.
        2    1    3    3  502    0 -0.11800933570E+04 -0.22976761281E+03 -0.19423376816E+03  0.12178424545E+04  0.25500000920E-02 0.  1.
       -2    1    3    3    0  502  0.11800933570E+04  0.22976761281E+03 -0.94483020411E+03  0.15290904492E+04  0.25500000920E-02 0. -1.
</event>
<event>
 5   0  0.9768582E-07  0.2509187E+04  0.7818609E-02  0.8399720E-01
        2   -1    0    0  501    0  0.00000000000E+00  0.00000000000E+00  0.94642084912E+03  0.94642084912E+03  0.25500000920E-02 0. -1.
       -2   -1    0    0    0  501  0.00000000000E+00  0.00000000000E+00 -0.16631125757E+04  0.16631125757E+04  0.25500000920E-02 0.  1.
    10030    2    1    2    0    0  0.00000000000E+00  0.00000000000E+00 -0.71669172656E+03  0.26095334248E+04  0.25091866539E+04 0.  0.
        3    1    3    3  502    0 -0.41232856749E+03  0.57401098406E+03 -0.14363819445E+04  0.16008424526E+04  0.10100000352E+00 0.  1.
       -3    1    3    3    0  502  0.41232856749E+03 -0.57401098406E+03  0.71969021794E+03  0.10086909722E+04  0.10100000352E+00 0. -1.
</event>
<event>
 5   0  0.3837524E-07  0.2498938E+04  0.7818609E-02  0.8403364E-01
       -1   -1    0    0    0  501  0.00000000000E+00  0.00000000000E+00  0.71361221664E+03  0.71361221666E+03  0.50400001928E-02 0. -1.
        1   -1    0    0  501    0  0.00000000000E+00  0.00000000000E+00 -0.21877048503E+04  0.21877048503E+04  0.50400001928E-02 0.  1.
    10030    2    1    2    0    0  0.00000000000E+00  0.00000000000E+00 -0.14740926336E+04  0.29013170669E+04  0.24989381006E+04 0.  0.
        5    1    3    3  502    0 -0.75783661092E+03  0.24897802878E+03  0.37949304163E+03  0.88337050342E+03  0.46999998093E+01 0. -1.
       -5    1    3    3    0  502  0.75783661092E+03 -0.24897802878E+03 -0.18535856753E+04  0.20179465635E+04  0.46999998093E+01 0.  1.
</event>
<event>
 5   0  0.3214375E-07  0.2500879E+04  0.7818609E-02  0.8402672E-01
        4   -1    0    0  501    0  0.00000000000E+00  0.00000000000E+00  0.11234063552E+04  0.11234070731E+04  0.12699999809E+01 0.  1.
       -4   -1    0    0    0  501  0.00000000000E+00  0.00000000000E+00 -0.13918364423E+04  0.13918370218E+04  0.12699999809E+01 0. -1.
    10030    2    1    2    0    0  0.00000000000E+00  0.00000000000E+00 -0.26843008714E+03  0.25152440948E+04  0.25008794743E+04 0.  0.
        4    1    3    3  502    0 -0.10734823265E+04  0.50817321952E+03 -0.52760566649E+03  0.12996052010E+04  0.12699999809E+01 0. -1.
       -4    1    3    3    0  502  0.10734823265E+04 -0.50817321952E+03  0.25917557935E+03  0.12156388938E+04  0.12699999809E+01 0.  1.
</event>
<event>
 5   0  0.9261602E-07  0.2500412E+04  0.7818609E-02  0.8402839E-01
        2   -1    0    0  501    0  0.00000000000E+00  0.00000000000E+00  0.17980659444E+04  0.17980659444E+04  0.25500000920E-02 0. -1.
       -2   -1    0    0    0  501  0.00000000000E+00  0.00000000000E+00 -0.86927579152E+03  0.86927579153E+03  0.25500000920E-02 0.  1.
    10030    2    1    2    0    0  0.00000000000E+00  0.00000000000E+00  0.92879015285E+03  0.26673417359E+04  0.25004121236E+04 0.  0.
        4    1    3    3  502    0  0.10432731339E+04  0.32967652418E+03 -0.18089219841E+03  0.11089765745E+04  0.12699999809E+01 0.  1.
       -4    1    3    3    0  502 -0.10432731339E+04 -0.32967652418E+03  0.11096823513E+04  0.15583651614E+04  0.12699999809E+01 0. -1.
</event>
<event>
 5   0  0.9508784E-07  0.2499688E+04  0.7818609E-02  0.8403097E-01
       -2   -1    0    0    0  501  0.00000000000E+00  0.00000000000E+00  0.12010642226E+04  0.12010642226E+04  0.25500000920E-02 0. -1.
        2   -1    0    0  501    0  0.00000000000E+00  0.00000000000E+00 -0.13006045924E+04  0.13006045924E+04  0.25500000920E-02 0.  1.
    10030    2    1    2    0    0  0.00000000000E+00  0.00000000000E+00 -0.99540369809E+02  0.25016688150E+04  0.24996876955E+04 0.  0.
        2    1    3    3  502    0 -0.56360100356E+03 -0.10668701947E+04  0.27645063824E+03  0.12378542156E+04  0.25500000920E-02 0. -1.
       -2    1    3    3    0  502  0.56360100356E+03  0.10668701947E+04 -0.37599100805E+03  0.12638145994E+04  0.25500000920E-02 0.  1.
</event>
<event>
 5   0  0.3873231E-07  0.2500090E+04  0.7818609E-02  0.8402954E-01
        1   -1    0    0  501    0  0.00000000000E+00  0.00000000000E+00  0.24410717201E+04  0.24410717201E+04  0.50400001928E-02 0. -1.
       -1   -1    0    0    0  501  0.00000000000E+00  0.00000000000E+00 -0.64013366174E+03  0.64013366176E+03  0.50400001928E-02 0.  1.
    10030    2    1    2    0    0  0.00000000000E+00  0.00000000000E+00  0.18009380584E+04  0.30812053819E+04  0.25000897414E+04 0.  0.
        2    1    3    3  502    0 -0.10512889696E+04  0.55955220329E+03  0.13686413770E+04  0.18142454036E+04  0.25500000920E-02 0. -1.
       -2    1    3    3    0  502  0.10512889696E+04 -0.55955220329E+03  0.43229668138E+03  0.12669599783E+04  0.25500000920E-02 0.  1.
</event>
<event>
 5   0  0.9261602E-07  0.2501587E+04  0.7818609E-02  0.8402420E-01
        2   -1    0    0  501    0  0.00000000000E+00  0.00000000000E+00  0.20450543210E+04  0.20450543210E+04  0.25500000920E-02 0. -1.
       -2   -1    0    0    0  501  0.00000000000E+00  0.00000000000E+00 -0.76500884632E+03  0.76500884633E+03  0.25500000920E-02 0.  1.
    10030    2    1    2    0    0  0.00000000000E+00  0.00000000000E+00  0.12800454747E+04  0.28100631673E+04  0.25015872136E+04 0.  0.
        4    1    3    3  502    0 -0.83319234148E+03  0.89762721173E+03  0.92539474075E+03  0.15350247973E+04  0.12699999809E+01 0.  1.
       -4    1    3    3    0  502  0.83319234148E+03 -0.89762721173E+03  0.35465073393E+03  0.12750383701E+04  0.12699999809E+01 0. -1.
</event>
<event>
 5   0  0.9251138E-07  0.2500002E+04  0.7818609E-02  0.8402985E-01
        2   -1    0    0  501    0  0.00000000000E+00  0.00000000000E+00  0.12458075091E+04  0.12458075091E+04  0.25500000920E-02 0. -1.
       -2   -1    0    0    0  501  0.00000000000E+00  0.00000000000E+00 -0.12542088511E+04  0.12542088511E+04  0.25500000920E-02 0.  1.
    10030    2    1    2    0    0  0.00000000000E+00  0.00000000000E+00 -0.84013420413E+01  0.25000163602E+04  0.25000022437E+04 0.  0.
        5    1    3    3  502    0 -0.39832328374E+03 -0.15957718585E+02 -0.11889286897E+04  0.12539894761E+04  0.46999998093E+01 0.  1.
       -5    1    3    3    0  502  0.39832328374E+03  0.15957718585E+02  0.11805273476E+04  0.12460268840E+04  0.46999998093E+01 0. -1.
</event>
<event>
 5   0  0.9261602E-07  0.2499753E+04  0.7818609E-02  0.8403073E-01
       -2   -1    0    0    0  501  0.00000000000E+00  0.00000000000E+00  0.12289730934E+04  0.12289730934E+04  0.25500000920E-02 0.  1.
        2   -1    0    0  501    0  0.00000000000E+00  0.00000000000E+00 -0.12711356813E+04  0.12711356813E+04  0.25500000920E-02 0. -1.
    10030    2    1    2    0    0  0.00000000000E+00  0.00000000000E+00 -0.42162587880E+02  0.25001087748E+04  0.24997532282E+04 0.  0.
        4    1    3    3  502    0 -0.81310351071E+03 -0.42033616370E+02 -0.96952297763E+03  0.12660491938E+04  0.12699999809E+01 0. -1.
       -4    1    3    3    0  502  0.81310351071E+03  0.42033616370E+02  0.92736038975E+03  0.12340595810E+04  0.12699999809E+01 0.  1.
</event>
<event>
 5   0  0.9508784E-07  0.2499602E+04  0.7818609E-02  0.8403128E-01
       -2   -1    0    0    0  501  0.00000000000E+00  0.00000000000E+00  0.57356392108E+03  0.57356392108E+03  0.25500000920E-02 0. -1.
        2   -1    0    0  501    0  0.00000000000E+00  0.00000000000E+00 -0.27233267176E+04  0.27233267176E+04  0.25500000920E-02 0.  1.
    10030    2    1    2    0    0  0.00000000000E+00  0.00000000000E+00 -0.21497627965E+04  0.32968906387E+04  0.24996015287E+04 0.  0.
        2    1    3    3  502    0  0.76827714422E+03 -0.29625448686E+02  0.22473538125E+03  0.80102024265E+03  0.25500000920E-02 0. -1.
       -2    1    3    3    0  502 -0.76827714422E+03  0.29625448686E+02 -0.23744981778E+04  0.24958703960E+04  0.25500000920E-02 0.  1.
</event>
<event>
 5   0  0.9251138E-07  0.2498901E+04  0.7818609E-02  0.8403377E-01
       -2   -1    0    0    0  501  0.00000000000E+00  0.00000000000E+00  0.80801310518E+03  0.80801310519E+03  0.25500000920E-02 0. -1.
        2   -1    0    0  501    0  0.00000000000E+00  0.00000000000E+00 -0.19320566304E+04  0.19320566304E+04  0.25500000920E-02 0.  1.
    10030    2    1    2    0    0  0.00000000000E+00  0.00000000000E+00 -0.11240435252E+04  0.27400697356E+04  0.24989014205E+04 0.  0.
        5    1    3    3  502    0 -0.24911770242E+03  0.10002070291E+04 -0.13363092504E+04  0.16876665054E+04  0.46999998093E+01 0.  1.
       -5    1    3    3    0  502  0.24911770242E+03 -0.10002070291E+04  0.21226572519E+03  0.10524032302E+04  0.46999998093E+01 0. -1.
</event>
<event>
 5   0  0.3991066E-07  0.2499984E+04  0.7818609E-02  0.8402991E-01
       -1   -1    0    0    0  501  0.00000000000E+00  0.00000000000E+00  0.14608784201E+04  0.14608784201E+04  0.50400001928E-02 0.  1.
        1   -1    0    0  501    0  0.00000000000E+00  0.00000000000E+00 -0.10695481174E+04  0.10695481174E+04  0.50400001928E-02 0. -1.
    10030    2    1    2    0    0  0.00000000000E+00  0.00000000000E+00  0.39133030268E+03  0.25304265374E+04  0.24999838111E+04 0.  0.
        1    1    3    3  502    0 -0.69546132347E+03  0.54084273906E+03  0.10932000614E+04  0.14040169853E+04  0.50400001928E-02 0.  1.
       -1    1    3    3    0  502  0.69546132347E+03 -0.54084273906E+03 -0.70186975873E+03  0.11264095521E+04  0.50400001928E-02 0. -1.
</event>
<event>
 5   0  0.9768582E-07  0.2498805E+04  0.7818609E-02  0.8403411E-01
       -2   -1    0    0    0  501  0.00000000000E+00  0.00000000000E+00  0.77772903011E+03  0.77772903011E+03  0.25500000920E-02 0.  1.
        2   -1    0    0  501    0  0.00000000000E+00  0.00000000000E+00 -0.20071346864E+04  0.20071346864E+04  0.25500000920E-02 0. -1.
    10030    2    1    2    0    0  0.00000000000E+00  0.00000000000E+00 -0.12294056563E+04  0.27848637165E+04  0.24988052449E+04 0.  0.
        3    1    3    3  502    0  0.26820824505E+03  0.86943601496E+03  0.33956135961E+03  0.97116248587E+03  0.10100000352E+00 0. -1.
       -3    1    3    3    0  502 -0.26820824505E+03 -0.86943601496E+03 -0.15689670159E+04  0.18137012306E+04  0.10100000352E+00 0.  1.
</event>
<event>
 5   0  0.3991066E-07  0.2501687E+04  0.7818609E-02  0.8402385E-01
        1   -1    0    0  501    0  0.00000000000E+00  0.00000000000E+00  0.14627861209E+04  0.14627861209E+04  0.50400001928E-02 0. -1.
       -1   -1    0    0    0  501  0.00000000000E+00  0.00000000000E+00 -0.10696093291E+04  0.10696093291E+04  0.50400001928E-02 0.  1.
    10030    2    1    2    0    0  0.00000000000E+00  0.00000000000E+00  0.39317679184E+03  0.25323954500E+04  0.25016871758E+04 0.  0.
        1    1    3    3  502    0 -0.38772623639E+03 -0.92032519320E+03 -0.56583655399E+03  0.11478245081E+04  0.50400001928E-02 0.  1.
       -1    1    3    3    0  502  0.38772623639E+03  0.92032519320E+03  0.95901334582E+03  0.13845709419E+04  0.50400001928E-02 0. -1.
</event>
<event>
 5   0  0.9508784E-07  0.2500563E+04  0.7818609E-02  0.8402785E-01
       -2   -1    0    0    0  501  0.00000000000E+00  0.00000000000E+00  0.30010316492E+04  0.30010316492E+04  0.25500000920E-02 0.  1.
        2   -1    0    0  501    0  0.00000000000E+00  0.00000000000E+00 -0.52088873872E+03  0.52088873873E+03  0.25500000920E-02 0. -1.
    10030    2    1    2    0    0  0.00000000000E+00  0.00000000000E+00  0.24801429105E+04  0.35219203879E+04  0.25005628092E+04 0.  0.
        2    1    3    3  502    0  0.31789187213E+03  0.77440795794E+03  0.25480673453E+04  0.26820533410E+04  0.25500000920E-02 0.  1.
       -2    1    3    3    0  502 -0.31789187213E+03 -0.77440795794E+03 -0.67924434824E+02  0.83986704695E+03  0.25500000920E-02 0. -1.
</event>
<event>
 5   0  0.9251138E-07  0.2499547E+04  0.7818609E-02  0.8403147E-01
       -2   -1    0    0    0  501  0.00000000000E+00  0.00000000000E+00  0.12191280363E+04  0.12191280363E+04  0.25500000920E-02 0. -1.
        2   -1    0    0  501    0  0.00000000000E+00  0.00000000000E+00 -0.12811890401E+04  0.12811890401E+04  0.25500000920E-02 0.  1.
    10030    2    1    2    0    0  0.00000000000E+00  0.00000000000E+00 -0.62061003763E+02  0.25003170764E+04  0.24995467417E+04 0.  0.
        5    1    3    3  502    0 -0.59003552393E+02  0.95886505841E+03  0.76859547385E+03  0.12303108192E+04  0.46999998093E+01 0. -1.
       -5    1    3    3    0  502  0.59003552393E+02 -0.95886505841E+03 -0.83065647761E+03  0.12700062572E+04  0.46999998093E+01 0.  1.
</event>
<event>
 5   0  0.3991066E-07  0.2499970E+04  0.7818609E-02  0.8402996E-01
       -1   -1    0    0    0  501  0.00000000000E+00  0.00000000000E+00  0.15183343143E+04  0.15183343143E+04  0.50400001928E-02 0. -1.
        1   -1    0    0  501    0  0.00000000000E+00  0.00000000000E+00 -0.10290634247E+04  0.10290634248E+04  0.50400001928E-02 0.  1.
    10030    2    1    2    0    0  0.00000000000E+00  0.00000000000E+00  0.48927088957E+03  0.25473977391E+04  0.24999698474E+04 0.  0.
        1    1    3    3  502    0  0.67290845160E+03 -0.65753587263E+03  0.10832328621E+04  0.14347657097E+04  0.50400001928E-02 0. -1.
       -1    1    3    3    0  502 -0.67290845160E+03  0.65753587263E+03 -0.59396197254E+03  0.11126320294E+04  0.50400001928E-02 0.  1.
</event>
<event>
 5   0  0.3805418E-07  0.2499193E+04  0.7818609E-02  0.8403273E-01
       -1   -1    0    0    0  501  0.00000000000E+00  0.00000000000E+00  0.10556366771E+04  0.10556366771E+04  0.50400001928E-02 0.  1.
        1   -1    0    0  501    0  0.00000000000E+00  0.00000000000E+00 -0.14791936054E+04  0.14791936054E+04  0.50400001928E-02 0. -1.
    10030    2    1    2    0    0  0.00000000000E+00  0.00000000000E+00 -0.42355692828E+03  0.25348302825E+04  0.24991926876E+04 0.  0.
        4    1    3    3  502    0 -0.39850340290E+03  0.86975626388E+03 -0.10271123170E+04  0.14036531784E+04  0.12699999809E+01 0. -1.
       -4    1    3    3    0  502  0.39850340290E+03 -0.86975626388E+03  0.60355538871E+03  0.11311771041E+04  0.12699999809E+01 0.  1.
</event>
<event>
 5   0  0.3837524E-07  0.2500873E+04  0.7818609E-02  0.8402675E-01
        1   -1    0    0  501    0  0.00000000000E+00  0.00000000000E+00  0.31016954237E+04  0.31016954237E+04  0.50400001928E-02 0. -1.
       -1   -1    0    0    0  501  0.00000000000E+00  0.00000000000E+00 -0.50410861022E+03  0.50410861025E+03  0.50400001928E-02 0.  1.
    10030    2    1    2    0    0  0.00000000000E+00  0.00000000000E+00  0.25975868135E+04  0.36058040339E+04  0.25008729431E+04 0.  0.
        5    1    3    3  502    0  0.68615139603E+03  0.77908571921E+03  0.23037220318E+04  0.25268430077E+04  0.46999998093E+01 0. -1.
       -5    1    3    3    0  502 -0.68615139603E+03 -0.77908571921E+03  0.29386478171E+03  0.10789610262E+04  0.46999998093E+01 0.  1.
</event>
<event>
 5   0  0.3214375E-07  0.2500935E+04  0.7818609E-02  0.8402653E-01
        3   -1    0    0  501    0  0.00000000000E+00  0.00000000000E+00  0.11788315212E+04  0.11788315255E+04  0.10100000352E+00 0. -1.
       -3   -1    0    0    0  501  0.00000000000E+00  0.00000000000E+00 -0.13264566299E+04  0.13264566338E+04  0.10100000352E+00 0.  1.
    10030    2    1    2    0    0  0.00000000000E+00  0.00000000000E+00 -0.14762510877E+03  0.25052881593E+04  0.25009349428E+04 0.  0.
        5    1    3    3  502    0  0.51444159848E+03  0.93769445270E+03  0.57517759434E+03  0.12144020751E+04  0.46999998093E+01 0. -1.
       -5    1    3    3    0  502 -0.51444159848E+03 -0.93769445270E+03 -0.72280270311E+03  0.12908860842E+04  0.46999998093E+01 0.  1.
</event>
<event>
 5   0  0.3214375E-07  0.2500222E+04  0.7818609E-02  0.8402906E-01
        3   -1    0    0  501    0  0.00000000000E+00  0.00000000000E+00  0.25591402500E+04  0.25591402520E+04  0.10100000352E+00 0.  1.
       -3   -1    0    0    0  501  0.00000000000E+00  0.00000000000E+00 -0.61066507661E+03  0.61066508496E+03  0.10100000352E+00 0. -1.
    10030    2    1    2    0    0  0.00000000000E+00  0.00000000000E+00  0.19484751734E+04  0.31698053370E+04  0.25002220647E+04 0.  0.
        4    1    3    3  502    0 -0.10696680519E+04 -0.64693984507E+03  0.98364639768E+03  0.15906862522E+04  0.12699999809E+01 0. -1.
       -4    1    3    3    0  502  0.10696680519E+04  0.64693984507E+03  0.96482877574E+03  0.15791190848E+04  0.12699999809E+01 0.  1.
</event>
<event>
 5   0  0.3972587E-07  0.2499343E+04  0.7818609E-02  0.8403219E-01
       -1   -1    0    0    0  501  0.00000000000E+00  0.00000000000E+00  0.98873123737E+03  0.98873123739E+03  0.50400001928E-02 0.  1.
        1   -1    0    0  501    0  0.00000000000E+00  0.00000000000E+00 -0.15794781391E+04  0.15794781391E+04  0.50400001928E-02 0. -1.
    10030    2    1    2    0    0  0.00000000000E+00  0.00000000000E+00 -0.59074690175E+03  0.25682093765E+04  0.24993434137E+04 0.  0.
        3    1    3    3  502    0  0.30326098678E+03 -0.10259685974E+04 -0.95900173706E+03  0.14367543739E+04  0.10100000352E+00 0. -1.
       -3    1    3    3    0  502 -0.30326098678E+03  0.10259685974E+04  0.36825483531E+03  0.11314550026E+04  0.10100000352E+00 0.  1.
</event>
<event>
 5   0  0.9251138E-07  0.2499164E+04  0.7818609E-02  0.8403284E-01
        2   -1    0    0  501    0  0.00000000000E+00  0.00000000000E+00  0.98278633735E+03  0.98278633735E+03  0.25500000920E-02 0. -1.
       -2   -1    0    0    0  501  0.00000000000E+00  0.00000000000E+00 -0.15888037422E+04  0.15888037422E+04  0.25500000920E-02 0.  1.
    10030    2    1    2    0    0  0.00000000000E+00  0.00000000000E+00 -0.60601740484E+03  0.25715900795E+04  0.24991635485E+04 0.  0.
        5    1    3    3  502    0  0.12496163161E+03 -0.39951396207E+03 -0.15145016905E+04  0.15712938222E+04  0.46999998093E+01 0.  1.
       -5    1    3    3    0  502 -0.12496163161E+03  0.39951396207E+03  0.90848428562E+03  0.10002962574E+04  0.46999998093E+01 0. -1.
</event>
<event>
 5   0  0.3214375E-07  0.2498993E+04  0.7818609E-02  0.8403344E-01
        3   -1    0    0  501    0  0.00000000000E+00  0.00000000000E+00  0.10281759623E+04  0.10281759673E+04  0.10100000352E+00 0. -1.
       -3   -1    0    0    0  501  0.00000000000E+00  0.00000000000E+00 -0.15184573183E+04  0.15184573217E+04  0.10100000352E+00 0.  1.
    10030    2    1    2    0    0  0.00000000000E+00  0.00000000000E+00 -0.49028135603E+03  0.25466332890E+04  0.24989928572E+04 0.  0.
        4    1    3    3  502    0 -0.61285285890E+03  0.74359957067E+03  0.56545448607E+03  0.11172597446E+04  0.12699999809E+01 0. -1.
       -4    1    3    3    0  502  0.61285285890E+03 -0.74359957067E+03 -0.10557358421E+04  0.14293735444E+04  0.12699999809E+01 0.  1.
</event>
<event>
 5   0  0.9251138E-07  0.2498994E+04  0.7818609E-02  0.8403344E-01
        2   -1    0    0  501    0  0.00000000000E+00  0.00000000000E+00  0.19745583366E+04  0.19745583366E+04  0.25500000920E-02 0.  1.
       -2   -1    0    0    0  501  0.00000000000E+00  0.00000000000E+00 -0.79067928675E+03  0.79067928676E+03  0.25500000920E-02 0. -1.
    10030    2    1    2    0    0  0.00000000000E+00  0.00000000000E+00  0.11838790499E+04  0.27652376234E+04  0.24989936993E+04 0.  0.
        5    1    3    3  502    0 -0.11444241199E+04  0.42878825509E+03  0.30412336819E+03  0.12593963026E+04  0.46999998093E+01 0. -1.
       -5    1    3    3    0  502  0.11444241199E+04 -0.42878825509E+03  0.87975568167E+03  0.15058413208E+04  0.46999998093E+01 0.  1.
</event>
<event>
 5   0  0.3805418E-07  0.2498124E+04  0.7818609E-02  0.8403654E-01
       -1   -1    0    0    0  501  0.00000000000E+00  0.00000000000E+00  0.86624971980E+03  0.86624971982E+03  0.50400001928E-02 0.  1.
        1   -1    0    0  501    0  0.00000000000E+00  0.00000000000E+00 -0.18010465169E+04  0.18010465169E+04  0.50400001928E-02 0. -1.
    10030    2    1    2    0    0  0.00000000000E+00  0.00000000000E+00 -0.93479679709E+03  0.26672962367E+04  0.24981241287E+04 0.  0.
        4    1    3    3  502    0  0.43113871283E+02  0.14351292287E+03 -0.17914136800E+04  0.17976705345E+04  0.12699999809E+01 0. -1.
       -4    1    3    3    0  502 -0.43113871283E+02 -0.14351292287E+03  0.85661688291E+03  0.86962570219E+03  0.12699999809E+01 0.  1.
</event>
<event>
 5   0  0.3837524E-07  0.2497921E+04  0.7818609E-02  0.8403726E-01
       -1   -1    0    0    0  501  0.00000000000E+00  0.00000000000E+00  0.55408779993E+03  0.55408779995E+03  0.50400001928E-02 0.  1.
        1   -1    0    0  501    0  0.00000000000E+00  0.00000000000E+00 -0.28152630483E+04  0.28152630483E+04  0.50400001928E-02 0. -1.
    10030    2    1    2    0    0  0.00000000000E+00  0.00000000000E+00 -0.22611752483E+04  0.33693508482E+04  0.24979214629E+04 0.  0.
        5    1    3    3  502    0  0.20094853767E+03 -0.10878463543E+04 -0.34860738691E+03  0.11598875831E+04  0.46999998093E+01 0.  1.
       -5    1    3    3    0  502 -0.20094853767E+03  0.10878463543E+04 -0.19125678614E+04  0.22094632651E+04  0.46999998093E+01 0. -1.
</event>
<event>
 5   0  0.9768582E-07  0.2501409E+04  0.7818609E-02  0.8402484E-01
       -2   -1    0    0    0  501  0.00000000000E+00  0.00000000000E+00  0.62266733234E+03  0.62266733234E+03  0.25500000920E-02 0. -1.
        2   -1    0    0  501    0  0.00000000000E+00  0.00000000000E+00 -0.25121950882E+04  0.25121950882E+04  0.25500000920E-02 0.  1.
    10030    2    1    2    0    0  0.00000000000E+00  0.00000000000E+00 -0.18895277559E+04  0.31348624206E+04  0.25014090540E+04 0.  0.
        3    1    3    3  502    0 -0.57447826037E+03 -0.10310670086E+04 -0.14632130401E+04  0.18799246950E+04  0.10100000352E+00 0.  1.
       -3    1    3    3    0  502  0.57447826037E+03  0.10310670086E+04 -0.42631471576E+03  0.12549377255E+04  0.10100000352E+00 0. -1.
</event>
<event>
 5   0  0.9251138E-07  0.2500710E+04  0.7818609E-02  0.8402733E-01
       -2   -1    0    0    0  501  0.00000000000E+00  0.00000000000E+00  0.92508424600E+03  0.92508424600E+03  0.25500000920E-02 0. -1.
        2   -1    0    0  501    0  0.00000000000E+00  0.00000000000E+00 -0.16899943102E+04  0.16899943102E+04  0.25500000920E-02 0.  1.
    10030    2    1    2    0    0  0.00000000000E+00  0.00000000000E+00 -0.76491006416E+03  0.26150785562E+04  0.25007095890E+04 0.  0.
        5    1    3    3  502    0  0.10164468090E+04  0.51655356358E+03  0.15421503289E+03  0.11505633689E+04  0.46999998093E+01 0.  1.
       -5    1    3    3    0  502 -0.10164468090E+04 -0.51655356358E+03 -0.91912509705E+03  0.14645151872E+04  0.46999998093E+01 0. -1.
</event>
<event>
 5   0  0.3214375E-07  0.2502252E+04  0.7818609E-02  0.8402184E-01
       -3   -1    0    0    0  501  0.00000000000E+00  0.00000000000E+00  0.99906114545E+03  0.99906115056E+03  0.10100000352E+00 0.  1.
        3   -1    0    0  501    0  0.00000000000E+00  0.00000000000E+00 -0.15667877763E+04  0.15667877796E+04  0.10100000352E+00 0. -1.
    10030    2    1    2    0    0  0.00000000000E+00  0.00000000000E+00 -0.56772663084E+03  0.25658489301E+04  0.25022524263E+04 0.  0.
        1    1    3    3  502    0 -0.98627756985E+03  0.74747689587E+03 -0.47252767359E+03  0.13246688480E+04  0.50400001928E-02 0. -1.
       -1    1    3    3    0  502  0.98627756985E+03 -0.74747689587E+03 -0.95198957250E+02  0.12411800821E+04  0.50400001928E-02 0.  1.
</event>
<event>
 5   0  0.9261602E-07  0.2501110E+04  0.7818609E-02  0.8402590E-01
        2   -1    0    0  501    0  0.00000000000E+00  0.00000000000E+00  0.17643497217E+04  0.17643497217E+04  0.25500000920E-02 0. -1.
       -2   -1    0    0    0  501  0.00000000000E+00  0.00000000000E+00 -0.88638204850E+03  0.88638204851E+03  0.25500000920E-02 0.  1.
    10030    2    1    2    0    0  0.00000000000E+00  0.00000000000E+00  0.87796767317E+03  0.26507317702E+04  0.25011100900E+04 0.  0.
        4    1    3    3  502    0  0.12499388307E+04 -0.38947854577E+02  0.43397996408E+03  0.13237085170E+04  0.12699999809E+01 0.  1.
       -4    1    3    3    0  502 -0.12499388307E+04  0.38947854577E+02  0.44398770909E+03  0.13270232532E+04  0.12699999809E+01 0. -1.
</event>
<event>
 5   0  0.3991066E-07  0.2499626E+04  0.7818609E-02  0.8403119E-01
       -1   -1    0    0    0  501  0.00000000000E+00  0.00000000000E+00  0.58968563861E+03  0.58968563863E+03  0.50400001928E-02 0.  1.
        1   -1    0    0  501    0  0.00000000000E+00  0.00000000000E+00 -0.26489238323E+04  0.26489238323E+04  0.50400001928E-02 0. -1.
    10030    2    1    2    0    0  0.00000000000E+00  0.00000000000E+00 -0.20592381937E+04  0.32386094709E+04  0.24996258454E+04 0.  0.
        1    1    3    3  502    0 -0.25838080257E+03 -0.11948506977E+04 -0.69274454354E+03  0.14051063417E+04  0.50400001928E-02 0.  1.
       -1    1    3    3    0  502  0.25838080257E+03  0.11948506977E+04 -0.13664936501E+04  0.18335031292E+04  0.50400001928E-02 0. -1.
</event>
<event>
 5   0  0.3805418E-07  0.2501470E+04  0.7818609E-02  0.8402462E-01
       -1   -1    0    0    0  501  0.00000000000E+00  0.00000000000E+00  0.13807157407E+04  0.13807157407E+04  0.50400001928E-02 0. -1.
        1   -1    0    0  501    0  0.00000000000E+00  0.00000000000E+00 -0.11329903948E+04  0.11329903948E+04  0.50400001928E-02 0.  1.
    10030    2    1    2    0    0  0.00000000000E+00  0.00000000000E+00  0.24772534587E+03  0.25137061355E+04  0.25014697057E+04 0.  0.
        4    1    3    3  502    0 -0.22272145772E+03 -0.43155811234E+03  0.12821017343E+04  0.13709973458E+04  0.12699999809E+01 0. -1.
       -4    1    3    3    0  502  0.22272145772E+03  0.43155811234E+03 -0.10343763885E+04  0.11427087897E+04  0.12699999809E+01 0.  1.
</event>
<event>
 5   0  0.3805418E-07  0.2500314E+04  0.7818609E-02  0.8402874E-01
       -1   -1    0    0    0  501  0.00000000000E+00  0.00000000000E+00  0.10832455493E+04  0.10832455493E+04  0.50400001928E-02 0. -1.
        1   -1    0    0  501    0  0.00000000000E+00  0.00000000000E+00 -0.14427866160E+04  0.14427866160E+04  0.50400001928E-02 0.  1.
    10030    2    1    2    0    0  0.00000000000E+00  0.00000000000E+00 -0.35954106668E+03  0.25260321653E+04  0.25003137246E+04 0.  0.
        4    1    3    3  502    0 -0.40137496763E+03 -0.77666906199E+03  0.72305102217E+03  0.11345135918E+04  0.12699999809E+01 0. -1.
       -4    1    3    3    0  502  0.40137496763E+03  0.77666906199E+03 -0.10825920888E+04  0.13915185734E+04  0.12699999809E+01 0.  1.
</event>
<event>
 5   0  0.3805418E-07  0.2503929E+04  0.7818609E-02  0.8401587E-01
       -1   -1    0    0    0  501  0.00000000000E+00  0.00000000000E+00  0.12801092510E+04  0.12801092510E+04  0.50400001928E-02 0.  1.
        1   -1    0    0  501    0  0.00000000000E+00  0.00000000000E+00 -0.12244387066E+04  0.12244387067E+04  0.50400001928E-02 0. -1.
    10030    2    1    2    0    0  0.00000000000E+00  0.00000000000E+00  0.55670544357E+02  0.25045479577E+04  0.25039291649E+04 0.  0.
        4    1    3    3  502    0  0.10430338808E+03  0.36937773619E+03  0.12198069887E+04  0.12787688655E+04  0.12699999809E+01 0.  1.
       -4    1    3    3    0  502 -0.10430338808E+03 -0.36937773619E+03 -0.11641364444E+04  0.12257790922E+04  0.12699999809E+01 0. -1.
</event>
<event>
 5   0  0.3991066E-07  0.2499416E+04  0.7818609E-02  0.8403194E-01
        1   -1    0    0  501    0  0.00000000000E+00  0.00000000000E+00  0.14239844832E+04  0.14239844832E+04  0.50400001928E-02 0. -1.
       -1   -1    0    0    0  501  0.00000000000E+00  0.00000000000E+00 -0.10967604710E+04  0.10967604710E+04  0.50400001928E-02 0.  1.
    10030    2    1    2    0    0  0.00000000000E+00  0.00000000000E+00  0.32722401218E+03  0.25207449543E+04  0.24994158458E+04 0.  0.
        1    1    3    3  502    0 -0.61060034124E+03 -0.48742274178E+03 -0.82008638499E+03  0.11326762047E+04  0.50400001928E-02 0.  1.
       -1    1    3    3    0  502  0.61060034124E+03  0.48742274178E+03  0.11473103972E+04  0.13880687495E+04  0.50400001928E-02 0. -1.
</event>
<event>
 5   0  0.3837524E-07  0.2501217E+04  0.7818609E-02  0.8402552E-01
        1   -1    0    0  501    0  0.00000000000E+00  0.00000000000E+00  0.12419333086E+04  0.12419333086E+04  0.50400001928E-02 0.  1.
       -1   -1    0    0    0  501  0.00000000000E+00  0.00000000000E+00 -0.12593446791E+04  0.12593446791E+04  0.50400001928E-02 0. -1.
    10030    2    1    2    0    0  0.00000000000E+00  0.00000000000E+00 -0.17411370540E+02  0.25012779877E+04  0.25012173868E+04 0.  0.
        5    1    3    3  502    0 -0.24811258044E+03  0.28518717767E+03 -0.12008370953E+04  0.12589374084E+04  0.46999998093E+01 0. -1.
       -5    1    3    3    0  502  0.24811258044E+03 -0.28518717767E+03  0.11834257248E+04  0.12423405793E+04  0.46999998093E+01 0.  1.
</event>
<event>
 5   0  0.9261602E-07  0.2498795E+04  0.7818609E-02  0.8403415E-01
        2   -1    0    0  501    0  0.00000000000E+00  0.00000000000E+00  0.20719510292E+04  0.20719510292E+04  0.25500000920E-02 0.  1.
       -2   -1    0    0    0  501  0.00000000000E+00  0.00000000000E+00 -0.75339310124E+03  0.75339310124E+03  0.25500000920E-02 0. -1.
    10030    2    1    2    0    0  0.00000000000E+00  0.00000000000E+00  0.13185579280E+04  0.28253441305E+04  0.24987945986E+04 0.  0.
        4    1    3    3  502    0 -0.39511531380E+03  0.49966365458E+03 -0.55598791784E+03  0.84551999183E+03  0.12699999809E+01 0. -1.
       -4    1    3    3    0  502  0.39511531380E+03 -0.49966365458E+03  0.18745458458E+04  0.19798241386E+04  0.12699999809E+01 0.  1.
</event>
<event>
 5   0  0.3837524E-07  0.2499320E+04  0.7818609E-02  0.8403228E-01
        1   -1    0    0  501    0  0.00000000000E+00  0.00000000000E+00  0.13953525724E+04  0.13953525724E+04  0.50400001928E-02 0.  1.
       -1   -1    0    0    0  501  0.00000000000E+00  0.00000000000E+00 -0.11191794743E+04  0.11191794743E+04  0.50400001928E-02 0. -1.
    10030    2    1    2    0    0  0.00000000000E+00  0.00000000000E+00  0.27617309815E+03  0.25145320467E+04  0.24993198742E+04 0.  0.
        5    1    3    3  502    0  0.62519984419E+03  0.49417988199E+03  0.11065143473E+04  0.13636292354E+04  0.46999998093E+01 0.  1.
       -5    1    3    3    0  502 -0.62519984419E+03 -0.49417988199E+03 -0.83034124915E+03  0.11509028113E+04  0.46999998093E+01 0. -1.
</event>
<event>
 5   0  0.9261602E-07  0.2500032E+04  0.7818609E-02  0.8402974E-01
       -2   -1    0    0    0  501  0.00000000000E+00  0.00000000000E+00  0.75568616617E+03  0.75568616618E+03  0.25500000920E-02 0. -1.
        2   -1    0    0  501    0  0.00000000000E+00  0.00000000000E+00 -0.20677094833E+04  0.20677094833E+04  0.25500000920E-02 0.  1.
    10030    2    1    2    0    0  0.00000000000E+00  0.00000000000E+00 -0.13120233172E+04  0.28233956495E+04  0.25000315616E+04 0.  0.
        4    1    3    3  502    0 -0.98351671440E+03 -0.51372584372E+03 -0.59582005910E+01  0.11096199724E+04  0.12699999809E+01 0. -1.
       -4    1    3    3    0  502  0.98351671440E+03  0.51372584372E+03 -0.13060651166E+04  0.17137756772E+04  0.12699999809E+01 0.  1.
</event>
<event>
 5   0  0.3991066E-07  0.2498727E+04  0.7818609E-02  0.8403439E-01
       -1   -1    0    0    0  501  0.00000000000E+00  0.00000000000E+00  0.91181864055E+03  0.91181864056E+03  0.50400001928E-02 0.  1.
        1   -1    0    0  501    0  0.00000000000E+00  0.00000000000E+00 -0.17118637661E+04  0.17118637661E+04  0.50400001928E-02 0. -1.
    10030    2    1    2    0    0  0.00000000000E+00  0.00000000000E+00 -0.80004512555E+03  0.26236824067E+04  0.24987271096E+04 0.  0.
        1    1    3    3  502    0  0.11864012230E+04  0.31887019988E+03 -0.63873070880E+03  0.13846309923E+04  0.50400001928E-02 0.  1.
       -1    1    3    3    0  502 -0.11864012230E+04 -0.31887019988E+03 -0.16131441675E+03  0.12390514144E+04  0.50400001928E-02 0. -1.
</event>
<event>
 5   0  0.8997210E-07  0.2499349E+04  0.7818609E-02  0.8403217E-01
        2   -1    0    0  501    0  0.00000000000E+00  0.00000000000E+00  0.11206596971E+04  0.11206596971E+04  0.25500000920E-02 0. -1.
       -2   -1    0    0    0  501  0.00000000000E+00  0.00000000000E+00 -0.13935422767E+04  0.13935422767E+04  0.25500000920E-02 0.  1.
    10030    2    1    2    0    0  0.00000000000E+00  0.00000000000E+00 -0.27288257958E+03  0.25142019738E+04  0.24993492479E+04 0.  0.
        1    1    3    3  502    0  0.36091270340E+03  0.91962008363E+03 -0.90631777736E+03  0.13406606548E+04  0.50400001928E-02 0.  1.
       -1    1    3    3    0  502 -0.36091270340E+03 -0.91962008363E+03  0.63343519778E+03  0.11735413190E+04  0.50400001928E-02 0. -1.
</event>
<event>
 5   0  0.3972587E-07  0.2499440E+04  0.7818609E-02  0.8403185E-01
        1   -1    0    0  501    0  0.00000000000E+00  0.00000000000E+00  0.13832961714E+04  0.13832961714E+04  0.50400001928E-02 0.  1.
       -1   -1    0    0    0  501  0.00000000000E+00  0.00000000000E+00 -0.11290425869E+04  0.11290425869E+04  0.50400001928E-02 0. -1.
    10030    2    1    2    0    0  0.00000000000E+00  0.00000000000E+00  0.25425358449E+03  0.25123387583E+04  0.24994401675E+04 0.  0.
        3    1    3    3  502    0  0.11664100198E+04  0.21860190604E+03 -0.26668731559E+03  0.12163146230E+04  0.10100000352E+00 0.  1.
       -3    1    3    3    0  502 -0.11664100198E+04 -0.21860190604E+03  0.52094090008E+03  0.12960241353E+04  0.10100000352E+00 0. -1.
</event>
<event>
 5   0  0.9508784E-07  0.2500377E+04  0.7818609E-02  0.8402851E-01
        2   -1    0    0  501    0  0.00000000000E+00  0.00000000000E+00  0.12452866939E+04  0.12452866939E+04  0.25500000920E-02 0.  1.
       -2   -1    0    0    0  501  0.00000000000E+00  0.00000000000E+00 -0.12551097566E+04  0.12551097566E+04  0.25500000920E-02 0. -1.
    10030    2    1    2    0    0  0.00000000000E+00  0.00000000000E+00 -0.98230627048E+01  0.25003964506E+04  0.25003771550E+04 0.  0.
        2    1    3    3  502    0  0.18439464716E+02 -0.85002385997E+03  0.91166027110E+03  0.12465973794E+04  0.25500000920E-02 0.  1.
       -2    1    3    3    0  502 -0.18439464716E+02  0.85002385997E+03 -0.92148333380E+03  0.12537990712E+04  0.25500000920E-02 0. -1.
</event>
<event>
 5   0  0.3991066E-07  0.2499490E+04  0.7818609E-02  0.8403167E-01
       -1   -1    0    0    0  501  0.00000000000E+00  0.00000000000E+00  0.57263983660E+03  0.57263983662E+03  0.50400001928E-02 0. -1.
        1   -1    0    0  501    0  0.00000000000E+00  0.00000000000E+00 -0.27274776701E+04  0.27274776702E+04  0.50400001928E-02 0.  1.
    10030    2    1    2    0    0  0.00000000000E+00  0.00000000000E+00 -0.21548378335E+04  0.33001175068E+04  0.24994898419E+04 0.  0.
        1    1    3    3  502    0 -0.49254727178E+03  0.90022300773E+03 -0.20192572645E+04  0.22650395535E+04  0.50400001928E-02 0.  1.
       -1    1    3    3    0  502  0.49254727178E+03 -0.90022300773E+03 -0.13558056900E+03  0.10350779532E+04  0.50400001928E-02 0. -1.
</event>
<event>
 5   0  0.3972587E-07  0.2498993E+04  0.7818609E-02  0.8403344E-01
       -1   -1    0    0    0  501  0.00000000000E+00  0.00000000000E+00  0.72344888754E+03  0.72344888755E+03  0.50400001928E-02 0.  1.
        1   -1    0    0  501    0  0.00000000000E+00  0.00000000000E+00 -0.21580544522E+04  0.21580544523E+04  0.50400001928E-02 0. -1.
    10030    2    1    2    0    0  0.00000000000E+00  0.00000000000E+00 -0.14346055647E+04  0.28815033398E+04  0.24989934716E+04 0.  0.
        3    1    3    3  502    0 -0.26558379084E+03 -0.10622817758E+04 -0.23290668217E+02  0.10952259066E+04  0.10100000352E+00 0.  1.
       -3    1    3    3    0  502  0.26558379084E+03  0.10622817758E+04 -0.14113148965E+04  0.17862774332E+04  0.10100000352E+00 0. -1.
</event>
<event>
 5   0  0.3991066E-07  0.2499224E+04  0.7818609E-02  0.8403262E-01
        1   -1    0    0  501    0  0.00000000000E+00  0.00000000000E+00  0.15819893366E+04  0.15819893366E+04  0.50400001928E-02 0.  1.
       -1   -1    0    0    0  501  0.00000000000E+00  0.00000000000E+00 -0.98706765357E+03  0.98706765358E+03  0.50400001928E-02 0. -1.
    10030    2    1    2    0    0  0.00000000000E+00  0.00000000000E+00  0.59492168304E+03  0.25690569902E+04  0.24992242816E+04 0.  0.
        1    1    3    3  502    0 -0.51689397926E+02  0.38109171008E+03 -0.92472162229E+03  0.10015052492E+04  0.50400001928E-02 0. -1.
       -1    1    3    3    0  502  0.51689397926E+02 -0.38109171008E+03  0.15196433053E+04  0.15675517410E+04  0.50400001928E-02 0.  1.
</event>
<event>
 5   0  0.9251138E-07  0.2500761E+04  0.7818609E-02  0.8402715E-01
       -2   -1    0    0    0  501  0.00000000000E+00  0.00000000000E+00  0.70452730005E+03  0.70452730006E+03  0.25500000920E-02 0.  1.
        2   -1    0    0  501    0  0.00000000000E+00  0.00000000000E+00 -0.22191491604E+04  0.22191491604E+04  0.25500000920E-02 0. -1.
    10030    2    1    2    0    0  0.00000000000E+00  0.00000000000E+00 -0.15146218603E+04  0.29236764604E+04  0.25007608173E+04 0.  0.
        5    1    3    3  502    0 -0.54142491509E+03 -0.34629246327E+03 -0.20112483594E+04  0.21114453490E+04  0.46999998093E+01 0. -1.
       -5    1    3    3    0  502  0.54142491509E+03  0.34629246327E+03  0.49662649905E+03  0.81223111142E+03  0.46999998093E+01 0.  1.
</event>
<event>
 5   0  0.9768582E-07  0.2500433E+04  0.7818609E-02  0.8402831E-01
        2   -1    0    0  501    0  0.00000000000E+00  0.00000000000E+00  0.15703926739E+04  0.15703926739E+04  0.25500000920E-02 0.  1.
       -2   -1    0    0    0  501  0.00000000000E+00  0.00000000000E+00 -0.99531895497E+03  0.99531895497E+03  0.25500000920E-02 0. -1.
    10030    2    1    2    0    0  0.00000000000E+00  0.00000000000E+00  0.57507371893E+03  0.25657116289E+04  0.25004332385E+04 0.  0.
        3    1    3    3  502    0  0.93252204358E+03  0.83272623398E+03  0.29097735867E+03  0.12836269614E+04  0.10100000352E+00 0. -1.
       -3    1    3    3    0  502 -0.93252204358E+03 -0.83272623398E+03  0.28409636026E+03  0.12820846675E+04  0.10100000352E+00 0.  1.
</event>
<event>
 5   0  0.8997210E-07  0.2497940E+04  0.7818609E-02  0.8403720E-01
        2   -1    0    0  501    0  0.00000000000E+00  0.00000000000E+00  0.16894460437E+04  0.16894460437E+04  0.25500000920E-02 0. -1.
       -2   -1    0    0    0  501  0.00000000000E+00  0.00000000000E+00 -0.92333595441E+03  0.92333595442E+03  0.25500000920E-02 0.  1.
    10030    2    1    2    0    0  0.00000000000E+00  0.00000000000E+00  0.76611008928E+03  0.26127819981E+04  0.24979401716E+04 0.  0.
        1    1    3    3  502    0  0.11506706143E+04  0.32996040357E+03  0.75582364441E+03  0.14156928028E+04  0.50400001928E-02 0. -1.
       -1    1    3    3    0  502 -0.11506706143E+04 -0.32996040357E+03  0.10286444863E+02  0.11970891953E+04  0.50400001928E-02 0.  1.
</event>
<event>
 5   0  0.3873231E-07  0.2497749E+04  0.7818609E-02  0.8403788E-01
        1   -1    0    0  501    0  0.00000000000E+00  0.00000000000E+00  0.98132028406E+03  0.98132028407E+03  0.50400001928E-02 0.  1.
       -1   -1    0    0    0  501  0.00000000000E+00  0.00000000000E+00 -0.15893764044E+04  0.15893764044E+04  0.50400001928E-02 0. -1.
    10030    2    1    2    0    0  0.00000000000E+00  0.00000000000E+00 -0.60805612031E+03  0.25706966884E+04  0.24977488302E+04 0.  0.
        2    1    3    3  502    0  0.11027804133E+04 -0.54632825884E+03 -0.52256911407E+03  0.13370406446E+04  0.25500000920E-02 0. -1.
       -2    1    3    3    0  502 -0.11027804133E+04  0.54632825884E+03 -0.85487006238E+02  0.12336560439E+04  0.25500000920E-02 0.  1.
</event>
<event>
 5   0  0.3991066E-07  0.2496366E+04  0.7818609E-02  0.8404281E-01
        1   -1    0    0  501    0  0.00000000000E+00  0.00000000000E+00  0.19048800552E+04  0.19048800552E+04  0.50400001928E-02 0.  1.
       -1   -1    0    0    0  501  0.00000000000E+00  0.00000000000E+00 -0.81787867336E+03  0.81787867337E+03  0.50400001928E-02 0. -1.
    10030    2    1    2    0    0  0.00000000000E+00  0.00000000000E+00  0.10870013818E+04  0.27227587286E+04  0.24963659768E+04 0.  0.
        1    1    3    3  502    0  0.10492864096E+04  0.85443873322E+02 -0.18787772177E+03  0.10693926609E+04  0.50400001928E-02 0. -1.
       -1    1    3    3    0  502 -0.10492864096E+04 -0.85443873322E+02  0.12748791036E+04  0.16533660677E+04  0.50400001928E-02 0.  1.
</event>
<event>
 5   0  0.9251138E-07  0.2497644E+04  0.7818609E-02  0.8403825E-01
       -2   -1    0    0    0  501  0.00000000000E+00  0.00000000000E+00  0.10653521706E+04  0.10653521706E+04  0.25500000920E-02 0.  1.
        2   -1    0    0  501    0  0.00000000000E+00  0.00000000000E+00 -0.14638884614E+04  0.14638884614E+04  0.25500000920E-02 0. -1.
    10030    2    1    2    0    0  0.00000000000E+00  0.00000000000E+00 -0.39853629082E+03  0.25292406321E+04  0.24976442901E+04 0.  0.
        5    1    3    3  502    0  0.51152380804E+03 -0.76453994908E+03  0.65602096280E+03  0.11298511112E+04  0.46999998093E+01 0.  1.
       -5    1    3    3    0  502 -0.51152380804E+03  0.76453994908E+03 -0.10545572536E+04  0.13993895209E+04  0.46999998093E+01 0. -1.
</event>
<event>
 5   0  0.3837524E-07  0.2501163E+04  0.7818609E-02  0.8402571E-01
        1   -1    0    0  501    0  0.00000000000E+00  0.00000000000E+00  0.71729731858E+03  0.71729731860E+03  0.50400001928E-02 0.  1.
       -1   -1    0    0    0  501  0.00000000000E+00  0.00000000000E+00 -0.21803436282E+04  0.21803436282E+04  0.50400001928E-02 0. -1.
    10030    2    1    2    0    0  0.00000000000E+00  0.00000000000E+00 -0.14630463096E+04  0.28976409468E+04  0.25011634398E+04 0.  0.
        5    1    3    3  502    0 -0.47271129170E+03  0.49148582156E+03 -0.19459886913E+04  0.20620156049E+04  0.46999998093E+01 0. -1.
       -5    1    3    3    0  502  0.47271129170E+03 -0.49148582156E+03  0.48294238166E+03  0.83562534194E+03  0.46999998093E+01 0.  1.
</event>
<event>
 5   0  0.3805418E-07  0.2499868E+04  0.7818609E-02  0.8403033E-01
        1   -1    0    0  501    0  0.00000000000E+00  0.00000000000E+00  0.18466862615E+04  0.18466862615E+04  0.50400001928E-02 0.  1.
       -1   -1    0    0    0  501  0.00000000000E+00  0.00000000000E+00 -0.84602051319E+03  0.84602051321E+03  0.50400001928E-02 0. -1.
    10030    2    1    2    0    0  0.00000000000E+00  0.00000000000E+00  0.10006657483E+04  0.26927067747E+04  0.24998675634E+04 0.  0.
        4    1    3    3  502    0  0.93895179305E+03  0.70626285927E+03  0.40941727915E+02  0.11756340987E+04  0.12699999809E+01 0. -1.
       -4    1    3    3    0  502 -0.93895179305E+03 -0.70626285927E+03  0.95972402040E+03  0.15170726760E+04  0.12699999809E+01 0.  1.
</event>
<event>
 5   0  0.9251138E-07  0.2499243E+04  0.7818609E-02  0.8403255E-01
       -2   -1    0    0    0  501  0.00000000000E+00  0.00000000000E+00  0.20250818856E+04  0.20250818856E+04  0.25500000920E-02 0. -1.
        2   -1    0    0  501    0  0.00000000000E+00  0.00000000000E+00 -0.77110642031E+03  0.77110642032E+03  0.25500000920E-02 0.  1.
    10030    2    1    2    0    0  0.00000000000E+00  0.00000000000E+00  0.12539754653E+04  0.27961883059E+04  0.24992428003E+04 0.  0.
        5    1    3    3  502    0  0.89942556138E+02  0.63235068213E+03 -0.57467001259E+03  0.85920007097E+03  0.46999998093E+01 0.  1.
       -5    1    3    3    0  502 -0.89942556138E+02 -0.63235068213E+03  0.18286454779E+04  0.19369882349E+04  0.46999998093E+01 0. -1.
</event>
<event>
 5   0  0.3837524E-07  0.2499573E+04  0.7818609E-02  0.8403138E-01
       -1   -1    0    0    0  501  0.00000000000E+00  0.00000000000E+00  0.64790377406E+03  0.64790377408E+03  0.50400001928E-02 0. -1.
        1   -1    0    0  501    0  0.00000000000E+00  0.00000000000E+00 -0.24107993928E+04  0.24107993928E+04  0.50400001928E-02 0.  1.
    10030    2    1    2    0    0  0.00000000000E+00  0.00000000000E+00 -0.17628956188E+04  0.30587031669E+04  0.24995727836E+04 0.  0.
        5    1    3    3  502    0 -0.21325539978E+03 -0.11937169314E+04 -0.12516135568E+04  0.17426980701E+04  0.46999998093E+01 0.  1.
       -5    1    3    3    0  502  0.21325539978E+03  0.11937169314E+04 -0.51128206195E+03  0.13160050968E+04  0.46999998093E+01 0. -1.
</event>
<event>
 5   0  0.9251138E-07  0.2501282E+04  0.7818609E-02  0.8402529E-01
        2   -1    0    0  501    0  0.00000000000E+00  0.00000000000E+00  0.20677965816E+04  0.20677965816E+04  0.25500000920E-02 0.  1.
       -2   -1    0    0    0  501  0.00000000000E+00  0.00000000000E+00 -0.75641029328E+03  0.75641029329E+03  0.25500000920E-02 0. -1.
    10030    2    1    2    0    0  0.00000000000E+00  0.00000000000E+00  0.13113862884E+04  0.28242068749E+04  0.25012817664E+04 0.  0.
        5    1    3    3  502    0 -0.10429385068E+04  0.31017578581E+03  0.13518575791E+04  0.17353589689E+04  0.46999998093E+01 0.  1.
       -5    1    3    3    0  502  0.10429385068E+04 -0.31017578581E+03 -0.40471290709E+02  0.10888479060E+04  0.46999998093E+01 0. -1.
</event>
<event>
 5   0  0.9261602E-07  0.2496368E+04  0.7818609E-02  0.8404281E-01
        2   -1    0    0  501    0  0.00000000000E+00  0.00000000000E+00  0.30500610071E+04  0.30500610071E+04  0.25500000920E-02 0. -1.
       -2   -1    0    0    0  501  0.00000000000E+00  0.00000000000E+00 -0.51079739510E+03  0.51079739511E+03  0.25500000920E-02 0.  1.
    10030    2    1    2    0    0  0.00000000000E+00  0.00000000000E+00  0.25392636120E+04  0.35608584022E+04  0.24963679355E+04 0.  0.
        4    1    3    3  502    0 -0.23888723751E+03 -0.11790342752E+04  0.17443790155E+04  0.21189735008E+04  0.12699999809E+01 0.  1.
       -4    1    3    3    0  502  0.23888723751E+03  0.11790342752E+04  0.79488459648E+03  0.14418849014E+04  0.12699999809E+01 0. -1.
</event>
<event>
 5   0  0.8997210E-07  0.2501088E+04  0.7818609E-02  0.8402598E-01
        2   -1    0    0  501    0  0.00000000000E+00  0.00000000000E+00  0.11959023727E+04  0.11959023727E+04  0.25500000920E-02 0.  1.
       -2   -1    0    0    0  501  0.00000000000E+00  0.00000000000E+00 -0.13076826122E+04  0.13076826122E+04  0.25500000920E-02 0. -1.
    10030    2    1    2    0    0  0.00000000000E+00  0.00000000000E+00 -0.11178023953E+03  0.25035849849E+04  0.25010883541E+04 0.  0.
        1    1    3    3  502    0 -0.70960362175E+03 -0.95619964168E+03  0.32659820735E+03  0.12347151266E+04  0.50400001928E-02 0.  1.
       -1    1    3    3    0  502  0.70960362175E+03  0.95619964168E+03 -0.43837844688E+03  0.12688698584E+04  0.50400001928E-02 0. -1.
</event>
<event>
 5   0  0.8997210E-07  0.2498348E+04  0.7818609E-02  0.8403574E-01
       -2   -1    0    0    0  501  0.00000000000E+00  0.00000000000E+00  0.10571965612E+04  0.10571965612E+04  0.25500000920E-02 0.  1.
        2   -1    0    0  501    0  0.00000000000E+00  0.00000000000E+00 -0.14760124933E+04  0.14760124933E+04  0.25500000920E-02 0. -1.
    10030    2    1    2    0    0  0.00000000000E+00  0.00000000000E+00 -0.41881593205E+03  0.25332090545E+04  0.24983477198E+04 0.  0.
        1    1    3    3  502    0  0.72242585035E+03 -0.80798057963E+03  0.42030842511E+03  0.11624933972E+04  0.50400001928E-02 0.  1.
       -1    1    3    3    0  502 -0.72242585035E+03  0.80798057963E+03 -0.83912435715E+03  0.13707156573E+04  0.50400001928E-02 0. -1.
</event>
<event>
 5   0  0.3873231E-07  0.2500481E+04  0.7818609E-02  0.8402814E-01
       -1   -1    0    0    0  501  0.00000000000E+00  0.00000000000E+00  0.99017148541E+03  0.99017148543E+03  0.50400001928E-02 0.  1.
        1   -1    0    0  501    0  0.00000000000E+00  0.00000000000E+00 -0.15786165277E+04  0.15786165277E+04  0.50400001928E-02 0. -1.
    10030    2    1    2    0    0  0.00000000000E+00  0.00000000000E+00 -0.58844504226E+03  0.25687880131E+04  0.25004808115E+04 0.  0.
        2    1    3    3  502    0 -0.84176364608E+03 -0.41174072166E+03  0.55603696972E+03  0.10896208375E+04  0.25500000920E-02 0.  1.
       -2    1    3    3    0  502  0.84176364608E+03  0.41174072166E+03 -0.11444820120E+04  0.14791671756E+04  0.25500000920E-02 0. -1.
</event>
<event>
 5   0  0.8997210E-07  0.2498917E+04  0.7818609E-02  0.8403371E-01
       -2   -1    0    0    0  501  0.00000000000E+00  0.00000000000E+00  0.17328117428E+04  0.17328117428E+04  0.25500000920E-02 0. -1.
        2   -1    0    0  501    0  0.00000000000E+00  0.00000000000E+00 -0.90093257061E+03  0.90093257062E+03  0.25500000920E-02 0.  1.
    10030    2    1    2    0    0  0.00000000000E+00  0.00000000000E+00  0.83187917221E+03  0.26337443134E+04  0.24989169957E+04 0.  0.
        1    1    3    3  502    0  0.34481829506E+03 -0.43136896846E+03 -0.76532066452E+03  0.94376615914E+03  0.50400001928E-02 0.  1.
       -1    1    3    3    0  502 -0.34481829506E+03  0.43136896846E+03  0.15971998367E+04  0.16899781543E+04  0.50400001928E-02 0. -1.
</event>
<event>
 5   0  0.3837524E-07  0.2499354E+04  0.7818609E-02  0.8403216E-01
        1   -1    0    0  501    0  0.00000000000E+00  0.00000000000E+00  0.13970688155E+04  0.13970688155E+04  0.50400001928E-02 0.  1.
       -1   -1    0    0    0  501  0.00000000000E+00  0.00000000000E+00 -0.11178350951E+04  0.11178350951E+04  0.50400001928E-02 0. -1.
    10030    2    1    2    0    0  0.00000000000E+00  0.00000000000E+00  0.27923372033E+03  0.25149039106E+04  0.24993539584E+04 0.  0.
        5    1    3    3  502    0  0.80167946885E+03  0.71415903963E+03 -0.50385957029E+03  0.11860057594E+04  0.46999998093E+01 0. -1.
       -5    1    3    3    0  502 -0.80167946885E+03 -0.71415903963E+03  0.78309329062E+03  0.13288981513E+04  0.46999998093E+01 0.  1.
</event>
<event>
 5   0  0.3972587E-07  0.2510457E+04  0.7818609E-02  0.8399270E-01
        1   -1    0    0  501    0  0.00000000000E+00  0.00000000000E+00  0.15651497860E+04  0.15651497860E+04  0.50400001928E-02 0.  1.
       -1   -1    0    0    0  501  0.00000000000E+00  0.00000000000E+00 -0.10066761052E+04  0.10066761052E+04  0.50400001928E-02 0. -1.
    10030    2    1    2    0    0  0.00000000000E+00  0.00000000000E+00  0.55847368080E+03  0.25718258912E+04  0.25104572418E+04 0.  0.
        3    1    3    3  502    0 -0.71142032490E+03  0.22607140340E+03  0.13130496310E+04  0.15104060719E+04  0.10100000352E+00 0.  1.
       -3    1    3    3    0  502  0.71142032490E+03 -0.22607140340E+03 -0.75457595023E+03  0.10614198194E+04  0.10100000352E+00 0. -1.
</event>
<event>
 5   0  0.9261602E-07  0.2503885E+04  0.7818609E-02  0.8401603E-01
       -2   -1    0    0    0  501  0.00000000000E+00  0.00000000000E+00  0.14699536433E+04  0.14699536433E+04  0.25500000920E-02 0.  1.
        2   -1    0    0  501    0  0.00000000000E+00  0.00000000000E+00 -0.10662648953E+04  0.10662648953E+04  0.25500000920E-02 0. -1.
    10030    2    1    2    0    0  0.00000000000E+00  0.00000000000E+00  0.40368874798E+03  0.25362185385E+04  0.25038849554E+04 0.  0.
        4    1    3    3  502    0  0.62183877871E+03  0.25622409315E+03 -0.86773847308E+03  0.10978642553E+04  0.12699999809E+01 0. -1.
       -4    1    3    3    0  502 -0.62183877871E+03 -0.25622409315E+03  0.12714272211E+04  0.14383542832E+04  0.12699999809E+01 0.  1.
</event>
<event>
 5   0  0.3805418E-07  0.2500535E+04  0.7818609E-02  0.8402795E-01
        1   -1    0    0  501    0  0.00000000000E+00  0.00000000000E+00  0.24082118221E+04  0.24082118221E+04  0.50400001928E-02 0.  1.
       -1   -1    0    0    0  501  0.00000000000E+00  0.00000000000E+00 -0.64909942706E+03  0.64909942708E+03  0.50400001928E-02 0. -1.
    10030    2    1    2    0    0  0.00000000000E+00  0.00000000000E+00  0.17591123950E+04  0.30573112491E+04  0.25005350739E+04 0.  0.
        4    1    3    3  502    0 -0.72882741673E+02 -0.10111556580E+04 -0.15095218251E+02  0.10138920737E+04  0.12699999809E+01 0. -1.
       -4    1    3    3    0  502  0.72882741673E+02  0.10111556580E+04  0.17742076133E+04  0.20434191754E+04  0.12699999809E+01 0.  1.
</event>
<event>
 5   0  0.9768582E-07  0.2500558E+04  0.7818609E-02  0.8402787E-01
        2   -1    0    0  501    0  0.00000000000E+00  0.00000000000E+00  0.27010106004E+04  0.27010106004E+04  0.25500000920E-02 0.  1.
       -2   -1    0    0    0  501  0.00000000000E+00  0.00000000000E+00 -0.57874563943E+03  0.57874563943E+03  0.25500000920E-02 0. -1.
    10030    2    1    2    0    0  0.00000000000E+00  0.00000000000E+00  0.21222649609E+04  0.32797562398E+04  0.25005584232E+04 0.  0.
        3    1    3    3  502    0 -0.51120808982E+03  0.58260793447E+03 -0.22560417860E+03  0.80725644749E+03  0.10100000352E+00 0. -1.
       -3    1    3    3    0  502  0.51120808982E+03 -0.58260793447E+03  0.23478691395E+04  0.24724997923E+04  0.10100000352E+00 0.  1.
</event>
<event>
 5   0  0.9768582E-07  0.2500223E+04  0.7818609E-02  0.8402906E-01
       -2   -1    0    0    0  501  0.00000000000E+00  0.00000000000E+00  0.12969320976E+04  0.12969320976E+04  0.25500000920E-02 0. -1.
        2   -1    0    0  501    0  0.00000000000E+00  0.00000000000E+00 -0.12049812523E+04  0.12049812523E+04  0.25500000920E-02 0.  1.
    10030    2    1    2    0    0  0.00000000000E+00  0.00000000000E+00  0.91950845259E+02  0.25019133499E+04  0.25002230806E+04 0.  0.
        3    1    3    3  502    0 -0.50853299122E+03 -0.11373648479E+04  0.14887612583E+03  0.12547385032E+04  0.10100000352E+00 0. -1.
       -3    1    3    3    0  502  0.50853299122E+03  0.11373648479E+04 -0.56925280569E+02  0.12471748467E+04  0.10100000352E+00 0.  1.
</event>
<event>
 5   0  0.9768582E-07  0.2499901E+04  0.7818609E-02  0.8403021E-01
        2   -1    0    0  501    0  0.00000000000E+00  0.00000000000E+00  0.15442640777E+04  0.15442640777E+04  0.25500000920E-02 0.  1.
       -2   -1    0    0    0  501  0.00000000000E+00  0.00000000000E+00 -0.10117287163E+04  0.10117287163E+04  0.25500000920E-02 0. -1.
    10030    2    1    2    0    0  0.00000000000E+00  0.00000000000E+00  0.53253536140E+03  0.25559927940E+04  0.24999010485E+04 0.  0.
        3    1    3    3  502    0 -0.37895956710E+03  0.65435801155E+03  0.12838789834E+04  0.14900134278E+04  0.10100000352E+00 0.  1.
       -3    1    3    3    0  502  0.37895956710E+03 -0.65435801155E+03 -0.75134362200E+03  0.10659793663E+04  0.10100000352E+00 0. -1.
</event>
<event>
 5   0  0.3873231E-07  0.2500021E+04  0.7818609E-02  0.8402978E-01
        1   -1    0    0  501    0  0.00000000000E+00  0.00000000000E+00  0.13947297711E+04  0.13947297711E+04  0.50400001928E-02 0.  1.
       -1   -1    0    0    0  501  0.00000000000E+00  0.00000000000E+00 -0.11203078398E+04  0.11203078398E+04  0.50400001928E-02 0. -1.
    10030    2    1    2    0    0  0.00000000000E+00  0.00000000000E+00  0.27442193132E+03  0.25150376109E+04  0.25000213575E+04 0.  0.
        2    1    3    3  502    0  0.82081669126E+03  0.18521875780E+03 -0.79272251929E+03  0.11560514787E+04  0.25500000920E-02 0. -1.
       -2    1    3    3    0  502 -0.82081669126E+03 -0.18521875780E+03  0.10671444506E+04  0.13589861321E+04  0.25500000920E-02 0.  1.
</event>
<event>
 5   0  0.9251138E-07  0.2499655E+04  0.7818609E-02  0.8403108E-01
        2   -1    0    0  501    0  0.00000000000E+00  0.00000000000E+00  0.14641050234E+04  0.14641050234E+04  0.25500000920E-02 0. -1.
       -2   -1    0    0    0  501  0.00000000000E+00  0.00000000000E+00 -0.10669103861E+04  0.10669103861E+04  0.25500000920E-02 0.  1.
    10030    2    1    2    0    0  0.00000000000E+00  0.00000000000E+00  0.39719463728E+03  0.25310154095E+04  0.24996550608E+04 0.  0.
        5    1    3    3  502    0 -0.90821825440E+03 -0.37697339671E+03 -0.58249334158E+03  0.11429304101E+04  0.46999998093E+01 0.  1.
       -5    1    3    3    0  502  0.90821825440E+03  0.37697339671E+03  0.97968797886E+03  0.13880849993E+04  0.46999998093E+01 0. -1.
</event>
<event>
 5   0  0.9251138E-07  0.2499807E+04  0.7818609E-02  0.8403054E-01
        2   -1    0    0  501    0  0.00000000000E+00  0.00000000000E+00  0.94597451677E+03  0.94597451677E+03  0.25500000920E-02 0.  1.
       -2   -1    0    0    0  501  0.00000000000E+00  0.00000000000E+00 -0.16514811808E+04  0.16514811808E+04  0.25500000920E-02 0. -1.
    10030    2    1    2    0    0  0.00000000000E+00  0.00000000000E+00 -0.70550666405E+03  0.25974556976E+04  0.24998072822E+04 0.  0.
        5    1    3    3  502    0 -0.23577214096E+03  0.12235031012E+04 -0.45502938201E+03  0.13265075083E+04  0.46999998093E+01 0.  1.
       -5    1    3    3    0  502  0.23577214096E+03 -0.12235031012E+04 -0.25047728204E+03  0.12709481893E+04  0.46999998093E+01 0. -1.
</event>
<event>
 5   0  0.9261602E-07  0.2500741E+04  0.7818609E-02  0.8402722E-01
        2   -1    0    0  501    0  0.00000000000E+00  0.00000000000E+00  0.14589028368E+04  0.14589028368E+04  0.25500000920E-02 0. -1.
       -2   -1    0    0    0  501  0.00000000000E+00  0.00000000000E+00 -0.10716453864E+04  0.10716453864E+04  0.25500000920E-02 0.  1.
    10030    2    1    2    0    0  0.00000000000E+00  0.00000000000E+00  0.38725745035E+03  0.25305482232E+04  0.25007410856E+04 0.  0.
        4    1    3    3  502    0 -0.11474306057E+04  0.17184853883E+03  0.66533507290E+03  0.13374607611E+04  0.12699999809E+01 0. -1.
       -4    1    3    3    0  502  0.11474306057E+04 -0.17184853883E+03 -0.27807762254E+03  0.11930874622E+04  0.12699999809E+01 0.  1.
</event>
<event>
 5   0  0.9261602E-07  0.2501345E+04  0.7818609E-02  0.8402507E-01
       -2   -1    0    0    0  501  0.00000000000E+00  0.00000000000E+00  0.11423981236E+04  0.11423981236E+04  0.25500000920E-02 0.  1.
        2   -1    0    0  501    0  0.00000000000E+00  0.00000000000E+00 -0.13692089964E+04  0.13692089964E+04  0.25500000920E-02 0. -1.
    10030    2    1    2    0    0  0.00000000000E+00  0.00000000000E+00 -0.22681087281E+03  0.25116071199E+04  0.25013450687E+04 0.  0.
        4    1    3    3  502    0 -0.53198118669E+03 -0.21215881727E+03  0.10029854661E+04  0.11549877942E+04  0.12699999809E+01 0.  1.
       -4    1    3    3    0  502  0.53198118669E+03  0.21215881727E+03 -0.12297963389E+04  0.13566193257E+04  0.12699999809E+01 0. -1.
</event>
<event>
 5   0  0.3873231E-07  0.2499998E+04  0.7818609E-02  0.8402986E-01
       -1   -1    0    0    0  501  0.00000000000E+00  0.00000000000E+00  0.10386644570E+04  0.10386644570E+04  0.50400001928E-02 0.  1.
        1   -1    0    0  501    0  0.00000000000E+00  0.00000000000E+00 -0.15043333892E+04  0.15043333892E+04  0.50400001928E-02 0. -1.
    10030    2    1    2    0    0  0.00000000000E+00  0.00000000000E+00 -0.46566893221E+03  0.25429978462E+04  0.24999980983E+04 0.  0.
        2    1    3    3  502    0  0.11562570835E+04  0.26114209430E+03 -0.63635907688E+03  0.13453915829E+04  0.25500000920E-02 0.  1.
       -2    1    3    3    0  502 -0.11562570835E+04 -0.26114209430E+03  0.17069014466E+03  0.11976062634E+04  0.25500000920E-02 0. -1.
</event>
<event>
 5   0  0.9768582E-07  0.2501221E+04  0.7818609E-02  0.8402551E-01
       -2   -1    0    0    0  501  0.00000000000E+00  0.00000000000E+00  0.12185018052E+04  0.12185018052E+04  0.25500000920E-02 0. -1.
        2   -1    0    0  501    0  0.00000000000E+00  0.00000000000E+00 -0.12835650941E+04  0.12835650941E+04  0.25500000920E-02 0.  1.
    10030    2    1    2    0    0  0.00000000000E+00  0.00000000000E+00 -0.65063288902E+02  0.25020668992E+04  0.25012208093E+04 0.  0.
        3    1    3    3  502    0  0.43661638118E+03 -0.11716976258E+04 -0.55281004337E+02  0.12516250198E+04  0.10100000352E+00 0. -1.
       -3    1    3    3    0  502 -0.43661638118E+03  0.11716976258E+04 -0.97822845653E+01  0.12504418794E+04  0.10100000352E+00 0.  1.
</event>
<event>
 5   0  0.3805418E-07  0.2499680E+04  0.7818609E-02  0.8403099E-01
       -1   -1    0    0    0  501  0.00000000000E+00  0.00000000000E+00  0.90326390557E+03  0.90326390559E+03  0.50400001928E-02 0.  1.
        1   -1    0    0  501    0  0.00000000000E+00  0.00000000000E+00 -0.17293953399E+04  0.17293953399E+04  0.50400001928E-02 0. -1.
    10030    2    1    2    0    0  0.00000000000E+00  0.00000000000E+00 -0.82613143430E+03  0.26326592455E+04  0.24996802908E+04 0.  0.
        4    1    3    3  502    0  0.17289142579E+03  0.82207130265E+03  0.56158736753E+03  0.10104823878E+04  0.12699999809E+01 0.  1.
       -4    1    3    3    0  502 -0.17289142579E+03 -0.82207130265E+03 -0.13877188018E+04  0.16221768577E+04  0.12699999809E+01 0. -1.
</event>
<event>
 5   0  0.8997210E-07  0.2500161E+04  0.7818609E-02  0.8402928E-01
        2   -1    0    0  501    0  0.00000000000E+00  0.00000000000E+00  0.11843404407E+04  0.11843404407E+04  0.25500000920E-02 0. -1.
       -2   -1    0    0    0  501  0.00000000000E+00  0.00000000000E+00 -0.13194697900E+04  0.13194697900E+04  0.25500000920E-02 0.  1.
    10030    2    1    2    0    0  0.00000000000E+00  0.00000000000E+00 -0.13512934931E+03  0.25038102307E+04  0.25001611409E+04 0.  0.
        1    1    3    3  502    0 -0.55775796295E+03  0.10977622371E+04 -0.28357733445E+03  0.12635632074E+04  0.50400001928E-02 0.  1.
       -1    1    3    3    0  502  0.55775796295E+03 -0.10977622371E+04  0.14844798514E+03  0.12402470233E+04  0.50400001928E-02 0. -1.
</event>
<event>
 5   0  0.9508784E-07  0.2506159E+04  0.7818609E-02  0.8400795E-01
        2   -1    0    0  501    0  0.00000000000E+00  0.00000000000E+00  0.14760463418E+04  0.14760463418E+04  0.25500000920E-02 0.  1.
       -2   -1    0    0    0  501  0.00000000000E+00  0.00000000000E+00 -0.10637934343E+04  0.10637934343E+04  0.25500000920E-02 0. -1.
    10030    2    1    2    0    0  0.00000000000E+00  0.00000000000E+00  0.41225290754E+03  0.25398397761E+04  0.25061591387E+04 0.  0.
        2    1    3    3  502    0  0.63627356140E+03 -0.10437669418E+04 -0.73103036227E+02  0.12245968837E+04  0.25500000920E-02 0. -1.
       -2    1    3    3    0  502 -0.63627356140E+03  0.10437669418E+04  0.48535594377E+03  0.13152428923E+04  0.25500000920E-02 0.  1.
</event>
<event>
 5   0  0.3805418E-07  0.2500696E+04  0.7818609E-02  0.8402738E-01
       -1   -1    0    0    0  501  0.00000000000E+00  0.00000000000E+00  0.11733403386E+04  0.11733403386E+04  0.50400001928E-02 0. -1.
        1   -1    0    0  501    0  0.00000000000E+00  0.00000000000E+00 -0.13324099045E+04  0.13324099046E+04  0.50400001928E-02 0.  1.
    10030    2    1    2    0    0  0.00000000000E+00  0.00000000000E+00 -0.15906956591E+03  0.25057502432E+04  0.25006961340E+04 0.  0.
        4    1    3    3  502    0 -0.57390346747E+03  0.55702677434E+03  0.88351364582E+03  0.11917390623E+04  0.12699999809E+01 0. -1.
       -4    1    3    3    0  502  0.57390346747E+03 -0.55702677434E+03 -0.10425832117E+04  0.13140111809E+04  0.12699999809E+01 0.  1.
</event>
<event>
 5   0  0.3873231E-07  0.2499256E+04  0.7818609E-02  0.8403251E-01
        1   -1    0    0  501    0  0.00000000000E+00  0.00000000000E+00  0.12492031934E+04  0.12492031934E+04  0.50400001928E-02 0.  1.
       -1   -1    0    0    0  501  0.00000000000E+00  0.00000000000E+00 -0.12500532113E+04  0.12500532113E+04  0.50400001928E-02 0. -1.
    10030    2    1    2    0    0  0.00000000000E+00  0.00000000000E+00 -0.85001797307E+00  0.24992564047E+04  0.24992562602E+04 0.  0.
        2    1    3    3  502    0  0.49601964885E+03  0.81891808153E+02 -0.11444655916E+04  0.12500173001E+04  0.25500000920E-02 0. -1.
       -2    1    3    3    0  502 -0.49601964885E+03 -0.81891808153E+02  0.11436155736E+04  0.12492391046E+04  0.25500000920E-02 0.  1.
</event>
<event>
 5   0  0.9261602E-07  0.2500801E+04  0.7818609E-02  0.8402700E-01
        2   -1    0    0  501    0  0.00000000000E+00  0.00000000000E+00  0.19325764686E+04  0.19325764686E+04  0.25500000920E-02 0. -1.
       -2   -1    0    0    0  501  0.00000000000E+00  0.00000000000E+00 -0.80902431554E+03  0.80902431554E+03  0.25500000920E-02 0.  1.
    10030    2    1    2    0    0  0.00000000000E+00  0.00000000000E+00  0.11235521530E+04  0.27416007841E+04  0.25008009555E+04 0.  0.
        4    1    3    3  502    0 -0.33393086367E+03 -0.11700304597E+04  0.24590278538E+03  0.12413504304E+04  0.12699999809E+01 0.  1.
       -4    1    3    3    0  502  0.33393086367E+03  0.11700304597E+04  0.87764936764E+03  0.15002503537E+04  0.12699999809E+01 0. -1.
</event>
<event>
 5   0  0.9261602E-07  0.2499265E+04  0.7818609E-02  0.8403248E-01
       -2   -1    0    0    0  501  0.00000000000E+00  0.00000000000E+00  0.10291518726E+04  0.10291518726E+04  0.25500000920E-02 0. -1.
        2   -1    0    0  501    0  0.00000000000E+00  0.00000000000E+00 -0.15173475354E+04  0.15173475354E+04  0.25500000920E-02 0.  1.
    10030    2    1    2    0    0  0.00000000000E+00  0.00000000000E+00 -0.48819566284E+03  0.25464994080E+04  0.24992647379E+04 0.  0.
        4    1    3    3  502    0 -0.58632411901E+03 -0.97588628804E+03  0.28085733248E+03  0.11726092588E+04  0.12699999809E+01 0. -1.
       -4    1    3    3    0  502  0.58632411901E+03  0.97588628804E+03 -0.76905299531E+03  0.13738901493E+04  0.12699999809E+01 0.  1.
</event>
<event>
 5   0  0.3805418E-07  0.2499790E+04  0.7818609E-02  0.8403060E-01
       -1   -1    0    0    0  501  0.00000000000E+00  0.00000000000E+00  0.98058052501E+03  0.98058052502E+03  0.50400001928E-02 0.  1.
        1   -1    0    0  501    0  0.00000000000E+00  0.00000000000E+00 -0.15931758958E+04  0.15931758958E+04  0.50400001928E-02 0. -1.
    10030    2    1    2    0    0  0.00000000000E+00  0.00000000000E+00 -0.61259537078E+03  0.25737564208E+04  0.24997897962E+04 0.  0.
        4    1    3    3  502    0  0.99117152448E+03 -0.76013908703E+03 -0.35237937249E+03  0.12978463922E+04  0.12699999809E+01 0. -1.
       -4    1    3    3    0  502 -0.99117152448E+03  0.76013908703E+03 -0.26021599829E+03  0.12759100287E+04  0.12699999809E+01 0.  1.
</event>
<event>
 5   0  0.3873231E-07  0.2498690E+04  0.7818609E-02  0.8403452E-01
        1   -1    0    0  501    0  0.00000000000E+00  0.00000000000E+00  0.14214937802E+04  0.14214937802E+04  0.50400001928E-02 0.  1.
       -1   -1    0    0    0  501  0.00000000000E+00  0.00000000000E+00 -0.10980443424E+04  0.10980443424E+04  0.50400001928E-02 0. -1.
    10030    2    1    2    0    0  0.00000000000E+00  0.00000000000E+00  0.32344943785E+03  0.25195381226E+04  0.24986902194E+04 0.  0.
        2    1    3    3  502    0 -0.44038873011E+03 -0.52723831593E+03 -0.89050517929E+03  0.11246874898E+04  0.25500000920E-02 0. -1.
       -2    1    3    3    0  502  0.44038873011E+03  0.52723831593E+03  0.12139546171E+04  0.13948506328E+04  0.25500000920E-02 0.  1.
</event>
<event>
 5   0  0.9251138E-07  0.2502141E+04  0.7818609E-02  0.8402223E-01
       -2   -1    0    0    0  501  0.00000000000E+00  0.00000000000E+00  0.11189075923E+04  0.11189075923E+04  0.25500000920E-02 0.  1.
        2   -1    0    0  501    0  0.00000000000E+00  0.00000000000E+00 -0.13988442291E+04  0.13988442291E+04  0.25500000920E-02 0. -1.
    10030    2    1    2    0    0  0.00000000000E+00  0.00000000000E+00 -0.27993663678E+03  0.25177518215E+04  0.25021410260E+04 0.  0.
        5    1    3    3  502    0  0.42881546511E+03  0.49655484019E+02  0.10415837637E+04  0.11275048545E+04  0.46999998093E+01 0.  1.
       -5    1    3    3    0  502 -0.42881546511E+03 -0.49655484019E+02 -0.13215204005E+04  0.13902469669E+04  0.46999998093E+01 0. -1.
</event>
<event>
 5   0  0.9251138E-07  0.2500793E+04  0.7818609E-02  0.8402703E-01
        2   -1    0    0  501    0  0.00000000000E+00  0.00000000000E+00  0.13520116805E+04  0.13520116805E+04  0.25500000920E-02 0.  1.
       -2   -1    0    0    0  501  0.00000000000E+00  0.00000000000E+00 -0.11564181671E+04  0.11564181671E+04  0.25500000920E-02 0. -1.
    10030    2    1    2    0    0  0.00000000000E+00  0.00000000000E+00  0.19559351335E+03  0.25084298476E+04  0.25007925700E+04 0.  0.
        5    1    3    3  502    0 -0.52661574422E+03 -0.73455409630E+03 -0.76888765782E+03  0.11866356571E+04  0.46999998093E+01 0. -1.
       -5    1    3    3    0  502  0.52661574422E+03  0.73455409630E+03  0.96448117117E+03  0.13217941905E+04  0.46999998093E+01 0.  1.
</event>
<event>
 5   0  0.3837524E-07  0.2500461E+04  0.7818609E-02  0.8402821E-01
        1   -1    0    0  501    0  0.00000000000E+00  0.00000000000E+00  0.13324381810E+04  0.13324381810E+04  0.50400001928E-02 0. -1.
       -1   -1    0    0    0  501  0.00000000000E+00  0.00000000000E+00 -0.11730950615E+04  0.11730950615E+04  0.50400001928E-02 0.  1.
    10030    2    1    2    0    0  0.00000000000E+00  0.00000000000E+00  0.15934311950E+03  0.25055332425E+04  0.25004612774E+04 0.  0.
        5    1    3    3  502    0  0.26769665974E+03  0.64590771454E+03 -0.95886516425E+03  0.11867193310E+04  0.46999998093E+01 0.  1.
       -5    1    3    3    0  502 -0.26769665974E+03 -0.64590771454E+03  0.11182082838E+04  0.13188139115E+04  0.46999998093E+01 0. -1.
</event>
<event>
 5   0  0.9508784E-07  0.2500504E+04  0.7818609E-02  0.8402806E-01
       -2   -1    0    0    0  501  0.00000000000E+00  0.00000000000E+00  0.65127868353E+03  0.65127868353E+03  0.25500000920E-02 0. -1.
        2   -1    0    0  501    0  0.00000000000E+00  0.00000000000E+00 -0.24000944546E+04  0.24000944546E+04  0.25500000920E-02 0.  1.
    10030    2    1    2    0    0  0.00000000000E+00  0.00000000000E+00 -0.17488157710E+04  0.30513731381E+04  0.25005042345E+04 0.  0.
        2    1    3    3  502    0 -0.40041567960E+03 -0.29831208788E+03  0.52432117845E+03  0.72404110133E+03  0.25500000920E-02 0. -1.
       -2    1    3    3    0  502  0.40041567960E+03  0.29831208788E+03 -0.22731369495E+04  0.23273320368E+04  0.25500000920E-02 0.  1.
</event>
<event>
 5   0  0.3805418E-07  0.2498924E+04  0.7818609E-02  0.8403369E-01
        1   -1    0    0  501    0  0.00000000000E+00  0.00000000000E+00  0.15254908353E+04  0.15254908353E+04  0.50400001928E-02 0.  1.
       -1   -1    0    0    0  501  0.00000000000E+00  0.00000000000E+00 -0.10233789620E+04  0.10233789621E+04  0.50400001928E-02 0. -1.
    10030    2    1    2    0    0  0.00000000000E+00  0.00000000000E+00  0.50211187323E+03  0.25488697973E+04  0.24989239505E+04 0.  0.
        4    1    3    3  502    0 -0.16158075149E+02 -0.74670879781E+03 -0.77062201780E+03  0.10731705453E+04  0.12699999809E+01 0. -1.
       -4    1    3    3    0  502  0.16158075149E+02  0.74670879781E+03  0.12727338910E+04  0.14756992520E+04  0.12699999809E+01 0.  1.
</event>
<event>
 5   0  0.9768582E-07  0.2500489E+04  0.7818609E-02  0.8402811E-01
       -2   -1    0    0    0  501  0.00000000000E+00  0.00000000000E+00  0.61871624615E+03  0.61871624616E+03  0.25500000920E-02 0. -1.
        2   -1    0    0  501    0  0.00000000000E+00  0.00000000000E+00 -0.25263776888E+04  0.25263776888E+04  0.25500000920E-02 0.  1.
    10030    2    1    2    0    0  0.00000000000E+00  0.00000000000E+00 -0.19076614427E+04  0.31450939350E+04  0.25004886882E+04 0.  0.
        3    1    3    3  502    0 -0.53593232212E+03 -0.72296080239E+03 -0.20454425818E+04  0.22346657785E+04  0.10100000352E+00 0.  1.
       -3    1    3    3    0  502  0.53593232212E+03  0.72296080239E+03  0.13778113915E+03  0.91042815652E+03  0.10100000352E+00 0. -1.
</event>
<event>
 5   0  0.9251138E-07  0.2499748E+04  0.7818609E-02  0.8403075E-01
       -2   -1    0    0    0  501  0.00000000000E+00  0.00000000000E+00  0.78762343814E+03  0.78762343814E+03  0.25500000920E-02 0. -1.
        2   -1    0    0  501    0  0.00000000000E+00  0.00000000000E+00 -0.19834164889E+04  0.19834164889E+04  0.25500000920E-02 0.  1.
    10030    2    1    2    0    0  0.00000000000E+00  0.00000000000E+00 -0.11957930508E+04  0.27710399271E+04  0.24997482387E+04 0.  0.
        5    1    3    3  502    0 -0.99254913564E+03 -0.25348488359E+03 -0.13916788086E+04  0.17280626057E+04  0.46999998093E+01 0. -1.
       -5    1    3    3    0  502  0.99254913564E+03  0.25348488359E+03  0.19588575779E+03  0.10429773214E+04  0.46999998093E+01 0.  1.
</event>
<event>
 5   0  0.9508784E-07  0.2502872E+04  0.7818609E-02  0.8401963E-01
        2   -1    0    0  501    0  0.00000000000E+00  0.00000000000E+00  0.18849582422E+04  0.18849582422E+04  0.25500000920E-02 0.  1.
       -2   -1    0    0    0  501  0.00000000000E+00  0.00000000000E+00 -0.83083669600E+03  0.83083669600E+03  0.25500000920E-02 0. -1.
    10030    2    1    2    0    0  0.00000000000E+00  0.00000000000E+00  0.10541215462E+04  0.27157949382E+04  0.25028723324E+04 0.  0.
        2    1    3    3  502    0  0.50784777726E+03 -0.22289334614E+03  0.17443258855E+04  0.18303725313E+04  0.25500000920E-02 0.  1.
       -2    1    3    3    0  502 -0.50784777726E+03  0.22289334614E+03 -0.69020433929E+03  0.88542240688E+03  0.25500000920E-02 0. -1.
</event>
<event>
 5   0  0.3972587E-07  0.2511388E+04  0.7818609E-02  0.8398940E-01
       -1   -1    0    0    0  501  0.00000000000E+00  0.00000000000E+00  0.11022761346E+04  0.11022761346E+04  0.50400001928E-02 0. -1.
        1   -1    0    0  501    0  0.00000000000E+00  0.00000000000E+00 -0.14304648969E+04  0.14304648969E+04  0.50400001928E-02 0.  1.
    10030    2    1    2    0    0  0.00000000000E+00  0.00000000000E+00 -0.32818876227E+03  0.25327410315E+04  0.25113879169E+04 0.  0.
        3    1    3    3  502    0  0.33675966979E+03 -0.45130003874E+03 -0.12959957087E+04  0.14130405823E+04  0.10100000352E+00 0.  1.
       -3    1    3    3    0  502 -0.33675966979E+03  0.45130003874E+03  0.96780694643E+03  0.11197004492E+04  0.10100000352E+00 0. -1.
</event>
<event>
 5   0  0.9508784E-07  0.2500341E+04  0.7818609E-02  0.8402864E-01
        2   -1    0    0  501    0  0.00000000000E+00  0.00000000000E+00  0.20335333418E+04  0.20335333418E+04  0.25500000920E-02 0.  1.
       -2   -1    0    0    0  501  0.00000000000E+00  0.00000000000E+00 -0.76857643407E+03  0.76857643407E+03  0.25500000920E-02 0. -1.
    10030    2    1    2    0    0  0.00000000000E+00  0.00000000000E+00  0.12649569077E+04  0.28021097758E+04  0.25003406203E+04 0.  0.
        2    1    3    3  502    0  0.90039071783E+03  0.38632221362E+03 -0.23775650306E+03  0.10082045687E+04  0.25500000920E-02 0. -1.
       -2    1    3    3    0  502 -0.90039071783E+03 -0.38632221362E+03  0.15027134107E+04  0.17939052072E+04  0.25500000920E-02 0.  1.
</event>
<event>
 5   0  0.3837524E-07  0.2496934E+04  0.7818609E-02  0.8404078E-01
        1   -1    0    0  501    0  0.00000000000E+00  0.00000000000E+00  0.79353250915E+03  0.79353250916E+03  0.50400001928E-02 0. -1.
       -1   -1    0    0    0  501  0.00000000000E+00  0.00000000000E+00 -0.19642175365E+04  0.19642175365E+04  0.50400001928E-02 0.  1.
    10030    2    1    2    0    0  0.00000000000E+00  0.00000000000E+00 -0.11706850273E+04  0.27577500456E+04  0.24969344967E+04 0.  0.
        5    1    3    3  502    0 -0.68565685060E+03 -0.53765282040E+03  0.40217336080E+03  0.95966732475E+03  0.46999998093E+01 0. -1.
       -5    1    3    3    0  502  0.68565685060E+03  0.53765282040E+03 -0.15728583881E+04  0.17980827209E+04  0.46999998093E+01 0.  1.
</event>
<event>
 5   0  0.3805418E-07  0.2499802E+04  0.7818609E-02  0.8403056E-01
       -1   -1    0    0    0  501  0.00000000000E+00  0.00000000000E+00  0.11670697069E+04  0.11670697069E+04  0.50400001928E-02 0. -1.
        1   -1    0    0  501    0  0.00000000000E+00  0.00000000000E+00 -0.13386115662E+04  0.13386115663E+04  0.50400001928E-02 0.  1.
    10030    2    1    2    0    0  0.00000000000E+00  0.00000000000E+00 -0.17154185934E+03  0.25056812732E+04  0.24998023988E+04 0.  0.
        4    1    3    3  502    0  0.19068099121E+03  0.11552550376E+04  0.35261096005E+03  0.12228285017E+04  0.12699999809E+01 0.  1.
       -4    1    3    3    0  502 -0.19068099121E+03 -0.11552550376E+04 -0.52415281939E+03  0.12828527715E+04  0.12699999809E+01 0. -1.
</event>
<event>
 5   0  0.9768582E-07  0.2493501E+04  0.7818609E-02  0.8405305E-01
       -2   -1    0    0    0  501  0.00000000000E+00  0.00000000000E+00  0.77401435101E+03  0.77401435102E+03  0.25500000920E-02 0.  1.
        2   -1    0    0  501    0  0.00000000000E+00  0.00000000000E+00 -0.20082143393E+04  0.20082143393E+04  0.25500000920E-02 0. -1.
    10030    2    1    2    0    0  0.00000000000E+00  0.00000000000E+00 -0.12341999883E+04  0.27822286903E+04  0.24935009272E+04 0.  0.
        3    1    3    3  502    0  0.18730372151E+03 -0.10802382365E+04  0.45260916240E+02  0.10972902499E+04  0.10100000352E+00 0.  1.
       -3    1    3    3    0  502 -0.18730372151E+03  0.10802382365E+04 -0.12794609045E+04  0.16849384405E+04  0.10100000352E+00 0. -1.
</event>
<event>
 5   0  0.3972587E-07  0.2500278E+04  0.7818609E-02  0.8402886E-01
        1   -1    0    0  501    0  0.00000000000E+00  0.00000000000E+00  0.18492373080E+04  0.18492373080E+04  0.50400001928E-02 0.  1.
       -1   -1    0    0    0  501  0.00000000000E+00  0.00000000000E+00 -0.84513093709E+03  0.84513093710E+03  0.50400001928E-02 0. -1.
    10030    2    1    2    0    0  0.00000000000E+00  0.00000000000E+00  0.10041063709E+04  0.26943682451E+04  0.25002781118E+04 0.  0.
        3    1    3    3  502    0 -0.67141802541E+03  0.10105898342E+04  0.82669221614E+03  0.14681668871E+04  0.10100000352E+00 0.  1.
       -3    1    3    3    0  502  0.67141802541E+03 -0.10105898342E+04  0.17741415477E+03  0.12262013580E+04  0.10100000352E+00 0. -1.
</event>
<event>
 5   0  0.3873231E-07  0.2499849E+04  0.7818609E-02  0.8403039E-01
        1   -1    0    0  501    0  0.00000000000E+00  0.00000000000E+00  0.16832180530E+04  0.16832180530E+04  0.50400001928E-02 0.  1.
       -1   -1    0    0    0  501  0.00000000000E+00  0.00000000000E+00 -0.92816926672E+03  0.92816926673E+03  0.50400001928E-02 0. -1.
    10030    2    1    2    0    0  0.00000000000E+00  0.00000000000E+00  0.75504878625E+03  0.26113873197E+04  0.24998490082E+04 0.  0.
        2    1    3    3  502    0  0.76082815848E+03 -0.91266762444E+03  0.78276292892E+03  0.14228631285E+04  0.25500000920E-02 0.  1.
       -2    1    3    3    0  502 -0.76082815848E+03  0.91266762444E+03 -0.27714142670E+02  0.11885241912E+04  0.25500000920E-02 0. -1.
</event>
<event>
 5   0  0.3873231E-07  0.2490170E+04  0.7818609E-02  0.8406496E-01
        1   -1    0    0  501    0  0.00000000000E+00  0.00000000000E+00  0.91730239031E+03  0.91730239032E+03  0.50400001928E-02 0. -1.
       -1   -1    0    0    0  501  0.00000000000E+00  0.00000000000E+00 -0.16899956497E+04  0.16899956497E+04  0.50400001928E-02 0.  1.
    10030    2    1    2    0    0  0.00000000000E+00  0.00000000000E+00 -0.77269325935E+03  0.26072980400E+04  0.24901703147E+04 0.  0.
        2    1    3    3  502    0  0.10951158338E+04 -0.22807576785E+03 -0.95881763999E+03  0.14733053017E+04  0.25500000920E-02 0.  1.
       -2    1    3    3    0  502 -0.10951158338E+04  0.22807576785E+03  0.18612438063E+03  0.11339927383E+04  0.25500000920E-02 0. -1.
</event>
<event>
 5   0  0.9261602E-07  0.2497245E+04  0.7818609E-02  0.8403968E-01
        2   -1    0    0  501    0  0.00000000000E+00  0.00000000000E+00  0.12356849710E+04  0.12356849710E+04  0.25500000920E-02 0.  1.
       -2   -1    0    0    0  501  0.00000000000E+00  0.00000000000E+00 -0.12616959260E+04  0.12616959260E+04  0.25500000920E-02 0. -1.
    10030    2    1    2    0    0  0.00000000000E+00  0.00000000000E+00 -0.26010955007E+02  0.24973808969E+04  0.24972454374E+04 0.  0.
        4    1    3    3  502    0 -0.41621008101E+03  0.33415834815E+03  0.11158446816E+04  0.12369331427E+04  0.12699999809E+01 0.  1.
       -4    1    3    3    0  502  0.41621008101E+03 -0.33415834815E+03 -0.11418556366E+04  0.12604477542E+04  0.12699999809E+01 0. -1.
</event>
<event>
 5   0  0.3805418E-07  0.2498602E+04  0.7818609E-02  0.8403484E-01
        1   -1    0    0  501    0  0.00000000000E+00  0.00000000000E+00  0.16784597828E+04  0.16784597828E+04  0.50400001928E-02 0. -1.
       -1   -1    0    0    0  501  0.00000000000E+00  0.00000000000E+00 -0.92987198302E+03  0.92987198303E+03  0.50400001928E-02 0.  1.
    10030    2    1    2    0    0  0.00000000000E+00  0.00000000000E+00  0.74858779979E+03  0.26083317658E+04  0.24986017903E+04 0.  0.
        4    1    3    3  502    0 -0.60951966047E+03  0.22939040168E+03  0.14872367046E+04  0.16235790099E+04  0.12699999809E+01 0. -1.
       -4    1    3    3    0  502  0.60951966047E+03 -0.22939040168E+03 -0.73864890482E+03  0.98475275596E+03  0.12699999809E+01 0.  1.
</event>
<event>
 5   0  0.3991066E-07  0.2500222E+04  0.7818609E-02  0.8402907E-01
       -1   -1    0    0    0  501  0.00000000000E+00  0.00000000000E+00  0.15742716127E+04  0.15742716127E+04  0.50400001928E-02 0. -1.
        1   -1    0    0  501    0  0.00000000000E+00  0.00000000000E+00 -0.99269856109E+03  0.99269856110E+03  0.50400001928E-02 0.  1.
    10030    2    1    2    0    0  0.00000000000E+00  0.00000000000E+00  0.58157305162E+03  0.25669701738E+04  0.25002217219E+04 0.  0.
        1    1    3    3  502    0 -0.11583782288E+04  0.41473984857E+02  0.77149233054E+03  0.13923938482E+04  0.50400001928E-02 0. -1.
       -1    1    3    3    0  502  0.11583782288E+04 -0.41473984857E+02 -0.18991927892E+03  0.11745763257E+04  0.50400001928E-02 0.  1.
</event>
<event>
 5   0  0.9251138E-07  0.2499113E+04  0.7818609E-02  0.8403302E-01
        2   -1    0    0  501    0  0.00000000000E+00  0.00000000000E+00  0.17505997557E+04  0.17505997557E+04  0.25500000920E-02 0.  1.
       -2   -1    0    0    0  501  0.00000000000E+00  0.00000000000E+00 -0.89191794499E+03  0.89191794500E+03  0.25500000920E-02 0. -1.
    10030    2    1    2    0    0  0.00000000000E+00  0.00000000000E+00  0.85868181074E+03  0.26425177007E+04  0.24991129119E+04 0.  0.
        5    1    3    3  502    0  0.58894650895E+03  0.54166684566E+03  0.14441570574E+04  0.16510217015E+04  0.46999998093E+01 0.  1.
       -5    1    3    3    0  502 -0.58894650895E+03 -0.54166684566E+03 -0.58547524671E+03  0.99149599928E+03  0.46999998093E+01 0. -1.
</event>
<event>
 5   0  0.8997210E-07  0.2500403E+04  0.7818609E-02  0.8402842E-01
        2   -1    0    0  501    0  0.00000000000E+00  0.00000000000E+00  0.11429543953E+04  0.11429543953E+04  0.25500000920E-02 0. -1.
       -2   -1    0    0    0  501  0.00000000000E+00  0.00000000000E+00 -0.13675119993E+04  0.13675119993E+04  0.25500000920E-02 0.  1.
    10030    2    1    2    0    0  0.00000000000E+00  0.00000000000E+00 -0.22455760393E+03  0.25104663946E+04  0.25004030477E+04 0.  0.
        1    1    3    3  502    0 -0.11515785650E+03  0.12077212683E+04  0.19084996419E+03  0.12281187657E+04  0.50400001928E-02 0. -1.
       -1    1    3    3    0  502  0.11515785650E+03 -0.12077212683E+04 -0.41540756811E+03  0.12823476289E+04  0.50400001928E-02 0.  1.
</event>
<event>
 5   0  0.8997210E-07  0.2499890E+04  0.7818609E-02  0.8403025E-01
        2   -1    0    0  501    0  0.00000000000E+00  0.00000000000E+00  0.10209913459E+04  0.10209913459E+04  0.25500000920E-02 0.  1.
       -2   -1    0    0    0  501  0.00000000000E+00  0.00000000000E+00 -0.15302407167E+04  0.15302407167E+04  0.25500000920E-02 0. -1.
    10030    2    1    2    0    0  0.00000000000E+00  0.00000000000E+00 -0.50924937074E+03  0.25512320626E+04  0.24998900207E+04 0.  0.
        1    1    3    3  502    0  0.18838000834E+03 -0.71133569578E+03  0.77651090552E+03  0.10697918891E+04  0.50400001928E-02 0.  1.
       -1    1    3    3    0  502 -0.18838000834E+03  0.71133569578E+03 -0.12857602763E+04  0.14814401735E+04  0.50400001928E-02 0. -1.
</event>
<event>
 5   0  0.3972587E-07  0.2493569E+04  0.7818609E-02  0.8405280E-01
        1   -1    0    0  501    0  0.00000000000E+00  0.00000000000E+00  0.25529344036E+04  0.25529344037E+04  0.50400001928E-02 0. -1.
       -1   -1    0    0    0  501  0.00000000000E+00  0.00000000000E+00 -0.60889587997E+03  0.60889587999E+03  0.50400001928E-02 0.  1.
    10030    2    1    2    0    0  0.00000000000E+00  0.00000000000E+00  0.19440385237E+04  0.31618302836E+04  0.24935687199E+04 0.  0.
        3    1    3    3  502    0 -0.27360395558E+03 -0.10618469059E+04  0.17244145470E+04  0.20435223307E+04  0.10100000352E+00 0. -1.
       -3    1    3    3    0  502  0.27360395558E+03  0.10618469059E+04  0.21962397668E+03  0.11183079529E+04  0.10100000352E+00 0.  1.
</event>
<event>
 5   0  0.9251138E-07  0.2500034E+04  0.7818609E-02  0.8402974E-01
        2   -1    0    0  501    0  0.00000000000E+00  0.00000000000E+00  0.21521997390E+04  0.21521997390E+04  0.25500000920E-02 0.  1.
       -2   -1    0    0    0  501  0.00000000000E+00  0.00000000000E+00 -0.72602100216E+03  0.72602100216E+03  0.25500000920E-02 0. -1.
    10030    2    1    2    0    0  0.00000000000E+00  0.00000000000E+00  0.14261787369E+04  0.28782207412E+04  0.25000337689E+04 0.  0.
        5    1    3    3  502    0  0.91382068627E+03 -0.11168106589E+03  0.16865646574E+04  0.19214742623E+04  0.46999998093E+01 0.  1.
       -5    1    3    3    0  502 -0.91382068627E+03  0.11168106589E+03 -0.26038592058E+03  0.95674647883E+03  0.46999998093E+01 0. -1.
</event>
<event>
 5   0  0.9508784E-07  0.2500079E+04  0.7818609E-02  0.8402958E-01
        2   -1    0    0  501    0  0.00000000000E+00  0.00000000000E+00  0.17231135776E+04  0.17231135776E+04  0.25500000920E-02 0. -1.
       -2   -1    0    0    0  501  0.00000000000E+00  0.00000000000E+00 -0.90684578016E+03  0.90684578017E+03  0.25500000920E-02 0.  1.
    10030    2    1    2    0    0  0.00000000000E+00  0.00000000000E+00  0.81626779748E+03  0.26299593578E+04  0.25000786201E+04 0.  0.
        2    1    3    3  502    0 -0.55267280770E+03 -0.71266638644E+03  0.13186989312E+04  0.15975942795E+04  0.25500000920E-02 0. -1.
       -2    1    3    3    0  502  0.55267280770E+03  0.71266638644E+03 -0.50243113374E+03  0.10323650783E+04  0.25500000920E-02 0.  1.
</event>
<event>
 5   0  0.3837524E-07  0.2500397E+04  0.7818609E-02  0.8402844E-01
        1   -1    0    0  501    0  0.00000000000E+00  0.00000000000E+00  0.11705876347E+04  0.11705876347E+04  0.50400001928E-02 0.  1.
       -1   -1    0    0    0  501  0.00000000000E+00  0.00000000000E+00 -0.13352239403E+04  0.13352239403E+04  0.50400001928E-02 0. -1.
    10030    2    1    2    0    0  0.00000000000E+00  0.00000000000E+00 -0.16463630562E+03  0.25058115749E+04  0.25003972756E+04 0.  0.
        5    1    3    3  502    0 -0.11092882230E+04 -0.26333192949E+03 -0.59637182399E+03  0.12866800338E+04  0.46999998093E+01 0. -1.
       -5    1    3    3    0  502  0.11092882230E+04  0.26333192949E+03  0.43173551837E+03  0.12191315412E+04  0.46999998093E+01 0.  1.
</event>
<event>
 5   0  0.8997210E-07  0.2500284E+04  0.7818609E-02  0.8402884E-01
        2   -1    0    0  501    0  0.00000000000E+00  0.00000000000E+00  0.11586061187E+04  0.11586061187E+04  0.25500000920E-02 0.  1.
       -2   -1    0    0    0  501  0.00000000000E+00  0.00000000000E+00 -0.13489096478E+04  0.13489096478E+04  0.25500000920E-02 0. -1.
    10030    2    1    2    0    0  0.00000000000E+00  0.00000000000E+00 -0.19030352913E+03  0.25075157665E+04  0.25002839611E+04 0.  0.
        1    1    3    3  502    0  0.31509282973E+03 -0.62215199849E+03  0.94539361691E+03  0.11747875091E+04  0.50400001928E-02 0.  1.
       -1    1    3    3    0  502 -0.31509282973E+03  0.62215199849E+03 -0.11356971460E+04  0.13327282574E+04  0.50400001928E-02 0. -1.
</event>
<event>
 5   0  0.9261602E-07  0.2500572E+04  0.7818609E-02  0.8402782E-01
       -2   -1    0    0    0  501  0.00000000000E+00  0.00000000000E+00  0.71063952988E+03  0.71063952989E+03  0.25500000920E-02 0. -1.
        2   -1    0    0  501    0  0.00000000000E+00  0.00000000000E+00 -0.21997303930E+04  0.21997303930E+04  0.25500000920E-02 0.  1.
    10030    2    1    2    0    0  0.00000000000E+00  0.00000000000E+00 -0.14890908631E+04  0.29103699229E+04  0.25005722324E+04 0.  0.
        4    1    3    3  502    0  0.10251392620E+04  0.89566110015E+01  0.88441792683E+02  0.10289870218E+04  0.12699999809E+01 0. -1.
       -4    1    3    3    0  502 -0.10251392620E+04 -0.89566110015E+01 -0.15775326558E+04  0.18813829011E+04  0.12699999809E+01 0.  1.
</event>
<event>
 5   0  0.8997210E-07  0.2499950E+04  0.7818609E-02  0.8403003E-01
        2   -1    0    0  501    0  0.00000000000E+00  0.00000000000E+00  0.13539309209E+04  0.13539309209E+04  0.25500000920E-02 0.  1.
       -2   -1    0    0    0  501  0.00000000000E+00  0.00000000000E+00 -0.11540006127E+04  0.11540006127E+04  0.25500000920E-02 0. -1.
    10030    2    1    2    0    0  0.00000000000E+00  0.00000000000E+00  0.19993030816E+03  0.25079315336E+04  0.24999496893E+04 0.  0.
        1    1    3    3  502    0 -0.91326080769E+03 -0.46794646248E+03 -0.61604884839E+03  0.11968856997E+04  0.50400001928E-02 0. -1.
       -1    1    3    3    0  502  0.91326080769E+03  0.46794646248E+03  0.81597915655E+03  0.13110458339E+04  0.50400001928E-02 0.  1.
</event>
<event>
 5   0  0.9508784E-07  0.2500256E+04  0.7818609E-02  0.8402894E-01
        2   -1    0    0  501    0  0.00000000000E+00  0.00000000000E+00  0.10530984690E+04  0.10530984690E+04  0.25500000920E-02 0.  1.
       -2   -1    0    0    0  501  0.00000000000E+00  0.00000000000E+00 -0.14840205121E+04  0.14840205121E+04  0.25500000920E-02 0. -1.
    10030    2    1    2    0    0  0.00000000000E+00  0.00000000000E+00 -0.43092204306E+03  0.25371189812E+04  0.25002557704E+04 0.  0.
        2    1    3    3  502    0 -0.88701603408E+03  0.86325557264E+03 -0.39358281202E+03  0.12988129420E+04  0.25500000920E-02 0.  1.
       -2    1    3    3    0  502  0.88701603408E+03 -0.86325557264E+03 -0.37339231041E+02  0.12383060391E+04  0.25500000920E-02 0. -1.
</event>
<event>
 5   0  0.3873231E-07  0.2500109E+04  0.7818609E-02  0.8402947E-01
        1   -1    0    0  501    0  0.00000000000E+00  0.00000000000E+00  0.11315884437E+04  0.11315884437E+04  0.50400001928E-02 0.  1.
       -1   -1    0    0    0  501  0.00000000000E+00  0.00000000000E+00 -0.13809226664E+04  0.13809226664E+04  0.50400001928E-02 0. -1.
    10030    2    1    2    0    0  0.00000000000E+00  0.00000000000E+00 -0.24933422269E+03  0.25125111101E+04  0.25001089023E+04 0.  0.
        2    1    3    3  502    0  0.70823096117E+03 -0.75315043523E+03  0.58153460119E+03  0.11861741714E+04  0.25500000920E-02 0.  1.
       -2    1    3    3    0  502 -0.70823096117E+03  0.75315043523E+03 -0.83086882388E+03  0.13263369387E+04  0.25500000920E-02 0. -1.
</event>
<event>
 5   0  0.3873231E-07  0.2501405E+04  0.7818609E-02  0.8402485E-01
       -1   -1    0    0    0  501  0.00000000000E+00  0.00000000000E+00  0.10069088848E+04  0.10069088848E+04  0.50400001928E-02 0.  1.
        1   -1    0    0  501    0  0.00000000000E+00  0.00000000000E+00 -0.15535234321E+04  0.15535234321E+04  0.50400001928E-02 0. -1.
    10030    2    1    2    0    0  0.00000000000E+00  0.00000000000E+00 -0.54661454735E+03  0.25604323169E+04  0.25014048425E+04 0.  0.
        2    1    3    3  502    0  0.43804612531E+03  0.31958785645E+03 -0.14269503872E+04  0.15265019533E+04  0.25500000920E-02 0. -1.
       -2    1    3    3    0  502 -0.43804612531E+03 -0.31958785645E+03  0.88033583982E+03  0.10339303636E+04  0.25500000920E-02 0.  1.
</event>
<event>
 5   0  0.8997210E-07  0.2499489E+04  0.7818609E-02  0.8403168E-01
       -2   -1    0    0    0  501  0.00000000000E+00  0.00000000000E+00  0.71868964322E+03  0.71868964322E+03  0.25500000920E-02 0.  1.
        2   -1    0    0  501    0  0.00000000000E+00  0.00000000000E+00 -0.21732061397E+04  0.21732061397E+04  0.25500000920E-02 0. -1.
    10030    2    1    2    0    0  0.00000000000E+00  0.00000000000E+00 -0.14545164964E+04  0.28918957829E+04  0.24994885438E+04 0.  0.
        1    1    3    3  502    0 -0.27120313515E+03  0.94499977859E+03  0.16541797126E+03  0.99696480744E+03  0.50400001928E-02 0.  1.
       -1    1    3    3    0  502  0.27120313515E+03 -0.94499977859E+03 -0.16199344677E+04  0.18949309754E+04  0.50400001928E-02 0. -1.
</event>
<event>
 5   0  0.3991066E-07  0.2500476E+04  0.7818609E-02  0.8402816E-01
        1   -1    0    0  501    0  0.00000000000E+00  0.00000000000E+00  0.97383813584E+03  0.97383813586E+03  0.50400001928E-02 0.  1.
       -1   -1    0    0    0  501  0.00000000000E+00  0.00000000000E+00 -0.16050869334E+04  0.16050869335E+04  0.50400001928E-02 0. -1.
    10030    2    1    2    0    0  0.00000000000E+00  0.00000000000E+00 -0.63124879760E+03  0.25789250693E+04  0.25004758484E+04 0.  0.
        1    1    3    3  502    0 -0.37703323749E+03  0.11917555844E+04 -0.34210946440E+03  0.12959453387E+04  0.50400001928E-02 0.  1.
       -1    1    3    3    0  502  0.37703323749E+03 -0.11917555844E+04 -0.28913933320E+03  0.12829797306E+04  0.50400001928E-02 0. -1.
</event>
<event>
 5   0  0.3837524E-07  0.2502084E+04  0.7818609E-02  0.8402244E-01
       -1   -1    0    0    0  501  0.00000000000E+00  0.00000000000E+00  0.73684594573E+03  0.73684594575E+03  0.50400001928E-02 0.  1.
        1   -1    0    0  501    0  0.00000000000E+00  0.00000000000E+00 -0.21240610858E+04  0.21240610858E+04  0.50400001928E-02 0. -1.
    10030    2    1    2    0    0  0.00000000000E+00  0.00000000000E+00 -0.13872151401E+04  0.28609070316E+04  0.25020837713E+04 0.  0.
        5    1    3    3  502    0  0.10924086721E+04 -0.26242529492E+03 -0.64358134508E+02  0.11253389720E+04  0.46999998093E+01 0. -1.
       -5    1    3    3    0  502 -0.10924086721E+04  0.26242529492E+03 -0.13228570056E+04  0.17355680596E+04  0.46999998093E+01 0.  1.
</event>
<event>
 5   0  0.8997210E-07  0.2500519E+04  0.7818609E-02  0.8402801E-01
        2   -1    0    0  501    0  0.00000000000E+00  0.00000000000E+00  0.88890880155E+03  0.88890880156E+03  0.25500000920E-02 0. -1.
       -2   -1    0    0    0  501  0.00000000000E+00  0.00000000000E+00 -0.17585024332E+04  0.17585024333E+04  0.25500000920E-02 0.  1.
    10030    2    1    2    0    0  0.00000000000E+00  0.00000000000E+00 -0.86959363170E+03  0.26474112348E+04  0.25005185786E+04 0.  0.
        1    1    3    3  502    0 -0.76096384677E+03  0.68434727197E+03 -0.11951430760E+04  0.15734561122E+04  0.50400001928E-02 0.  1.
       -1    1    3    3    0  502  0.76096384677E+03 -0.68434727197E+03  0.32554944431E+03  0.10739551226E+04  0.50400001928E-02 0. -1.
</event>
<event>
 5   0  0.3805418E-07  0.2500515E+04  0.7818609E-02  0.8402802E-01
        1   -1    0    0  501    0  0.00000000000E+00  0.00000000000E+00  0.78388679226E+03  0.78388679228E+03  0.50400001928E-02 0.  1.
       -1   -1    0    0    0  501  0.00000000000E+00  0.00000000000E+00 -0.19940936640E+04  0.19940936640E+04  0.50400001928E-02 0. -1.
    10030    2    1    2    0    0  0.00000000000E+00  0.00000000000E+00 -0.12102068717E+04  0.27779804563E+04  0.25005148956E+04 0.  0.
        4    1    3    3  502    0  0.49502556043E+03  0.31046485957E+03  0.62285204073E+03  0.85404040422E+03  0.12699999809E+01 0.  1.
       -4    1    3    3    0  502 -0.49502556043E+03 -0.31046485957E+03 -0.18330589125E+04  0.19239400521E+04  0.12699999809E+01 0. -1.
</event>
<event>
 5   0  0.9508784E-07  0.2500557E+04  0.7818609E-02  0.8402787E-01
        2   -1    0    0  501    0  0.00000000000E+00  0.00000000000E+00  0.17460486114E+04  0.17460486114E+04  0.25500000920E-02 0.  1.
       -2   -1    0    0    0  501  0.00000000000E+00  0.00000000000E+00 -0.89527624452E+03  0.89527624452E+03  0.25500000920E-02 0. -1.
    10030    2    1    2    0    0  0.00000000000E+00  0.00000000000E+00  0.85077236685E+03  0.26413248559E+04  0.25005566129E+04 0.  0.
        2    1    3    3  502    0  0.16795828607E+03  0.18020145364E+03  0.17201611330E+04  0.17377102386E+04  0.25500000920E-02 0.  1.
       -2    1    3    3    0  502 -0.16795828607E+03 -0.18020145364E+03 -0.86938876619E+03  0.90361461727E+03  0.25500000920E-02 0. -1.
</event>
<event>
 5   0  0.3805418E-07  0.2501322E+04  0.7818609E-02  0.8402515E-01
       -1   -1    0    0    0  501  0.00000000000E+00  0.00000000000E+00  0.14028694842E+04  0.14028694842E+04  0.50400001928E-02 0.  1.
        1   -1    0    0  501    0  0.00000000000E+00  0.00000000000E+00 -0.11149666710E+04  0.11149666710E+04  0.50400001928E-02 0. -1.
    10030    2    1    2    0    0  0.00000000000E+00  0.00000000000E+00  0.28790281313E+03  0.25178361552E+04  0.25013218255E+04 0.  0.
        4    1    3    3  502    0  0.11018447934E+04 -0.23969398496E+02  0.73905225497E+03  0.13269650822E+04  0.12699999809E+01 0. -1.
       -4    1    3    3    0  502 -0.11018447934E+04  0.23969398496E+02 -0.45114944184E+03  0.11908710730E+04  0.12699999809E+01 0.  1.
</event>
<event>
 5   0  0.3991066E-07  0.2500451E+04  0.7818609E-02  0.8402825E-01
       -1   -1    0    0    0  501  0.00000000000E+00  0.00000000000E+00  0.73352136369E+03  0.73352136371E+03  0.50400001928E-02 0. -1.
        1   -1    0    0  501    0  0.00000000000E+00  0.00000000000E+00 -0.21309041877E+04  0.21309041877E+04  0.50400001928E-02 0.  1.
    10030    2    1    2    0    0  0.00000000000E+00  0.00000000000E+00 -0.13973828240E+04  0.28644255514E+04  0.25004509559E+04 0.  0.
        1    1    3    3  502    0  0.46901923664E+03  0.86301075970E+03  0.18739822656E+03  0.99994235386E+03  0.50400001928E-02 0. -1.
       -1    1    3    3    0  502 -0.46901923664E+03 -0.86301075970E+03 -0.15847810506E+04  0.18644831975E+04  0.50400001928E-02 0.  1.
</event>
<event>
 5   0  0.9251138E-07  0.2501085E+04  0.7818609E-02  0.8402599E-01
       -2   -1    0    0    0  501  0.00000000000E+00  0.00000000000E+00  0.62252453656E+03  0.62252453657E+03  0.25500000920E-02 0.  1.
        2   -1    0    0  501    0  0.00000000000E+00  0.00000000000E+00 -0.25121196884E+04  0.25121196884E+04  0.25500000920E-02 0. -1.
    10030    2    1    2    0    0  0.00000000000E+00  0.00000000000E+00 -0.18895951518E+04  0.31346442250E+04  0.25010846805E+04 0.  0.
        5    1    3    3  502    0  0.41757924121E+03  0.63581378744E+03 -0.21888039458E+04  0.23172216981E+04  0.46999998093E+01 0. -1.
       -5    1    3    3    0  502 -0.41757924121E+03 -0.63581378744E+03  0.29920879399E+03  0.81742252684E+03  0.46999998093E+01 0.  1.
</event>
<event>
 5   0  0.3972587E-07  0.2499838E+04  0.7818609E-02  0.8403043E-01
       -1   -1    0    0    0  501  0.00000000000E+00  0.00000000000E+00  0.76454401210E+03  0.76454401212E+03  0.50400001928E-02 0.  1.
        1   -1    0    0  501    0  0.00000000000E+00  0.00000000000E+00 -0.20434366290E+04  0.20434366290E+04  0.50400001928E-02 0. -1.
    10030    2    1    2    0    0  0.00000000000E+00  0.00000000000E+00 -0.12788926169E+04  0.28079806411E+04  0.24998377858E+04 0.  0.
        3    1    3    3  502    0  0.85202351909E+03  0.62795020125E+03 -0.13862543523E+04  0.17441234680E+04  0.10100000352E+00 0. -1.
       -3    1    3    3    0  502 -0.85202351909E+03 -0.62795020125E+03  0.10736173537E+03  0.10638571731E+04  0.10100000352E+00 0.  1.
</event>
<event>
 5   0  0.3972587E-07  0.2500415E+04  0.7818609E-02  0.8402838E-01
       -1   -1    0    0    0  501  0.00000000000E+00  0.00000000000E+00  0.74626909242E+03  0.74626909244E+03  0.50400001928E-02 0.  1.
        1   -1    0    0  501    0  0.00000000000E+00  0.00000000000E+00 -0.20944446073E+04  0.20944446074E+04  0.50400001928E-02 0. -1.
    10030    2    1    2    0    0  0.00000000000E+00  0.00000000000E+00 -0.13481755149E+04  0.28407136998E+04  0.25004153865E+04 0.  0.
        3    1    3    3  502    0  0.96241342375E+03  0.70234189555E+03 -0.11044503240E+04  0.16246028021E+04  0.10100000352E+00 0.  1.
       -3    1    3    3    0  502 -0.96241342375E+03 -0.70234189555E+03 -0.24372519097E+03  0.12161108976E+04  0.10100000352E+00 0. -1.
</event>
<event>
 5   0  0.9508784E-07  0.2499801E+04  0.7818609E-02  0.8403056E-01
        2   -1    0    0  501    0  0.00000000000E+00  0.00000000000E+00  0.83952057133E+03  0.83952057133E+03  0.25500000920E-02 0. -1.
       -2   -1    0    0    0  501  0.00000000000E+00  0.00000000000E+00 -0.18608855179E+04  0.18608855179E+04  0.25500000920E-02 0.  1.
    10030    2    1    2    0    0  0.00000000000E+00  0.00000000000E+00 -0.10213649466E+04  0.27004060893E+04  0.24998013307E+04 0.  0.
        2    1    3    3  502    0 -0.21685577233E+03  0.82620595211E+02  0.81604497365E+03  0.84839966276E+03  0.25500000920E-02 0. -1.
       -2    1    3    3    0  502  0.21685577233E+03 -0.82620595211E+02 -0.18374099202E+04  0.18520064265E+04  0.25500000920E-02 0.  1.
</event>
<event>
 5   0  0.9261602E-07  0.2499662E+04  0.7818609E-02  0.8403106E-01
       -2   -1    0    0    0  501  0.00000000000E+00  0.00000000000E+00  0.10231049370E+04  0.10231049370E+04  0.25500000920E-02 0.  1.
        2   -1    0    0  501    0  0.00000000000E+00  0.00000000000E+00 -0.15268013730E+04  0.15268013730E+04  0.25500000920E-02 0. -1.
    10030    2    1    2    0    0  0.00000000000E+00  0.00000000000E+00 -0.50369643603E+03  0.25499063100E+04  0.24996623952E+04 0.  0.
        4    1    3    3  502    0  0.77938155771E+03  0.74210072076E+03 -0.90017577194E+03  0.14030207146E+04  0.12699999809E+01 0. -1.
       -4    1    3    3    0  502 -0.77938155771E+03 -0.74210072076E+03  0.39647933592E+03  0.11468855954E+04  0.12699999809E+01 0.  1.
</event>
<event>
 5   0  0.3972587E-07  0.2498510E+04  0.7818609E-02  0.8403517E-01
       -1   -1    0    0    0  501  0.00000000000E+00  0.00000000000E+00  0.14728748349E+04  0.14728748349E+04  0.50400001928E-02 0.  1.
        1   -1    0    0  501    0  0.00000000000E+00  0.00000000000E+00 -0.10595864361E+04  0.10595864361E+04  0.50400001928E-02 0. -1.
    10030    2    1    2    0    0  0.00000000000E+00  0.00000000000E+00  0.41328839880E+03  0.25324612711E+04  0.24985101138E+04 0.  0.
        3    1    3    3  502    0  0.10127770657E+04  0.41082478575E+03  0.81996478471E+03  0.13663223074E+04  0.10100000352E+00 0.  1.
       -3    1    3    3    0  502 -0.10127770657E+04 -0.41082478575E+03 -0.40667638590E+03  0.11661389636E+04  0.10100000352E+00 0. -1.
</event>
<event>
 5   0  0.9508784E-07  0.2499173E+04  0.7818609E-02  0.8403280E-01
        2   -1    0    0  501    0  0.00000000000E+00  0.00000000000E+00  0.10654589041E+04  0.10654589041E+04  0.25500000920E-02 0.  1.
       -2   -1    0    0    0  501  0.00000000000E+00  0.00000000000E+00 -0.14655338229E+04  0.14655338229E+04  0.25500000920E-02 0. -1.
    10030    2    1    2    0    0  0.00000000000E+00  0.00000000000E+00 -0.40007491874E+03  0.25309927270E+04  0.24991727118E+04 0.  0.
        2    1    3    3  502    0 -0.60623092497E+03 -0.69956760294E+03 -0.10501025249E+04  0.13998664501E+04  0.25500000920E-02 0. -1.
       -2    1    3    3    0  502  0.60623092497E+03  0.69956760294E+03  0.65002760615E+03  0.11311262769E+04  0.25500000920E-02 0.  1.
</event>
<event>
 5   0  0.9261602E-07  0.2499897E+04  0.7818609E-02  0.8403022E-01
        2   -1    0    0  501    0  0.00000000000E+00  0.00000000000E+00  0.21950521357E+04  0.21950521357E+04  0.25500000920E-02 0. -1.
       -2   -1    0    0    0  501  0.00000000000E+00  0.00000000000E+00 -0.71176954184E+03  0.71176954184E+03  0.25500000920E-02 0.  1.
    10030    2    1    2    0    0  0.00000000000E+00  0.00000000000E+00  0.14832825939E+04  0.29068216776E+04  0.24998970003E+04 0.  0.
        4    1    3    3  502    0  0.59138833148E+03  0.85534554982E+03 -0.64803965291E+02  0.10419008278E+04  0.12699999809E+01 0.  1.
       -4    1    3    3    0  502 -0.59138833148E+03 -0.85534554982E+03  0.15480865592E+04  0.18649208497E+04  0.12699999809E+01 0. -1.
</event>
<event>
 5   0  0.9768582E-07  0.2500163E+04  0.7818609E-02  0.8402927E-01
       -2   -1    0    0    0  501  0.00000000000E+00  0.00000000000E+00  0.10281456339E+04  0.10281456339E+04  0.25500000920E-02 0. -1.
        2   -1    0    0  501    0  0.00000000000E+00  0.00000000000E+00 -0.15199250293E+04  0.15199250293E+04  0.25500000920E-02 0.  1.
    10030    2    1    2    0    0  0.00000000000E+00  0.00000000000E+00 -0.49177939535E+03  0.25480706632E+04  0.25001634208E+04 0.  0.
        3    1    3    3  502    0 -0.77716500767E+03  0.87985955177E+03  0.19195380772E+03  0.11895312331E+04  0.10100000352E+00 0. -1.
       -3    1    3    3    0  502  0.77716500767E+03 -0.87985955177E+03 -0.68373320308E+03  0.13585394301E+04  0.10100000352E+00 0.  1.
</event>
<event>
 5   0  0.3972587E-07  0.2501737E+04  0.7818609E-02  0.8402367E-01
        1   -1    0    0  501    0  0.00000000000E+00  0.00000000000E+00  0.14491091224E+04  0.14491091224E+04  0.50400001928E-02 0.  1.
       -1   -1    0    0    0  501  0.00000000000E+00  0.00000000000E+00 -0.10797471816E+04  0.10797471817E+04  0.50400001928E-02 0. -1.
    10030    2    1    2    0    0  0.00000000000E+00  0.00000000000E+00  0.36936194080E+03  0.25288563041E+04  0.25017365895E+04 0.  0.
        3    1    3    3  502    0 -0.59130265771E+03 -0.39060904848E+03 -0.85724844187E+03  0.11122451003E+04  0.10100000352E+00 0. -1.
       -3    1    3    3    0  502  0.59130265771E+03  0.39060904848E+03  0.12266103827E+04  0.14166112038E+04  0.10100000352E+00 0.  1.
</event>
<event>
 5   0  0.9508784E-07  0.2497212E+04  0.7818609E-02  0.8403980E-01
        2   -1    0    0  501    0  0.00000000000E+00  0.00000000000E+00  0.20060676072E+04  0.20060676072E+04  0.25500000920E-02 0. -1.
       -2   -1    0    0    0  501  0.00000000000E+00  0.00000000000E+00 -0.77715058368E+03  0.77715058368E+03  0.25500000920E-02 0.  1.
    10030    2    1    2    0    0  0.00000000000E+00  0.00000000000E+00  0.12289170235E+04  0.27832181909E+04  0.24972117346E+04 0.  0.
        2    1    3    3  502    0 -0.50961238223E+03 -0.13143588113E+03  0.18764082914E+04  0.19488171404E+04  0.25500000920E-02 0. -1.
       -2    1    3    3    0  502  0.50961238223E+03  0.13143588113E+03 -0.64749126787E+03  0.83440105042E+03  0.25500000920E-02 0.  1.
</event>
<event>
 5   0  0.3214375E-07  0.2500205E+04  0.7818609E-02  0.8402912E-01
        3   -1    0    0  501    0  0.00000000000E+00  0.00000000000E+00  0.16908938227E+04  0.16908938257E+04  0.10100000352E+00 0.  1.
       -3   -1    0    0    0  501  0.00000000000E+00  0.00000000000E+00 -0.92421933403E+03  0.92421933955E+03  0.10100000352E+00 0. -1.
    10030    2    1    2    0    0  0.00000000000E+00  0.00000000000E+00  0.76667448868E+03  0.26151131653E+04  0.25002054107E+04 0.  0.
        2    1    3    3  502    0  0.84178123955E+03  0.82170197911E+03  0.82582498874E+03  0.14372810128E+04  0.25500000920E-02 0. -1.
       -2    1    3    3    0  502 -0.84178123955E+03 -0.82170197911E+03 -0.59150500060E+02  0.11778321525E+04  0.25500000920E-02 0.  1.
</event>
<event>
 5   0  0.3805418E-07  0.2498772E+04  0.7818609E-02  0.8403423E-01
       -1   -1    0    0    0  501  0.00000000000E+00  0.00000000000E+00  0.99151584961E+03  0.99151584963E+03  0.50400001928E-02 0.  1.
        1   -1    0    0  501    0  0.00000000000E+00  0.00000000000E+00 -0.15743218312E+04  0.15743218312E+04  0.50400001928E-02 0. -1.
    10030    2    1    2    0    0  0.00000000000E+00  0.00000000000E+00 -0.58280598163E+03  0.25658376809E+04  0.24987717367E+04 0.  0.
        4    1    3    3  502    0 -0.10030463418E+04  0.65122681691E+03  0.79917166783E+02  0.11985769467E+04  0.12699999809E+01 0.  1.
       -4    1    3    3    0  502  0.10030463418E+04 -0.65122681691E+03 -0.66272314841E+03  0.13672607341E+04  0.12699999809E+01 0. -1.
</event>
<event>
 5   0  0.9508784E-07  0.2498679E+04  0.7818609E-02  0.8403456E-01
       -2   -1    0    0    0  501  0.00000000000E+00  0.00000000000E+00  0.10496214407E+04  0.10496214407E+04  0.25500000920E-02 0. -1.
        2   -1    0    0  501    0  0.00000000000E+00  0.00000000000E+00 -0.14870586233E+04  0.14870586233E+04  0.25500000920E-02 0.  1.
    10030    2    1    2    0    0  0.00000000000E+00  0.00000000000E+00 -0.43743718262E+03  0.25366800640E+04  0.24986785425E+04 0.  0.
        2    1    3    3  502    0 -0.27744641086E+03  0.13024464031E+03 -0.14482986517E+04  0.14803746693E+04  0.25500000920E-02 0.  1.
       -2    1    3    3    0  502  0.27744641086E+03 -0.13024464031E+03  0.10108614690E+04  0.10563053947E+04  0.25500000920E-02 0. -1.
</event>
<event>
 5   0  0.3837524E-07  0.2499701E+04  0.7818609E-02  0.8403092E-01
        1   -1    0    0  501    0  0.00000000000E+00  0.00000000000E+00  0.17381948923E+04  0.17381948923E+04  0.50400001928E-02 0. -1.
       -1   -1    0    0    0  501  0.00000000000E+00  0.00000000000E+00 -0.89870583101E+03  0.89870583102E+03  0.50400001928E-02 0.  1.
    10030    2    1    2    0    0  0.00000000000E+00  0.00000000000E+00  0.83948906130E+03  0.26369007233E+04  0.24997006902E+04 0.  0.
        5    1    3    3  502    0 -0.99084912880E+03 -0.69749706621E+03  0.96632852912E+02  0.12155838727E+04  0.46999998093E+01 0.  1.
       -5    1    3    3    0  502  0.99084912880E+03  0.69749706621E+03  0.74285620839E+03  0.14213168506E+04  0.46999998093E+01 0. -1.
</event>
<event>
 5   0  0.3837524E-07  0.2500509E+04  0.7818609E-02  0.8402804E-01
       -1   -1    0    0    0  501  0.00000000000E+00  0.00000000000E+00  0.83360643618E+03  0.83360643619E+03  0.50400001928E-02 0.  1.
        1   -1    0    0  501    0  0.00000000000E+00  0.00000000000E+00 -0.18751483038E+04  0.18751483038E+04  0.50400001928E-02 0. -1.
    10030    2    1    2    0    0  0.00000000000E+00  0.00000000000E+00 -0.10415418676E+04  0.27087547400E+04  0.25005085042E+04 0.  0.
        5    1    3    3  502    0 -0.19757622026E+02  0.54681945370E+03  0.69699930503E+03  0.88613317271E+03  0.46999998093E+01 0.  1.
       -5    1    3    3    0  502  0.19757622026E+02 -0.54681945370E+03 -0.17385411727E+04  0.18226215673E+04  0.46999998093E+01 0. -1.
</event>
<event>
 5   0  0.3972587E-07  0.2497332E+04  0.7818609E-02  0.8403936E-01
       -1   -1    0    0    0  501  0.00000000000E+00  0.00000000000E+00  0.76237377500E+03  0.76237377501E+03  0.50400001928E-02 0. -1.
        1   -1    0    0  501    0  0.00000000000E+00  0.00000000000E+00 -0.20451481180E+04  0.20451481180E+04  0.50400001928E-02 0.  1.
    10030    2    1    2    0    0  0.00000000000E+00  0.00000000000E+00 -0.12827743430E+04  0.28075218930E+04  0.24973324097E+04 0.  0.
        3    1    3    3  502    0 -0.56169044543E+03 -0.31810118563E+03  0.56024521759E+03  0.85472757930E+03  0.10100000352E+00 0. -1.
       -3    1    3    3    0  502  0.56169044543E+03  0.31810118563E+03 -0.18430195606E+04  0.19527943137E+04  0.10100000352E+00 0.  1.
</event>
<event>
 5   0  0.3873231E-07  0.2501581E+04  0.7818609E-02  0.8402423E-01
        1   -1    0    0  501    0  0.00000000000E+00  0.00000000000E+00  0.27869341763E+04  0.27869341763E+04  0.50400001928E-02 0.  1.
       -1   -1    0    0    0  501  0.00000000000E+00  0.00000000000E+00 -0.56136119126E+03  0.56136119128E+03  0.50400001928E-02 0. -1.
    10030    2    1    2    0    0  0.00000000000E+00  0.00000000000E+00  0.22255729850E+04  0.33482953676E+04  0.25015808516E+04 0.  0.
        2    1    3    3  502    0  0.48450771975E+03  0.92207621907E+03  0.20396280933E+04  0.22902085153E+04  0.25500000920E-02 0.  1.
       -2    1    3    3    0  502 -0.48450771975E+03 -0.92207621907E+03  0.18594489169E+03  0.10580868523E+04  0.25500000920E-02 0. -1.
</event>
<event>
 5   0  0.9251138E-07  0.2499721E+04  0.7818609E-02  0.8403085E-01
       -2   -1    0    0    0  501  0.00000000000E+00  0.00000000000E+00  0.13675907938E+04  0.13675907938E+04  0.25500000920E-02 0.  1.
        2   -1    0    0  501    0  0.00000000000E+00  0.00000000000E+00 -0.11422650313E+04  0.11422650313E+04  0.25500000920E-02 0. -1.
    10030    2    1    2    0    0  0.00000000000E+00  0.00000000000E+00  0.22532576255E+03  0.25098558251E+04  0.24997208971E+04 0.  0.
        5    1    3    3  502    0  0.56084096569E+03 -0.10782203052E+04  0.40543977198E+03  0.12812123610E+04  0.46999998093E+01 0.  1.
       -5    1    3    3    0  502 -0.56084096569E+03  0.10782203052E+04 -0.18011400943E+03  0.12286434641E+04  0.46999998093E+01 0. -1.
</event>
<event>
 5   0  0.3805418E-07  0.2496976E+04  0.7818609E-02  0.8404064E-01
       -1   -1    0    0    0  501  0.00000000000E+00  0.00000000000E+00  0.14607889486E+04  0.14607889486E+04  0.50400001928E-02 0.  1.
        1   -1    0    0  501    0  0.00000000000E+00  0.00000000000E+00 -0.10670413440E+04  0.10670413440E+04  0.50400001928E-02 0. -1.
    10030    2    1    2    0    0  0.00000000000E+00  0.00000000000E+00  0.39374760456E+03  0.25278302926E+04  0.24969759334E+04 0.  0.
        4    1    3    3  502    0  0.60313516942E+03  0.10065907756E+04  0.62843181559E+03  0.13311368006E+04  0.12699999809E+01 0.  1.
       -4    1    3    3    0  502 -0.60313516942E+03 -0.10065907756E+04 -0.23468421103E+03  0.11966934920E+04  0.12699999809E+01 0. -1.
</event>
<event>
 5   0  0.3837524E-07  0.2500131E+04  0.7818609E-02  0.8402939E-01
       -1   -1    0    0    0  501  0.00000000000E+00  0.00000000000E+00  0.14876749222E+04  0.14876749222E+04  0.50400001928E-02 0. -1.
        1   -1    0    0  501    0  0.00000000000E+00  0.00000000000E+00 -0.10504069922E+04  0.10504069922E+04  0.50400001928E-02 0.  1.
    10030    2    1    2    0    0  0.00000000000E+00  0.00000000000E+00  0.43726793006E+03  0.25380819144E+04  0.25001313089E+04 0.  0.
        5    1    3    3  502    0 -0.11198986039E+03 -0.12042736799E+04 -0.10211330284E+03  0.12137817108E+04  0.46999998093E+01 0.  1.
       -5    1    3    3    0  502  0.11198986039E+03  0.12042736799E+04  0.53938123290E+03  0.13243002036E+04  0.46999998093E+01 0. -1.
</event>
<event>
 5   0  0.9508784E-07  0.2499026E+04  0.7818609E-02  0.8403333E-01
       -2   -1    0    0    0  501  0.00000000000E+00  0.00000000000E+00  0.10245301145E+04  0.10245301145E+04  0.25500000920E-02 0.  1.
        2   -1    0    0  501    0  0.00000000000E+00  0.00000000000E+00 -0.15239013951E+04  0.15239013951E+04  0.25500000920E-02 0. -1.
    10030    2    1    2    0    0  0.00000000000E+00  0.00000000000E+00 -0.49937128059E+03  0.25484315097E+04  0.24990261070E+04 0.  0.
        2    1    3    3  502    0  0.11629903322E+04 -0.24702539895E+03 -0.64162077188E+03  0.13510163861E+04  0.25500000920E-02 0. -1.
       -2    1    3    3    0  502 -0.11629903322E+04  0.24702539895E+03  0.14224949129E+03  0.11974151236E+04  0.25500000920E-02 0.  1.
</event>
<event>
 5   0  0.3873231E-07  0.2494641E+04  0.7818609E-02  0.8404897E-01
       -1   -1    0    0    0  501  0.00000000000E+00  0.00000000000E+00  0.84248044355E+03  0.84248044356E+03  0.50400001928E-02 0.  1.
        1   -1    0    0  501    0  0.00000000000E+00  0.00000000000E+00 -0.18466991569E+04  0.18466991569E+04  0.50400001928E-02 0. -1.
    10030    2    1    2    0    0  0.00000000000E+00  0.00000000000E+00 -0.10042187134E+04  0.26891796005E+04  0.24946405952E+04 0.  0.
        2    1    3    3  502    0 -0.30902159736E+03  0.12040892497E+04 -0.39174025993E+03  0.13033747351E+04  0.25500000920E-02 0. -1.
       -2    1    3    3    0  502  0.30902159736E+03 -0.12040892497E+04 -0.61247845344E+03  0.13858048654E+04  0.25500000920E-02 0.  1.
</event>
<event>
 5   0  0.9251138E-07  0.2498300E+04  0.7818609E-02  0.8403592E-01
        2   -1    0    0  501    0  0.00000000000E+00  0.00000000000E+00  0.15297819848E+04  0.15297819848E+04  0.25500000920E-02 0.  1.
       -2   -1    0    0    0  501  0.00000000000E+00  0.00000000000E+00 -0.10199984361E+04  0.10199984361E+04  0.25500000920E-02 0. -1.
    10030    2    1    2    0    0  0.00000000000E+00  0.00000000000E+00  0.50978354867E+03  0.25497804210E+04  0.24982996075E+04 0.  0.
        5    1    3    3  502    0 -0.72626957901E+03  0.96621512161E+03 -0.66743338515E+02  0.12105849519E+04  0.46999998093E+01 0. -1.
       -5    1    3    3    0  502  0.72626957901E+03 -0.96621512161E+03  0.57652688718E+03  0.13391954690E+04  0.46999998093E+01 0.  1.
</event>
<event>
 5   0  0.3991066E-07  0.2500176E+04  0.7818609E-02  0.8402923E-01
       -1   -1    0    0    0  501  0.00000000000E+00  0.00000000000E+00  0.60212918594E+03  0.60212918596E+03  0.50400001928E-02 0.  1.
        1   -1    0    0  501    0  0.00000000000E+00  0.00000000000E+00 -0.25953235028E+04  0.25953235028E+04  0.50400001928E-02 0. -1.
    10030    2    1    2    0    0  0.00000000000E+00  0.00000000000E+00 -0.19931943169E+04  0.31974526888E+04  0.25001760162E+04 0.  0.
        1    1    3    3  502    0  0.14271214410E+03 -0.23237942143E+03  0.56362530765E+03  0.62613132731E+03  0.50400001928E-02 0.  1.
       -1    1    3    3    0  502 -0.14271214410E+03  0.23237942143E+03 -0.25568196245E+04  0.25713213615E+04  0.50400001928E-02 0. -1.
</event>
<event>
 5   0  0.9768582E-07  0.2499706E+04  0.7818609E-02  0.8403090E-01
        2   -1    0    0  501    0  0.00000000000E+00  0.00000000000E+00  0.16844924989E+04  0.16844924989E+04  0.25500000920E-02 0. -1.
       -2   -1    0    0    0  501  0.00000000000E+00  0.00000000000E+00 -0.92736104331E+03  0.92736104331E+03  0.25500000920E-02 0.  1.
    10030    2    1    2    0    0  0.00000000000E+00  0.00000000000E+00  0.75713145557E+03  0.26118535422E+04  0.24997061597E+04 0.  0.
        3    1    3    3  502    0  0.41867481485E+02  0.11567746472E+04  0.87115271428E+03  0.14487192731E+04  0.10100000352E+00 0. -1.
       -3    1    3    3    0  502 -0.41867481485E+02 -0.11567746472E+04 -0.11402125872E+03  0.11631342691E+04  0.10100000352E+00 0.  1.
</event>
<event>
 5   0  0.9251138E-07  0.2500525E+04  0.7818609E-02  0.8402799E-01
        2   -1    0    0  501    0  0.00000000000E+00  0.00000000000E+00  0.19826169896E+04  0.19826169896E+04  0.25500000920E-02 0.  1.
       -2   -1    0    0    0  501  0.00000000000E+00  0.00000000000E+00 -0.78843070174E+03  0.78843070174E+03  0.25500000920E-02 0. -1.
    10030    2    1    2    0    0  0.00000000000E+00  0.00000000000E+00  0.11941862878E+04  0.27710476913E+04  0.25005248284E+04 0.  0.
        5    1    3    3  502    0 -0.12282383447E+03 -0.10005440743E+04 -0.22248536772E+03  0.10323255144E+04  0.46999998093E+01 0. -1.
       -5    1    3    3    0  502  0.12282383447E+03  0.10005440743E+04  0.14166716555E+04  0.17387221769E+04  0.46999998093E+01 0.  1.
</event>
<event>
 5   0  0.3991066E-07  0.2499384E+04  0.7818609E-02  0.8403205E-01
        1   -1    0    0  501    0  0.00000000000E+00  0.00000000000E+00  0.17167010912E+04  0.17167010912E+04  0.50400001928E-02 0. -1.
       -1   -1    0    0    0  501  0.00000000000E+00  0.00000000000E+00 -0.90972768805E+03  0.90972768807E+03  0.50400001928E-02 0.  1.
    10030    2    1    2    0    0  0.00000000000E+00  0.00000000000E+00  0.80697340311E+03  0.26264287792E+04  0.24993843360E+04 0.  0.
        1    1    3    3  502    0  0.28219530116E+03 -0.12086017936E+04  0.24984240709E+03  0.12660069952E+04  0.50400001928E-02 0.  1.
       -1    1    3    3    0  502 -0.28219530116E+03  0.12086017936E+04  0.55713099602E+03  0.13604217840E+04  0.50400001928E-02 0. -1.
</event>
<event>
 5   0  0.9508784E-07  0.2502299E+04  0.7818609E-02  0.8402167E-01
       -2   -1    0    0    0  501  0.00000000000E+00  0.00000000000E+00  0.11255968018E+04  0.11255968018E+04  0.25500000920E-02 0.  1.
        2   -1    0    0  501    0  0.00000000000E+00  0.00000000000E+00 -0.13907063281E+04  0.13907063281E+04  0.25500000920E-02 0. -1.
    10030    2    1    2    0    0  0.00000000000E+00  0.00000000000E+00 -0.26510952633E+03  0.25163031300E+04  0.25022986194E+04 0.  0.
        2    1    3    3  502    0 -0.33421260918E+03  0.80209101012E+03 -0.10377741629E+04  0.13535225413E+04  0.25500000920E-02 0. -1.
       -2    1    3    3    0  502  0.33421260918E+03 -0.80209101012E+03  0.77266463659E+03  0.11627805886E+04  0.25500000920E-02 0.  1.
</event>
<event>
 5   0  0.9251138E-07  0.2499942E+04  0.7818609E-02  0.8403006E-01
        2   -1    0    0  501    0  0.00000000000E+00  0.00000000000E+00  0.13337741854E+04  0.13337741854E+04  0.25500000920E-02 0.  1.
       -2   -1    0    0    0  501  0.00000000000E+00  0.00000000000E+00 -0.11714329269E+04  0.11714329269E+04  0.25500000920E-02 0. -1.
    10030    2    1    2    0    0  0.00000000000E+00  0.00000000000E+00  0.16234125849E+03  0.25052071123E+04  0.24999415975E+04 0.  0.
        5    1    3    3  502    0 -0.23893784129E+03  0.10528282687E+03  0.13061319456E+04  0.13319829259E+04  0.46999998093E+01 0.  1.
       -5    1    3    3    0  502  0.23893784129E+03 -0.10528282687E+03 -0.11437906871E+04  0.11732241864E+04  0.46999998093E+01 0. -1.
</event>
<event>
 5   0  0.3873231E-07  0.2499895E+04  0.7818609E-02  0.8403023E-01
        1   -1    0    0  501    0  0.00000000000E+00  0.00000000000E+00  0.16953130710E+04  0.16953130710E+04  0.50400001928E-02 0.  1.
       -1   -1    0    0    0  501  0.00000000000E+00  0.00000000000E+00 -0.92158108795E+03  0.92158108797E+03  0.50400001928E-02 0. -1.
    10030    2    1    2    0    0  0.00000000000E+00  0.00000000000E+00  0.77373198306E+03  0.26168941590E+04  0.24998947693E+04 0.  0.
        2    1    3    3  502    0  0.61272346695E+03 -0.83835375139E+03  0.11152033749E+04  0.15237931706E+04  0.25500000920E-02 0.  1.
       -2    1    3    3    0  502 -0.61272346695E+03  0.83835375139E+03 -0.34147139179E+03  0.10931009884E+04  0.25500000920E-02 0. -1.
</event>
<event>
 5   0  0.9251138E-07  0.2500267E+04  0.7818609E-02  0.8402891E-01
       -2   -1    0    0    0  501  0.00000000000E+00  0.00000000000E+00  0.70889868845E+03  0.70889868845E+03  0.25500000920E-02 0. -1.
        2   -1    0    0  501    0  0.00000000000E+00  0.00000000000E+00 -0.22045933098E+04  0.22045933098E+04  0.25500000920E-02 0.  1.
    10030    2    1    2    0    0  0.00000000000E+00  0.00000000000E+00 -0.14956946214E+04  0.29134919983E+04  0.25002666305E+04 0.  0.
        5    1    3    3  502    0  0.13490845448E+03 -0.20596262788E+03 -0.21760504543E+04  0.21899403108E+04  0.46999998093E+01 0.  1.
       -5    1    3    3    0  502 -0.13490845448E+03  0.20596262788E+03  0.68035583289E+03  0.72355168752E+03  0.46999998093E+01 0. -1.
</event>
<event>
 5   0  0.3805418E-07  0.2499999E+04  0.7818609E-02  0.8402986E-01
        1   -1    0    0  501    0  0.00000000000E+00  0.00000000000E+00  0.18671021714E+04  0.18671021714E+04  0.50400001928E-02 0.  1.
       -1   -1    0    0    0  501  0.00000000000E+00  0.00000000000E+00 -0.83685759256E+03  0.83685759258E+03  0.50400001928E-02 0. -1.
    10030    2    1    2    0    0  0.00000000000E+00  0.00000000000E+00  0.10302445789E+04  0.27039597640E+04  0.24999989026E+04 0.  0.
        4    1    3    3  502    0 -0.66626523081E+03  0.80301422882E+03  0.12595759667E+04  0.16356266194E+04  0.12699999809E+01 0.  1.
       -4    1    3    3    0  502  0.66626523081E+03 -0.80301422882E+03 -0.22933138781E+03  0.10683331446E+04  0.12699999809E+01 0. -1.
</event>
<event>
 5   0  0.3837524E-07  0.2500160E+04  0.7818609E-02  0.8402928E-01
        1   -1    0    0  501    0  0.00000000000E+00  0.00000000000E+00  0.11505875161E+04  0.11505875161E+04  0.50400001928E-02 0.  1.
       -1   -1    0    0    0  501  0.00000000000E+00  0.00000000000E+00 -0.13581759940E+04  0.13581759940E+04  0.50400001928E-02 0. -1.
    10030    2    1    2    0    0  0.00000000000E+00  0.00000000000E+00 -0.20758847792E+03  0.25087635101E+04  0.25001602695E+04 0.  0.
        5    1    3    3  502    0  0.40257580196E+03 -0.37460638028E+03 -0.12302796603E+04  0.13475931690E+04  0.46999998093E+01 0. -1.
       -5    1    3    3    0  502 -0.40257580196E+03  0.37460638028E+03  0.10226911824E+04  0.11611703411E+04  0.46999998093E+01 0.  1.
</event>
<event>
 5   0  0.3837524E-07  0.2502041E+04  0.7818609E-02  0.8402259E-01
        1   -1    0    0  501    0  0.00000000000E+00  0.00000000000E+00  0.23876009476E+04  0.23876009476E+04  0.50400001928E-02 0.  1.
       -1   -1    0    0    0  501  0.00000000000E+00  0.00000000000E+00 -0.65549162082E+03  0.65549162084E+03  0.50400001928E-02 0. -1.
    10030    2    1    2    0    0  0.00000000000E+00  0.00000000000E+00  0.17321093268E+04  0.30430925684E+04  0.25020410988E+04 0.  0.
        5    1    3    3  502    0 -0.24518632233E+02 -0.84654378549E+03  0.19859194309E+04  0.21589663314E+04  0.46999998093E+01 0.  1.
       -5    1    3    3    0  502  0.24518632233E+02  0.84654378549E+03 -0.25381010412E+03  0.88412623704E+03  0.46999998093E+01 0. -1.
</event>
<event>
 5   0  0.3214375E-07  0.2500232E+04  0.7818609E-02  0.8402903E-01
        3   -1    0    0  501    0  0.00000000000E+00  0.00000000000E+00  0.65732998092E+03  0.65732998868E+03  0.10100000352E+00 0. -1.
       -3   -1    0    0    0  501  0.00000000000E+00  0.00000000000E+00 -0.23774822684E+04  0.23774822706E+04  0.10100000352E+00 0.  1.
    10030    2    1    2    0    0  0.00000000000E+00  0.00000000000E+00 -0.17201522875E+04  0.30348122592E+04  0.25002323005E+04 0.  0.
        4    1    3    3  502    0  0.46720909726E+03  0.11581251593E+04 -0.79087233995E+03  0.14781809416E+04  0.12699999809E+01 0. -1.
       -4    1    3    3    0  502 -0.46720909726E+03 -0.11581251593E+04 -0.92927994756E+03  0.15566313176E+04  0.12699999809E+01 0.  1.
</event>
<event>
 5   0  0.9768582E-07  0.2500786E+04  0.7818609E-02  0.8402705E-01
       -2   -1    0    0    0  501  0.00000000000E+00  0.00000000000E+00  0.13804108695E+04  0.13804108695E+04  0.25500000920E-02 0. -1.
        2   -1    0    0  501    0  0.00000000000E+00  0.00000000000E+00 -0.11326216306E+04  0.11326216306E+04  0.25500000920E-02 0.  1.
    10030    2    1    2    0    0  0.00000000000E+00  0.00000000000E+00  0.24778923880E+03  0.25130325001E+04  0.25007864442E+04 0.  0.
        3    1    3    3  502    0  0.24678441264E+03  0.69250686577E+03 -0.89250028015E+03  0.11562980004E+04  0.10100000352E+00 0.  1.
       -3    1    3    3    0  502 -0.24678441264E+03 -0.69250686577E+03  0.11402895190E+04  0.13567344997E+04  0.10100000352E+00 0. -1.
</event>
<event>
 5   0  0.3837524E-07  0.2500713E+04  0.7818609E-02  0.8402731E-01
       -1   -1    0    0    0  501  0.00000000000E+00  0.00000000000E+00  0.55364403917E+03  0.55364403920E+03  0.50400001928E-02 0. -1.
        1   -1    0    0  501    0  0.00000000000E+00  0.00000000000E+00 -0.28238213291E+04  0.28238213291E+04  0.50400001928E-02 0.  1.
    10030    2    1    2    0    0  0.00000000000E+00  0.00000000000E+00 -0.22701772900E+04  0.33774653683E+04  0.25007133755E+04 0.  0.
        5    1    3    3  502    0  0.12278542611E+04  0.23307118187E+03 -0.10841673383E+04  0.16545057177E+04  0.46999998093E+01 0. -1.
       -5    1    3    3    0  502 -0.12278542611E+04 -0.23307118187E+03 -0.11860099517E+04  0.17229596507E+04  0.46999998093E+01 0.  1.
</event>
<event>
 5   0  0.3837524E-07  0.2501654E+04  0.7818609E-02  0.8402397E-01
       -1   -1    0    0    0  501  0.00000000000E+00  0.00000000000E+00  0.62265400276E+03  0.62265400278E+03  0.50400001928E-02 0.  1.
        1   -1    0    0  501    0  0.00000000000E+00  0.00000000000E+00 -0.25127406809E+04  0.25127406809E+04  0.50400001928E-02 0. -1.
    10030    2    1    2    0    0  0.00000000000E+00  0.00000000000E+00 -0.18900866782E+04  0.31353946837E+04  0.25016538873E+04 0.  0.
        5    1    3    3  502    0 -0.44407390716E+03  0.32972648137E+03  0.46104669711E+03  0.72007453396E+03  0.46999998093E+01 0.  1.
       -5    1    3    3    0  502  0.44407390716E+03 -0.32972648137E+03 -0.23511333753E+04  0.24153201498E+04  0.46999998093E+01 0. -1.
</event>
<event>
 5   0  0.9768582E-07  0.2499786E+04  0.7818609E-02  0.8403062E-01
       -2   -1    0    0    0  501  0.00000000000E+00  0.00000000000E+00  0.12413953139E+04  0.12413953139E+04  0.25500000920E-02 0.  1.
        2   -1    0    0  501    0  0.00000000000E+00  0.00000000000E+00 -0.12584489787E+04  0.12584489788E+04  0.25500000920E-02 0. -1.
    10030    2    1    2    0    0  0.00000000000E+00  0.00000000000E+00 -0.17053664859E+02  0.24998442926E+04  0.24997861228E+04 0.  0.
        3    1    3    3  502    0 -0.62184657699E+03 -0.99469838123E+03 -0.43994690812E+03  0.12528652470E+04  0.10100000352E+00 0. -1.
       -3    1    3    3    0  502  0.62184657699E+03  0.99469838123E+03  0.42289324326E+03  0.12469790457E+04  0.10100000352E+00 0.  1.
</event>
<event>
 5   0  0.8997210E-07  0.2499617E+04  0.7818609E-02  0.8403122E-01
        2   -1    0    0  501    0  0.00000000000E+00  0.00000000000E+00  0.10973126927E+04  0.10973126927E+04  0.25500000920E-02 0.  1.
       -2   -1    0    0    0  501  0.00000000000E+00  0.00000000000E+00 -0.14234970355E+04  0.14234970355E+04  0.25500000920E-02 0. -1.
    10030    2    1    2    0    0  0.00000000000E+00  0.00000000000E+00 -0.32618434274E+03  0.25208097282E+04  0.24996170627E+04 0.  0.
        1    1    3    3  502    0  0.60399332300E+02  0.93991837348E+03  0.66541238669E+03  0.11531991469E+04  0.50400001928E-02 0.  1.
       -1    1    3    3    0  502 -0.60399332300E+02 -0.93991837348E+03 -0.99159672943E+03  0.13676105813E+04  0.50400001928E-02 0. -1.
</event>
<event>
 5   0  0.9261602E-07  0.2504827E+04  0.7818609E-02  0.8401268E-01
       -2   -1    0    0    0  501  0.00000000000E+00  0.00000000000E+00  0.11122179826E+04  0.11122179826E+04  0.25500000920E-02 0. -1.
        2   -1    0    0  501    0  0.00000000000E+00  0.00000000000E+00 -0.14102809442E+04  0.14102809442E+04  0.25500000920E-02 0.  1.
    10030    2    1    2    0    0  0.00000000000E+00  0.00000000000E+00 -0.29806296159E+03  0.25224989269E+04  0.25048272010E+04 0.  0.
        4    1    3    3  502    0 -0.42919445209E+03  0.23184153055E+03 -0.13106771803E+04  0.13985115863E+04  0.12699999809E+01 0.  1.
       -4    1    3    3    0  502  0.42919445209E+03 -0.23184153055E+03  0.10126142187E+04  0.11239873406E+04  0.12699999809E+01 0. -1.
</event>
<event>
 5   0  0.3873231E-07  0.2500317E+04  0.7818609E-02  0.8402872E-01
       -1   -1    0    0    0  501  0.00000000000E+00  0.00000000000E+00  0.15798977462E+04  0.15798977462E+04  0.50400001928E-02 0. -1.
        1   -1    0    0  501    0  0.00000000000E+00  0.00000000000E+00 -0.98923917084E+03  0.98923917085E+03  0.50400001928E-02 0.  1.
    10030    2    1    2    0    0  0.00000000000E+00  0.00000000000E+00  0.59065857535E+03  0.25691369170E+04  0.25003173690E+04 0.  0.
        2    1    3    3  502    0 -0.11133435281E+04  0.29695307082E+03  0.79363281984E+03  0.13991311556E+04  0.25500000920E-02 0. -1.
       -2    1    3    3    0  502  0.11133435281E+04 -0.29695307082E+03 -0.20297424450E+03  0.11700057614E+04  0.25500000920E-02 0.  1.
</event>
<event>
 5   0  0.9251138E-07  0.2498043E+04  0.7818609E-02  0.8403683E-01
        2   -1    0    0  501    0  0.00000000000E+00  0.00000000000E+00  0.14634876023E+04  0.14634876023E+04  0.25500000920E-02 0.  1.
       -2   -1    0    0    0  501  0.00000000000E+00  0.00000000000E+00 -0.10659845977E+04  0.10659845977E+04  0.25500000920E-02 0. -1.
    10030    2    1    2    0    0  0.00000000000E+00  0.00000000000E+00  0.39750300464E+03  0.25294722000E+04  0.24980434288E+04 0.  0.
        5    1    3    3  502    0 -0.88726140142E+03 -0.27672322297E+03 -0.64614714268E+03  0.11319614643E+04  0.46999998093E+01 0. -1.
       -5    1    3    3    0  502  0.88726140142E+03  0.27672322297E+03  0.10436501473E+04  0.13975107358E+04  0.46999998093E+01 0.  1.
</event>
<event>
 5   0  0.3805418E-07  0.2501261E+04  0.7818609E-02  0.8402536E-01
        1   -1    0    0  501    0  0.00000000000E+00  0.00000000000E+00  0.14447532033E+04  0.14447532033E+04  0.50400001928E-02 0.  1.
       -1   -1    0    0    0  501  0.00000000000E+00  0.00000000000E+00 -0.10825907624E+04  0.10825907624E+04  0.50400001928E-02 0. -1.
    10030    2    1    2    0    0  0.00000000000E+00  0.00000000000E+00  0.36216244084E+03  0.25273439657E+04  0.25012608595E+04 0.  0.
        4    1    3    3  502    0 -0.46972691383E+03 -0.45450919750E+03  0.12584329108E+04  0.14180539440E+04  0.12699999809E+01 0.  1.
       -4    1    3    3    0  502  0.46972691383E+03  0.45450919750E+03 -0.89627046992E+03  0.11092900217E+04  0.12699999809E+01 0. -1.
</event>
<event>
 5   0  0.8997210E-07  0.2499728E+04  0.7818609E-02  0.8403083E-01
       -2   -1    0    0    0  501  0.00000000000E+00  0.00000000000E+00  0.11495367767E+04  0.11495367767E+04  0.25500000920E-02 0. -1.
        2   -1    0    0  501    0  0.00000000000E+00  0.00000000000E+00 -0.13589471715E+04  0.13589471715E+04  0.25500000920E-02 0.  1.
    10030    2    1    2    0    0  0.00000000000E+00  0.00000000000E+00 -0.20941039482E+03  0.25084839482E+04  0.24997277862E+04 0.  0.
        1    1    3    3  502    0  0.27147755946E+03 -0.69578422722E+03 -0.11103852874E+04  0.13381970119E+04  0.50400001928E-02 0.  1.
       -1    1    3    3    0  502 -0.27147755946E+03  0.69578422722E+03  0.90097489263E+03  0.11702869363E+04  0.50400001928E-02 0. -1.
</event>
<event>
 5   0  0.9251138E-07  0.2500178E+04  0.7818609E-02  0.8402922E-01
       -2   -1    0    0    0  501  0.00000000000E+00  0.00000000000E+00  0.10394621182E+04  0.10394621182E+04  0.25500000920E-02 0. -1.
        2   -1    0    0  501    0  0.00000000000E+00  0.00000000000E+00 -0.15033954837E+04  0.15033954837E+04  0.25500000920E-02 0.  1.
    10030    2    1    2    0    0  0.00000000000E+00  0.00000000000E+00 -0.46393336541E+03  0.25428576019E+04  0.25001781169E+04 0.  0.
        5    1    3    3  502    0  0.59551288903E+03 -0.10741002092E+04 -0.46912892544E+03  0.13146980258E+04  0.46999998093E+01 0. -1.
       -5    1    3    3    0  502 -0.59551288903E+03  0.10741002092E+04  0.51955600223E+01  0.12281595761E+04  0.46999998093E+01 0.  1.
</event>
<event>
 5   0  0.9508784E-07  0.2499613E+04  0.7818609E-02  0.8403124E-01
        2   -1    0    0  501    0  0.00000000000E+00  0.00000000000E+00  0.14606293929E+04  0.14606293929E+04  0.25500000920E-02 0. -1.
       -2   -1    0    0    0  501  0.00000000000E+00  0.00000000000E+00 -0.10694128589E+04  0.10694128589E+04  0.25500000920E-02 0.  1.
    10030    2    1    2    0    0  0.00000000000E+00  0.00000000000E+00  0.39121653396E+03  0.25300422518E+04  0.24996126538E+04 0.  0.
        2    1    3    3  502    0 -0.53636029507E+03 -0.10769306588E+04 -0.14697006827E+03  0.12120487659E+04  0.25500000920E-02 0.  1.
       -2    1    3    3    0  502  0.53636029507E+03  0.10769306588E+04  0.53818660223E+03  0.13179934859E+04  0.25500000920E-02 0. -1.
</event>
<event>
 5   0  0.3991066E-07  0.2503805E+04  0.7818609E-02  0.8401631E-01
       -1   -1    0    0    0  501  0.00000000000E+00  0.00000000000E+00  0.62644961774E+03  0.62644961776E+03  0.50400001928E-02 0. -1.
        1   -1    0    0  501    0  0.00000000000E+00  0.00000000000E+00 -0.25018138692E+04  0.25018138693E+04  0.50400001928E-02 0.  1.
    10030    2    1    2    0    0  0.00000000000E+00  0.00000000000E+00 -0.18753642515E+04  0.31282634870E+04  0.25038053775E+04 0.  0.
        1    1    3    3  502    0 -0.28175815970E+03  0.10110431990E+04 -0.85094069451E+02  0.10530133007E+04  0.50400001928E-02 0. -1.
       -1    1    3    3    0  502  0.28175815970E+03 -0.10110431990E+04 -0.17902701821E+04  0.20752501863E+04  0.50400001928E-02 0.  1.
</event>
<event>
 5   0  0.3805418E-07  0.2500782E+04  0.7818609E-02  0.8402707E-01
       -1   -1    0    0    0  501  0.00000000000E+00  0.00000000000E+00  0.20548112098E+04  0.20548112098E+04  0.50400001928E-02 0.  1.
        1   -1    0    0  501    0  0.00000000000E+00  0.00000000000E+00 -0.76088597779E+03  0.76088597780E+03  0.50400001928E-02 0. -1.
    10030    2    1    2    0    0  0.00000000000E+00  0.00000000000E+00  0.12939252320E+04  0.28156971876E+04  0.25007815071E+04 0.  0.
        4    1    3    3  502    0 -0.58647459472E+03  0.10584958894E+04  0.29250225346E+03  0.12449599107E+04  0.12699999809E+01 0. -1.
       -4    1    3    3    0  502  0.58647459472E+03 -0.10584958894E+04  0.10014229786E+04  0.15707372769E+04  0.12699999809E+01 0.  1.
</event>
<event>
 5   0  0.9508784E-07  0.2504024E+04  0.7818609E-02  0.8401553E-01
       -2   -1    0    0    0  501  0.00000000000E+00  0.00000000000E+00  0.15739215534E+04  0.15739215534E+04  0.25500000920E-02 0. -1.
        2   -1    0    0  501    0  0.00000000000E+00  0.00000000000E+00 -0.99594177833E+03  0.99594177833E+03  0.25500000920E-02 0.  1.
    10030    2    1    2    0    0  0.00000000000E+00  0.00000000000E+00  0.57797977505E+03  0.25698633317E+04  0.25040241459E+04 0.  0.
        2    1    3    3  502    0  0.25210349027E+03 -0.83031789636E+03  0.12152446553E+04  0.14932526749E+04  0.25500000920E-02 0. -1.
       -2    1    3    3    0  502 -0.25210349027E+03  0.83031789636E+03 -0.63726488023E+03  0.10766106568E+04  0.25500000920E-02 0.  1.
</event>
<event>
 5   0  0.9251138E-07  0.2501610E+04  0.7818609E-02  0.8402412E-01
        2   -1    0    0  501    0  0.00000000000E+00  0.00000000000E+00  0.28079818049E+04  0.28079818049E+04  0.25500000920E-02 0.  1.
       -2   -1    0    0    0  501  0.00000000000E+00  0.00000000000E+00 -0.55716639685E+03  0.55716639686E+03  0.25500000920E-02 0. -1.
    10030    2    1    2    0    0  0.00000000000E+00  0.00000000000E+00  0.22508154080E+04  0.33651482017E+04  0.25016099653E+04 0.  0.
        5    1    3    3  502    0 -0.47488287435E+03 -0.75193391055E+03 -0.57729618370E+02  0.89122003401E+03  0.46999998093E+01 0. -1.
       -5    1    3    3    0  502  0.47488287435E+03  0.75193391055E+03  0.23085450264E+04  0.24739281677E+04  0.46999998093E+01 0.  1.
</event>
<event>
 5   0  0.3805418E-07  0.2499669E+04  0.7818609E-02  0.8403103E-01
       -1   -1    0    0    0  501  0.00000000000E+00  0.00000000000E+00  0.65387276218E+03  0.65387276219E+03  0.50400001928E-02 0. -1.
        1   -1    0    0  501    0  0.00000000000E+00  0.00000000000E+00 -0.23889759318E+04  0.23889759318E+04  0.50400001928E-02 0.  1.
    10030    2    1    2    0    0  0.00000000000E+00  0.00000000000E+00 -0.17351031696E+04  0.30428486940E+04  0.24996690112E+04 0.  0.
        4    1    3    3  502    0  0.43435676103E+03  0.10714873251E+04 -0.28970704147E+03  0.11919239349E+04  0.12699999809E+01 0. -1.
       -4    1    3    3    0  502 -0.43435676103E+03 -0.10714873251E+04 -0.14453961282E+04  0.18509247591E+04  0.12699999809E+01 0.  1.
</event>
<event>
 5   0  0.3873231E-07  0.2500080E+04  0.7818609E-02  0.8402957E-01
       -1   -1    0    0    0  501  0.00000000000E+00  0.00000000000E+00  0.67664371781E+03  0.67664371783E+03  0.50400001928E-02 0.  1.
        1   -1    0    0  501    0  0.00000000000E+00  0.00000000000E+00 -0.23093398421E+04  0.23093398421E+04  0.50400001928E-02 0. -1.
    10030    2    1    2    0    0  0.00000000000E+00  0.00000000000E+00 -0.16326961243E+04  0.29859835599E+04  0.25000802359E+04 0.  0.
        2    1    3    3  502    0  0.86555644249E+03  0.64793151801E+03 -0.67041726898E+02  0.10832810348E+04  0.25500000920E-02 0. -1.
       -2    1    3    3    0  502 -0.86555644249E+03 -0.64793151801E+03 -0.15656543974E+04  0.19027025251E+04  0.25500000920E-02 0.  1.
</event>
<event>
 5   0  0.9261602E-07  0.2501857E+04  0.7818609E-02  0.8402324E-01
       -2   -1    0    0    0  501  0.00000000000E+00  0.00000000000E+00  0.96032282656E+03  0.96032282657E+03  0.25500000920E-02 0.  1.
        2   -1    0    0  501    0  0.00000000000E+00  0.00000000000E+00 -0.16294756250E+04  0.16294756250E+04  0.25500000920E-02 0. -1.
    10030    2    1    2    0    0  0.00000000000E+00  0.00000000000E+00 -0.66915279845E+03  0.25897984516E+04  0.25018574204E+04 0.  0.
        4    1    3    3  502    0  0.93345627573E+03 -0.68457189400E+03 -0.82541857050E+03  0.14217231538E+04  0.12699999809E+01 0. -1.
       -4    1    3    3    0  502 -0.93345627573E+03  0.68457189400E+03  0.15626577205E+03  0.11680752977E+04  0.12699999809E+01 0.  1.
</event>
<event>
 5   0  0.3837524E-07  0.2506208E+04  0.7818609E-02  0.8400777E-01
       -1   -1    0    0    0  501  0.00000000000E+00  0.00000000000E+00  0.65702457812E+03  0.65702457814E+03  0.50400001928E-02 0.  1.
        1   -1    0    0  501    0  0.00000000000E+00  0.00000000000E+00 -0.23899701499E+04  0.23899701499E+04  0.50400001928E-02 0. -1.
    10030    2    1    2    0    0  0.00000000000E+00  0.00000000000E+00 -0.17329455718E+04  0.30469947280E+04  0.25062075967E+04 0.  0.
        5    1    3    3  502    0 -0.35633051046E+03  0.61674082583E+01  0.59410124170E+03  0.69281155086E+03  0.46999998093E+01 0.  1.
       -5    1    3    3    0  502  0.35633051046E+03 -0.61674082583E+01 -0.23270468135E+04  0.23541831772E+04  0.46999998093E+01 0. -1.
</event>
<event>
 5   0  0.9261602E-07  0.2499738E+04  0.7818609E-02  0.8403079E-01
        2   -1    0    0  501    0  0.00000000000E+00  0.00000000000E+00  0.23531378313E+04  0.23531378313E+04  0.25500000920E-02 0.  1.
       -2   -1    0    0    0  501  0.00000000000E+00  0.00000000000E+00 -0.66386764108E+03  0.66386764108E+03  0.25500000920E-02 0. -1.
    10030    2    1    2    0    0  0.00000000000E+00  0.00000000000E+00  0.16892701902E+04  0.30170054724E+04  0.24997376352E+04 0.  0.
        4    1    3    3  502    0  0.10544069769E+04  0.59966565875E+03  0.12083143683E+04  0.17121326469E+04  0.12699999809E+01 0.  1.
       -4    1    3    3    0  502 -0.10544069769E+04 -0.59966565875E+03  0.48095582196E+03  0.13048728255E+04  0.12699999809E+01 0. -1.
</event>
<event>
 5   0  0.9261602E-07  0.2500675E+04  0.7818609E-02  0.8402745E-01
        2   -1    0    0  501    0  0.00000000000E+00  0.00000000000E+00  0.16568993708E+04  0.16568993708E+04  0.25500000920E-02 0.  1.
       -2   -1    0    0    0  501  0.00000000000E+00  0.00000000000E+00 -0.94353605084E+03  0.94353605084E+03  0.25500000920E-02 0. -1.
    10030    2    1    2    0    0  0.00000000000E+00  0.00000000000E+00  0.71336331996E+03  0.26004354216E+04  0.25006753400E+04 0.  0.
        4    1    3    3  502    0  0.39118417190E+03 -0.11149903654E+03  0.15861704543E+04  0.16374966914E+04  0.12699999809E+01 0.  1.
       -4    1    3    3    0  502 -0.39118417190E+03  0.11149903654E+03 -0.87280713433E+03  0.96293873021E+03  0.12699999809E+01 0. -1.
</event>
<event>
 5   0  0.9768582E-07  0.2496195E+04  0.7818609E-02  0.8404342E-01
       -2   -1    0    0    0  501  0.00000000000E+00  0.00000000000E+00  0.12381370130E+04  0.12381370130E+04  0.25500000920E-02 0. -1.
        2   -1    0    0  501    0  0.00000000000E+00  0.00000000000E+00 -0.12581384636E+04  0.12581384636E+04  0.25500000920E-02 0.  1.
    10030    2    1    2    0    0  0.00000000000E+00  0.00000000000E+00 -0.20001450574E+02  0.24962754766E+04  0.24961953443E+04 0.  0.
        3    1    3    3  502    0 -0.45634664042E+03 -0.37999870983E+03  0.10878033948E+04  0.12393415637E+04  0.10100000352E+00 0. -1.
       -3    1    3    3    0  502  0.45634664042E+03  0.37999870983E+03 -0.11078048453E+04  0.12569339128E+04  0.10100000352E+00 0.  1.
</event>
<event>
 5   0  0.3873231E-07  0.2499740E+04  0.7818609E-02  0.8403078E-01
        1   -1    0    0  501    0  0.00000000000E+00  0.00000000000E+00  0.65199404142E+03  0.65199404144E+03  0.50400001928E-02 0. -1.
       -1   -1    0    0    0  501  0.00000000000E+00  0.00000000000E+00 -0.23959949191E+04  0.23959949191E+04  0.50400001928E-02 0.  1.
    10030    2    1    2    0    0  0.00000000000E+00  0.00000000000E+00 -0.17440008777E+04  0.30479889605E+04  0.24997395149E+04 0.  0.
        2    1    3    3  502    0 -0.83426436996E+03  0.39745433380E+03 -0.18981221385E+04  0.21111216543E+04  0.25500000920E-02 0.  1.
       -2    1    3    3    0  502  0.83426436996E+03 -0.39745433380E+03  0.15412126086E+03  0.93686730624E+03  0.25500000920E-02 0. -1.
</event>
<event>
 5   0  0.3991066E-07  0.2500824E+04  0.7818609E-02  0.8402692E-01
        1   -1    0    0  501    0  0.00000000000E+00  0.00000000000E+00  0.12578806660E+04  0.12578806660E+04  0.50400001928E-02 0.  1.
       -1   -1    0    0    0  501  0.00000000000E+00  0.00000000000E+00 -0.12429879659E+04  0.12429879659E+04  0.50400001928E-02 0. -1.
    10030    2    1    2    0    0  0.00000000000E+00  0.00000000000E+00  0.14892700147E+02  0.25008686319E+04  0.25008242884E+04 0.  0.
        1    1    3    3  502    0  0.83126693687E+03 -0.55901794957E+03  0.75580762810E+03  0.12548908156E+04  0.50400001928E-02 0.  1.
       -1    1    3    3    0  502 -0.83126693687E+03  0.55901794957E+03 -0.74091492795E+03  0.12459778163E+04  0.50400001928E-02 0. -1.
</event>
<event>
 5   0  0.3837524E-07  0.2500719E+04  0.7818609E-02  0.8402729E-01
        1   -1    0    0  501    0  0.00000000000E+00  0.00000000000E+00  0.16291291160E+04  0.16291291160E+04  0.50400001928E-02 0. -1.
       -1   -1    0    0    0  501  0.00000000000E+00  0.00000000000E+00 -0.95965306911E+03  0.95965306912E+03  0.50400001928E-02 0.  1.
    10030    2    1    2    0    0  0.00000000000E+00  0.00000000000E+00  0.66947604690E+03  0.25887821851E+04  0.25007189016E+04 0.  0.
        5    1    3    3  502    0 -0.32797101284E+03 -0.99153797346E+03  0.10464543957E+04  0.14784456129E+04  0.46999998093E+01 0. -1.
       -5    1    3    3    0  502  0.32797101284E+03  0.99153797346E+03 -0.37697834883E+03  0.11103365722E+04  0.46999998093E+01 0.  1.
</event>
<event>
 5   0  0.8997210E-07  0.2500846E+04  0.7818609E-02  0.8402684E-01
       -2   -1    0    0    0  501  0.00000000000E+00  0.00000000000E+00  0.71087141699E+03  0.71087141699E+03  0.25500000920E-02 0.  1.
        2   -1    0    0  501    0  0.00000000000E+00  0.00000000000E+00 -0.21994944735E+04  0.21994944735E+04  0.25500000920E-02 0. -1.
    10030    2    1    2    0    0  0.00000000000E+00  0.00000000000E+00 -0.14886230565E+04  0.29103658905E+04  0.25008460593E+04 0.  0.
        1    1    3    3  502    0 -0.98799321434E+03  0.79628551588E+02  0.14280569002E+03  0.10014313571E+04  0.50400001928E-02 0. -1.
       -1    1    3    3    0  502  0.98799321434E+03 -0.79628551588E+02 -0.16314287465E+04  0.19089345334E+04  0.50400001928E-02 0.  1.
</event>
<event>
 5   0  0.9251138E-07  0.2500174E+04  0.7818609E-02  0.8402923E-01
        2   -1    0    0  501    0  0.00000000000E+00  0.00000000000E+00  0.15627425135E+04  0.15627425135E+04  0.25500000920E-02 0. -1.
       -2   -1    0    0    0  501  0.00000000000E+00  0.00000000000E+00 -0.99998433607E+03  0.99998433607E+03  0.25500000920E-02 0.  1.
    10030    2    1    2    0    0  0.00000000000E+00  0.00000000000E+00  0.56275817742E+03  0.25627268496E+04  0.25001744218E+04 0.  0.
        5    1    3    3  502    0 -0.74490653499E+03 -0.18599217051E+03  0.12925786659E+04  0.15034162866E+04  0.46999998093E+01 0.  1.
       -5    1    3    3    0  502  0.74490653499E+03  0.18599217051E+03 -0.72982048847E+03  0.10593105629E+04  0.46999998093E+01 0. -1.
</event>
<event>
 5   0  0.9261602E-07  0.2499564E+04  0.7818609E-02  0.8403141E-01
       -2   -1    0    0    0  501  0.00000000000E+00  0.00000000000E+00  0.13095658973E+04  0.13095658974E+04  0.25500000920E-02 0. -1.
        2   -1    0    0  501    0  0.00000000000E+00  0.00000000000E+00 -0.11927277621E+04  0.11927277621E+04  0.25500000920E-02 0.  1.
    10030    2    1    2    0    0  0.00000000000E+00  0.00000000000E+00  0.11683813530E+03  0.25022936594E+04  0.24995644437E+04 0.  0.
        4    1    3    3  502    0 -0.65782390256E+03 -0.17762394570E+03 -0.99042305023E+03  0.12021738577E+04  0.12699999809E+01 0.  1.
       -4    1    3    3    0  502  0.65782390256E+03  0.17762394570E+03  0.11072611855E+04  0.13001198017E+04  0.12699999809E+01 0. -1.
</event>
<event>
 5   0  0.3837524E-07  0.2499584E+04  0.7818609E-02  0.8403134E-01
        1   -1    0    0  501    0  0.00000000000E+00  0.00000000000E+00  0.20315488961E+04  0.20315488961E+04  0.50400001928E-02 0. -1.
       -1   -1    0    0    0  501  0.00000000000E+00  0.00000000000E+00 -0.76886144451E+03  0.76886144453E+03  0.50400001928E-02 0.  1.
    10030    2    1    2    0    0  0.00000000000E+00  0.00000000000E+00  0.12626874516E+04  0.28004103406E+04  0.24995836604E+04 0.  0.
        5    1    3    3  502    0  0.33756166476E+02 -0.92507973850E+03  0.15720684895E+04  0.18243720637E+04  0.46999998093E+01 0. -1.
       -5    1    3    3    0  502 -0.33756166476E+02  0.92507973850E+03 -0.30938103789E+03  0.97603827689E+03  0.46999998093E+01 0.  1.
</event>
<event>
 5   0  0.3991066E-07  0.2500601E+04  0.7818609E-02  0.8402771E-01
       -1   -1    0    0    0  501  0.00000000000E+00  0.00000000000E+00  0.12121696765E+04  0.12121696765E+04  0.50400001928E-02 0.  1.
        1   -1    0    0  501    0  0.00000000000E+00  0.00000000000E+00 -0.12896310421E+04  0.12896310421E+04  0.50400001928E-02 0. -1.
    10030    2    1    2    0    0  0.00000000000E+00  0.00000000000E+00 -0.77461365620E+02  0.25018007186E+04  0.25006012422E+04 0.  0.
        1    1    3    3  502    0 -0.19712305269E+03  0.38802608103E+03  0.11339364507E+04  0.12145919527E+04  0.50400001928E-02 0.  1.
       -1    1    3    3    0  502  0.19712305269E+03 -0.38802608103E+03 -0.12113978163E+04  0.12872087658E+04  0.50400001928E-02 0. -1.
</event>
<event>
 5   0  0.3873231E-07  0.2500002E+04  0.7818609E-02  0.8402985E-01
        1   -1    0    0  501    0  0.00000000000E+00  0.00000000000E+00  0.14483847076E+04  0.14483847076E+04  0.50400001928E-02 0. -1.
       -1   -1    0    0    0  501  0.00000000000E+00  0.00000000000E+00 -0.10787896984E+04  0.10787896984E+04  0.50400001928E-02 0.  1.
    10030    2    1    2    0    0  0.00000000000E+00  0.00000000000E+00  0.36959500921E+03  0.25271744060E+04  0.25000020015E+04 0.  0.
        2    1    3    3  502    0  0.54624357809E+03 -0.63354147245E+03 -0.75413905442E+03  0.11262693094E+04  0.25500000920E-02 0.  1.
       -2    1    3    3    0  502 -0.54624357809E+03  0.63354147245E+03  0.11237340636E+04  0.14009050966E+04  0.25500000920E-02 0. -1.
</event>
<event>
 5   0  0.3873231E-07  0.2499039E+04  0.7818609E-02  0.8403328E-01
       -1   -1    0    0    0  501  0.00000000000E+00  0.00000000000E+00  0.58793970739E+03  0.58793970741E+03  0.50400001928E-02 0. -1.
        1   -1    0    0  501    0  0.00000000000E+00  0.00000000000E+00 -0.26555416937E+04  0.26555416937E+04  0.50400001928E-02 0.  1.
    10030    2    1    2    0    0  0.00000000000E+00  0.00000000000E+00 -0.20676019863E+04  0.32434814011E+04  0.24990385402E+04 0.  0.
        2    1    3    3  502    0  0.13749220119E+03 -0.93777433152E+03  0.22983852505E+02  0.94807861474E+03  0.25500000920E-02 0. -1.
       -2    1    3    3    0  502 -0.13749220119E+03  0.93777433152E+03 -0.20905858388E+04  0.22954027864E+04  0.25500000920E-02 0.  1.
</event>
<event>
 5   0  0.3837524E-07  0.2500503E+04  0.7818609E-02  0.8402806E-01
       -1   -1    0    0    0  501  0.00000000000E+00  0.00000000000E+00  0.79939236899E+03  0.79939236901E+03  0.50400001928E-02 0.  1.
        1   -1    0    0  501    0  0.00000000000E+00  0.00000000000E+00 -0.19553956128E+04  0.19553956128E+04  0.50400001928E-02 0. -1.
    10030    2    1    2    0    0  0.00000000000E+00  0.00000000000E+00 -0.11560032438E+04  0.27547879818E+04  0.25005026145E+04 0.  0.
        5    1    3    3  502    0  0.34403922517E+03 -0.12019601593E+04 -0.58452194849E+03  0.13801301429E+04  0.46999998093E+01 0. -1.
       -5    1    3    3    0  502 -0.34403922517E+03  0.12019601593E+04 -0.57148129529E+03  0.13746578389E+04  0.46999998093E+01 0.  1.
</event>
<event>
 5   0  0.8997210E-07  0.2498295E+04  0.7818609E-02  0.8403593E-01
       -2   -1    0    0    0  501  0.00000000000E+00  0.00000000000E+00  0.11762083753E+04  0.11762083753E+04  0.25500000920E-02 0. -1.
        2   -1    0    0  501    0  0.00000000000E+00  0.00000000000E+00 -0.13266093740E+04  0.13266093740E+04  0.25500000920E-02 0.  1.
    10030    2    1    2    0    0  0.00000000000E+00  0.00000000000E+00 -0.15040099866E+03  0.25028177493E+04  0.24982946636E+04 0.  0.
        1    1    3    3  502    0 -0.10230313129E+04 -0.48124748404E+03 -0.60736543464E+03  0.12833880860E+04  0.50400001928E-02 0. -1.
       -1    1    3    3    0  502  0.10230313129E+04  0.48124748404E+03  0.45696443597E+03  0.12194296633E+04  0.50400001928E-02 0.  1.
</event>
<event>
 5   0  0.3873231E-07  0.2499591E+04  0.7818609E-02  0.8403131E-01
       -1   -1    0    0    0  501  0.00000000000E+00  0.00000000000E+00  0.13099609886E+04  0.13099609886E+04  0.50400001928E-02 0. -1.
        1   -1    0    0  501    0  0.00000000000E+00  0.00000000000E+00 -0.11923929850E+04  0.11923929850E+04  0.50400001928E-02 0.  1.
    10030    2    1    2    0    0  0.00000000000E+00  0.00000000000E+00  0.11756800353E+03  0.25023539736E+04  0.24995906012E+04 0.  0.
        2    1    3    3  502    0  0.87156034911E+02 -0.66578092578E+02  0.13051340426E+04  0.13097342043E+04  0.25500000920E-02 0. -1.
       -2    1    3    3    0  502 -0.87156034911E+02  0.66578092578E+02 -0.11875660391E+04  0.11926197693E+04  0.25500000920E-02 0.  1.
</event>
<event>
 5   0  0.3991066E-07  0.2500215E+04  0.7818609E-02  0.8402909E-01
       -1   -1    0    0    0  501  0.00000000000E+00  0.00000000000E+00  0.12336126718E+04  0.12336126718E+04  0.50400001928E-02 0. -1.
        1   -1    0    0  501    0  0.00000000000E+00  0.00000000000E+00 -0.12668229789E+04  0.12668229789E+04  0.50400001928E-02 0.  1.
    10030    2    1    2    0    0  0.00000000000E+00  0.00000000000E+00 -0.33210307076E+02  0.25004356507E+04  0.25002150945E+04 0.  0.
        1    1    3    3  502    0 -0.12755512283E+03  0.10998704540E+04 -0.59698690376E+03  0.12579263445E+04  0.50400001928E-02 0.  1.
       -1    1    3    3    0  502  0.12755512283E+03 -0.10998704540E+04  0.56377659668E+03  0.12425093062E+04  0.50400001928E-02 0. -1.
</event>
<event>
 5   0  0.9261602E-07  0.2500091E+04  0.7818609E-02  0.8402953E-01
        2   -1    0    0  501    0  0.00000000000E+00  0.00000000000E+00  0.11941380267E+04  0.11941380267E+04  0.25500000920E-02 0. -1.
       -2   -1    0    0    0  501  0.00000000000E+00  0.00000000000E+00 -0.13085702396E+04  0.13085702396E+04  0.25500000920E-02 0.  1.
    10030    2    1    2    0    0  0.00000000000E+00  0.00000000000E+00 -0.11443221294E+03  0.25027082663E+04  0.25000907853E+04 0.  0.
        4    1    3    3  502    0  0.98054195623E+03 -0.28477457190E+03 -0.77911796902E+03  0.12843619067E+04  0.12699999809E+01 0.  1.
       -4    1    3    3    0  502 -0.98054195623E+03  0.28477457190E+03  0.66468575608E+03  0.12183463596E+04  0.12699999809E+01 0. -1.
</event>
<event>
 5   0  0.3837524E-07  0.2502559E+04  0.7818609E-02  0.8402075E-01
        1   -1    0    0  501    0  0.00000000000E+00  0.00000000000E+00  0.19408212059E+04  0.19408212059E+04  0.50400001928E-02 0.  1.
       -1   -1    0    0    0  501  0.00000000000E+00  0.00000000000E+00 -0.80672034729E+03  0.80672034731E+03  0.50400001928E-02 0. -1.
    10030    2    1    2    0    0  0.00000000000E+00  0.00000000000E+00  0.11341008586E+04  0.27475415532E+04  0.25025586565E+04 0.  0.
        5    1    3    3  502    0 -0.25885615120E+03  0.71988078982E+03 -0.52005378866E+03  0.92504750778E+03  0.46999998093E+01 0. -1.
       -5    1    3    3    0  502  0.25885615120E+03 -0.71988078982E+03  0.16541546473E+04  0.18224940454E+04  0.46999998093E+01 0.  1.
</event>
<event>
 5   0  0.3837524E-07  0.2501694E+04  0.7818609E-02  0.8402382E-01
       -1   -1    0    0    0  501  0.00000000000E+00  0.00000000000E+00  0.12082778726E+04  0.12082778726E+04  0.50400001928E-02 0. -1.
        1   -1    0    0  501    0  0.00000000000E+00  0.00000000000E+00 -0.12949160472E+04  0.12949160472E+04  0.50400001928E-02 0.  1.
    10030    2    1    2    0    0  0.00000000000E+00  0.00000000000E+00 -0.86638174590E+02  0.25031939198E+04  0.25016941513E+04 0.  0.
        5    1    3    3  502    0 -0.96997913747E+03 -0.64216521101E+03 -0.50333444479E+03  0.12675185753E+04  0.46999998093E+01 0.  1.
       -5    1    3    3    0  502  0.96997913747E+03  0.64216521101E+03  0.41669627020E+03  0.12356753445E+04  0.46999998093E+01 0. -1.
</event>
<event>
 5   0  0.3873231E-07  0.2499269E+04  0.7818609E-02  0.8403246E-01
       -1   -1    0    0    0  501  0.00000000000E+00  0.00000000000E+00  0.10518045887E+04  0.10518045887E+04  0.50400001928E-02 0.  1.
        1   -1    0    0  501    0  0.00000000000E+00  0.00000000000E+00 -0.14846730263E+04  0.14846730263E+04  0.50400001928E-02 0. -1.
    10030    2    1    2    0    0  0.00000000000E+00  0.00000000000E+00 -0.43286843763E+03  0.25364776151E+04  0.24992686145E+04 0.  0.
        2    1    3    3  502    0  0.76324791706E+03 -0.58234810598E+01 -0.12206116723E+04  0.14396090269E+04  0.25500000920E-02 0. -1.
       -2    1    3    3    0  502 -0.76324791706E+03  0.58234810598E+01  0.78774323470E+03  0.10968685881E+04  0.25500000920E-02 0.  1.
</event>
<event>
 5   0  0.8997210E-07  0.2502347E+04  0.7818609E-02  0.8402150E-01
        2   -1    0    0  501    0  0.00000000000E+00  0.00000000000E+00  0.16454139445E+04  0.16454139445E+04  0.25500000920E-02 0.  1.
       -2   -1    0    0    0  501  0.00000000000E+00  0.00000000000E+00 -0.95139311884E+03  0.95139311885E+03  0.25500000920E-02 0. -1.
    10030    2    1    2    0    0  0.00000000000E+00  0.00000000000E+00  0.69402082568E+03  0.25968070634E+04  0.25023473016E+04 0.  0.
        1    1    3    3  502    0  0.52824364039E+03  0.24423309069E+03 -0.80238413582E+03  0.99121715463E+03  0.50400001928E-02 0. -1.
       -1    1    3    3    0  502 -0.52824364039E+03 -0.24423309069E+03  0.14964049615E+04  0.16055899087E+04  0.50400001928E-02 0.  1.
</event>
<event>
 5   0  0.3805418E-07  0.2497421E+04  0.7818609E-02  0.8403905E-01
       -1   -1    0    0    0  501  0.00000000000E+00  0.00000000000E+00  0.10699875267E+04  0.10699875267E+04  0.50400001928E-02 0.  1.
        1   -1    0    0  501    0  0.00000000000E+00  0.00000000000E+00 -0.14572865597E+04  0.14572865597E+04  0.50400001928E-02 0. -1.
    10030    2    1    2    0    0  0.00000000000E+00  0.00000000000E+00 -0.38729903299E+03  0.25272740865E+04  0.24974214236E+04 0.  0.
        4    1    3    3  502    0  0.15535280884E+03 -0.11683581625E+04 -0.61098863875E+03  0.13275933190E+04  0.12699999809E+01 0.  1.
       -4    1    3    3    0  502 -0.15535280884E+03  0.11683581625E+04  0.22368960575E+03  0.11996807675E+04  0.12699999809E+01 0. -1.
</event>
<event>
 5   0  0.8997210E-07  0.2500659E+04  0.7818609E-02  0.8402751E-01
       -2   -1    0    0    0  501  0.00000000000E+00  0.00000000000E+00  0.71256864958E+03  0.71256864958E+03  0.25500000920E-02 0. -1.
        2   -1    0    0  501    0  0.00000000000E+00  0.00000000000E+00 -0.21939278811E+04  0.21939278811E+04  0.25500000920E-02 0.  1.
    10030    2    1    2    0    0  0.00000000000E+00  0.00000000000E+00 -0.14813592315E+04  0.29064965306E+04  0.25006592950E+04 0.  0.
        1    1    3    3  502    0 -0.96297116160E+03  0.28930736739E+03 -0.16044683392E+04  0.18934969930E+04  0.50400001928E-02 0.  1.
       -1    1    3    3    0  502  0.96297116160E+03 -0.28930736739E+03  0.12310910770E+03  0.10129995377E+04  0.50400001928E-02 0. -1.
</event>
<event>
 5   0  0.9768582E-07  0.2500052E+04  0.7818609E-02  0.8402967E-01
        2   -1    0    0  501    0  0.00000000000E+00  0.00000000000E+00  0.88989769061E+03  0.88989769061E+03  0.25500000920E-02 0. -1.
       -2   -1    0    0    0  501  0.00000000000E+00  0.00000000000E+00 -0.17558924736E+04  0.17558924736E+04  0.25500000920E-02 0.  1.
    10030    2    1    2    0    0  0.00000000000E+00  0.00000000000E+00 -0.86599478300E+03  0.26457901642E+04  0.25000517252E+04 0.  0.
        3    1    3    3  502    0  0.85817936471E+02 -0.10196505903E+04 -0.11928442054E+04  0.15716008887E+04  0.10100000352E+00 0.  1.
       -3    1    3    3    0  502 -0.85817936471E+02  0.10196505903E+04  0.32684942243E+03  0.10741892756E+04  0.10100000352E+00 0. -1.
</event>
<event>
 5   0  0.9768582E-07  0.2499619E+04  0.7818609E-02  0.8403121E-01
       -2   -1    0    0    0  501  0.00000000000E+00  0.00000000000E+00  0.77290681010E+03  0.77290681010E+03  0.25500000920E-02 0. -1.
        2   -1    0    0  501    0  0.00000000000E+00  0.00000000000E+00 -0.20209721894E+04  0.20209721894E+04  0.25500000920E-02 0.  1.
    10030    2    1    2    0    0  0.00000000000E+00  0.00000000000E+00 -0.12480653793E+04  0.27938789995E+04  0.24996185054E+04 0.  0.
        3    1    3    3  502    0  0.91097661486E+03  0.38664097211E+03 -0.14772095159E+04  0.17780656900E+04  0.10100000352E+00 0.  1.
       -3    1    3    3    0  502 -0.91097661486E+03 -0.38664097211E+03  0.22914413657E+03  0.10158133094E+04  0.10100000352E+00 0. -1.
</event>
<event>
 5   0  0.3991066E-07  0.2500267E+04  0.7818609E-02  0.8402890E-01
       -1   -1    0    0    0  501  0.00000000000E+00  0.00000000000E+00  0.69606133270E+03  0.69606133272E+03  0.50400001928E-02 0.  1.
        1   -1    0    0  501    0  0.00000000000E+00  0.00000000000E+00 -0.22452529681E+04  0.22452529681E+04  0.50400001928E-02 0. -1.
    10030    2    1    2    0    0  0.00000000000E+00  0.00000000000E+00 -0.15491916354E+04  0.29413143008E+04  0.25002670043E+04 0.  0.
        1    1    3    3  502    0  0.32804181358E+03  0.94550428613E+03 -0.16559102768E+04  0.19348458934E+04  0.50400001928E-02 0. -1.
       -1    1    3    3    0  502 -0.32804181358E+03 -0.94550428613E+03  0.10671864142E+03  0.10064684074E+04  0.50400001928E-02 0.  1.
</event>
<event>
 5   0  0.3837524E-07  0.2499556E+04  0.7818609E-02  0.8403144E-01
       -1   -1    0    0    0  501  0.00000000000E+00  0.00000000000E+00  0.10934018397E+04  0.10934018397E+04  0.50400001928E-02 0.  1.
        1   -1    0    0  501    0  0.00000000000E+00  0.00000000000E+00 -0.14285191841E+04  0.14285191841E+04  0.50400001928E-02 0. -1.
    10030    2    1    2    0    0  0.00000000000E+00  0.00000000000E+00 -0.33511734445E+03  0.25219210238E+04  0.24995563638E+04 0.  0.
        5    1    3    3  502    0  0.15441551695E+03 -0.65560618961E+03  0.89459984327E+03  0.11198190020E+04  0.46999998093E+01 0.  1.
       -5    1    3    3    0  502 -0.15441551695E+03  0.65560618961E+03 -0.12297171877E+04  0.14021020218E+04  0.46999998093E+01 0. -1.
</event>
<event>
 5   0  0.9768582E-07  0.2499140E+04  0.7818609E-02  0.8403292E-01
        2   -1    0    0  501    0  0.00000000000E+00  0.00000000000E+00  0.15698728423E+04  0.15698728423E+04  0.25500000920E-02 0. -1.
       -2   -1    0    0    0  501  0.00000000000E+00  0.00000000000E+00 -0.99461908253E+03  0.99461908253E+03  0.25500000920E-02 0.  1.
    10030    2    1    2    0    0  0.00000000000E+00  0.00000000000E+00  0.57525375976E+03  0.25644919248E+04  0.24991402410E+04 0.  0.
        3    1    3    3  502    0  0.12136013439E+04  0.29055219589E+03  0.35394406320E+03  0.12971218950E+04  0.10100000352E+00 0. -1.
       -3    1    3    3    0  502 -0.12136013439E+04 -0.29055219589E+03  0.22130969656E+03  0.12673700298E+04  0.10100000352E+00 0.  1.
</event>
<event>
 5   0  0.3837524E-07  0.2500153E+04  0.7818609E-02  0.8402931E-01
       -1   -1    0    0    0  501  0.00000000000E+00  0.00000000000E+00  0.90505592197E+03  0.90505592198E+03  0.50400001928E-02 0. -1.
        1   -1    0    0  501    0  0.00000000000E+00  0.00000000000E+00 -0.17266233776E+04  0.17266233776E+04  0.50400001928E-02 0.  1.
    10030    2    1    2    0    0  0.00000000000E+00  0.00000000000E+00 -0.82156745561E+03  0.26316792996E+04  0.25001525657E+04 0.  0.
        5    1    3    3  502    0 -0.41580735077E+03  0.96325729217E+03  0.30460866372E+03  0.10925057857E+04  0.46999998093E+01 0. -1.
       -5    1    3    3    0  502  0.41580735077E+03 -0.96325729217E+03 -0.11261761193E+04  0.15391735138E+04  0.46999998093E+01 0.  1.
</event>
<event>
 5   0  0.9508784E-07  0.2501637E+04  0.7818609E-02  0.8402402E-01
       -2   -1    0    0    0  501  0.00000000000E+00  0.00000000000E+00  0.13582396097E+04  0.13582396097E+04  0.25500000920E-02 0. -1.
        2   -1    0    0  501    0  0.00000000000E+00  0.00000000000E+00 -0.11518934851E+04  0.11518934851E+04  0.25500000920E-02 0.  1.
    10030    2    1    2    0    0  0.00000000000E+00  0.00000000000E+00  0.20634612455E+03  0.25101330948E+04  0.25016373499E+04 0.  0.
        2    1    3    3  502    0  0.10683523992E+04 -0.57088450222E+03  0.41609977769E+03  0.12807907670E+04  0.25500000920E-02 0. -1.
       -2    1    3    3    0  502 -0.10683523992E+04  0.57088450222E+03 -0.20975365314E+03  0.12293423278E+04  0.25500000920E-02 0.  1.
</event>
<event>
 5   0  0.3972587E-07  0.2500831E+04  0.7818609E-02  0.8402690E-01
        1   -1    0    0  501    0  0.00000000000E+00  0.00000000000E+00  0.11005635852E+04  0.11005635852E+04  0.50400001928E-02 0.  1.
       -1   -1    0    0    0  501  0.00000000000E+00  0.00000000000E+00 -0.14206708033E+04  0.14206708033E+04  0.50400001928E-02 0. -1.
    10030    2    1    2    0    0  0.00000000000E+00  0.00000000000E+00 -0.32010721812E+03  0.25212343885E+04  0.25008307042E+04 0.  0.
        3    1    3    3  502    0  0.22657494026E+03  0.42980577682E+03 -0.13216123512E+04  0.14080938983E+04  0.10100000352E+00 0. -1.
       -3    1    3    3    0  502 -0.22657494026E+03 -0.42980577682E+03  0.10015051331E+04  0.11131404903E+04  0.10100000352E+00 0.  1.
</event>
<event>
 5   0  0.3991066E-07  0.2501179E+04  0.7818609E-02  0.8402566E-01
       -1   -1    0    0    0  501  0.00000000000E+00  0.00000000000E+00  0.20490829096E+04  0.20490829096E+04  0.50400001928E-02 0. -1.
        1   -1    0    0  501    0  0.00000000000E+00  0.00000000000E+00 -0.76325573279E+03  0.76325573281E+03  0.50400001928E-02 0.  1.
    10030    2    1    2    0    0  0.00000000000E+00  0.00000000000E+00  0.12858271768E+04  0.28123386424E+04  0.25011791441E+04 0.  0.
        1    1    3    3  502    0  0.43589011046E+03  0.28587392354E+03 -0.63527847844E+03  0.82176811435E+03  0.50400001928E-02 0.  1.
       -1    1    3    3    0  502 -0.43589011046E+03 -0.28587392354E+03  0.19211056553E+04  0.19905705281E+04  0.50400001928E-02 0. -1.
</event>
<event>
 5   0  0.3805418E-07  0.2499257E+04  0.7818609E-02  0.8403250E-01
        1   -1    0    0  501    0  0.00000000000E+00  0.00000000000E+00  0.20502125954E+04  0.20502125954E+04  0.50400001928E-02 0. -1.
       -1   -1    0    0    0  501  0.00000000000E+00  0.00000000000E+00 -0.76166315128E+03  0.76166315130E+03  0.50400001928E-02 0.  1.
    10030    2    1    2    0    0  0.00000000000E+00  0.00000000000E+00  0.12885494441E+04  0.28118757467E+04  0.24992569986E+04 0.  0.
        4    1    3    3  502    0 -0.97778853576E+03 -0.37429474730E+03  0.14118123974E+04  0.17576640284E+04  0.12699999809E+01 0. -1.
       -4    1    3    3    0  502  0.97778853576E+03  0.37429474730E+03 -0.12326295322E+03  0.10542117183E+04  0.12699999809E+01 0.  1.
</event>
<event>
 5   0  0.9261602E-07  0.2493533E+04  0.7818609E-02  0.8405293E-01
        2   -1    0    0  501    0  0.00000000000E+00  0.00000000000E+00  0.11490466818E+04  0.11490466818E+04  0.25500000920E-02 0.  1.
       -2   -1    0    0    0  501  0.00000000000E+00  0.00000000000E+00 -0.13527973377E+04  0.13527973377E+04  0.25500000920E-02 0. -1.
    10030    2    1    2    0    0  0.00000000000E+00  0.00000000000E+00 -0.20375065592E+03  0.25018440195E+04  0.24935334704E+04 0.  0.
        4    1    3    3  502    0 -0.85215657172E+03 -0.20307473856E+03  0.78822030909E+03  0.11784324506E+04  0.12699999809E+01 0.  1.
       -4    1    3    3    0  502  0.85215657172E+03  0.20307473856E+03 -0.99197096501E+03  0.13234115688E+04  0.12699999809E+01 0. -1.
</event>
<event>
 5   0  0.3972587E-07  0.2499560E+04  0.7818609E-02  0.8403142E-01
       -1   -1    0    0    0  501  0.00000000000E+00  0.00000000000E+00  0.99396833177E+03  0.99396833178E+03  0.50400001928E-02 0.  1.
        1   -1    0    0  501    0  0.00000000000E+00  0.00000000000E+00 -0.15714280597E+04  0.15714280597E+04  0.50400001928E-02 0. -1.
    10030    2    1    2    0    0  0.00000000000E+00  0.00000000000E+00 -0.57745972797E+03  0.25653963915E+04  0.24995597429E+04 0.  0.
        3    1    3    3  502    0  0.11179789074E+04 -0.10800729357E+03  0.27380080108E+03  0.11560749550E+04  0.10100000352E+00 0.  1.
       -3    1    3    3    0  502 -0.11179789074E+04  0.10800729357E+03 -0.85126052905E+03  0.14093214365E+04  0.10100000352E+00 0. -1.
</event>
<event>
 5   0  0.3837524E-07  0.2505683E+04  0.7818609E-02  0.8400964E-01
       -1   -1    0    0    0  501  0.00000000000E+00  0.00000000000E+00  0.10496301224E+04  0.10496301225E+04  0.50400001928E-02 0. -1.
        1   -1    0    0  501    0  0.00000000000E+00  0.00000000000E+00 -0.14953955056E+04  0.14953955056E+04  0.50400001928E-02 0.  1.
    10030    2    1    2    0    0  0.00000000000E+00  0.00000000000E+00 -0.44576538317E+03  0.25450256281E+04  0.25056832742E+04 0.  0.
        5    1    3    3  502    0  0.15612627554E+03  0.50400521866E+03  0.93126565902E+03  0.10703618510E+04  0.46999998093E+01 0. -1.
       -5    1    3    3    0  502 -0.15612627554E+03 -0.50400521866E+03 -0.13770310422E+04  0.14746637771E+04  0.46999998093E+01 0.  1.
</event>
<event>
 5   0  0.3805418E-07  0.2500740E+04  0.7818609E-02  0.8402722E-01
       -1   -1    0    0    0  501  0.00000000000E+00  0.00000000000E+00  0.12131202718E+04  0.12131202718E+04  0.50400001928E-02 0. -1.
        1   -1    0    0  501    0  0.00000000000E+00  0.00000000000E+00 -0.12887638480E+04  0.12887638480E+04  0.50400001928E-02 0.  1.
    10030    2    1    2    0    0  0.00000000000E+00  0.00000000000E+00 -0.75643576204E+02  0.25018841198E+04  0.25007403301E+04 0.  0.
        4    1    3    3  502    0  0.39676049159E+03 -0.19332761298E+03  0.11325976829E+04  0.12155548436E+04  0.12699999809E+01 0. -1.
       -4    1    3    3    0  502 -0.39676049159E+03  0.19332761298E+03 -0.12082412591E+04  0.12863292762E+04  0.12699999809E+01 0.  1.
</event>
<event>
 5   0  0.9508784E-07  0.2496095E+04  0.7818609E-02  0.8404378E-01
        2   -1    0    0  501    0  0.00000000000E+00  0.00000000000E+00  0.10154884138E+04  0.10154884138E+04  0.25500000920E-02 0. -1.
       -2   -1    0    0    0  501  0.00000000000E+00  0.00000000000E+00 -0.15338650783E+04  0.15338650783E+04  0.25500000920E-02 0.  1.
    10030    2    1    2    0    0  0.00000000000E+00  0.00000000000E+00 -0.51837666452E+03  0.25493534920E+04  0.24960947220E+04 0.  0.
        2    1    3    3  502    0  0.38961158798E+02 -0.12063898454E+04  0.64959884713E+02  0.12087655760E+04  0.25500000920E-02 0. -1.
       -2    1    3    3    0  502 -0.38961158798E+02  0.12063898454E+04 -0.58333654923E+03  0.13405879161E+04  0.25500000920E-02 0.  1.
</event>
<event>
 5   0  0.9261602E-07  0.2500697E+04  0.7818609E-02  0.8402737E-01
        2   -1    0    0  501    0  0.00000000000E+00  0.00000000000E+00  0.13129716745E+04  0.13129716745E+04  0.25500000920E-02 0.  1.
       -2   -1    0    0    0  501  0.00000000000E+00  0.00000000000E+00 -0.11907121421E+04  0.11907121421E+04  0.25500000920E-02 0. -1.
    10030    2    1    2    0    0  0.00000000000E+00  0.00000000000E+00  0.12225953235E+03  0.25036838166E+04  0.25006969549E+04 0.  0.
        4    1    3    3  502    0  0.11658965678E+04  0.29538938956E+03 -0.28103859172E+03  0.12351331917E+04  0.12699999809E+01 0.  1.
       -4    1    3    3    0  502 -0.11658965678E+04 -0.29538938956E+03  0.40329812407E+03  0.12685506249E+04  0.12699999809E+01 0. -1.
</event>
<event>
 5   0  0.9261602E-07  0.2499952E+04  0.7818609E-02  0.8403003E-01
        2   -1    0    0  501    0  0.00000000000E+00  0.00000000000E+00  0.89093980294E+03  0.89093980295E+03  0.25500000920E-02 0. -1.
       -2   -1    0    0    0  501  0.00000000000E+00  0.00000000000E+00 -0.17536988769E+04  0.17536988769E+04  0.25500000920E-02 0.  1.
    10030    2    1    2    0    0  0.00000000000E+00  0.00000000000E+00 -0.86275907398E+03  0.26446386799E+04  0.24999521050E+04 0.  0.
        4    1    3    3  502    0 -0.31058748702E+03  0.11552762049E+04 -0.81472022462E+03  0.14473763692E+04  0.12699999809E+01 0.  1.
       -4    1    3    3    0  502  0.31058748702E+03 -0.11552762049E+04 -0.48038849357E+02  0.11972623107E+04  0.12699999809E+01 0. -1.
</event>
<event>
 5   0  0.3805418E-07  0.2498041E+04  0.7818609E-02  0.8403684E-01
        1   -1    0    0  501    0  0.00000000000E+00  0.00000000000E+00  0.18536310916E+04  0.18536310916E+04  0.50400001928E-02 0. -1.
       -1   -1    0    0    0  501  0.00000000000E+00  0.00000000000E+00 -0.84161950866E+03  0.84161950867E+03  0.50400001928E-02 0.  1.
    10030    2    1    2    0    0  0.00000000000E+00  0.00000000000E+00  0.10120115829E+04  0.26952506002E+04  0.24980409032E+04 0.  0.
        4    1    3    3  502    0 -0.94370883345E+03  0.77744128651E+03  0.78118806236E+03  0.14509506256E+04  0.12699999809E+01 0.  1.
       -4    1    3    3    0  502  0.94370883345E+03 -0.77744128651E+03  0.23082352054E+03  0.12442999746E+04  0.12699999809E+01 0. -1.
</event>
<event>
 5   0  0.9508784E-07  0.2500443E+04  0.7818609E-02  0.8402828E-01
       -2   -1    0    0    0  501  0.00000000000E+00  0.00000000000E+00  0.62787677137E+03  0.62787677138E+03  0.25500000920E-02 0. -1.
        2   -1    0    0  501    0  0.00000000000E+00  0.00000000000E+00 -0.24894267883E+04  0.24894267883E+04  0.25500000920E-02 0.  1.
    10030    2    1    2    0    0  0.00000000000E+00  0.00000000000E+00 -0.18615500169E+04  0.31173035597E+04  0.25004425643E+04 0.  0.
        2    1    3    3  502    0  0.63701821936E+03  0.10437176983E+03 -0.22655994777E+04  0.23557645620E+04  0.25500000920E-02 0.  1.
       -2    1    3    3    0  502 -0.63701821936E+03 -0.10437176983E+03  0.40404946082E+03  0.76153899764E+03  0.25500000920E-02 0. -1.
</event>
<event>
 5   0  0.9261602E-07  0.2500004E+04  0.7818609E-02  0.8402984E-01
        2   -1    0    0  501    0  0.00000000000E+00  0.00000000000E+00  0.55605497473E+03  0.55605497474E+03  0.25500000920E-02 0. -1.
       -2   -1    0    0    0  501  0.00000000000E+00  0.00000000000E+00 -0.28099818770E+04  0.28099818770E+04  0.25500000920E-02 0.  1.
    10030    2    1    2    0    0  0.00000000000E+00  0.00000000000E+00 -0.22539269023E+04  0.33660368518E+04  0.25000035213E+04 0.  0.
        4    1    3    3  502    0 -0.24573571215E+03 -0.63099924484E+03  0.28770368971E+03  0.73574527738E+03  0.12699999809E+01 0. -1.
       -4    1    3    3    0  502  0.24573571215E+03  0.63099924484E+03 -0.25416305920E+04  0.26302915744E+04  0.12699999809E+01 0.  1.
</event>
<event>
 5   0  0.9251138E-07  0.2499751E+04  0.7818609E-02  0.8403074E-01
        2   -1    0    0  501    0  0.00000000000E+00  0.00000000000E+00  0.10979942958E+04  0.10979942958E+04  0.25500000920E-02 0. -1.
       -2   -1    0    0    0  501  0.00000000000E+00  0.00000000000E+00 -0.14227661142E+04  0.14227661142E+04  0.25500000920E-02 0.  1.
    10030    2    1    2    0    0  0.00000000000E+00  0.00000000000E+00 -0.32477181836E+03  0.25207604100E+04  0.24997512498E+04 0.  0.
        5    1    3    3  502    0 -0.11366219138E+04 -0.51284654472E+03 -0.76546846493E+02  0.12493208007E+04  0.46999998093E+01 0.  1.
       -5    1    3    3    0  502  0.11366219138E+04  0.51284654472E+03 -0.24822497187E+03  0.12714396093E+04  0.46999998093E+01 0. -1.
</event>
<event>
 5   0  0.3214375E-07  0.2500039E+04  0.7818609E-02  0.8402972E-01
        4   -1    0    0  501    0  0.00000000000E+00  0.00000000000E+00  0.10987517246E+04  0.10987524586E+04  0.12699999809E+01 0.  1.
       -4   -1    0    0    0  501  0.00000000000E+00  0.00000000000E+00 -0.14221109818E+04  0.14221115489E+04  0.12699999809E+01 0. -1.
    10030    2    1    2    0    0  0.00000000000E+00  0.00000000000E+00 -0.32335925724E+03  0.25208640075E+04  0.25000388267E+04 0.  0.
        3    1    3    3  502    0 -0.70287333855E+03  0.10237036403E+04 -0.30622101019E+03  0.12789727872E+04  0.10100000352E+00 0.  1.
       -3    1    3    3    0  502  0.70287333855E+03 -0.10237036403E+04 -0.17138247050E+02  0.12418912202E+04  0.10100000352E+00 0. -1.
</event>
<event>
 5   0  0.9251138E-07  0.2503013E+04  0.7818609E-02  0.8401913E-01
        2   -1    0    0  501    0  0.00000000000E+00  0.00000000000E+00  0.10618462915E+04  0.10618462915E+04  0.25500000920E-02 0. -1.
       -2   -1    0    0    0  501  0.00000000000E+00  0.00000000000E+00 -0.14750426740E+04  0.14750426740E+04  0.25500000920E-02 0.  1.
    10030    2    1    2    0    0  0.00000000000E+00  0.00000000000E+00 -0.41319638255E+03  0.25368889655E+04  0.25030130588E+04 0.  0.
        5    1    3    3  502    0 -0.72777913680E+03 -0.28333062832E+03 -0.11977431810E+04  0.14298774543E+04  0.46999998093E+01 0.  1.
       -5    1    3    3    0  502  0.72777913680E+03  0.28333062832E+03  0.78454679841E+03  0.11070115111E+04  0.46999998093E+01 0. -1.
</event>
<event>
 5   0  0.3837524E-07  0.2500507E+04  0.7818609E-02  0.8402805E-01
       -1   -1    0    0    0  501  0.00000000000E+00  0.00000000000E+00  0.11943287343E+04  0.11943287343E+04  0.50400001928E-02 0.  1.
        1   -1    0    0  501    0  0.00000000000E+00  0.00000000000E+00 -0.13087974391E+04  0.13087974391E+04  0.50400001928E-02 0. -1.
    10030    2    1    2    0    0  0.00000000000E+00  0.00000000000E+00 -0.11446870486E+03  0.25031261734E+04  0.25005074596E+04 0.  0.
        5    1    3    3  502    0  0.69945537084E+03 -0.25505156868E+03  0.94821943233E+03  0.12055833859E+04  0.46999998093E+01 0.  1.
       -5    1    3    3    0  502 -0.69945537084E+03  0.25505156868E+03 -0.10626881372E+04  0.12975427875E+04  0.46999998093E+01 0. -1.
</event>
<event>
 5   0  0.3873231E-07  0.2499321E+04  0.7818609E-02  0.8403228E-01
       -1   -1    0    0    0  501  0.00000000000E+00  0.00000000000E+00  0.11006735319E+04  0.11006735319E+04  0.50400001928E-02 0.  1.
        1   -1    0    0  501    0  0.00000000000E+00  0.00000000000E+00 -0.14188141874E+04  0.14188141874E+04  0.50400001928E-02 0. -1.
    10030    2    1    2    0    0  0.00000000000E+00  0.00000000000E+00 -0.31814065551E+03  0.25194877192E+04  0.24993208859E+04 0.  0.
        2    1    3    3  502    0  0.40362411132E+03  0.34507679575E+03  0.98127834469E+03  0.11157497963E+04  0.25500000920E-02 0.  1.
       -2    1    3    3    0  502 -0.40362411132E+03 -0.34507679575E+03 -0.12994190002E+04  0.14037379229E+04  0.25500000920E-02 0. -1.
</event>
<event>
 5   0  0.8997210E-07  0.2500026E+04  0.7818609E-02  0.8402976E-01
        2   -1    0    0  501    0  0.00000000000E+00  0.00000000000E+00  0.13573198734E+04  0.13573198734E+04  0.25500000920E-02 0.  1.
       -2   -1    0    0    0  501  0.00000000000E+00  0.00000000000E+00 -0.11511899377E+04  0.11511899377E+04  0.25500000920E-02 0. -1.
    10030    2    1    2    0    0  0.00000000000E+00  0.00000000000E+00  0.20612993571E+03  0.25085098112E+04  0.25000263843E+04 0.  0.
        1    1    3    3  502    0 -0.87108241233E+03  0.19154538121E+02 -0.79629205300E+03  0.11803527011E+04  0.50400001928E-02 0. -1.
       -1    1    3    3    0  502  0.87108241233E+03 -0.19154538121E+02  0.10024219887E+04  0.13281571100E+04  0.50400001928E-02 0.  1.
</event>
<event>
 5   0  0.3805418E-07  0.2499946E+04  0.7818609E-02  0.8403005E-01
        1   -1    0    0  501    0  0.00000000000E+00  0.00000000000E+00  0.14800762857E+04  0.14800762857E+04  0.50400001928E-02 0.  1.
       -1   -1    0    0    0  501  0.00000000000E+00  0.00000000000E+00 -0.10556429373E+04  0.10556429373E+04  0.50400001928E-02 0. -1.
    10030    2    1    2    0    0  0.00000000000E+00  0.00000000000E+00  0.42443334844E+03  0.25357192230E+04  0.24999456616E+04 0.  0.
        4    1    3    3  502    0  0.37563481918E+03 -0.92652504066E+02  0.14178143459E+04  0.14696547677E+04  0.12699999809E+01 0.  1.
       -4    1    3    3    0  502 -0.37563481918E+03  0.92652504066E+02 -0.99338099746E+03  0.10660644553E+04  0.12699999809E+01 0. -1.
</event>
<event>
 5   0  0.9768582E-07  0.2504060E+04  0.7818609E-02  0.8401540E-01
       -2   -1    0    0    0  501  0.00000000000E+00  0.00000000000E+00  0.92027600147E+03  0.92027600148E+03  0.25500000920E-02 0. -1.
        2   -1    0    0  501    0  0.00000000000E+00  0.00000000000E+00 -0.17033798725E+04  0.17033798725E+04  0.25500000920E-02 0.  1.
    10030    2    1    2    0    0  0.00000000000E+00  0.00000000000E+00 -0.78310387099E+03  0.26236558739E+04  0.25040603971E+04 0.  0.
        3    1    3    3  502    0  0.18855589854E+03  0.10693048111E+04 -0.10447140920E+04  0.15067825491E+04  0.10100000352E+00 0.  1.
       -3    1    3    3    0  502 -0.18855589854E+03 -0.10693048111E+04  0.26161022101E+03  0.11168733249E+04  0.10100000352E+00 0. -1.
</event>
<event>
 5   0  0.3837524E-07  0.2509015E+04  0.7818609E-02  0.8399781E-01
        1   -1    0    0  501    0  0.00000000000E+00  0.00000000000E+00  0.17874190047E+04  0.17874190048E+04  0.50400001928E-02 0. -1.
       -1   -1    0    0    0  501  0.00000000000E+00  0.00000000000E+00 -0.88048163715E+03  0.88048163717E+03  0.50400001928E-02 0.  1.
    10030    2    1    2    0    0  0.00000000000E+00  0.00000000000E+00  0.90693736759E+03  0.26679006419E+04  0.25090154337E+04 0.  0.
        5    1    3    3  502    0 -0.40661315298E+03 -0.94362966435E+03  0.12187650598E+04  0.15941083905E+04  0.46999998093E+01 0. -1.
       -5    1    3    3    0  502  0.40661315298E+03  0.94362966435E+03 -0.31182769220E+03  0.10737922514E+04  0.46999998093E+01 0.  1.
</event>
<event>
 5   0  0.3972587E-07  0.2500323E+04  0.7818609E-02  0.8402871E-01
        1   -1    0    0  501    0  0.00000000000E+00  0.00000000000E+00  0.94354294718E+03  0.94354294719E+03  0.50400001928E-02 0.  1.
       -1   -1    0    0    0  501  0.00000000000E+00  0.00000000000E+00 -0.16564202613E+04  0.16564202613E+04  0.50400001928E-02 0. -1.
    10030    2    1    2    0    0  0.00000000000E+00  0.00000000000E+00 -0.71287731412E+03  0.25999632085E+04  0.25003229033E+04 0.  0.
        3    1    3    3  502    0 -0.34549872637E+01 -0.44678437622E+03 -0.15705622739E+04  0.16328790776E+04  0.10100000352E+00 0. -1.
       -3    1    3    3    0  502  0.34549872637E+01  0.44678437622E+03  0.85768495977E+03  0.96708413087E+03  0.10100000352E+00 0.  1.
</event>
<event>
 5   0  0.3214375E-07  0.2499644E+04  0.7818609E-02  0.8403113E-01
       -3   -1    0    0    0  501  0.00000000000E+00  0.00000000000E+00  0.16276972036E+04  0.16276972067E+04  0.10100000352E+00 0. -1.
        3   -1    0    0  501    0  0.00000000000E+00  0.00000000000E+00 -0.95967137558E+03  0.95967138090E+03  0.10100000352E+00 0.  1.
    10030    2    1    2    0    0  0.00000000000E+00  0.00000000000E+00  0.66802582799E+03  0.25873685876E+04  0.24996435148E+04 0.  0.
        4    1    3    3  502    0  0.93206504975E+03  0.49504262121E+03  0.10270168532E+04  0.14726091414E+04  0.12699999809E+01 0. -1.
       -4    1    3    3    0  502 -0.93206504975E+03 -0.49504262121E+03 -0.35899102520E+03  0.11147594462E+04  0.12699999809E+01 0.  1.
</event>
<event>
 5   0  0.9508784E-07  0.2501680E+04  0.7818609E-02  0.8402387E-01
        2   -1    0    0  501    0  0.00000000000E+00  0.00000000000E+00  0.99081280190E+03  0.99081280190E+03  0.25500000920E-02 0.  1.
       -2   -1    0    0    0  501  0.00000000000E+00  0.00000000000E+00 -0.15791084004E+04  0.15791084004E+04  0.25500000920E-02 0. -1.
    10030    2    1    2    0    0  0.00000000000E+00  0.00000000000E+00 -0.58829559853E+03  0.25699212023E+04  0.25016800905E+04 0.  0.
        2    1    3    3  502    0  0.52379040520E+03  0.30917725290E+03  0.82866946032E+03  0.10279299766E+04  0.25500000920E-02 0.  1.
       -2    1    3    3    0  502 -0.52379040520E+03 -0.30917725290E+03 -0.14169650589E+04  0.15419912258E+04  0.25500000920E-02 0. -1.
</event>
<event>
 5   0  0.9251138E-07  0.2499128E+04  0.7818609E-02  0.8403296E-01
        2   -1    0    0  501    0  0.00000000000E+00  0.00000000000E+00  0.13411646568E+04  0.13411646568E+04  0.25500000920E-02 0.  1.
       -2   -1    0    0    0  501  0.00000000000E+00  0.00000000000E+00 -0.11642199970E+04  0.11642199970E+04  0.25500000920E-02 0. -1.
    10030    2    1    2    0    0  0.00000000000E+00  0.00000000000E+00  0.17694465986E+03  0.25053846538E+04  0.24991284182E+04 0.  0.
        5    1    3    3  502    0  0.52367286128E+03  0.20519431878E+03  0.12070840090E+04  0.13316951111E+04  0.46999998093E+01 0.  1.
       -5    1    3    3    0  502 -0.52367286128E+03 -0.20519431878E+03 -0.10301393491E+04  0.11736895427E+04  0.46999998093E+01 0. -1.
</event>
<event>
 5   0  0.3805418E-07  0.2500112E+04  0.7818609E-02  0.8402946E-01
        1   -1    0    0  501    0  0.00000000000E+00  0.00000000000E+00  0.10226268949E+04  0.10226268949E+04  0.50400001928E-02 0.  1.
       -1   -1    0    0    0  501  0.00000000000E+00  0.00000000000E+00 -0.15280644837E+04  0.15280644837E+04  0.50400001928E-02 0. -1.
    10030    2    1    2    0    0  0.00000000000E+00  0.00000000000E+00 -0.50543758875E+03  0.25506913786E+04  0.25001118680E+04 0.  0.
        4    1    3    3  502    0 -0.56247113625E+03  0.29477279622E+02  0.88583125092E+03  0.10497339221E+04  0.12699999809E+01 0.  1.
       -4    1    3    3    0  502  0.56247113625E+03 -0.29477279622E+02 -0.13912688397E+04  0.15009574565E+04  0.12699999809E+01 0. -1.
</event>
<event>
 5   0  0.9261602E-07  0.2499814E+04  0.7818609E-02  0.8403052E-01
        2   -1    0    0  501    0  0.00000000000E+00  0.00000000000E+00  0.16018885332E+04  0.16018885332E+04  0.25500000920E-02 0. -1.
       -2   -1    0    0    0  501  0.00000000000E+00  0.00000000000E+00 -0.97526609439E+03  0.97526609440E+03  0.25500000920E-02 0.  1.
    10030    2    1    2    0    0  0.00000000000E+00  0.00000000000E+00  0.62662243879E+03  0.25771546276E+04  0.24998140518E+04 0.  0.
        4    1    3    3  502    0  0.11944896112E+04  0.21153992052E+03  0.28097315088E+01  0.12130804082E+04  0.12699999809E+01 0. -1.
       -4    1    3    3    0  502 -0.11944896112E+04 -0.21153992052E+03  0.62381270728E+03  0.13640742194E+04  0.12699999809E+01 0.  1.
</event>
<event>
 5   0  0.3837524E-07  0.2499385E+04  0.7818609E-02  0.8403205E-01
        1   -1    0    0  501    0  0.00000000000E+00  0.00000000000E+00  0.20414294264E+04  0.20414294264E+04  0.50400001928E-02 0. -1.
       -1   -1    0    0    0  501  0.00000000000E+00  0.00000000000E+00 -0.76501837002E+03  0.76501837004E+03  0.50400001928E-02 0.  1.
    10030    2    1    2    0    0  0.00000000000E+00  0.00000000000E+00  0.12764110563E+04  0.28064477964E+04  0.24993847341E+04 0.  0.
        5    1    3    3  502    0  0.89244854879E+03 -0.66228124790E+03  0.12799329538E+04  0.16950903574E+04  0.46999998093E+01 0.  1.
       -5    1    3    3    0  502 -0.89244854879E+03  0.66228124790E+03 -0.35218974135E+01  0.11113574390E+04  0.46999998093E+01 0. -1.
</event>
<event>
 5   0  0.9508784E-07  0.2497057E+04  0.7818609E-02  0.8404035E-01
       -2   -1    0    0    0  501  0.00000000000E+00  0.00000000000E+00  0.14861953714E+04  0.14861953714E+04  0.25500000920E-02 0. -1.
        2   -1    0    0  501    0  0.00000000000E+00  0.00000000000E+00 -0.10488687029E+04  0.10488687029E+04  0.25500000920E-02 0.  1.
    10030    2    1    2    0    0  0.00000000000E+00  0.00000000000E+00  0.43732666844E+03  0.25350640743E+04  0.24970573173E+04 0.  0.
        2    1    3    3  502    0  0.10102370314E+04  0.12176516484E+03  0.95315155930E+03  0.13942394020E+04  0.25500000920E-02 0.  1.
       -2    1    3    3    0  502 -0.10102370314E+04 -0.12176516484E+03 -0.51582489086E+03  0.11408246723E+04  0.25500000920E-02 0. -1.
</event>
<event>
 5   0  0.9768582E-07  0.2500671E+04  0.7818609E-02  0.8402746E-01
        2   -1    0    0  501    0  0.00000000000E+00  0.00000000000E+00  0.12471146247E+04  0.12471146247E+04  0.25500000920E-02 0.  1.
       -2   -1    0    0    0  501  0.00000000000E+00  0.00000000000E+00 -0.12535651005E+04  0.12535651005E+04  0.25500000920E-02 0. -1.
    10030    2    1    2    0    0  0.00000000000E+00  0.00000000000E+00 -0.64504758475E+01  0.25006797252E+04  0.25006714058E+04 0.  0.
        3    1    3    3  502    0  0.88716838489E+03  0.86664543073E+02 -0.88001825153E+03  0.12526015406E+04  0.10100000352E+00 0. -1.
       -3    1    3    3    0  502 -0.88716838489E+03 -0.86664543073E+02  0.87356777568E+03  0.12480781847E+04  0.10100000352E+00 0.  1.
</event>
<event>
 5   0  0.3873231E-07  0.2500411E+04  0.7818609E-02  0.8402839E-01
        1   -1    0    0  501    0  0.00000000000E+00  0.00000000000E+00  0.14256328415E+04  0.14256328415E+04  0.50400001928E-02 0.  1.
       -1   -1    0    0    0  501  0.00000000000E+00  0.00000000000E+00 -0.10963652493E+04  0.10963652493E+04  0.50400001928E-02 0. -1.
    10030    2    1    2    0    0  0.00000000000E+00  0.00000000000E+00  0.32926759219E+03  0.25219980909E+04  0.25004114108E+04 0.  0.
        2    1    3    3  502    0  0.43642375509E+03  0.52603908303E+03 -0.89122336656E+03  0.11231482093E+04  0.25500000920E-02 0. -1.
       -2    1    3    3    0  502 -0.43642375509E+03 -0.52603908303E+03  0.12204909587E+04  0.13988498816E+04  0.25500000920E-02 0.  1.
</event>
<event>
 5   0  0.3837524E-07  0.2499764E+04  0.7818609E-02  0.8403070E-01
        1   -1    0    0  501    0  0.00000000000E+00  0.00000000000E+00  0.89509329395E+03  0.89509329396E+03  0.50400001928E-02 0. -1.
       -1   -1    0    0    0  501  0.00000000000E+00  0.00000000000E+00 -0.17452980451E+04  0.17452980451E+04  0.50400001928E-02 0.  1.
    10030    2    1    2    0    0  0.00000000000E+00  0.00000000000E+00 -0.85020475111E+03  0.26403913390E+04  0.24997636497E+04 0.  0.
        5    1    3    3  502    0  0.80077909549E+03 -0.70021588360E+03 -0.11182456701E+04  0.15433874796E+04  0.46999998093E+01 0.  1.
       -5    1    3    3    0  502 -0.80077909549E+03  0.70021588360E+03  0.26804091899E+03  0.10970038595E+04  0.46999998093E+01 0. -1.
</event>
<event>
 5   0  0.9768582E-07  0.2501452E+04  0.7818609E-02  0.8402468E-01
        2   -1    0    0  501    0  0.00000000000E+00  0.00000000000E+00  0.11808706051E+04  0.11808706051E+04  0.25500000920E-02 0. -1.
       -2   -1    0    0    0  501  0.00000000000E+00  0.00000000000E+00 -0.13247135906E+04  0.13247135906E+04  0.25500000920E-02 0.  1.
    10030    2    1    2    0    0  0.00000000000E+00  0.00000000000E+00 -0.14384298551E+03  0.25055841957E+04  0.25014518499E+04 0.  0.
        3    1    3    3  502    0 -0.79883633931E+03  0.57914750862E+03 -0.84180295568E+03  0.12969901928E+04  0.10100000352E+00 0.  1.
       -3    1    3    3    0  502  0.79883633931E+03 -0.57914750862E+03  0.69795997018E+03  0.12085940029E+04  0.10100000352E+00 0. -1.
</event>
<event>
 5   0  0.9768582E-07  0.2499572E+04  0.7818609E-02  0.8403138E-01
        2   -1    0    0  501    0  0.00000000000E+00  0.00000000000E+00  0.17294927790E+04  0.17294927790E+04  0.25500000920E-02 0. -1.
       -2   -1    0    0    0  501  0.00000000000E+00  0.00000000000E+00 -0.90313457888E+03  0.90313457888E+03  0.25500000920E-02 0.  1.
    10030    2    1    2    0    0  0.00000000000E+00  0.00000000000E+00  0.82635820010E+03  0.26326273579E+04  0.24995717494E+04 0.  0.
        3    1    3    3  502    0  0.11406005849E+04 -0.44775962951E+03  0.67225333995E+03  0.13976347675E+04  0.10100000352E+00 0.  1.
       -3    1    3    3    0  502 -0.11406005849E+04  0.44775962951E+03  0.15410486015E+03  0.12349925903E+04  0.10100000352E+00 0. -1.
</event>
<event>
 5   0  0.9508784E-07  0.2499907E+04  0.7818609E-02  0.8403019E-01
       -2   -1    0    0    0  501  0.00000000000E+00  0.00000000000E+00  0.21162542270E+04  0.21162542270E+04  0.25500000920E-02 0. -1.
        2   -1    0    0  501    0  0.00000000000E+00  0.00000000000E+00 -0.73827785357E+03  0.73827785357E+03  0.25500000920E-02 0.  1.
    10030    2    1    2    0    0  0.00000000000E+00  0.00000000000E+00  0.13779763735E+04  0.28545320806E+04  0.24999069009E+04 0.  0.
        2    1    3    3  502    0  0.46524388421E+03 -0.96346983218E+03  0.14269286208E+04  0.17834941206E+04  0.25500000920E-02 0. -1.
       -2    1    3    3    0  502 -0.46524388421E+03  0.96346983218E+03 -0.48952247313E+02  0.10710379600E+04  0.25500000920E-02 0.  1.
</event>
<event>
 5   0  0.3991066E-07  0.2500376E+04  0.7818609E-02  0.8402852E-01
        1   -1    0    0  501    0  0.00000000000E+00  0.00000000000E+00  0.16361879374E+04  0.16361879374E+04  0.50400001928E-02 0. -1.
       -1   -1    0    0    0  501  0.00000000000E+00  0.00000000000E+00 -0.95525091074E+03  0.95525091075E+03  0.50400001928E-02 0.  1.
    10030    2    1    2    0    0  0.00000000000E+00  0.00000000000E+00  0.68093702666E+03  0.25914388482E+04  0.25003759856E+04 0.  0.
        1    1    3    3  502    0 -0.39849278829E+03  0.48227937174E+03  0.14622845477E+04  0.15904923744E+04  0.50400001928E-02 0. -1.
       -1    1    3    3    0  502  0.39849278829E+03 -0.48227937174E+03 -0.78134752099E+03  0.10009464738E+04  0.50400001928E-02 0.  1.
</event>
<event>
 5   0  0.9261602E-07  0.2500247E+04  0.7818609E-02  0.8402898E-01
       -2   -1    0    0    0  501  0.00000000000E+00  0.00000000000E+00  0.51593392736E+03  0.51593392736E+03  0.25500000920E-02 0.  1.
        2   -1    0    0  501    0  0.00000000000E+00  0.00000000000E+00 -0.30290859134E+04  0.30290859134E+04  0.25500000920E-02 0. -1.
    10030    2    1    2    0    0  0.00000000000E+00  0.00000000000E+00 -0.25131519860E+04  0.35450198407E+04  0.25002465411E+04 0.  0.
        4    1    3    3  502    0  0.74708444498E+03  0.31647925349E+03  0.91899542748E+02  0.81654235938E+03  0.12699999809E+01 0.  1.
       -4    1    3    3    0  502 -0.74708444498E+03 -0.31647925349E+03 -0.26050515288E+04  0.27284774814E+04  0.12699999809E+01 0. -1.
</event>
<event>
 5   0  0.9768582E-07  0.2498212E+04  0.7818609E-02  0.8403623E-01
       -2   -1    0    0    0  501  0.00000000000E+00  0.00000000000E+00  0.58531630161E+03  0.58531630162E+03  0.25500000920E-02 0.  1.
        2   -1    0    0  501    0  0.00000000000E+00  0.00000000000E+00 -0.26656803551E+04  0.26656803551E+04  0.25500000920E-02 0. -1.
    10030    2    1    2    0    0  0.00000000000E+00  0.00000000000E+00 -0.20803640535E+04  0.32509966567E+04  0.24982122942E+04 0.  0.
        3    1    3    3  502    0 -0.53406873573E+03 -0.11017880756E+04 -0.71851466306E+03  0.14196583072E+04  0.10100000352E+00 0.  1.
       -3    1    3    3    0  502  0.53406873573E+03  0.11017880756E+04 -0.13618493904E+04  0.18313383495E+04  0.10100000352E+00 0. -1.
</event>
<event>
 5   0  0.3873231E-07  0.2501902E+04  0.7818609E-02  0.8402308E-01
        1   -1    0    0  501    0  0.00000000000E+00  0.00000000000E+00  0.14641779022E+04  0.14641779022E+04  0.50400001928E-02 0.  1.
       -1   -1    0    0    0  501  0.00000000000E+00  0.00000000000E+00 -0.10687762888E+04  0.10687762888E+04  0.50400001928E-02 0. -1.
    10030    2    1    2    0    0  0.00000000000E+00  0.00000000000E+00  0.39540161342E+03  0.25329541911E+04  0.25019021760E+04 0.  0.
        2    1    3    3  502    0 -0.11516258700E+04  0.16570356725E+03 -0.26754468960E+03  0.11938509026E+04  0.25500000920E-02 0. -1.
       -2    1    3    3    0  502  0.11516258700E+04 -0.16570356725E+03  0.66294630302E+03  0.13391032885E+04  0.25500000920E-02 0.  1.
</event>
<event>
 5   0  0.3991066E-07  0.2498181E+04  0.7818609E-02  0.8403634E-01
        1   -1    0    0  501    0  0.00000000000E+00  0.00000000000E+00  0.15348939137E+04  0.15348939137E+04  0.50400001928E-02 0. -1.
       -1   -1    0    0    0  501  0.00000000000E+00  0.00000000000E+00 -0.10165048736E+04  0.10165048736E+04  0.50400001928E-02 0.  1.
    10030    2    1    2    0    0  0.00000000000E+00  0.00000000000E+00  0.51838904004E+03  0.25513987873E+04  0.24981810533E+04 0.  0.
        1    1    3    3  502    0 -0.10817003402E+04  0.33056483725E+03 -0.28207504818E+03  0.11657251265E+04  0.50400001928E-02 0.  1.
       -1    1    3    3    0  502  0.10817003402E+04 -0.33056483725E+03  0.80046408823E+03  0.13856736608E+04  0.50400001928E-02 0. -1.
</event>
<event>
 5   0  0.8997210E-07  0.2497526E+04  0.7818609E-02  0.8403867E-01
        2   -1    0    0  501    0  0.00000000000E+00  0.00000000000E+00  0.11259599871E+04  0.11259599871E+04  0.25500000920E-02 0. -1.
       -2   -1    0    0    0  501  0.00000000000E+00  0.00000000000E+00 -0.13849594472E+04  0.13849594472E+04  0.25500000920E-02 0.  1.
    10030    2    1    2    0    0  0.00000000000E+00  0.00000000000E+00 -0.25899946007E+03  0.25109194344E+04  0.24975259129E+04 0.  0.
        1    1    3    3  502    0 -0.57722516682E+03 -0.55961859806E+03 -0.10901589487E+04  0.13545509965E+04  0.50400001928E-02 0.  1.
       -1    1    3    3    0  502  0.57722516682E+03  0.55961859806E+03  0.83115948867E+03  0.11563684379E+04  0.50400001928E-02 0. -1.
</event>
<event>
 5   0  0.3837524E-07  0.2500471E+04  0.7818609E-02  0.8402818E-01
       -1   -1    0    0    0  501  0.00000000000E+00  0.00000000000E+00  0.88119428394E+03  0.88119428396E+03  0.50400001928E-02 0.  1.
        1   -1    0    0  501    0  0.00000000000E+00  0.00000000000E+00 -0.17738302921E+04  0.17738302921E+04  0.50400001928E-02 0. -1.
    10030    2    1    2    0    0  0.00000000000E+00  0.00000000000E+00 -0.89263600814E+03  0.26550245761E+04  0.25004712469E+04 0.  0.
        5    1    3    3  502    0 -0.58708604525E+03 -0.86427457232E+03 -0.11753618686E+04  0.15726214335E+04  0.46999998093E+01 0. -1.
       -5    1    3    3    0  502  0.58708604525E+03  0.86427457232E+03  0.28272586046E+03  0.10824031426E+04  0.46999998093E+01 0.  1.
</event>
<event>
 5   0  0.3805418E-07  0.2501869E+04  0.7818609E-02  0.8402320E-01
       -1   -1    0    0    0  501  0.00000000000E+00  0.00000000000E+00  0.12002287668E+04  0.12002287668E+04  0.50400001928E-02 0.  1.
        1   -1    0    0  501    0  0.00000000000E+00  0.00000000000E+00 -0.13037828139E+04  0.13037828139E+04  0.50400001928E-02 0. -1.
    10030    2    1    2    0    0  0.00000000000E+00  0.00000000000E+00 -0.10355404712E+03  0.25040115808E+04  0.25018694123E+04 0.  0.
        4    1    3    3  502    0  0.10677101572E+04 -0.37032682310E+03 -0.58860283859E+03  0.12742063609E+04  0.12699999809E+01 0. -1.
       -4    1    3    3    0  502 -0.10677101572E+04  0.37032682310E+03  0.48504879147E+03  0.12298052198E+04  0.12699999809E+01 0.  1.
</event>
<event>
 5   0  0.9768582E-07  0.2496849E+04  0.7818609E-02  0.8404109E-01
       -2   -1    0    0    0  501  0.00000000000E+00  0.00000000000E+00  0.54835329039E+03  0.54835329040E+03  0.25500000920E-02 0. -1.
        2   -1    0    0  501    0  0.00000000000E+00  0.00000000000E+00 -0.28422613583E+04  0.28422613583E+04  0.25500000920E-02 0.  1.
    10030    2    1    2    0    0  0.00000000000E+00  0.00000000000E+00 -0.22939080679E+04  0.33906146487E+04  0.24968487083E+04 0.  0.
        3    1    3    3  502    0  0.71776658507E+03  0.84581284862E+03 -0.19246442779E+04  0.22214508440E+04  0.10100000352E+00 0. -1.
       -3    1    3    3    0  502 -0.71776658507E+03 -0.84581284862E+03 -0.36926379006E+03  0.11691638048E+04  0.10100000352E+00 0.  1.
</event>
<event>
 5   0  0.3805418E-07  0.2505159E+04  0.7818609E-02  0.8401150E-01
        1   -1    0    0  501    0  0.00000000000E+00  0.00000000000E+00  0.12093241666E+04  0.12093241667E+04  0.50400001928E-02 0.  1.
       -1   -1    0    0    0  501  0.00000000000E+00  0.00000000000E+00 -0.12973816173E+04  0.12973816173E+04  0.50400001928E-02 0. -1.
    10030    2    1    2    0    0  0.00000000000E+00  0.00000000000E+00 -0.88057450626E+02  0.25067057839E+04  0.25051586322E+04 0.  0.
        4    1    3    3  502    0  0.26941809278E+03 -0.38091088054E+02  0.11793940718E+04  0.12103755736E+04  0.12699999809E+01 0.  1.
       -4    1    3    3    0  502 -0.26941809278E+03  0.38091088054E+02 -0.12674515224E+04  0.12963302103E+04  0.12699999809E+01 0. -1.
</event>
<event>
 5   0  0.3991066E-07  0.2500245E+04  0.7818609E-02  0.8402898E-01
        1   -1    0    0  501    0  0.00000000000E+00  0.00000000000E+00  0.14854971223E+04  0.14854971223E+04  0.50400001928E-02 0. -1.
       -1   -1    0    0    0  501  0.00000000000E+00  0.00000000000E+00 -0.10520427062E+04  0.10520427062E+04  0.50400001928E-02 0.  1.
    10030    2    1    2    0    0  0.00000000000E+00  0.00000000000E+00  0.43345441613E+03  0.25375398286E+04  0.25002451181E+04 0.  0.
        1    1    3    3  502    0 -0.98398097772E+03 -0.72341010683E+03 -0.54211123484E+02  0.12224890973E+04  0.50400001928E-02 0.  1.
       -1    1    3    3    0  502  0.98398097772E+03  0.72341010683E+03  0.48766553961E+03  0.13150507312E+04  0.50400001928E-02 0. -1.
</event>
<event>
 5   0  0.3873231E-07  0.2500502E+04  0.7818609E-02  0.8402807E-01
        1   -1    0    0  501    0  0.00000000000E+00  0.00000000000E+00  0.21679736752E+04  0.21679736753E+04  0.50400001928E-02 0.  1.
       -1   -1    0    0    0  501  0.00000000000E+00  0.00000000000E+00 -0.72100837291E+03  0.72100837293E+03  0.50400001928E-02 0. -1.
    10030    2    1    2    0    0  0.00000000000E+00  0.00000000000E+00  0.14469653023E+04  0.28889820482E+04  0.25005016874E+04 0.  0.
        2    1    3    3  502    0 -0.10768660790E+04 -0.58790019725E+03  0.10013943466E+04  0.15836848902E+04  0.25500000920E-02 0.  1.
       -2    1    3    3    0  502  0.10768660790E+04  0.58790019725E+03  0.44557095569E+03  0.13052971580E+04  0.25500000920E-02 0. -1.
</event>
<event>
 5   0  0.8997210E-07  0.2500378E+04  0.7818609E-02  0.8402851E-01
       -2   -1    0    0    0  501  0.00000000000E+00  0.00000000000E+00  0.99203527458E+03  0.99203527458E+03  0.25500000920E-02 0.  1.
        2   -1    0    0  501    0  0.00000000000E+00  0.00000000000E+00 -0.15755209445E+04  0.15755209445E+04  0.25500000920E-02 0. -1.
    10030    2    1    2    0    0  0.00000000000E+00  0.00000000000E+00 -0.58348566990E+03  0.25675562191E+04  0.25003778537E+04 0.  0.
        1    1    3    3  502    0 -0.76356886135E+03 -0.47335600805E+03  0.60102306911E+03  0.10808940956E+04  0.50400001928E-02 0.  1.
       -1    1    3    3    0  502  0.76356886135E+03  0.47335600805E+03 -0.11845087390E+04  0.14866621234E+04  0.50400001928E-02 0. -1.
</event>
<event>
 5   0  0.3214375E-07  0.2506644E+04  0.7818609E-02  0.8400623E-01
        3   -1    0    0  501    0  0.00000000000E+00  0.00000000000E+00  0.62370313539E+03  0.62370314357E+03  0.10100000352E+00 0. -1.
       -3   -1    0    0    0  501  0.00000000000E+00  0.00000000000E+00 -0.25185309575E+04  0.25185309595E+04  0.10100000352E+00 0.  1.
    10030    2    1    2    0    0  0.00000000000E+00  0.00000000000E+00 -0.18948278221E+04  0.31422341031E+04  0.25066437089E+04 0.  0.
        4    1    3    3  502    0 -0.30366249992E+03 -0.11829177006E+04 -0.13004399802E+04  0.17839985861E+04  0.12699999809E+01 0.  1.
       -4    1    3    3    0  502  0.30366249992E+03  0.11829177006E+04 -0.59438784195E+03  0.13582355170E+04  0.12699999809E+01 0. -1.
</event>
<event>
 5   0  0.9768582E-07  0.2500465E+04  0.7818609E-02  0.8402820E-01
        2   -1    0    0  501    0  0.00000000000E+00  0.00000000000E+00  0.12018100257E+04  0.12018100257E+04  0.25500000920E-02 0. -1.
       -2   -1    0    0    0  501  0.00000000000E+00  0.00000000000E+00 -0.13006059914E+04  0.13006059914E+04  0.25500000920E-02 0.  1.
    10030    2    1    2    0    0  0.00000000000E+00  0.00000000000E+00 -0.98795965701E+02  0.25024160171E+04  0.25004650127E+04 0.  0.
        3    1    3    3  502    0  0.69825201191E+03  0.79966433781E+03 -0.71026342382E+03  0.12772991297E+04  0.10100000352E+00 0.  1.
       -3    1    3    3    0  502 -0.69825201191E+03 -0.79966433781E+03  0.61146745812E+03  0.12251168874E+04  0.10100000352E+00 0. -1.
</event>
<event>
 5   0  0.9508784E-07  0.2500444E+04  0.7818609E-02  0.8402827E-01
       -2   -1    0    0    0  501  0.00000000000E+00  0.00000000000E+00  0.61913556462E+03  0.61913556462E+03  0.25500000920E-02 0. -1.
        2   -1    0    0  501    0  0.00000000000E+00  0.00000000000E+00 -0.25245763596E+04  0.25245763596E+04  0.25500000920E-02 0.  1.
    10030    2    1    2    0    0  0.00000000000E+00  0.00000000000E+00 -0.19054407950E+04  0.31437119242E+04  0.25004439685E+04 0.  0.
        2    1    3    3  502    0 -0.12437112117E+04  0.77818633663E+02 -0.82585721798E+03  0.14949626960E+04  0.25500000920E-02 0. -1.
       -2    1    3    3    0  502  0.12437112117E+04 -0.77818633663E+02 -0.10795835770E+04  0.16487492283E+04  0.25500000920E-02 0.  1.
</event>
<event>
 5   0  0.9261602E-07  0.2500322E+04  0.7818609E-02  0.8402871E-01
        2   -1    0    0  501    0  0.00000000000E+00  0.00000000000E+00  0.16846887293E+04  0.16846887293E+04  0.25500000920E-02 0. -1.
       -2   -1    0    0    0  501  0.00000000000E+00  0.00000000000E+00 -0.92771014998E+03  0.92771014998E+03  0.25500000920E-02 0.  1.
    10030    2    1    2    0    0  0.00000000000E+00  0.00000000000E+00  0.75697857928E+03  0.26123988792E+04  0.25003222462E+04 0.  0.
        4    1    3    3  502    0  0.10829245307E+04 -0.59505512525E+03  0.18001359212E+03  0.12486883709E+04  0.12699999809E+01 0.  1.
       -4    1    3    3    0  502 -0.10829245307E+04  0.59505512525E+03  0.57696498716E+03  0.13637105084E+04  0.12699999809E+01 0. -1.
</event>
<event>
 5   0  0.9768582E-07  0.2499112E+04  0.7818609E-02  0.8403302E-01
        2   -1    0    0  501    0  0.00000000000E+00  0.00000000000E+00  0.19873482472E+04  0.19873482472E+04  0.25500000920E-02 0. -1.
       -2   -1    0    0    0  501  0.00000000000E+00  0.00000000000E+00 -0.78566492955E+03  0.78566492956E+03  0.25500000920E-02 0.  1.
    10030    2    1    2    0    0  0.00000000000E+00  0.00000000000E+00  0.12016833176E+04  0.27730131768E+04  0.24991116987E+04 0.  0.
        3    1    3    3  502    0 -0.72565272291E+03 -0.65971306868E+03 -0.25836146567E+03  0.10141715163E+04  0.10100000352E+00 0.  1.
       -3    1    3    3    0  502  0.72565272291E+03  0.65971306868E+03  0.14600447833E+04  0.17588416605E+04  0.10100000352E+00 0. -1.
</event>
<event>
 5   0  0.3991066E-07  0.2499968E+04  0.7818609E-02  0.8402997E-01
        1   -1    0    0  501    0  0.00000000000E+00  0.00000000000E+00  0.16481676223E+04  0.16481676223E+04  0.50400001928E-02 0.  1.
       -1   -1    0    0    0  501  0.00000000000E+00  0.00000000000E+00 -0.94799843736E+03  0.94799843737E+03  0.50400001928E-02 0. -1.
    10030    2    1    2    0    0  0.00000000000E+00  0.00000000000E+00  0.70016918496E+03  0.25961660597E+04  0.24999682642E+04 0.  0.
        1    1    3    3  502    0  0.44189926661E+03 -0.11123906490E+04  0.72418584481E+03  0.13989757166E+04  0.50400001928E-02 0. -1.
       -1    1    3    3    0  502 -0.44189926661E+03  0.11123906490E+04 -0.24016659849E+02  0.11971903431E+04  0.50400001928E-02 0.  1.
</event>
<event>
 5   0  0.3214375E-07  0.2500186E+04  0.7818609E-02  0.8402919E-01
       -3   -1    0    0    0  501  0.00000000000E+00  0.00000000000E+00  0.94802008861E+03  0.94802009399E+03  0.10100000352E+00 0.  1.
        3   -1    0    0  501    0  0.00000000000E+00  0.00000000000E+00 -0.16484168118E+04  0.16484168149E+04  0.10100000352E+00 0. -1.
    10030    2    1    2    0    0  0.00000000000E+00  0.00000000000E+00 -0.70039672317E+03  0.25964369089E+04  0.25001858035E+04 0.  0.
        2    1    3    3  502    0  0.23678266382E+03 -0.56215559525E+03 -0.14833735547E+04  0.16038958962E+04  0.25500000920E-02 0. -1.
       -2    1    3    3    0  502 -0.23678266382E+03  0.56215559525E+03  0.78297683150E+03  0.99254101266E+03  0.25500000920E-02 0.  1.
</event>
<event>
 5   0  0.3214375E-07  0.2496754E+04  0.7818609E-02  0.8404143E-01
        3   -1    0    0  501    0  0.00000000000E+00  0.00000000000E+00  0.73643682859E+03  0.73643683551E+03  0.10100000352E+00 0. -1.
       -3   -1    0    0    0  501  0.00000000000E+00  0.00000000000E+00 -0.21161960381E+04  0.21161960406E+04  0.10100000352E+00 0.  1.
    10030    2    1    2    0    0  0.00000000000E+00  0.00000000000E+00 -0.13797592096E+04  0.28526328761E+04  0.24967536621E+04 0.  0.
        5    1    3    3  502    0 -0.83686509445E+02  0.91343191842E+03  0.27761451889E+03  0.95835964677E+03  0.46999998093E+01 0. -1.
       -5    1    3    3    0  502  0.83686509445E+02 -0.91343191842E+03 -0.16573737284E+04  0.18942732293E+04  0.46999998093E+01 0.  1.
</event>
<event>
 5   0  0.9261602E-07  0.2500285E+04  0.7818609E-02  0.8402884E-01
       -2   -1    0    0    0  501  0.00000000000E+00  0.00000000000E+00  0.19643781938E+04  0.19643781938E+04  0.25500000920E-02 0. -1.
        2   -1    0    0  501    0  0.00000000000E+00  0.00000000000E+00 -0.79559837629E+03  0.79559837629E+03  0.25500000920E-02 0.  1.
    10030    2    1    2    0    0  0.00000000000E+00  0.00000000000E+00  0.11687798175E+04  0.27599765701E+04  0.25002848649E+04 0.  0.
        4    1    3    3  502    0 -0.88646698352E+03  0.78510798193E+03  0.14196694778E+03  0.11926334237E+04  0.12699999809E+01 0.  1.
       -4    1    3    3    0  502  0.88646698352E+03 -0.78510798193E+03  0.10268128697E+04  0.15673431464E+04  0.12699999809E+01 0. -1.
</event>
<event>
 5   0  0.9508784E-07  0.2499685E+04  0.7818609E-02  0.8403098E-01
       -2   -1    0    0    0  501  0.00000000000E+00  0.00000000000E+00  0.78387490822E+03  0.78387490822E+03  0.25500000920E-02 0. -1.
        2   -1    0    0  501    0  0.00000000000E+00  0.00000000000E+00 -0.19928010014E+04  0.19928010014E+04  0.25500000920E-02 0.  1.
    10030    2    1    2    0    0  0.00000000000E+00  0.00000000000E+00 -0.12089260931E+04  0.27766759096E+04  0.24996853418E+04 0.  0.
        2    1    3    3  502    0 -0.48521431030E+03 -0.11107070855E+03  0.66902017626E+03  0.83388106195E+03  0.25500000920E-02 0. -1.
       -2    1    3    3    0  502  0.48521431030E+03  0.11107070855E+03 -0.18779462694E+04  0.19427948476E+04  0.25500000920E-02 0.  1.
</event>
<event>
 5   0  0.3873231E-07  0.2499161E+04  0.7818609E-02  0.8403284E-01
       -1   -1    0    0    0  501  0.00000000000E+00  0.00000000000E+00  0.81125214262E+03  0.81125214264E+03  0.50400001928E-02 0.  1.
        1   -1    0    0  501    0  0.00000000000E+00  0.00000000000E+00 -0.19247428279E+04  0.19247428279E+04  0.50400001928E-02 0. -1.
    10030    2    1    2    0    0  0.00000000000E+00  0.00000000000E+00 -0.11134906853E+04  0.27359949706E+04  0.24991612538E+04 0.  0.
        2    1    3    3  502    0 -0.38897697527E+03  0.10124920438E+04 -0.12360368487E+04  0.16444544133E+04  0.25500000920E-02 0.  1.
       -2    1    3    3    0  502  0.38897697527E+03 -0.10124920438E+04  0.12254616340E+03  0.10915405573E+04  0.25500000920E-02 0. -1.
</event>
<event>
 5   0  0.3214375E-07  0.2500091E+04  0.7818609E-02  0.8402953E-01
       -4   -1    0    0    0  501  0.00000000000E+00  0.00000000000E+00  0.96914976322E+03  0.96915059534E+03  0.12699999809E+01 0. -1.
        4   -1    0    0  501    0  0.00000000000E+00  0.00000000000E+00 -0.16123531163E+04  0.16123536164E+04  0.12699999809E+01 0.  1.
    10030    2    1    2    0    0  0.00000000000E+00  0.00000000000E+00 -0.64320335304E+03  0.25815042118E+04  0.25000906868E+04 0.  0.
        5    1    3    3  502    0 -0.11459019870E+04  0.26802751155E+03 -0.75682616354E+03  0.13991919248E+04  0.46999998093E+01 0.  1.
       -5    1    3    3    0  502  0.11459019870E+04 -0.26802751155E+03  0.11362281051E+03  0.11823122869E+04  0.46999998093E+01 0. -1.
</event>
<event>
 5   0  0.8997210E-07  0.2500585E+04  0.7818609E-02  0.8402777E-01
        2   -1    0    0  501    0  0.00000000000E+00  0.00000000000E+00  0.19236542661E+04  0.19236542661E+04  0.25500000920E-02 0. -1.
       -2   -1    0    0    0  501  0.00000000000E+00  0.00000000000E+00 -0.81263648239E+03  0.81263648239E+03  0.25500000920E-02 0.  1.
    10030    2    1    2    0    0  0.00000000000E+00  0.00000000000E+00  0.11110177837E+04  0.27362907485E+04  0.25005852404E+04 0.  0.
        1    1    3    3  502    0 -0.27993705519E+03 -0.35464127879E+03  0.18312005534E+04  0.18861152293E+04  0.50400001928E-02 0. -1.
       -1    1    3    3    0  502  0.27993705519E+03  0.35464127879E+03 -0.72018276973E+03  0.85017551913E+03  0.50400001928E-02 0.  1.
</event>
<event>
 5   0  0.3805418E-07  0.2500539E+04  0.7818609E-02  0.8402794E-01
       -1   -1    0    0    0  501  0.00000000000E+00  0.00000000000E+00  0.11552680236E+04  0.11552680236E+04  0.50400001928E-02 0. -1.
        1   -1    0    0  501    0  0.00000000000E+00  0.00000000000E+00 -0.13530828297E+04  0.13530828297E+04  0.50400001928E-02 0.  1.
    10030    2    1    2    0    0  0.00000000000E+00  0.00000000000E+00 -0.19781480610E+03  0.25083508533E+04  0.25005386032E+04 0.  0.
        4    1    3    3  502    0  0.11123456570E+04 -0.52268493387E+03 -0.32910050936E+03  0.12723290293E+04  0.12699999809E+01 0. -1.
       -4    1    3    3    0  502 -0.11123456570E+04  0.52268493387E+03  0.13128570326E+03  0.12360218240E+04  0.12699999809E+01 0.  1.
</event>
<event>
 5   0  0.3837524E-07  0.2499265E+04  0.7818609E-02  0.8403248E-01
       -1   -1    0    0    0  501  0.00000000000E+00  0.00000000000E+00  0.13457780481E+04  0.13457780481E+04  0.50400001928E-02 0. -1.
        1   -1    0    0  501    0  0.00000000000E+00  0.00000000000E+00 -0.11603554209E+04  0.11603554209E+04  0.50400001928E-02 0.  1.
    10030    2    1    2    0    0  0.00000000000E+00  0.00000000000E+00  0.18542262717E+03  0.25061334690E+04  0.24992645746E+04 0.  0.
        5    1    3    3  502    0 -0.26067838586E+03  0.71761443420E+03  0.10846900199E+04  0.13264607896E+04  0.46999998093E+01 0. -1.
       -5    1    3    3    0  502  0.26067838586E+03 -0.71761443420E+03 -0.89926739274E+03  0.11796726795E+04  0.46999998093E+01 0.  1.
</event>
<event>
 5   0  0.3991066E-07  0.2499550E+04  0.7818609E-02  0.8403146E-01
        1   -1    0    0  501    0  0.00000000000E+00  0.00000000000E+00  0.14788944655E+04  0.14788944655E+04  0.50400001928E-02 0.  1.
       -1   -1    0    0    0  501  0.00000000000E+00  0.00000000000E+00 -0.10561519324E+04  0.10561519324E+04  0.50400001928E-02 0. -1.
    10030    2    1    2    0    0  0.00000000000E+00  0.00000000000E+00  0.42274253306E+03  0.25350463979E+04  0.24995497575E+04 0.  0.
        1    1    3    3  502    0  0.33273471674E+03 -0.11105032505E+04 -0.26217207029E+03  0.11885554491E+04  0.50400001928E-02 0. -1.
       -1    1    3    3    0  502 -0.33273471674E+03  0.11105032505E+04  0.68491460335E+03  0.13464909488E+04  0.50400001928E-02 0.  1.
</event>
<event>
 5   0  0.3972587E-07  0.2498652E+04  0.7818609E-02  0.8403466E-01
       -1   -1    0    0    0  501  0.00000000000E+00  0.00000000000E+00  0.86315933482E+03  0.86315933483E+03  0.50400001928E-02 0.  1.
        1   -1    0    0  501    0  0.00000000000E+00  0.00000000000E+00 -0.18082594067E+04  0.18082594067E+04  0.50400001928E-02 0. -1.
    10030    2    1    2    0    0  0.00000000000E+00  0.00000000000E+00 -0.94510007190E+03  0.26714187416E+04  0.24986524262E+04 0.  0.
        3    1    3    3  502    0 -0.81821906654E+03 -0.79174403633E+03 -0.10223799506E+04  0.15302293402E+04  0.10100000352E+00 0. -1.
       -3    1    3    3    0  502  0.81821906654E+03  0.79174403633E+03  0.77279878746E+02  0.11411894014E+04  0.10100000352E+00 0.  1.
</event>
<event>
 5   0  0.8997210E-07  0.2499590E+04  0.7818609E-02  0.8403132E-01
       -2   -1    0    0    0  501  0.00000000000E+00  0.00000000000E+00  0.19058859348E+04  0.19058859348E+04  0.25500000920E-02 0. -1.
        2   -1    0    0  501    0  0.00000000000E+00  0.00000000000E+00 -0.81955975188E+03  0.81955975189E+03  0.25500000920E-02 0.  1.
    10030    2    1    2    0    0  0.00000000000E+00  0.00000000000E+00  0.10863261829E+04  0.27254456867E+04  0.24995898894E+04 0.  0.
        1    1    3    3  502    0  0.97845858187E+02  0.11335074961E+04  0.11071785541E+04  0.15875318599E+04  0.50400001928E-02 0.  1.
       -1    1    3    3    0  502 -0.97845858187E+02 -0.11335074961E+04 -0.20852371180E+02  0.11379138267E+04  0.50400001928E-02 0. -1.
</event>
<event>
 5   0  0.8997210E-07  0.2497120E+04  0.7818609E-02  0.8404012E-01
        2   -1    0    0  501    0  0.00000000000E+00  0.00000000000E+00  0.17941193477E+04  0.17941193477E+04  0.25500000920E-02 0.  1.
       -2   -1    0    0    0  501  0.00000000000E+00  0.00000000000E+00 -0.86889506659E+03  0.86889506659E+03  0.25500000920E-02 0. -1.
    10030    2    1    2    0    0  0.00000000000E+00  0.00000000000E+00  0.92522428110E+03  0.26630144143E+04  0.24971195006E+04 0.  0.
        1    1    3    3  502    0 -0.19778983928E+03  0.19023082300E+03  0.17615595221E+04  0.17828069263E+04  0.50400001928E-02 0.  1.
       -1    1    3    3    0  502  0.19778983928E+03 -0.19023082300E+03 -0.83633524100E+03  0.88020748798E+03  0.50400001928E-02 0. -1.
</event>
<event>
 5   0  0.3214375E-07  0.2499768E+04  0.7818609E-02  0.8403068E-01
        3   -1    0    0  501    0  0.00000000000E+00  0.00000000000E+00  0.15536440787E+04  0.15536440820E+04  0.10100000352E+00 0.  1.
       -3   -1    0    0    0  501  0.00000000000E+00  0.00000000000E+00 -0.10055135885E+04  0.10055135936E+04  0.10100000352E+00 0. -1.
    10030    2    1    2    0    0  0.00000000000E+00  0.00000000000E+00  0.54813049016E+03  0.25591576756E+04  0.24997681841E+04 0.  0.
        1    1    3    3  502    0 -0.44495917149E+03  0.51089912093E+03  0.13493541305E+04  0.15098884547E+04  0.50400001928E-02 0.  1.
       -1    1    3    3    0  502  0.44495917149E+03 -0.51089912093E+03 -0.80122364032E+03  0.10492692209E+04  0.50400001928E-02 0. -1.
</event>
<event>
 5   0  0.9261602E-07  0.2501875E+04  0.7818609E-02  0.8402318E-01
        2   -1    0    0  501    0  0.00000000000E+00  0.00000000000E+00  0.11444802270E+04  0.11444802270E+04  0.25500000920E-02 0.  1.
       -2   -1    0    0    0  501  0.00000000000E+00  0.00000000000E+00 -0.13672973549E+04  0.13672973549E+04  0.25500000920E-02 0. -1.
    10030    2    1    2    0    0  0.00000000000E+00  0.00000000000E+00 -0.22281712785E+03  0.25117775819E+04  0.25018751265E+04 0.  0.
        4    1    3    3  502    0 -0.12157109456E+04  0.25372992864E+03  0.39222595559E+02  0.12425264604E+04  0.12699999809E+01 0.  1.
       -4    1    3    3    0  502  0.12157109456E+04 -0.25372992864E+03 -0.26203972341E+03  0.12692511215E+04  0.12699999809E+01 0. -1.
</event>
<event>
 5   0  0.3873231E-07  0.2501998E+04  0.7818609E-02  0.8402274E-01
       -1   -1    0    0    0  501  0.00000000000E+00  0.00000000000E+00  0.12043326643E+04  0.12043326643E+04  0.50400001928E-02 0.  1.
        1   -1    0    0  501    0  0.00000000000E+00  0.00000000000E+00 -0.12994732396E+04  0.12994732396E+04  0.50400001928E-02 0. -1.
    10030    2    1    2    0    0  0.00000000000E+00  0.00000000000E+00 -0.95140575299E+02  0.25038059039E+04  0.25019976569E+04 0.  0.
        2    1    3    3  502    0 -0.71609363719E+03  0.13676148451E+03  0.96977856051E+03  0.12132453409E+04  0.25500000920E-02 0.  1.
       -2    1    3    3    0  502  0.71609363719E+03 -0.13676148451E+03 -0.10649191358E+04  0.12905605630E+04  0.25500000920E-02 0. -1.
</event>
<event>
 5   0  0.9251138E-07  0.2483889E+04  0.7818609E-02  0.8408748E-01
       -2   -1    0    0    0  501  0.00000000000E+00  0.00000000000E+00  0.10168471588E+04  0.10168471588E+04  0.25500000920E-02 0. -1.
        2   -1    0    0  501    0  0.00000000000E+00  0.00000000000E+00 -0.15168707060E+04  0.15168707060E+04  0.25500000920E-02 0.  1.
    10030    2    1    2    0    0  0.00000000000E+00  0.00000000000E+00 -0.50002354725E+03  0.25337178648E+04  0.24838886188E+04 0.  0.
        5    1    3    3  502    0 -0.10995013366E+04 -0.38086746443E+03 -0.69281737105E+03  0.13542456255E+04  0.46999998093E+01 0.  1.
       -5    1    3    3    0  502  0.10995013366E+04  0.38086746443E+03  0.19279382380E+03  0.11794722392E+04  0.46999998093E+01 0. -1.
</event>
<event>
 5   0  0.9251138E-07  0.2498860E+04  0.7818609E-02  0.8403392E-01
       -2   -1    0    0    0  501  0.00000000000E+00  0.00000000000E+00  0.94856662460E+03  0.94856662461E+03  0.25500000920E-02 0.  1.
        2   -1    0    0  501    0  0.00000000000E+00  0.00000000000E+00 -0.16457198669E+04  0.16457198669E+04  0.25500000920E-02 0. -1.
    10030    2    1    2    0    0  0.00000000000E+00  0.00000000000E+00 -0.69715324229E+03  0.25942864915E+04  0.24988596913E+04 0.  0.
        5    1    3    3  502    0 -0.99998387989E+03  0.70368363388E+03 -0.61511903199E+03  0.13687702255E+04  0.46999998093E+01 0.  1.
       -5    1    3    3    0  502  0.99998387989E+03 -0.70368363388E+03 -0.82034210295E+02  0.12255162660E+04  0.46999998093E+01 0. -1.
</event>
<event>
 5   0  0.9768582E-07  0.2501812E+04  0.7818609E-02  0.8402340E-01
       -2   -1    0    0    0  501  0.00000000000E+00  0.00000000000E+00  0.64776860017E+03  0.64776860017E+03  0.25500000920E-02 0.  1.
        2   -1    0    0  501    0  0.00000000000E+00  0.00000000000E+00 -0.24156248138E+04  0.24156248138E+04  0.25500000920E-02 0. -1.
    10030    2    1    2    0    0  0.00000000000E+00  0.00000000000E+00 -0.17678562137E+04  0.30633934140E+04  0.25018120667E+04 0.  0.
        3    1    3    3  502    0 -0.44939582283E+03  0.10213129271E+04 -0.15762996940E+04  0.19312579932E+04  0.10100000352E+00 0. -1.
       -3    1    3    3    0  502  0.44939582283E+03 -0.10213129271E+04 -0.19155651968E+03  0.11321354208E+04  0.10100000352E+00 0.  1.
</event>
<event>
 5   0  0.9251138E-07  0.2501682E+04  0.7818609E-02  0.8402386E-01
       -2   -1    0    0    0  501  0.00000000000E+00  0.00000000000E+00  0.10533804200E+04  0.10533804200E+04  0.25500000920E-02 0. -1.
        2   -1    0    0  501    0  0.00000000000E+00  0.00000000000E+00 -0.14853169512E+04  0.14853169512E+04  0.25500000920E-02 0.  1.
    10030    2    1    2    0    0  0.00000000000E+00  0.00000000000E+00 -0.43193653124E+03  0.25386973712E+04  0.25016824689E+04 0.  0.
        5    1    3    3  502    0 -0.10017066874E+04  0.73820085262E+02 -0.97246176956E+03  0.13980592533E+04  0.46999998093E+01 0.  1.
       -5    1    3    3    0  502  0.10017066874E+04 -0.73820085262E+02  0.54052523832E+03  0.11406381178E+04  0.46999998093E+01 0. -1.
</event>
<event>
 5   0  0.9508784E-07  0.2499590E+04  0.7818609E-02  0.8403131E-01
        2   -1    0    0  501    0  0.00000000000E+00  0.00000000000E+00  0.13262292054E+04  0.13262292054E+04  0.25500000920E-02 0.  1.
       -2   -1    0    0    0  501  0.00000000000E+00  0.00000000000E+00 -0.11777663473E+04  0.11777663473E+04  0.25500000920E-02 0. -1.
    10030    2    1    2    0    0  0.00000000000E+00  0.00000000000E+00  0.14846285819E+03  0.25039955527E+04  0.24995904680E+04 0.  0.
        2    1    3    3  502    0  0.45680962802E+03  0.24665329556E+03  0.12131057739E+04  0.13195220737E+04  0.25500000920E-02 0.  1.
       -2    1    3    3    0  502 -0.45680962802E+03 -0.24665329556E+03 -0.10646429157E+04  0.11844734790E+04  0.25500000920E-02 0. -1.
</event>
<event>
 5   0  0.9251138E-07  0.2499647E+04  0.7818609E-02  0.8403111E-01
        2   -1    0    0  501    0  0.00000000000E+00  0.00000000000E+00  0.17691359595E+04  0.17691359595E+04  0.25500000920E-02 0. -1.
       -2   -1    0    0    0  501  0.00000000000E+00  0.00000000000E+00 -0.88295029271E+03  0.88295029272E+03  0.25500000920E-02 0.  1.
    10030    2    1    2    0    0  0.00000000000E+00  0.00000000000E+00  0.88618566683E+03  0.26520862523E+04  0.24996472658E+04 0.  0.
        5    1    3    3  502    0  0.48344208635E+03  0.48254049964E+03  0.15535715481E+04  0.16971058393E+04  0.46999998093E+01 0. -1.
       -5    1    3    3    0  502 -0.48344208635E+03 -0.48254049964E+03 -0.66738588127E+03  0.95498041298E+03  0.46999998093E+01 0.  1.
</event>
<event>
 5   0  0.9508784E-07  0.2502650E+04  0.7818609E-02  0.8402042E-01
       -2   -1    0    0    0  501  0.00000000000E+00  0.00000000000E+00  0.13825449666E+04  0.13825449666E+04  0.25500000920E-02 0.  1.
        2   -1    0    0  501    0  0.00000000000E+00  0.00000000000E+00 -0.11325590792E+04  0.11325590792E+04  0.25500000920E-02 0. -1.
    10030    2    1    2    0    0  0.00000000000E+00  0.00000000000E+00  0.24998588742E+03  0.25151040458E+04  0.25026496793E+04 0.  0.
        2    1    3    3  502    0 -0.60431191507E+03 -0.52049989500E+03  0.10940012552E+04  0.13538654947E+04  0.25500000920E-02 0.  1.
       -2    1    3    3    0  502  0.60431191507E+03  0.52049989500E+03 -0.84401536778E+03  0.11612385511E+04  0.25500000920E-02 0. -1.
</event>
<event>
 5   0  0.9261602E-07  0.2500102E+04  0.7818609E-02  0.8402949E-01
       -2   -1    0    0    0  501  0.00000000000E+00  0.00000000000E+00  0.67222725797E+03  0.67222725797E+03  0.25500000920E-02 0.  1.
        2   -1    0    0  501    0  0.00000000000E+00  0.00000000000E+00 -0.23245527343E+04  0.23245527343E+04  0.25500000920E-02 0. -1.
    10030    2    1    2    0    0  0.00000000000E+00  0.00000000000E+00 -0.16523254764E+04  0.29967799923E+04  0.25001021664E+04 0.  0.
        4    1    3    3  502    0  0.51874568333E+03 -0.51336928510E+03  0.39033612900E+03  0.82765271301E+03  0.12699999809E+01 0. -1.
       -4    1    3    3    0  502 -0.51874568333E+03  0.51336928510E+03 -0.20426616054E+04  0.21691272793E+04  0.12699999809E+01 0.  1.
</event>
<event>
 5   0  0.8997210E-07  0.2510983E+04  0.7818609E-02  0.8399083E-01
       -2   -1    0    0    0  501  0.00000000000E+00  0.00000000000E+00  0.88095190625E+03  0.88095190625E+03  0.25500000920E-02 0.  1.
        2   -1    0    0  501    0  0.00000000000E+00  0.00000000000E+00 -0.17892674618E+04  0.17892674618E+04  0.25500000920E-02 0. -1.
    10030    2    1    2    0    0  0.00000000000E+00  0.00000000000E+00 -0.90831555555E+03  0.26702193681E+04  0.25109827409E+04 0.  0.
        1    1    3    3  502    0 -0.94880520008E+01  0.35480015578E+03 -0.17348062999E+04  0.17707416728E+04  0.50400001928E-02 0. -1.
       -1    1    3    3    0  502  0.94880520008E+01 -0.35480015578E+03  0.82649074436E+03  0.89947769522E+03  0.50400001928E-02 0.  1.
</event>
<event>
 5   0  0.3991066E-07  0.2497416E+04  0.7818609E-02  0.8403907E-01
        1   -1    0    0  501    0  0.00000000000E+00  0.00000000000E+00  0.12143101972E+04  0.12143101972E+04  0.50400001928E-02 0.  1.
       -1   -1    0    0    0  501  0.00000000000E+00  0.00000000000E+00 -0.12840803352E+04  0.12840803353E+04  0.50400001928E-02 0. -1.
    10030    2    1    2    0    0  0.00000000000E+00  0.00000000000E+00 -0.69770138041E+02  0.24983905325E+04  0.24974161409E+04 0.  0.
        1    1    3    3  502    0 -0.96204038239E+03  0.16438455813E+03 -0.81411635621E+03  0.12709561054E+04  0.50400001928E-02 0. -1.
       -1    1    3    3    0  502  0.96204038239E+03 -0.16438455813E+03  0.74434621817E+03  0.12274344271E+04  0.50400001928E-02 0.  1.
</event>
<event>
 5   0  0.3837524E-07  0.2495039E+04  0.7818609E-02  0.8404755E-01
       -1   -1    0    0    0  501  0.00000000000E+00  0.00000000000E+00  0.13592487809E+04  0.13592487809E+04  0.50400001928E-02 0. -1.
        1   -1    0    0  501    0  0.00000000000E+00  0.00000000000E+00 -0.11449741981E+04  0.11449741981E+04  0.50400001928E-02 0.  1.
    10030    2    1    2    0    0  0.00000000000E+00  0.00000000000E+00  0.21427458277E+03  0.25042229791E+04  0.24950389039E+04 0.  0.
        5    1    3    3  502    0  0.18334188852E+03  0.90422909843E+03 -0.73561898072E+03  0.11800007989E+04  0.46999998093E+01 0.  1.
       -5    1    3    3    0  502 -0.18334188852E+03 -0.90422909843E+03  0.94989356349E+03  0.13242221802E+04  0.46999998093E+01 0. -1.
</event>
<event>
 5   0  0.3873231E-07  0.2499816E+04  0.7818609E-02  0.8403051E-01
       -1   -1    0    0    0  501  0.00000000000E+00  0.00000000000E+00  0.71515665172E+03  0.71515665174E+03  0.50400001928E-02 0. -1.
        1   -1    0    0  501    0  0.00000000000E+00  0.00000000000E+00 -0.21845146450E+04  0.21845146450E+04  0.50400001928E-02 0.  1.
    10030    2    1    2    0    0  0.00000000000E+00  0.00000000000E+00 -0.14693579932E+04  0.28996712967E+04  0.24998161366E+04 0.  0.
        2    1    3    3  502    0 -0.51367100832E+03 -0.68918004301E+03 -0.17872648069E+04  0.19832151992E+04  0.25500000920E-02 0.  1.
       -2    1    3    3    0  502  0.51367100832E+03  0.68918004301E+03  0.31790681364E+03  0.91645609750E+03  0.25500000920E-02 0. -1.
</event>
<event>
 5   0  0.3837524E-07  0.2499796E+04  0.7818609E-02  0.8403058E-01
        1   -1    0    0  501    0  0.00000000000E+00  0.00000000000E+00  0.22221714412E+04  0.22221714412E+04  0.50400001928E-02 0. -1.
       -1   -1    0    0    0  501  0.00000000000E+00  0.00000000000E+00 -0.70302634642E+03  0.70302634644E+03  0.50400001928E-02 0.  1.
    10030    2    1    2    0    0  0.00000000000E+00  0.00000000000E+00  0.15191450948E+04  0.29251977877E+04  0.24997960473E+04 0.  0.
        5    1    3    3  502    0  0.36282998330E+03  0.60165439780E+03  0.19692123921E+04  0.20908020342E+04  0.46999998093E+01 0. -1.
       -5    1    3    3    0  502 -0.36282998330E+03 -0.60165439780E+03 -0.45006729732E+03  0.83439575340E+03  0.46999998093E+01 0.  1.
</event>
<event>
 5   0  0.8997210E-07  0.2499964E+04  0.7818609E-02  0.8402998E-01
        2   -1    0    0  501    0  0.00000000000E+00  0.00000000000E+00  0.26690723827E+04  0.26690723827E+04  0.25500000920E-02 0. -1.
       -2   -1    0    0    0  501  0.00000000000E+00  0.00000000000E+00 -0.58539263158E+03  0.58539263158E+03  0.25500000920E-02 0.  1.
    10030    2    1    2    0    0  0.00000000000E+00  0.00000000000E+00  0.20836797512E+04  0.32544650143E+04  0.24999642445E+04 0.  0.
        1    1    3    3  502    0  0.19719279964E+02  0.94126510004E+03 -0.28562172824E+02  0.94190479153E+03  0.50400001928E-02 0.  1.
       -1    1    3    3    0  502 -0.19719279964E+02 -0.94126510004E+03  0.21122419240E+04  0.23125602228E+04  0.50400001928E-02 0. -1.
</event>
<event>
 5   0  0.9261602E-07  0.2500200E+04  0.7818609E-02  0.8402914E-01
       -2   -1    0    0    0  501  0.00000000000E+00  0.00000000000E+00  0.15088383748E+04  0.15088383749E+04  0.25500000920E-02 0.  1.
        2   -1    0    0  501    0  0.00000000000E+00  0.00000000000E+00 -0.10357301515E+04  0.10357301515E+04  0.25500000920E-02 0. -1.
    10030    2    1    2    0    0  0.00000000000E+00  0.00000000000E+00  0.47310822337E+03  0.25445685263E+04  0.25001995109E+04 0.  0.
        4    1    3    3  502    0 -0.86000472694E+03  0.14290209215E+03  0.11483994059E+04  0.14418224393E+04  0.12699999809E+01 0.  1.
       -4    1    3    3    0  502  0.86000472694E+03 -0.14290209215E+03 -0.67529118250E+03  0.11027460870E+04  0.12699999809E+01 0. -1.
</event>
<event>
 5   0  0.3805418E-07  0.2512469E+04  0.7818609E-02  0.8398557E-01
       -1   -1    0    0    0  501  0.00000000000E+00  0.00000000000E+00  0.11541659239E+04  0.11541659239E+04  0.50400001928E-02 0. -1.
        1   -1    0    0  501    0  0.00000000000E+00  0.00000000000E+00 -0.13673297130E+04  0.13673297130E+04  0.50400001928E-02 0.  1.
    10030    2    1    2    0    0  0.00000000000E+00  0.00000000000E+00 -0.21316378911E+03  0.25214956369E+04  0.25124691931E+04 0.  0.
        4    1    3    3  502    0 -0.29967828872E+03  0.12187589777E+04 -0.16102830900E+03  0.12653506438E+04  0.12699999809E+01 0.  1.
       -4    1    3    3    0  502  0.29967828872E+03 -0.12187589777E+04 -0.52135480111E+02  0.12561449931E+04  0.12699999809E+01 0. -1.
</event>
<event>
 5   0  0.3873231E-07  0.2499868E+04  0.7818609E-02  0.8403033E-01
        1   -1    0    0  501    0  0.00000000000E+00  0.00000000000E+00  0.14591351451E+04  0.14591351451E+04  0.50400001928E-02 0. -1.
       -1   -1    0    0    0  501  0.00000000000E+00  0.00000000000E+00 -0.10707263060E+04  0.10707263061E+04  0.50400001928E-02 0.  1.
    10030    2    1    2    0    0  0.00000000000E+00  0.00000000000E+00  0.38840883905E+03  0.25298614512E+04  0.24998675037E+04 0.  0.
        2    1    3    3  502    0  0.10926509991E+04 -0.52189280521E+03  0.50788481699E+03  0.13130899791E+04  0.25500000920E-02 0. -1.
       -2    1    3    3    0  502 -0.10926509991E+04  0.52189280521E+03 -0.11947597794E+03  0.12167714721E+04  0.25500000920E-02 0.  1.
</event>
<event>
 5   0  0.3873231E-07  0.2500346E+04  0.7818609E-02  0.8402862E-01
        1   -1    0    0  501    0  0.00000000000E+00  0.00000000000E+00  0.18589904340E+04  0.18589904340E+04  0.50400001928E-02 0.  1.
       -1   -1    0    0    0  501  0.00000000000E+00  0.00000000000E+00 -0.84074282458E+03  0.84074282460E+03  0.50400001928E-02 0. -1.
    10030    2    1    2    0    0  0.00000000000E+00  0.00000000000E+00  0.10182476094E+04  0.26997332586E+04  0.25003462707E+04 0.  0.
        2    1    3    3  502    0  0.93667244035E+03  0.59069778192E+02  0.14008694986E+04  0.16862027907E+04  0.25500000920E-02 0.  1.
       -2    1    3    3    0  502 -0.93667244035E+03 -0.59069778192E+02 -0.38262188922E+03  0.10135304679E+04  0.25500000920E-02 0. -1.
</event>
<event>
 5   0  0.9508784E-07  0.2498959E+04  0.7818609E-02  0.8403357E-01
       -2   -1    0    0    0  501  0.00000000000E+00  0.00000000000E+00  0.13217313451E+04  0.13217313451E+04  0.25500000920E-02 0. -1.
        2   -1    0    0  501    0  0.00000000000E+00  0.00000000000E+00 -0.11811770803E+04  0.11811770803E+04  0.25500000920E-02 0.  1.
    10030    2    1    2    0    0  0.00000000000E+00  0.00000000000E+00  0.14055426480E+03  0.25029084255E+04  0.24989588001E+04 0.  0.
        2    1    3    3  502    0 -0.73804160487E+03 -0.92133555091E+03  0.48035575470E+03  0.12744827417E+04  0.25500000920E-02 0. -1.
       -2    1    3    3    0  502  0.73804160487E+03  0.92133555091E+03 -0.33980148990E+03  0.12284256837E+04  0.25500000920E-02 0.  1.
</event>
<event>
 5   0  0.3991066E-07  0.2494884E+04  0.7818609E-02  0.8404811E-01
       -1   -1    0    0    0  501  0.00000000000E+00  0.00000000000E+00  0.80319234292E+03  0.80319234294E+03  0.50400001928E-02 0. -1.
        1   -1    0    0  501    0  0.00000000000E+00  0.00000000000E+00 -0.19374078801E+04  0.19374078801E+04  0.50400001928E-02 0.  1.
    10030    2    1    2    0    0  0.00000000000E+00  0.00000000000E+00 -0.11342155372E+04  0.27406002230E+04  0.24948837042E+04 0.  0.
        1    1    3    3  502    0  0.57403997728E+03 -0.11035882243E+04 -0.66946370294E+03  0.14126607923E+04  0.50400001928E-02 0. -1.
       -1    1    3    3    0  502 -0.57403997728E+03  0.11035882243E+04 -0.46475183422E+03  0.13279394308E+04  0.50400001928E-02 0.  1.
</event>
<event>
 5   0  0.3873231E-07  0.2500215E+04  0.7818609E-02  0.8402909E-01
       -1   -1    0    0    0  501  0.00000000000E+00  0.00000000000E+00  0.12355897656E+04  0.12355897656E+04  0.50400001928E-02 0. -1.
        1   -1    0    0  501    0  0.00000000000E+00  0.00000000000E+00 -0.12647957181E+04  0.12647957181E+04  0.50400001928E-02 0.  1.
    10030    2    1    2    0    0  0.00000000000E+00  0.00000000000E+00 -0.29205952481E+02  0.25003854838E+04  0.25002149067E+04 0.  0.
        2    1    3    3  502    0  0.82172858647E+02 -0.14576209375E+03 -0.12535457128E+04  0.12646643115E+04  0.25500000920E-02 0.  1.
       -2    1    3    3    0  502 -0.82172858647E+02  0.14576209375E+03  0.12243397604E+04  0.12357211722E+04  0.25500000920E-02 0. -1.
</event>
<event>
 5   0  0.3972587E-07  0.2500027E+04  0.7818609E-02  0.8402976E-01
       -1   -1    0    0    0  501  0.00000000000E+00  0.00000000000E+00  0.77117507493E+03  0.77117507495E+03  0.50400001928E-02 0.  1.
        1   -1    0    0  501    0  0.00000000000E+00  0.00000000000E+00 -0.20261731469E+04  0.20261731469E+04  0.50400001928E-02 0. -1.
    10030    2    1    2    0    0  0.00000000000E+00  0.00000000000E+00 -0.12549980720E+04  0.27973482219E+04  0.25000273826E+04 0.  0.
        3    1    3    3  502    0  0.37900726813E+03 -0.69220330209E+03 -0.17121903285E+04  0.18853083705E+04  0.10100000352E+00 0. -1.
       -3    1    3    3    0  502 -0.37900726813E+03  0.69220330209E+03  0.45719225656E+03  0.91203985131E+03  0.10100000352E+00 0.  1.
</event>
<event>
 5   0  0.3805418E-07  0.2508556E+04  0.7818609E-02  0.8399944E-01
        1   -1    0    0  501    0  0.00000000000E+00  0.00000000000E+00  0.13964314587E+04  0.13964314588E+04  0.50400001928E-02 0.  1.
       -1   -1    0    0    0  501  0.00000000000E+00  0.00000000000E+00 -0.11265950849E+04  0.11265950849E+04  0.50400001928E-02 0. -1.
    10030    2    1    2    0    0  0.00000000000E+00  0.00000000000E+00  0.26983637381E+03  0.25230265437E+04  0.25085556146E+04 0.  0.
        4    1    3    3  502    0  0.11734699489E+03  0.17170789388E+03  0.13789679104E+04  0.13945637414E+04  0.12699999809E+01 0.  1.
       -4    1    3    3    0  502 -0.11734699489E+03 -0.17170789388E+03 -0.11091315365E+04  0.11284628023E+04  0.12699999809E+01 0. -1.
</event>
<event>
 5   0  0.9261602E-07  0.2504760E+04  0.7818609E-02  0.8401292E-01
       -2   -1    0    0    0  501  0.00000000000E+00  0.00000000000E+00  0.10128789479E+04  0.10128789479E+04  0.25500000920E-02 0. -1.
        2   -1    0    0  501    0  0.00000000000E+00  0.00000000000E+00 -0.15485122455E+04  0.15485122455E+04  0.25500000920E-02 0.  1.
    10030    2    1    2    0    0  0.00000000000E+00  0.00000000000E+00 -0.53563329755E+03  0.25613911934E+04  0.25047598321E+04 0.  0.
        4    1    3    3  502    0 -0.62456696902E+03 -0.25513755155E+03 -0.13467907138E+04  0.15063286191E+04  0.12699999809E+01 0.  1.
       -4    1    3    3    0  502  0.62456696902E+03  0.25513755155E+03  0.81115741623E+03  0.10550625744E+04  0.12699999809E+01 0. -1.
</event>
<event>
 5   0  0.9508784E-07  0.2499525E+04  0.7818609E-02  0.8403155E-01
       -2   -1    0    0    0  501  0.00000000000E+00  0.00000000000E+00  0.84128320888E+03  0.84128320888E+03  0.25500000920E-02 0. -1.
        2   -1    0    0  501    0  0.00000000000E+00  0.00000000000E+00 -0.18565763877E+04  0.18565763877E+04  0.25500000920E-02 0.  1.
    10030    2    1    2    0    0  0.00000000000E+00  0.00000000000E+00 -0.10152931788E+04  0.26978595965E+04  0.24995251877E+04 0.  0.
        2    1    3    3  502    0 -0.41491614874E+03 -0.11636105126E+04 -0.30353346170E+03  0.12721153241E+04  0.25500000920E-02 0.  1.
       -2    1    3    3    0  502  0.41491614874E+03  0.11636105126E+04 -0.71175971709E+03  0.14257442724E+04  0.25500000920E-02 0. -1.
</event>
<event>
 5   0  0.9251138E-07  0.2500139E+04  0.7818609E-02  0.8402936E-01
        2   -1    0    0  501    0  0.00000000000E+00  0.00000000000E+00  0.10463217308E+04  0.10463217308E+04  0.25500000920E-02 0.  1.
       -2   -1    0    0    0  501  0.00000000000E+00  0.00000000000E+00 -0.14934929278E+04  0.14934929278E+04  0.25500000920E-02 0. -1.
    10030    2    1    2    0    0  0.00000000000E+00  0.00000000000E+00 -0.44717119700E+03  0.25398146586E+04  0.25001392803E+04 0.  0.
        5    1    3    3  502    0 -0.85360028852E+03 -0.87124967073E+03  0.54515128603E+02  0.12209436640E+04  0.46999998093E+01 0.  1.
       -5    1    3    3    0  502  0.85360028852E+03  0.87124967073E+03 -0.50168632560E+03  0.13188709947E+04  0.46999998093E+01 0. -1.
</event>
<event>
 5   0  0.9768582E-07  0.2499913E+04  0.7818609E-02  0.8403017E-01
        2   -1    0    0  501    0  0.00000000000E+00  0.00000000000E+00  0.16111656454E+04  0.16111656454E+04  0.25500000920E-02 0. -1.
       -2   -1    0    0    0  501  0.00000000000E+00  0.00000000000E+00 -0.96972712940E+03  0.96972712941E+03  0.25500000920E-02 0.  1.
    10030    2    1    2    0    0  0.00000000000E+00  0.00000000000E+00  0.64143851596E+03  0.25808927748E+04  0.24999128275E+04 0.  0.
        3    1    3    3  502    0  0.70196702172E+03 -0.55165432038E+03  0.12238778720E+04  0.15149116293E+04  0.10100000352E+00 0. -1.
       -3    1    3    3    0  502 -0.70196702172E+03  0.55165432038E+03 -0.58243935607E+03  0.10659811455E+04  0.10100000352E+00 0.  1.
</event>
<event>
 5   0  0.8997210E-07  0.2497085E+04  0.7818609E-02  0.8404025E-01
       -2   -1    0    0    0  501  0.00000000000E+00  0.00000000000E+00  0.58423118557E+03  0.58423118557E+03  0.25500000920E-02 0. -1.
        2   -1    0    0  501    0  0.00000000000E+00  0.00000000000E+00 -0.26682208772E+04  0.26682208772E+04  0.25500000920E-02 0.  1.
    10030    2    1    2    0    0  0.00000000000E+00  0.00000000000E+00 -0.20839896916E+04  0.32524520627E+04  0.24970845772E+04 0.  0.
        1    1    3    3  502    0 -0.60993113345E+03  0.48550736590E+03  0.22827598776E+03  0.81230740272E+03  0.50400001928E-02 0. -1.
       -1    1    3    3    0  502  0.60993113345E+03 -0.48550736590E+03 -0.23122656794E+04  0.24401446600E+04  0.50400001928E-02 0.  1.
</event>
<event>
 5   0  0.3972587E-07  0.2500764E+04  0.7818609E-02  0.8402713E-01
       -1   -1    0    0    0  501  0.00000000000E+00  0.00000000000E+00  0.10605591685E+04  0.10605591686E+04  0.50400001928E-02 0. -1.
        1   -1    0    0  501    0  0.00000000000E+00  0.00000000000E+00 -0.14741805218E+04  0.14741805218E+04  0.50400001928E-02 0.  1.
    10030    2    1    2    0    0  0.00000000000E+00  0.00000000000E+00 -0.41362135322E+03  0.25347396903E+04  0.25007644179E+04 0.  0.
        3    1    3    3  502    0  0.11463686411E+04 -0.25363161209E+03 -0.64272994834E+03  0.13385035871E+04  0.10100000352E+00 0.  1.
       -3    1    3    3    0  502 -0.11463686411E+04  0.25363161209E+03  0.22910859512E+03  0.11962361032E+04  0.10100000352E+00 0. -1.
</event>
<event>
 5   0  0.3972587E-07  0.2500131E+04  0.7818609E-02  0.8402939E-01
        1   -1    0    0  501    0  0.00000000000E+00  0.00000000000E+00  0.13596739942E+04  0.13596739942E+04  0.50400001928E-02 0.  1.
       -1   -1    0    0    0  501  0.00000000000E+00  0.00000000000E+00 -0.11492929352E+04  0.11492929352E+04  0.50400001928E-02 0. -1.
    10030    2    1    2    0    0  0.00000000000E+00  0.00000000000E+00  0.21038105899E+03  0.25089669294E+04  0.25001309691E+04 0.  0.
        3    1    3    3  502    0  0.26044602870E+03 -0.11227110244E+04 -0.38061904676E+03  0.12137475220E+04  0.10100000352E+00 0. -1.
       -3    1    3    3    0  502 -0.26044602870E+03  0.11227110244E+04  0.59100010574E+03  0.12952194074E+04  0.10100000352E+00 0.  1.
</event>
<event>
 5   0  0.9251138E-07  0.2502065E+04  0.7818609E-02  0.8402250E-01
       -2   -1    0    0    0  501  0.00000000000E+00  0.00000000000E+00  0.88999959588E+03  0.88999959588E+03  0.25500000920E-02 0. -1.
        2   -1    0    0  501    0  0.00000000000E+00  0.00000000000E+00 -0.17585201155E+04  0.17585201155E+04  0.25500000920E-02 0.  1.
    10030    2    1    2    0    0  0.00000000000E+00  0.00000000000E+00 -0.86852051958E+03  0.26485197113E+04  0.25020649009E+04 0.  0.
        5    1    3    3  502    0  0.50846358347E+03  0.94501780300E+03  0.24639101986E+03  0.11010560787E+04  0.46999998093E+01 0. -1.
       -5    1    3    3    0  502 -0.50846358347E+03 -0.94501780300E+03 -0.11149115394E+04  0.15474636327E+04  0.46999998093E+01 0.  1.
</event>
<event>
 5   0  0.3805418E-07  0.2499798E+04  0.7818609E-02  0.8403058E-01
       -1   -1    0    0    0  501  0.00000000000E+00  0.00000000000E+00  0.78750534734E+03  0.78750534735E+03  0.50400001928E-02 0.  1.
        1   -1    0    0  501    0  0.00000000000E+00  0.00000000000E+00 -0.19837921529E+04  0.19837921530E+04  0.50400001928E-02 0. -1.
    10030    2    1    2    0    0  0.00000000000E+00  0.00000000000E+00 -0.11962868056E+04  0.27712975003E+04  0.24997975346E+04 0.  0.
        4    1    3    3  502    0 -0.45411867329E+03  0.76976687556E+03  0.37052981021E+03  0.96750129989E+03  0.12699999809E+01 0.  1.
       -4    1    3    3    0  502  0.45411867329E+03 -0.76976687556E+03 -0.15668166158E+04  0.18037962004E+04  0.12699999809E+01 0. -1.
</event>
<event>
 5   0  0.8997210E-07  0.2503726E+04  0.7818609E-02  0.8401659E-01
       -2   -1    0    0    0  501  0.00000000000E+00  0.00000000000E+00  0.12949111368E+04  0.12949111368E+04  0.25500000920E-02 0.  1.
        2   -1    0    0  501    0  0.00000000000E+00  0.00000000000E+00 -0.12102461520E+04  0.12102461520E+04  0.25500000920E-02 0. -1.
    10030    2    1    2    0    0  0.00000000000E+00  0.00000000000E+00  0.84664984783E+02  0.25051572888E+04  0.25037261995E+04 0.  0.
        1    1    3    3  502    0  0.12385341543E+04  0.33503760638E+02  0.22152105559E+03  0.12586345504E+04  0.50400001928E-02 0. -1.
       -1    1    3    3    0  502 -0.12385341543E+04 -0.33503760638E+02 -0.13685607081E+03  0.12465227385E+04  0.50400001928E-02 0.  1.
</event>
<event>
 5   0  0.9768582E-07  0.2501748E+04  0.7818609E-02  0.8402363E-01
       -2   -1    0    0    0  501  0.00000000000E+00  0.00000000000E+00  0.96968307647E+03  0.96968307647E+03  0.25500000920E-02 0. -1.
        2   -1    0    0  501    0  0.00000000000E+00  0.00000000000E+00 -0.16136048148E+04  0.16136048148E+04  0.25500000920E-02 0.  1.
    10030    2    1    2    0    0  0.00000000000E+00  0.00000000000E+00 -0.64392173834E+03  0.25832878913E+04  0.25017476140E+04 0.  0.
        3    1    3    3  502    0  0.96896816862E+03 -0.79034213147E+03 -0.28701594822E+03  0.12829334205E+04  0.10100000352E+00 0.  1.
       -3    1    3    3    0  502 -0.96896816862E+03  0.79034213147E+03 -0.35690579013E+03  0.13003544708E+04  0.10100000352E+00 0. -1.
</event>
<event>
 5   0  0.3991066E-07  0.2498372E+04  0.7818609E-02  0.8403566E-01
       -1   -1    0    0    0  501  0.00000000000E+00  0.00000000000E+00  0.54041766009E+03  0.54041766011E+03  0.50400001928E-02 0.  1.
        1   -1    0    0  501    0  0.00000000000E+00  0.00000000000E+00 -0.28875170143E+04  0.28875170143E+04  0.50400001928E-02 0. -1.
    10030    2    1    2    0    0  0.00000000000E+00  0.00000000000E+00 -0.23470993542E+04  0.34279346744E+04  0.24983716204E+04 0.  0.
        1    1    3    3  502    0  0.10952985715E+02  0.12335299378E+04 -0.14436383571E+04  0.18988964641E+04  0.50400001928E-02 0. -1.
       -1    1    3    3    0  502 -0.10952985715E+02 -0.12335299378E+04 -0.90346099712E+03  0.15290382103E+04  0.50400001928E-02 0.  1.
</event>
<event>
 5   0  0.9768582E-07  0.2499652E+04  0.7818609E-02  0.8403110E-01
        2   -1    0    0  501    0  0.00000000000E+00  0.00000000000E+00  0.14017833118E+04  0.14017833118E+04  0.25500000920E-02 0. -1.
       -2   -1    0    0    0  501  0.00000000000E+00  0.00000000000E+00 -0.11143412303E+04  0.11143412303E+04  0.25500000920E-02 0.  1.
    10030    2    1    2    0    0  0.00000000000E+00  0.00000000000E+00  0.28744208148E+03  0.25161245422E+04  0.24996519281E+04 0.  0.
        3    1    3    3  502    0 -0.17424398114E+03  0.33080774695E+03 -0.10567277845E+04  0.11209229907E+04  0.10100000352E+00 0.  1.
       -3    1    3    3    0  502  0.17424398114E+03 -0.33080774695E+03  0.13441698660E+04  0.13952015514E+04  0.10100000352E+00 0. -1.
</event>
<event>
 5   0  0.8997210E-07  0.2497137E+04  0.7818609E-02  0.8404006E-01
        2   -1    0    0  501    0  0.00000000000E+00  0.00000000000E+00  0.12791422041E+04  0.12791422041E+04  0.25500000920E-02 0. -1.
       -2   -1    0    0    0  501  0.00000000000E+00  0.00000000000E+00 -0.12187254608E+04  0.12187254608E+04  0.25500000920E-02 0.  1.
    10030    2    1    2    0    0  0.00000000000E+00  0.00000000000E+00  0.60416743273E+02  0.24978676649E+04  0.24971368983E+04 0.  0.
        1    1    3    3  502    0 -0.64094020869E+02  0.89436333085E+03  0.89932934912E+03  0.12699555462E+04  0.50400001928E-02 0. -1.
       -1    1    3    3    0  502  0.64094020869E+02 -0.89436333085E+03 -0.83891260585E+03  0.12279121187E+04  0.50400001928E-02 0.  1.
</event>
<event>
 5   0  0.3873231E-07  0.2503119E+04  0.7818609E-02  0.8401875E-01
        1   -1    0    0  501    0  0.00000000000E+00  0.00000000000E+00  0.18831036183E+04  0.18831036183E+04  0.50400001928E-02 0.  1.
       -1   -1    0    0    0  501  0.00000000000E+00  0.00000000000E+00 -0.83181874258E+03  0.83181874259E+03  0.50400001928E-02 0. -1.
    10030    2    1    2    0    0  0.00000000000E+00  0.00000000000E+00  0.10512848757E+04  0.27149223609E+04  0.25031187618E+04 0.  0.
        2    1    3    3  502    0  0.59061588866E+03 -0.17911951305E+03 -0.65528958263E+03  0.90017518573E+03  0.25500000920E-02 0. -1.
       -2    1    3    3    0  502 -0.59061588866E+03  0.17911951305E+03  0.17065744583E+04  0.18147471751E+04  0.25500000920E-02 0.  1.
</event>
<event>
 5   0  0.9261602E-07  0.2504918E+04  0.7818609E-02  0.8401236E-01
       -2   -1    0    0    0  501  0.00000000000E+00  0.00000000000E+00  0.11454638461E+04  0.11454638462E+04  0.25500000920E-02 0. -1.
        2   -1    0    0  501    0  0.00000000000E+00  0.00000000000E+00 -0.13694484652E+04  0.13694484652E+04  0.25500000920E-02 0.  1.
    10030    2    1    2    0    0  0.00000000000E+00  0.00000000000E+00 -0.22398461907E+03  0.25149123114E+04  0.25049181273E+04 0.  0.
        4    1    3    3  502    0  0.16990636571E+03  0.66395844994E+03  0.94049511134E+03  0.11637188938E+04  0.12699999809E+01 0. -1.
       -4    1    3    3    0  502 -0.16990636571E+03 -0.66395844994E+03 -0.11644797304E+04  0.13511934176E+04  0.12699999809E+01 0.  1.
</event>
<event>
 5   0  0.9508784E-07  0.2498526E+04  0.7818609E-02  0.8403511E-01
        2   -1    0    0  501    0  0.00000000000E+00  0.00000000000E+00  0.26183185505E+04  0.26183185505E+04  0.25500000920E-02 0.  1.
       -2   -1    0    0    0  501  0.00000000000E+00  0.00000000000E+00 -0.59605342201E+03  0.59605342201E+03  0.25500000920E-02 0. -1.
    10030    2    1    2    0    0  0.00000000000E+00  0.00000000000E+00  0.20222651285E+04  0.32143719725E+04  0.24985257509E+04 0.  0.
        2    1    3    3  502    0  0.50349482652E+03  0.28803878512E+03 -0.41229612355E+03  0.71166106791E+03  0.25500000920E-02 0. -1.
       -2    1    3    3    0  502 -0.50349482652E+03 -0.28803878512E+03  0.24345612520E+04  0.25027109046E+04  0.25500000920E-02 0.  1.
</event>
<event>
 5   0  0.3972587E-07  0.2506631E+04  0.7818609E-02  0.8400627E-01
       -1   -1    0    0    0  501  0.00000000000E+00  0.00000000000E+00  0.13377305854E+04  0.13377305854E+04  0.50400001928E-02 0.  1.
        1   -1    0    0  501    0  0.00000000000E+00  0.00000000000E+00 -0.11742274581E+04  0.11742274581E+04  0.50400001928E-02 0. -1.
    10030    2    1    2    0    0  0.00000000000E+00  0.00000000000E+00  0.16350312735E+03  0.25119580436E+04  0.25066311934E+04 0.  0.
        3    1    3    3  502    0  0.45316062588E+03  0.83467153230E+02 -0.10862632505E+04  0.11799530406E+04  0.10100000352E+00 0. -1.
       -3    1    3    3    0  502 -0.45316062588E+03 -0.83467153230E+02  0.12497663778E+04  0.13320050029E+04  0.10100000352E+00 0.  1.
</event>
<event>
 5   0  0.3805418E-07  0.2498528E+04  0.7818609E-02  0.8403510E-01
        1   -1    0    0  501    0  0.00000000000E+00  0.00000000000E+00  0.10553671775E+04  0.10553671775E+04  0.50400001928E-02 0. -1.
       -1   -1    0    0    0  501  0.00000000000E+00  0.00000000000E+00 -0.14787841532E+04  0.14787841532E+04  0.50400001928E-02 0.  1.
    10030    2    1    2    0    0  0.00000000000E+00  0.00000000000E+00 -0.42341697569E+03  0.25341513308E+04  0.24985277729E+04 0.  0.
        4    1    3    3  502    0 -0.99746843208E+03  0.25792434431E+03 -0.92831620212E+03  0.13868095848E+04  0.12699999809E+01 0.  1.
       -4    1    3    3    0  502  0.99746843208E+03 -0.25792434431E+03  0.50489922643E+03  0.11473417460E+04  0.12699999809E+01 0. -1.
</event>
<event>
 5   0  0.3837524E-07  0.2500647E+04  0.7818609E-02  0.8402755E-01
        1   -1    0    0  501    0  0.00000000000E+00  0.00000000000E+00  0.18498872186E+04  0.18498872186E+04  0.50400001928E-02 0.  1.
       -1   -1    0    0    0  501  0.00000000000E+00  0.00000000000E+00 -0.84508350791E+03  0.84508350792E+03  0.50400001928E-02 0. -1.
    10030    2    1    2    0    0  0.00000000000E+00  0.00000000000E+00  0.10048037107E+04  0.26949707266E+04  0.25006472602E+04 0.  0.
        5    1    3    3  502    0  0.50055220342E+03  0.49713769929E+03 -0.61008891981E+03  0.93269983407E+03  0.46999998093E+01 0. -1.
       -5    1    3    3    0  502 -0.50055220342E+03 -0.49713769929E+03  0.16148926305E+04  0.17622708925E+04  0.46999998093E+01 0.  1.
</event>
<event>
 5   0  0.3805418E-07  0.2499020E+04  0.7818609E-02  0.8403335E-01
        1   -1    0    0  501    0  0.00000000000E+00  0.00000000000E+00  0.84119271827E+03  0.84119271828E+03  0.50400001928E-02 0. -1.
       -1   -1    0    0    0  501  0.00000000000E+00  0.00000000000E+00 -0.18560256948E+04  0.18560256948E+04  0.50400001928E-02 0.  1.
    10030    2    1    2    0    0  0.00000000000E+00  0.00000000000E+00 -0.10148329766E+04  0.26972184131E+04  0.24990200475E+04 0.  0.
        4    1    3    3  502    0  0.31856198589E+03  0.10241276030E+04 -0.11993164379E+04  0.16089377294E+04  0.12699999809E+01 0.  1.
       -4    1    3    3    0  502 -0.31856198589E+03 -0.10241276030E+04  0.18448346139E+03  0.10882806837E+04  0.12699999809E+01 0. -1.
</event>
<event>
 5   0  0.3991066E-07  0.2500489E+04  0.7818609E-02  0.8402811E-01
        1   -1    0    0  501    0  0.00000000000E+00  0.00000000000E+00  0.16049583347E+04  0.16049583347E+04  0.50400001928E-02 0. -1.
       -1   -1    0    0    0  501  0.00000000000E+00  0.00000000000E+00 -0.97392645596E+03  0.97392645597E+03  0.50400001928E-02 0.  1.
    10030    2    1    2    0    0  0.00000000000E+00  0.00000000000E+00  0.63103187874E+03  0.25788847907E+04  0.25004890585E+04 0.  0.
        1    1    3    3  502    0 -0.31638394086E+03 -0.11671641482E+04  0.64286333906E+03  0.13695416093E+04  0.50400001928E-02 0. -1.
       -1    1    3    3    0  502  0.31638394086E+03  0.11671641482E+04 -0.11831460317E+02  0.12093431814E+04  0.50400001928E-02 0.  1.
</event>
<event>
 5   0  0.9251138E-07  0.2499676E+04  0.7818609E-02  0.8403101E-01
        2   -1    0    0  501    0  0.00000000000E+00  0.00000000000E+00  0.12429363397E+04  0.12429363397E+04  0.25500000920E-02 0. -1.
       -2   -1    0    0    0  501  0.00000000000E+00  0.00000000000E+00 -0.12567781234E+04  0.12567781234E+04  0.25500000920E-02 0.  1.
    10030    2    1    2    0    0  0.00000000000E+00  0.00000000000E+00 -0.13841783709E+02  0.24997144631E+04  0.24996761394E+04 0.  0.
        5    1    3    3  502    0 -0.78652912229E+03 -0.68923551652E+03  0.67748674667E+03  0.12460674297E+04  0.46999998093E+01 0. -1.
       -5    1    3    3    0  502  0.78652912229E+03  0.68923551652E+03 -0.69132853038E+03  0.12536470334E+04  0.46999998093E+01 0.  1.
</event>
<event>
 5   0  0.3805418E-07  0.2498911E+04  0.7818609E-02  0.8403374E-01
       -1   -1    0    0    0  501  0.00000000000E+00  0.00000000000E+00  0.10815528273E+04  0.10815528273E+04  0.50400001928E-02 0.  1.
        1   -1    0    0  501    0  0.00000000000E+00  0.00000000000E+00 -0.14434235757E+04  0.14434235757E+04  0.50400001928E-02 0. -1.
    10030    2    1    2    0    0  0.00000000000E+00  0.00000000000E+00 -0.36187074845E+03  0.25249764030E+04  0.24989108422E+04 0.  0.
        4    1    3    3  502    0 -0.11669702575E+04 -0.20204234296E+03  0.22133353127E+03  0.12048364350E+04  0.12699999809E+01 0.  1.
       -4    1    3    3    0  502  0.11669702575E+04  0.20204234296E+03 -0.58320427972E+03  0.13201399680E+04  0.12699999809E+01 0. -1.
</event>
<event>
 5   0  0.9251138E-07  0.2509821E+04  0.7818609E-02  0.8399495E-01
       -2   -1    0    0    0  501  0.00000000000E+00  0.00000000000E+00  0.91524985216E+03  0.91524985216E+03  0.25500000920E-02 0. -1.
        2   -1    0    0  501    0  0.00000000000E+00  0.00000000000E+00 -0.17206235045E+04  0.17206235045E+04  0.25500000920E-02 0.  1.
    10030    2    1    2    0    0  0.00000000000E+00  0.00000000000E+00 -0.80537365235E+03  0.26358733567E+04  0.25098210359E+04 0.  0.
        5    1    3    3  502    0 -0.10003865317E+04 -0.63326459826E+03 -0.83948524199E+03  0.14513975423E+04  0.46999998093E+01 0. -1.
       -5    1    3    3    0  502  0.10003865317E+04  0.63326459826E+03  0.34111589642E+02  0.11844758144E+04  0.46999998093E+01 0.  1.
</event>
<event>
 5   0  0.9768582E-07  0.2499564E+04  0.7818609E-02  0.8403141E-01
       -2   -1    0    0    0  501  0.00000000000E+00  0.00000000000E+00  0.76464893106E+03  0.76464893106E+03  0.25500000920E-02 0. -1.
        2   -1    0    0  501    0  0.00000000000E+00  0.00000000000E+00 -0.20427082578E+04  0.20427082578E+04  0.25500000920E-02 0.  1.
    10030    2    1    2    0    0  0.00000000000E+00  0.00000000000E+00 -0.12780593267E+04  0.28073571889E+04  0.24995637106E+04 0.  0.
        3    1    3    3  502    0 -0.56636124855E+03  0.70963783934E+02 -0.18877630055E+04  0.19721688816E+04  0.10100000352E+00 0.  1.
       -3    1    3    3    0  502  0.56636124855E+03 -0.70963783934E+02  0.60970367875E+03  0.83518830725E+03  0.10100000352E+00 0. -1.
</event>
<event>
 5   0  0.9768582E-07  0.2501236E+04  0.7818609E-02  0.8402545E-01
       -2   -1    0    0    0  501  0.00000000000E+00  0.00000000000E+00  0.85005110346E+03  0.85005110347E+03  0.25500000920E-02 0. -1.
        2   -1    0    0  501    0  0.00000000000E+00  0.00000000000E+00 -0.18399428471E+04  0.18399428471E+04  0.25500000920E-02 0.  1.
    10030    2    1    2    0    0  0.00000000000E+00  0.00000000000E+00 -0.98989174362E+03  0.26899939506E+04  0.25012360524E+04 0.  0.
        3    1    3    3  502    0 -0.92222449305E+03 -0.34647501648E+03  0.33358347166E+03  0.10401061943E+04  0.10100000352E+00 0. -1.
       -3    1    3    3    0  502  0.92222449305E+03  0.34647501648E+03 -0.13234752153E+04  0.16498877563E+04  0.10100000352E+00 0.  1.
</event>
<event>
 5   0  0.3837524E-07  0.2500341E+04  0.7818609E-02  0.8402864E-01
       -1   -1    0    0    0  501  0.00000000000E+00  0.00000000000E+00  0.10466602722E+04  0.10466602722E+04  0.50400001928E-02 0.  1.
        1   -1    0    0  501    0  0.00000000000E+00  0.00000000000E+00 -0.14932512718E+04  0.14932512718E+04  0.50400001928E-02 0. -1.
    10030    2    1    2    0    0  0.00000000000E+00  0.00000000000E+00 -0.44659099953E+03  0.25399115440E+04  0.25003414028E+04 0.  0.
        5    1    3    3  502    0  0.42297142500E+03  0.11757202595E+04 -0.26495349926E+03  0.12772804710E+04  0.46999998093E+01 0.  1.
       -5    1    3    3    0  502 -0.42297142500E+03 -0.11757202595E+04 -0.18163750026E+03  0.12626310730E+04  0.46999998093E+01 0. -1.
</event>
<event>
 5   0  0.9251138E-07  0.2498248E+04  0.7818609E-02  0.8403610E-01
       -2   -1    0    0    0  501  0.00000000000E+00  0.00000000000E+00  0.90064136119E+03  0.90064136120E+03  0.25500000920E-02 0. -1.
        2   -1    0    0  501    0  0.00000000000E+00  0.00000000000E+00 -0.17324439604E+04  0.17324439604E+04  0.25500000920E-02 0.  1.
    10030    2    1    2    0    0  0.00000000000E+00  0.00000000000E+00 -0.83180259925E+03  0.26330853216E+04  0.24982479354E+04 0.  0.
        5    1    3    3  502    0  0.12666852583E+02  0.11384695130E+04  0.12565542804E+03  0.11454626392E+04  0.46999998093E+01 0. -1.
       -5    1    3    3    0  502 -0.12666852583E+02 -0.11384695130E+04 -0.95745802729E+03  0.14876226824E+04  0.46999998093E+01 0.  1.
</event>
<event>
 5   0  0.9768582E-07  0.2500550E+04  0.7818609E-02  0.8402790E-01
        2   -1    0    0  501    0  0.00000000000E+00  0.00000000000E+00  0.14894083808E+04  0.14894083808E+04  0.25500000920E-02 0. -1.
       -2   -1    0    0    0  501  0.00000000000E+00  0.00000000000E+00 -0.10495355317E+04  0.10495355317E+04  0.25500000920E-02 0.  1.
    10030    2    1    2    0    0  0.00000000000E+00  0.00000000000E+00  0.43987284909E+03  0.25389439125E+04  0.25005495531E+04 0.  0.
        3    1    3    3  502    0  0.71767168810E+03 -0.61973769227E+03 -0.60747431627E+03  0.11261227794E+04  0.10100000352E+00 0.  1.
       -3    1    3    3    0  502 -0.71767168810E+03  0.61973769227E+03  0.10473471654E+04  0.14128211331E+04  0.10100000352E+00 0. -1.
</event>
<event>
 5   0  0.3972587E-07  0.2500565E+04  0.7818609E-02  0.8402784E-01
        1   -1    0    0  501    0  0.00000000000E+00  0.00000000000E+00  0.16345307106E+04  0.16345307107E+04  0.50400001928E-02 0. -1.
       -1   -1    0    0    0  501  0.00000000000E+00  0.00000000000E+00 -0.95636376848E+03  0.95636376849E+03  0.50400001928E-02 0.  1.
    10030    2    1    2    0    0  0.00000000000E+00  0.00000000000E+00  0.67816694217E+03  0.25908944791E+04  0.25005646964E+04 0.  0.
        3    1    3    3  502    0  0.10660301624E+04  0.31495088818E+02 -0.33701700514E+03  0.11184778584E+04  0.10100000352E+00 0.  1.
       -3    1    3    3    0  502 -0.10660301624E+04 -0.31495088818E+02  0.10151839473E+04  0.14724166207E+04  0.10100000352E+00 0. -1.
</event>
<event>
 5   0  0.3972587E-07  0.2500708E+04  0.7818609E-02  0.8402733E-01
       -1   -1    0    0    0  501  0.00000000000E+00  0.00000000000E+00  0.70457041314E+03  0.70457041315E+03  0.50400001928E-02 0. -1.
        1   -1    0    0  501    0  0.00000000000E+00  0.00000000000E+00 -0.22189192801E+04  0.22189192801E+04  0.50400001928E-02 0.  1.
    10030    2    1    2    0    0  0.00000000000E+00  0.00000000000E+00 -0.15143488670E+04  0.29234896933E+04  0.25007077989E+04 0.  0.
        3    1    3    3  502    0  0.28887275832E+03 -0.10843628741E+04 -0.11249630385E+03  0.11278057199E+04  0.10100000352E+00 0. -1.
       -3    1    3    3    0  502 -0.28887275832E+03  0.10843628741E+04 -0.14018525631E+04  0.17956839734E+04  0.10100000352E+00 0.  1.
</event>
<event>
 5   0  0.3805418E-07  0.2500482E+04  0.7818609E-02  0.8402814E-01
       -1   -1    0    0    0  501  0.00000000000E+00  0.00000000000E+00  0.10187048587E+04  0.10187048587E+04  0.50400001928E-02 0.  1.
        1   -1    0    0  501    0  0.00000000000E+00  0.00000000000E+00 -0.15344022371E+04  0.15344022371E+04  0.50400001928E-02 0. -1.
    10030    2    1    2    0    0  0.00000000000E+00  0.00000000000E+00 -0.51569737841E+03  0.25531070958E+04  0.25004823647E+04 0.  0.
        4    1    3    3  502    0  0.31078253310E+03  0.11623756586E+04  0.89004121499E+02  0.12064933904E+04  0.12699999809E+01 0.  1.
       -4    1    3    3    0  502 -0.31078253310E+03 -0.11623756586E+04 -0.60470149991E+03  0.13466137054E+04  0.12699999809E+01 0. -1.
</event>
<event>
 5   0  0.8997210E-07  0.2492792E+04  0.7818609E-02  0.8405558E-01
       -2   -1    0    0    0  501  0.00000000000E+00  0.00000000000E+00  0.13570215011E+04  0.13570215011E+04  0.25500000920E-02 0. -1.
        2   -1    0    0  501    0  0.00000000000E+00  0.00000000000E+00 -0.11447883854E+04  0.11447883854E+04  0.25500000920E-02 0.  1.
    10030    2    1    2    0    0  0.00000000000E+00  0.00000000000E+00  0.21223311567E+03  0.25018098865E+04  0.24927915702E+04 0.  0.
        1    1    3    3  502    0 -0.12609083371E+03 -0.11450971889E+04  0.58360660759E+03  0.12914112989E+04  0.50400001928E-02 0.  1.
       -1    1    3    3    0  502  0.12609083371E+03  0.11450971889E+04 -0.37137349192E+03  0.12103985876E+04  0.50400001928E-02 0. -1.
</event>
<event>
 5   0  0.9251138E-07  0.2509766E+04  0.7818609E-02  0.8399515E-01
       -2   -1    0    0    0  501  0.00000000000E+00  0.00000000000E+00  0.10300768445E+04  0.10300768445E+04  0.25500000920E-02 0.  1.
        2   -1    0    0  501    0  0.00000000000E+00  0.00000000000E+00 -0.15287511018E+04  0.15287511018E+04  0.25500000920E-02 0. -1.
    10030    2    1    2    0    0  0.00000000000E+00  0.00000000000E+00 -0.49867425730E+03  0.25588279462E+04  0.25097658145E+04 0.  0.
        5    1    3    3  502    0  0.71585432930E+03  0.94459069150E+03 -0.66972013542E+03  0.13613398345E+04  0.46999998093E+01 0.  1.
       -5    1    3    3    0  502 -0.71585432930E+03 -0.94459069150E+03  0.17104587812E+03  0.11974881117E+04  0.46999998093E+01 0. -1.
</event>
<event>
 5   0  0.9508784E-07  0.2500361E+04  0.7818609E-02  0.8402857E-01
        2   -1    0    0  501    0  0.00000000000E+00  0.00000000000E+00  0.15519253026E+04  0.15519253026E+04  0.25500000920E-02 0.  1.
       -2   -1    0    0    0  501  0.00000000000E+00  0.00000000000E+00 -0.10071046797E+04  0.10071046797E+04  0.25500000920E-02 0. -1.
    10030    2    1    2    0    0  0.00000000000E+00  0.00000000000E+00  0.54482062290E+03  0.25590299823E+04  0.25003609617E+04 0.  0.
        2    1    3    3  502    0  0.12737524621E+03 -0.48620428333E+01 -0.10004365279E+04  0.10085243374E+04  0.25500000920E-02 0. -1.
       -2    1    3    3    0  502 -0.12737524621E+03  0.48620428333E+01  0.15452571508E+04  0.15505056449E+04  0.25500000920E-02 0.  1.
</event>
<event>
 5   0  0.9768582E-07  0.2499223E+04  0.7818609E-02  0.8403263E-01
        2   -1    0    0  501    0  0.00000000000E+00  0.00000000000E+00  0.21133880094E+04  0.21133880094E+04  0.25500000920E-02 0.  1.
       -2   -1    0    0    0  501  0.00000000000E+00  0.00000000000E+00 -0.73887449881E+03  0.73887449881E+03  0.25500000920E-02 0. -1.
    10030    2    1    2    0    0  0.00000000000E+00  0.00000000000E+00  0.13745135106E+04  0.28522625082E+04  0.24992226842E+04 0.  0.
        3    1    3    3  502    0 -0.60050540072E+03 -0.10184881986E+04  0.22564070628E+03  0.12036771517E+04  0.10100000352E+00 0. -1.
       -3    1    3    3    0  502  0.60050540072E+03  0.10184881986E+04  0.11488728043E+04  0.16485853565E+04  0.10100000352E+00 0.  1.
</event>
<event>
 5   0  0.3873231E-07  0.2499870E+04  0.7818609E-02  0.8403032E-01
        1   -1    0    0  501    0  0.00000000000E+00  0.00000000000E+00  0.25393899475E+04  0.25393899475E+04  0.50400001928E-02 0. -1.
       -1   -1    0    0    0  501  0.00000000000E+00  0.00000000000E+00 -0.61524119998E+03  0.61524120000E+03  0.50400001928E-02 0.  1.
    10030    2    1    2    0    0  0.00000000000E+00  0.00000000000E+00  0.19241487476E+04  0.31546311475E+04  0.24998698515E+04 0.  0.
        2    1    3    3  502    0  0.12052166388E+04  0.23305857027E+03  0.66485614633E+03  0.13960290609E+04  0.25500000920E-02 0. -1.
       -2    1    3    3    0  502 -0.12052166388E+04 -0.23305857027E+03  0.12592926012E+04  0.17586020866E+04  0.25500000920E-02 0.  1.
</event>
<event>
 5   0  0.3991066E-07  0.2499746E+04  0.7818609E-02  0.8403076E-01
       -1   -1    0    0    0  501  0.00000000000E+00  0.00000000000E+00  0.17474171960E+04  0.17474171960E+04  0.50400001928E-02 0.  1.
        1   -1    0    0  501    0  0.00000000000E+00  0.00000000000E+00 -0.89399545198E+03  0.89399545200E+03  0.50400001928E-02 0. -1.
    10030    2    1    2    0    0  0.00000000000E+00  0.00000000000E+00  0.85342174401E+03  0.26414126480E+04  0.24997464079E+04 0.  0.
        1    1    3    3  502    0  0.11091927667E+04 -0.18760406943E+02 -0.18169975474E+03  0.11241331538E+04  0.50400001928E-02 0. -1.
       -1    1    3    3    0  502 -0.11091927667E+04  0.18760406943E+02  0.10351214988E+04  0.15172794942E+04  0.50400001928E-02 0.  1.
</event>
<event>
 5   0  0.9768582E-07  0.2499644E+04  0.7818609E-02  0.8403112E-01
       -2   -1    0    0    0  501  0.00000000000E+00  0.00000000000E+00  0.76059227943E+03  0.76059227944E+03  0.25500000920E-02 0. -1.
        2   -1    0    0  501    0  0.00000000000E+00  0.00000000000E+00 -0.20537351526E+04  0.20537351526E+04  0.25500000920E-02 0.  1.
    10030    2    1    2    0    0  0.00000000000E+00  0.00000000000E+00 -0.12931428731E+04  0.28143274320E+04  0.24996440555E+04 0.  0.
        3    1    3    3  502    0 -0.91483002782E+03 -0.35232018762E+03  0.22627507266E+03  0.10061033312E+04  0.10100000352E+00 0. -1.
       -3    1    3    3    0  502  0.91483002782E+03  0.35232018762E+03 -0.15194179458E+04  0.18082241008E+04  0.10100000352E+00 0.  1.
</event>
<event>
 5   0  0.9251138E-07  0.2498593E+04  0.7818609E-02  0.8403487E-01
       -2   -1    0    0    0  501  0.00000000000E+00  0.00000000000E+00  0.86573537800E+03  0.86573537800E+03  0.25500000920E-02 0.  1.
        2   -1    0    0  501    0  0.00000000000E+00  0.00000000000E+00 -0.18027926472E+04  0.18027926472E+04  0.25500000920E-02 0. -1.
    10030    2    1    2    0    0  0.00000000000E+00  0.00000000000E+00 -0.93705726920E+03  0.26685280252E+04  0.24985927030E+04 0.  0.
        5    1    3    3  502    0 -0.97456580924E+03  0.67900588641E+03 -0.55038454477E+02  0.11890663698E+04  0.46999998093E+01 0.  1.
       -5    1    3    3    0  502  0.97456580924E+03 -0.67900588641E+03 -0.88201881472E+03  0.14794616554E+04  0.46999998093E+01 0. -1.
</event>
<event>
 5   0  0.3972587E-07  0.2499810E+04  0.7818609E-02  0.8403053E-01
       -1   -1    0    0    0  501  0.00000000000E+00  0.00000000000E+00  0.70220273234E+03  0.70220273236E+03  0.50400001928E-02 0. -1.
        1   -1    0    0  501    0  0.00000000000E+00  0.00000000000E+00 -0.22248026819E+04  0.22248026819E+04  0.50400001928E-02 0.  1.
    10030    2    1    2    0    0  0.00000000000E+00  0.00000000000E+00 -0.15225999496E+04  0.29270054143E+04  0.24998100105E+04 0.  0.
        3    1    3    3  502    0  0.72555304449E+03  0.51493773312E+03  0.26660269906E+03  0.92879766296E+03  0.10100000352E+00 0. -1.
       -3    1    3    3    0  502 -0.72555304449E+03 -0.51493773312E+03 -0.17892026486E+04  0.19982077513E+04  0.10100000352E+00 0.  1.
</event>
<event>
 5   0  0.3873231E-07  0.2503603E+04  0.7818609E-02  0.8401703E-01
       -1   -1    0    0    0  501  0.00000000000E+00  0.00000000000E+00  0.26480196799E+04  0.26480196799E+04  0.50400001928E-02 0. -1.
        1   -1    0    0  501    0  0.00000000000E+00  0.00000000000E+00 -0.59176559594E+03  0.59176559597E+03  0.50400001928E-02 0.  1.
    10030    2    1    2    0    0  0.00000000000E+00  0.00000000000E+00  0.20562540840E+04  0.32397852759E+04  0.25036029589E+04 0.  0.
        2    1    3    3  502    0 -0.34463229877E+03 -0.56074904330E+03 -0.34977466363E+03  0.74535442994E+03  0.25500000920E-02 0.  1.
       -2    1    3    3    0  502  0.34463229877E+03  0.56074904330E+03  0.24060287476E+04  0.24944308459E+04  0.25500000920E-02 0. -1.
</event>
<event>
 5   0  0.3873231E-07  0.2501091E+04  0.7818609E-02  0.8402597E-01
       -1   -1    0    0    0  501  0.00000000000E+00  0.00000000000E+00  0.10634188206E+04  0.10634188206E+04  0.50400001928E-02 0. -1.
        1   -1    0    0  501    0  0.00000000000E+00  0.00000000000E+00 -0.14706008298E+04  0.14706008298E+04  0.50400001928E-02 0.  1.
    10030    2    1    2    0    0  0.00000000000E+00  0.00000000000E+00 -0.40718200927E+03  0.25340196504E+04  0.25010914418E+04 0.  0.
        2    1    3    3  502    0  0.36913265819E+03 -0.10100207790E+04 -0.85032378469E+03  0.13709308634E+04  0.25500000920E-02 0.  1.
       -2    1    3    3    0  502 -0.36913265819E+03  0.10100207790E+04  0.44314177542E+03  0.11630887870E+04  0.25500000920E-02 0. -1.
</event>
<event>
 5   0  0.9261602E-07  0.2498302E+04  0.7818609E-02  0.8403591E-01
       -2   -1    0    0    0  501  0.00000000000E+00  0.00000000000E+00  0.19155807962E+04  0.19155807962E+04  0.25500000920E-02 0.  1.
        2   -1    0    0  501    0  0.00000000000E+00  0.00000000000E+00 -0.81457207251E+03  0.81457207251E+03  0.25500000920E-02 0. -1.
    10030    2    1    2    0    0  0.00000000000E+00  0.00000000000E+00  0.11010087237E+04  0.27301528687E+04  0.24983023189E+04 0.  0.
        4    1    3    3  502    0  0.91416491629E+03  0.67780837640E+03  0.11133301951E+04  0.15920513263E+04  0.12699999809E+01 0.  1.
       -4    1    3    3    0  502 -0.91416491629E+03 -0.67780837640E+03 -0.12321471412E+02  0.11381015424E+04  0.12699999809E+01 0. -1.
</event>
<event>
 5   0  0.3837524E-07  0.2499837E+04  0.7818609E-02  0.8403044E-01
        1   -1    0    0  501    0  0.00000000000E+00  0.00000000000E+00  0.13042125473E+04  0.13042125473E+04  0.50400001928E-02 0. -1.
       -1   -1    0    0    0  501  0.00000000000E+00  0.00000000000E+00 -0.11978847219E+04  0.11978847219E+04  0.50400001928E-02 0.  1.
    10030    2    1    2    0    0  0.00000000000E+00  0.00000000000E+00  0.10632782541E+03  0.25020972691E+04  0.24998370222E+04 0.  0.
        5    1    3    3  502    0  0.69696002411E+03 -0.96119442123E+03  0.44419118146E+03  0.12676655262E+04  0.46999998093E+01 0. -1.
       -5    1    3    3    0  502 -0.69696002411E+03  0.96119442123E+03 -0.33786335606E+03  0.12344317429E+04  0.46999998093E+01 0.  1.
</event>
<event>
 5   0  0.9251138E-07  0.2502257E+04  0.7818609E-02  0.8402182E-01
        2   -1    0    0  501    0  0.00000000000E+00  0.00000000000E+00  0.12600413056E+04  0.12600413056E+04  0.25500000920E-02 0. -1.
       -2   -1    0    0    0  501  0.00000000000E+00  0.00000000000E+00 -0.12422786773E+04  0.12422786773E+04  0.25500000920E-02 0.  1.
    10030    2    1    2    0    0  0.00000000000E+00  0.00000000000E+00  0.17762628259E+02  0.25023199829E+04  0.25022569384E+04 0.  0.
        5    1    3    3  502    0 -0.59350826535E+03 -0.10458570436E+04 -0.33642629929E+03  0.12487088378E+04  0.46999998093E+01 0.  1.
       -5    1    3    3    0  502  0.59350826535E+03  0.10458570436E+04  0.35418892755E+03  0.12536111451E+04  0.46999998093E+01 0. -1.
</event>
<event>
 5   0  0.3873231E-07  0.2500027E+04  0.7818609E-02  0.8402976E-01
       -1   -1    0    0    0  501  0.00000000000E+00  0.00000000000E+00  0.14648066712E+04  0.14648066712E+04  0.50400001928E-02 0. -1.
        1   -1    0    0  501    0  0.00000000000E+00  0.00000000000E+00 -0.10667171188E+04  0.10667171188E+04  0.50400001928E-02 0.  1.
    10030    2    1    2    0    0  0.00000000000E+00  0.00000000000E+00  0.39808955246E+03  0.25315237900E+04  0.25000274814E+04 0.  0.
        2    1    3    3  502    0  0.79595523618E+03 -0.95665036930E+03  0.80049666605E+02  0.12470495645E+04  0.25500000920E-02 0.  1.
       -2    1    3    3    0  502 -0.79595523618E+03  0.95665036930E+03  0.31803988585E+03  0.12844742255E+04  0.25500000920E-02 0. -1.
</event>
<event>
 5   0  0.8997210E-07  0.2500957E+04  0.7818609E-02  0.8402645E-01
        2   -1    0    0  501    0  0.00000000000E+00  0.00000000000E+00  0.19234178988E+04  0.19234178988E+04  0.25500000920E-02 0.  1.
       -2   -1    0    0    0  501  0.00000000000E+00  0.00000000000E+00 -0.81297796156E+03  0.81297796156E+03  0.25500000920E-02 0. -1.
    10030    2    1    2    0    0  0.00000000000E+00  0.00000000000E+00  0.11104399373E+04  0.27363958604E+04  0.25009569070E+04 0.  0.
        1    1    3    3  502    0 -0.74271249335E+03 -0.22933918647E+03 -0.51652200214E+03  0.93328092713E+03  0.50400001928E-02 0.  1.
       -1    1    3    3    0  502  0.74271249335E+03  0.22933918647E+03  0.16269619394E+04  0.18031149333E+04  0.50400001928E-02 0. -1.
</event>
<event>
 5   0  0.3837524E-07  0.2500316E+04  0.7818609E-02  0.8402873E-01
        1   -1    0    0  501    0  0.00000000000E+00  0.00000000000E+00  0.13883758790E+04  0.13883758790E+04  0.50400001928E-02 0. -1.
       -1   -1    0    0    0  501  0.00000000000E+00  0.00000000000E+00 -0.11257006075E+04  0.11257006075E+04  0.50400001928E-02 0.  1.
    10030    2    1    2    0    0  0.00000000000E+00  0.00000000000E+00  0.26267527147E+03  0.25140764865E+04  0.25003164363E+04 0.  0.
        5    1    3    3  502    0  0.13851400839E+03 -0.79541874839E+02 -0.11153893533E+04  0.11267779461E+04  0.46999998093E+01 0.  1.
       -5    1    3    3    0  502 -0.13851400839E+03  0.79541874839E+02  0.13780646247E+04  0.13872985404E+04  0.46999998093E+01 0. -1.
</event>
<event>
 5   0  0.3873231E-07  0.2503411E+04  0.7818609E-02  0.8401771E-01
        1   -1    0    0  501    0  0.00000000000E+00  0.00000000000E+00  0.10403897923E+04  0.10403897923E+04  0.50400001928E-02 0.  1.
       -1   -1    0    0    0  501  0.00000000000E+00  0.00000000000E+00 -0.15059422757E+04  0.15059422757E+04  0.50400001928E-02 0. -1.
    10030    2    1    2    0    0  0.00000000000E+00  0.00000000000E+00 -0.46555248342E+03  0.25463320680E+04  0.25034112498E+04 0.  0.
        2    1    3    3  502    0  0.88665955982E+03 -0.47192203851E+03  0.52695094508E+03  0.11342631458E+04  0.25500000920E-02 0.  1.
       -2    1    3    3    0  502 -0.88665955982E+03  0.47192203851E+03 -0.99250342850E+03  0.14120689222E+04  0.25500000920E-02 0. -1.
</event>
<event>
 5   0  0.9508784E-07  0.2499049E+04  0.7818609E-02  0.8403324E-01
        2   -1    0    0  501    0  0.00000000000E+00  0.00000000000E+00  0.15079813598E+04  0.15079813598E+04  0.25500000920E-02 0.  1.
       -2   -1    0    0    0  501  0.00000000000E+00  0.00000000000E+00 -0.10353654048E+04  0.10353654048E+04  0.25500000920E-02 0. -1.
    10030    2    1    2    0    0  0.00000000000E+00  0.00000000000E+00  0.47261595507E+03  0.25433467646E+04  0.24990492040E+04 0.  0.
        2    1    3    3  502    0 -0.98686407903E+02 -0.88098058736E+03  0.11325112589E+04  0.14382098435E+04  0.25500000920E-02 0.  1.
       -2    1    3    3    0  502  0.98686407903E+02  0.88098058736E+03 -0.65989530382E+03  0.11051369211E+04  0.25500000920E-02 0. -1.
</event>
<event>
 5   0  0.9508784E-07  0.2500507E+04  0.7818609E-02  0.8402805E-01
        2   -1    0    0  501    0  0.00000000000E+00  0.00000000000E+00  0.25277950354E+04  0.25277950354E+04  0.25500000920E-02 0. -1.
       -2   -1    0    0    0  501  0.00000000000E+00  0.00000000000E+00 -0.61837854758E+03  0.61837854758E+03  0.25500000920E-02 0.  1.
    10030    2    1    2    0    0  0.00000000000E+00  0.00000000000E+00  0.19094164878E+04  0.31461735829E+04  0.25005073266E+04 0.  0.
        2    1    3    3  502    0 -0.24874818816E+03  0.94796328022E+03 -0.22029174838E+02  0.98030369086E+03  0.25500000920E-02 0.  1.
       -2    1    3    3    0  502  0.24874818816E+03 -0.94796328022E+03  0.19314456626E+04  0.21658698921E+04  0.25500000920E-02 0. -1.
</event>
<event>
 5   0  0.9261602E-07  0.2499350E+04  0.7818609E-02  0.8403217E-01
        2   -1    0    0  501    0  0.00000000000E+00  0.00000000000E+00  0.14481940627E+04  0.14481940627E+04  0.25500000920E-02 0.  1.
       -2   -1    0    0    0  501  0.00000000000E+00  0.00000000000E+00 -0.10783693994E+04  0.10783693994E+04  0.25500000920E-02 0. -1.
    10030    2    1    2    0    0  0.00000000000E+00  0.00000000000E+00  0.36982466336E+03  0.25265634621E+04  0.24993504449E+04 0.  0.
        4    1    3    3  502    0  0.11644207366E+04 -0.45145736541E+02 -0.27141461971E+03  0.11964870656E+04  0.12699999809E+01 0.  1.
       -4    1    3    3    0  502 -0.11644207366E+04  0.45145736541E+02  0.64123928306E+03  0.13300763965E+04  0.12699999809E+01 0. -1.
</event>
<event>
 5   0  0.9508784E-07  0.2505952E+04  0.7818609E-02  0.8400868E-01
       -2   -1    0    0    0  501  0.00000000000E+00  0.00000000000E+00  0.10655439233E+04  0.10655439233E+04  0.25500000920E-02 0. -1.
        2   -1    0    0  501    0  0.00000000000E+00  0.00000000000E+00 -0.14733773745E+04  0.14733773745E+04  0.25500000920E-02 0.  1.
    10030    2    1    2    0    0  0.00000000000E+00  0.00000000000E+00 -0.40783345121E+03  0.25389212977E+04  0.25059515622E+04 0.  0.
        2    1    3    3  502    0 -0.82034345820E+03  0.46902474653E+03 -0.10375424872E+04  0.14033680967E+04  0.25500000920E-02 0.  1.
       -2    1    3    3    0  502  0.82034345820E+03 -0.46902474653E+03  0.62970903596E+03  0.11355532010E+04  0.25500000920E-02 0. -1.
</event>
<event>
 5   0  0.9508784E-07  0.2497700E+04  0.7818609E-02  0.8403805E-01
        2   -1    0    0  501    0  0.00000000000E+00  0.00000000000E+00  0.30544028842E+04  0.30544028842E+04  0.25500000920E-02 0.  1.
       -2   -1    0    0    0  501  0.00000000000E+00  0.00000000000E+00 -0.51061595329E+03  0.51061595329E+03  0.25500000920E-02 0. -1.
    10030    2    1    2    0    0  0.00000000000E+00  0.00000000000E+00  0.25437869309E+04  0.35650188375E+04  0.24977004148E+04 0.  0.
        2    1    3    3  502    0  0.41481489926E+03  0.10365724825E+04  0.47326600209E+03  0.12126560192E+04  0.25500000920E-02 0. -1.
       -2    1    3    3    0  502 -0.41481489926E+03 -0.10365724825E+04  0.20705209289E+04  0.23523628183E+04  0.25500000920E-02 0.  1.
</event>
<event>
 5   0  0.9768582E-07  0.2499430E+04  0.7818609E-02  0.8403189E-01
        2   -1    0    0  501    0  0.00000000000E+00  0.00000000000E+00  0.15274465168E+04  0.15274465168E+04  0.25500000920E-02 0. -1.
       -2   -1    0    0    0  501  0.00000000000E+00  0.00000000000E+00 -0.10224825879E+04  0.10224825879E+04  0.25500000920E-02 0.  1.
    10030    2    1    2    0    0  0.00000000000E+00  0.00000000000E+00  0.50496392891E+03  0.25499291047E+04  0.24994299089E+04 0.  0.
        3    1    3    3  502    0  0.11354935642E+04  0.40347943436E+02  0.78339402640E+03  0.13801013737E+04  0.10100000352E+00 0. -1.
       -3    1    3    3    0  502 -0.11354935642E+04 -0.40347943436E+02 -0.27843009748E+03  0.11698277310E+04  0.10100000352E+00 0.  1.
</event>
<event>
 5   0  0.3805418E-07  0.2499625E+04  0.7818609E-02  0.8403119E-01
        1   -1    0    0  501    0  0.00000000000E+00  0.00000000000E+00  0.65204229529E+03  0.65204229531E+03  0.50400001928E-02 0.  1.
       -1   -1    0    0    0  501  0.00000000000E+00  0.00000000000E+00 -0.23955976738E+04  0.23955976738E+04  0.50400001928E-02 0. -1.
    10030    2    1    2    0    0  0.00000000000E+00  0.00000000000E+00 -0.17435553785E+04  0.30476399691E+04  0.24996247765E+04 0.  0.
        4    1    3    3  502    0 -0.10994258350E+04 -0.31580694502E+03 -0.14857201487E+04  0.18750565768E+04  0.12699999809E+01 0. -1.
       -4    1    3    3    0  502  0.10994258350E+04  0.31580694502E+03 -0.25783522976E+03  0.11725833922E+04  0.12699999809E+01 0.  1.
</event>
<event>
 5   0  0.3991066E-07  0.2508733E+04  0.7818609E-02  0.8399881E-01
        1   -1    0    0  501    0  0.00000000000E+00  0.00000000000E+00  0.11720787988E+04  0.11720787988E+04  0.50400001928E-02 0.  1.
       -1   -1    0    0    0  501  0.00000000000E+00  0.00000000000E+00 -0.13424318168E+04  0.13424318168E+04  0.50400001928E-02 0. -1.
    10030    2    1    2    0    0  0.00000000000E+00  0.00000000000E+00 -0.17035301805E+03  0.25145106156E+04  0.25087334425E+04 0.  0.
        1    1    3    3  502    0 -0.83806642638E+03 -0.85844135085E+03 -0.45229717599E+03  0.12821269919E+04  0.50400001928E-02 0.  1.
       -1    1    3    3    0  502  0.83806642638E+03  0.85844135085E+03  0.28194415794E+03  0.12323836238E+04  0.50400001928E-02 0. -1.
</event>
<event>
 5   0  0.3972587E-07  0.2500100E+04  0.7818609E-02  0.8402950E-01
        1   -1    0    0  501    0  0.00000000000E+00  0.00000000000E+00  0.21880125845E+04  0.21880125845E+04  0.50400001928E-02 0.  1.
       -1   -1    0    0    0  501  0.00000000000E+00  0.00000000000E+00 -0.71417543477E+03  0.71417543479E+03  0.50400001928E-02 0. -1.
    10030    2    1    2    0    0  0.00000000000E+00  0.00000000000E+00  0.14738371497E+04  0.29021880193E+04  0.25000998691E+04 0.  0.
        3    1    3    3  502    0 -0.80686230875E+03 -0.92858039479E+03  0.99475978360E+03  0.15820351994E+04  0.10100000352E+00 0.  1.
       -3    1    3    3    0  502  0.80686230875E+03  0.92858039479E+03  0.47907736609E+03  0.13201528199E+04  0.10100000352E+00 0. -1.
</event>
<event>
 5   0  0.3873231E-07  0.2497156E+04  0.7818609E-02  0.8403999E-01
       -1   -1    0    0    0  501  0.00000000000E+00  0.00000000000E+00  0.66560066063E+03  0.66560066065E+03  0.50400001928E-02 0.  1.
        1   -1    0    0  501    0  0.00000000000E+00  0.00000000000E+00 -0.23421665097E+04  0.23421665097E+04  0.50400001928E-02 0. -1.
    10030    2    1    2    0    0  0.00000000000E+00  0.00000000000E+00 -0.16765658490E+04  0.30077671703E+04  0.24971564438E+04 0.  0.
        2    1    3    3  502    0 -0.11848992237E+04  0.25817341643E+03 -0.11962130268E+04  0.17033981592E+04  0.25500000920E-02 0. -1.
       -2    1    3    3    0  502  0.11848992237E+04 -0.25817341643E+03 -0.48035282221E+03  0.13043690111E+04  0.25500000920E-02 0.  1.
</event>
<event>
 5   0  0.3991066E-07  0.2499213E+04  0.7818609E-02  0.8403266E-01
       -1   -1    0    0    0  501  0.00000000000E+00  0.00000000000E+00  0.15282828135E+04  0.15282828135E+04  0.50400001928E-02 0. -1.
        1   -1    0    0  501    0  0.00000000000E+00  0.00000000000E+00 -0.10217457697E+04  0.10217457698E+04  0.50400001928E-02 0.  1.
    10030    2    1    2    0    0  0.00000000000E+00  0.00000000000E+00  0.50653704375E+03  0.25500285832E+04  0.24992130759E+04 0.  0.
        1    1    3    3  502    0  0.47933531725E+03  0.11403007345E+04  0.43426870451E+03  0.13109681229E+04  0.50400001928E-02 0.  1.
       -1    1    3    3    0  502 -0.47933531725E+03 -0.11403007345E+04  0.72268339235E+02  0.12390604603E+04  0.50400001928E-02 0. -1.
</event>
<event>
 5   0  0.9261602E-07  0.2501069E+04  0.7818609E-02  0.8402605E-01
        2   -1    0    0  501    0  0.00000000000E+00  0.00000000000E+00  0.15559980522E+04  0.15559980522E+04  0.25500000920E-02 0.  1.
       -2   -1    0    0    0  501  0.00000000000E+00  0.00000000000E+00 -0.10050379909E+04  0.10050379909E+04  0.25500000920E-02 0. -1.
    10030    2    1    2    0    0  0.00000000000E+00  0.00000000000E+00  0.55096006129E+03  0.25610360431E+04  0.25010694962E+04 0.  0.
        4    1    3    3  502    0 -0.30570361175E+03  0.86312141337E+03  0.11476063371E+04  0.14681400445E+04  0.12699999809E+01 0. -1.
       -4    1    3    3    0  502  0.30570361175E+03 -0.86312141337E+03 -0.59664627576E+03  0.10928959986E+04  0.12699999809E+01 0.  1.
</event>
<event>
 5   0  0.9261602E-07  0.2499735E+04  0.7818609E-02  0.8403080E-01
       -2   -1    0    0    0  501  0.00000000000E+00  0.00000000000E+00  0.12310285539E+04  0.12310285539E+04  0.25500000920E-02 0.  1.
        2   -1    0    0  501    0  0.00000000000E+00  0.00000000000E+00 -0.12689951778E+04  0.12689951778E+04  0.25500000920E-02 0. -1.
    10030    2    1    2    0    0  0.00000000000E+00  0.00000000000E+00 -0.37966623915E+02  0.25000237317E+04  0.24997354249E+04 0.  0.
        4    1    3    3  502    0 -0.11352328925E+04 -0.52037473464E+03 -0.70215201369E+02  0.12507898992E+04  0.12699999809E+01 0.  1.
       -4    1    3    3    0  502  0.11352328925E+04  0.52037473464E+03  0.32248577453E+02  0.12492338325E+04  0.12699999809E+01 0. -1.
</event>
<event>
 5   0  0.9508784E-07  0.2498799E+04  0.7818609E-02  0.8403413E-01
        2   -1    0    0  501    0  0.00000000000E+00  0.00000000000E+00  0.16709678533E+04  0.16709678533E+04  0.25500000920E-02 0. -1.
       -2   -1    0    0    0  501  0.00000000000E+00  0.00000000000E+00 -0.93418878662E+03  0.93418878662E+03  0.25500000920E-02 0.  1.
    10030    2    1    2    0    0  0.00000000000E+00  0.00000000000E+00  0.73677906671E+03  0.26051566400E+04  0.24987992568E+04 0.  0.
        2    1    3    3  502    0  0.58105047294E+03 -0.79560726363E+03  0.11694615309E+04  0.15291340171E+04  0.25500000920E-02 0. -1.
       -2    1    3    3    0  502 -0.58105047294E+03  0.79560726363E+03 -0.43268246418E+03  0.10760226228E+04  0.25500000920E-02 0.  1.
</event>
<event>
 5   0  0.3214375E-07  0.2498740E+04  0.7818609E-02  0.8403435E-01
        3   -1    0    0  501    0  0.00000000000E+00  0.00000000000E+00  0.22764412048E+04  0.22764412070E+04  0.10100000352E+00 0. -1.
       -3   -1    0    0    0  501  0.00000000000E+00  0.00000000000E+00 -0.68568665257E+03  0.68568666000E+03  0.10100000352E+00 0.  1.
    10030    2    1    2    0    0  0.00000000000E+00  0.00000000000E+00  0.15907545522E+04  0.29621278670E+04  0.24987399735E+04 0.  0.
        2    1    3    3  502    0 -0.67599407743E+03  0.70044619896E+03  0.17237678540E+04  0.19796384733E+04  0.25500000920E-02 0. -1.
       -2    1    3    3    0  502  0.67599407743E+03 -0.70044619896E+03 -0.13301330179E+03  0.98248939375E+03  0.25500000920E-02 0.  1.
</event>
<event>
 5   0  0.3805418E-07  0.2497625E+04  0.7818609E-02  0.8403832E-01
       -1   -1    0    0    0  501  0.00000000000E+00  0.00000000000E+00  0.23090091854E+04  0.23090091854E+04  0.50400001928E-02 0. -1.
        1   -1    0    0  501    0  0.00000000000E+00  0.00000000000E+00 -0.67541219304E+03  0.67541219306E+03  0.50400001928E-02 0.  1.
    10030    2    1    2    0    0  0.00000000000E+00  0.00000000000E+00  0.16335969924E+04  0.29844213785E+04  0.24976252383E+04 0.  0.
        4    1    3    3  502    0  0.70651966122E+03 -0.29958252453E+03 -0.36041602931E+03  0.84783314855E+03  0.12699999809E+01 0.  1.
       -4    1    3    3    0  502 -0.70651966122E+03  0.29958252453E+03  0.19940130217E+04  0.21365882299E+04  0.12699999809E+01 0. -1.
</event>
<event>
 5   0  0.3972587E-07  0.2499519E+04  0.7818609E-02  0.8403157E-01
        1   -1    0    0  501    0  0.00000000000E+00  0.00000000000E+00  0.15735474642E+04  0.15735474642E+04  0.50400001928E-02 0. -1.
       -1   -1    0    0    0  501  0.00000000000E+00  0.00000000000E+00 -0.99259718842E+03  0.99259718843E+03  0.50400001928E-02 0.  1.
    10030    2    1    2    0    0  0.00000000000E+00  0.00000000000E+00  0.58095027580E+03  0.25661446527E+04  0.24995189848E+04 0.  0.
        3    1    3    3  502    0  0.10827428547E+04 -0.11628610597E+03  0.92004533226E+03  0.14256009159E+04  0.10100000352E+00 0. -1.
       -3    1    3    3    0  502 -0.10827428547E+04  0.11628610597E+03 -0.33909505646E+03  0.11405437367E+04  0.10100000352E+00 0.  1.
</event>
<event>
 5   0  0.3805418E-07  0.2507188E+04  0.7818609E-02  0.8400429E-01
        1   -1    0    0  501    0  0.00000000000E+00  0.00000000000E+00  0.17111496921E+04  0.17111496921E+04  0.50400001928E-02 0.  1.
       -1   -1    0    0    0  501  0.00000000000E+00  0.00000000000E+00 -0.91838716142E+03  0.91838716144E+03  0.50400001928E-02 0. -1.
    10030    2    1    2    0    0  0.00000000000E+00  0.00000000000E+00  0.79276253064E+03  0.26295368535E+04  0.25071879933E+04 0.  0.
        4    1    3    3  502    0 -0.37128017853E+03  0.11878542078E+04  0.23853887730E+03  0.12671815178E+04  0.12699999809E+01 0.  1.
       -4    1    3    3    0  502  0.37128017853E+03 -0.11878542078E+04  0.55422365334E+03  0.13623553358E+04  0.12699999809E+01 0. -1.
</event>
<event>
 5   0  0.3805418E-07  0.2499595E+04  0.7818609E-02  0.8403130E-01
       -1   -1    0    0    0  501  0.00000000000E+00  0.00000000000E+00  0.84587418548E+03  0.84587418549E+03  0.50400001928E-02 0.  1.
        1   -1    0    0  501    0  0.00000000000E+00  0.00000000000E+00 -0.18466036651E+04  0.18466036651E+04  0.50400001928E-02 0. -1.
    10030    2    1    2    0    0  0.00000000000E+00  0.00000000000E+00 -0.10007294796E+04  0.26924778506E+04  0.24995954642E+04 0.  0.
        4    1    3    3  502    0  0.85127626200E+02  0.14686226162E+03 -0.18341276402E+04  0.18419666257E+04  0.12699999809E+01 0. -1.
       -4    1    3    3    0  502 -0.85127626200E+02 -0.14686226162E+03  0.83339816062E+03  0.85051122489E+03  0.12699999809E+01 0.  1.
</event>
<event>
 5   0  0.8997210E-07  0.2500296E+04  0.7818609E-02  0.8402880E-01
        2   -1    0    0  501    0  0.00000000000E+00  0.00000000000E+00  0.11230169625E+04  0.11230169625E+04  0.25500000920E-02 0.  1.
       -2   -1    0    0    0  501  0.00000000000E+00  0.00000000000E+00 -0.13916713673E+04  0.13916713673E+04  0.25500000920E-02 0. -1.
    10030    2    1    2    0    0  0.00000000000E+00  0.00000000000E+00 -0.26865440484E+03  0.25146883298E+04  0.25002964238E+04 0.  0.
        1    1    3    3  502    0 -0.59561263933E+02  0.63528988641E+03 -0.12155639969E+04  0.13728570991E+04  0.50400001928E-02 0. -1.
       -1    1    3    3    0  502  0.59561263933E+02 -0.63528988641E+03  0.94690959204E+03  0.11418312307E+04  0.50400001928E-02 0.  1.
</event>
<event>
 5   0  0.9508784E-07  0.2509059E+04  0.7818609E-02  0.8399765E-01
        2   -1    0    0  501    0  0.00000000000E+00  0.00000000000E+00  0.13426875797E+04  0.13426875797E+04  0.25500000920E-02 0.  1.
       -2   -1    0    0    0  501  0.00000000000E+00  0.00000000000E+00 -0.11721596729E+04  0.11721596729E+04  0.25500000920E-02 0. -1.
    10030    2    1    2    0    0  0.00000000000E+00  0.00000000000E+00  0.17052790681E+03  0.25148472526E+04  0.25090589744E+04 0.  0.
        2    1    3    3  502    0  0.10272606700E+04  0.43562570706E+03  0.66000636622E+03  0.12963960214E+04  0.25500000920E-02 0.  1.
       -2    1    3    3    0  502 -0.10272606700E+04 -0.43562570706E+03 -0.48947845940E+03  0.12184512313E+04  0.25500000920E-02 0. -1.
</event>
<event>
 5   0  0.9768582E-07  0.2499321E+04  0.7818609E-02  0.8403228E-01
        2   -1    0    0  501    0  0.00000000000E+00  0.00000000000E+00  0.11281436069E+04  0.11281436069E+04  0.25500000920E-02 0. -1.
       -2   -1    0    0    0  501  0.00000000000E+00  0.00000000000E+00 -0.13842662505E+04  0.13842662505E+04  0.25500000920E-02 0.  1.
    10030    2    1    2    0    0  0.00000000000E+00  0.00000000000E+00 -0.25612264361E+03  0.25124098574E+04  0.24993208043E+04 0.  0.
        3    1    3    3  502    0  0.10435191721E+04  0.68247415323E+03 -0.44270860095E+02  0.12476630761E+04  0.10100000352E+00 0.  1.
       -3    1    3    3    0  502 -0.10435191721E+04 -0.68247415323E+03 -0.21185178352E+03  0.12647467812E+04  0.10100000352E+00 0. -1.
</event>
<event>
 5   0  0.9251138E-07  0.2499283E+04  0.7818609E-02  0.8403241E-01
        2   -1    0    0  501    0  0.00000000000E+00  0.00000000000E+00  0.11315209188E+04  0.11315209188E+04  0.25500000920E-02 0. -1.
       -2   -1    0    0    0  501  0.00000000000E+00  0.00000000000E+00 -0.13800927311E+04  0.13800927311E+04  0.25500000920E-02 0.  1.
    10030    2    1    2    0    0  0.00000000000E+00  0.00000000000E+00 -0.24857181227E+03  0.25116136499E+04  0.24992829333E+04 0.  0.
        5    1    3    3  502    0  0.18857904507E+03 -0.80154943601E+03  0.82031871201E+03  0.11623202802E+04  0.46999998093E+01 0. -1.
       -5    1    3    3    0  502 -0.18857904507E+03  0.80154943601E+03 -0.10688905243E+04  0.13492933697E+04  0.46999998093E+01 0.  1.
</event>
<event>
 5   0  0.3837524E-07  0.2499528E+04  0.7818609E-02  0.8403154E-01
        1   -1    0    0  501    0  0.00000000000E+00  0.00000000000E+00  0.21664390679E+04  0.21664390679E+04  0.50400001928E-02 0. -1.
       -1   -1    0    0    0  501  0.00000000000E+00  0.00000000000E+00 -0.72095747212E+03  0.72095747213E+03  0.50400001928E-02 0.  1.
    10030    2    1    2    0    0  0.00000000000E+00  0.00000000000E+00  0.14454815958E+04  0.28873965400E+04  0.24995283026E+04 0.  0.
        5    1    3    3  502    0 -0.29074441084E+03 -0.97492141483E+03 -0.11576484192E+03  0.10239275688E+04  0.46999998093E+01 0.  1.
       -5    1    3    3    0  502  0.29074441084E+03  0.97492141483E+03  0.15612464377E+04  0.18634689712E+04  0.46999998093E+01 0. -1.
</event>
<event>
 5   0  0.3873231E-07  0.2499516E+04  0.7818609E-02  0.8403158E-01
        1   -1    0    0  501    0  0.00000000000E+00  0.00000000000E+00  0.13411197397E+04  0.13411197397E+04  0.50400001928E-02 0.  1.
       -1   -1    0    0    0  501  0.00000000000E+00  0.00000000000E+00 -0.11646200252E+04  0.11646200252E+04  0.50400001928E-02 0. -1.
    10030    2    1    2    0    0  0.00000000000E+00  0.00000000000E+00  0.17649971447E+03  0.25057397649E+04  0.24995158771E+04 0.  0.
        2    1    3    3  502    0 -0.80131142465E+03  0.48510632887E+03 -0.74113527332E+03  0.11944495146E+04  0.25500000920E-02 0. -1.
       -2    1    3    3    0  502  0.80131142465E+03 -0.48510632887E+03  0.91763498779E+03  0.13112902503E+04  0.25500000920E-02 0.  1.
</event>
<event>
 5   0  0.3837524E-07  0.2499646E+04  0.7818609E-02  0.8403112E-01
        1   -1    0    0  501    0  0.00000000000E+00  0.00000000000E+00  0.70476378027E+03  0.70476378029E+03  0.50400001928E-02 0. -1.
       -1   -1    0    0    0  501  0.00000000000E+00  0.00000000000E+00 -0.22164262618E+04  0.22164262618E+04  0.50400001928E-02 0.  1.
    10030    2    1    2    0    0  0.00000000000E+00  0.00000000000E+00 -0.15116624815E+04  0.29211900421E+04  0.24996455357E+04 0.  0.
        5    1    3    3  502    0  0.26228738075E+03 -0.10679356868E+04 -0.14499233170E+04  0.18197749906E+04  0.46999998093E+01 0.  1.
       -5    1    3    3    0  502 -0.26228738075E+03  0.10679356868E+04 -0.61739164502E+02  0.11014150515E+04  0.46999998093E+01 0. -1.
</event>
<event>
 5   0  0.9508784E-07  0.2498104E+04  0.7818609E-02  0.8403661E-01
       -2   -1    0    0    0  501  0.00000000000E+00  0.00000000000E+00  0.95841266863E+03  0.95841266864E+03  0.25500000920E-02 0. -1.
        2   -1    0    0  501    0  0.00000000000E+00  0.00000000000E+00 -0.16278285247E+04  0.16278285247E+04  0.25500000920E-02 0.  1.
    10030    2    1    2    0    0  0.00000000000E+00  0.00000000000E+00 -0.66941585607E+03  0.25862411933E+04  0.24981044657E+04 0.  0.
        2    1    3    3  502    0  0.24188382833E+02 -0.17156905129E+03  0.94591071980E+03  0.96164864013E+03  0.25500000920E-02 0. -1.
       -2    1    3    3    0  502 -0.24188382833E+02  0.17156905129E+03 -0.16153265759E+04  0.16245925532E+04  0.25500000920E-02 0.  1.
</event>
<event>
 5   0  0.8997210E-07  0.2500323E+04  0.7818609E-02  0.8402870E-01
        2   -1    0    0  501    0  0.00000000000E+00  0.00000000000E+00  0.19689395561E+04  0.19689395561E+04  0.25500000920E-02 0.  1.
       -2   -1    0    0    0  501  0.00000000000E+00  0.00000000000E+00 -0.79377976463E+03  0.79377976463E+03  0.25500000920E-02 0. -1.
    10030    2    1    2    0    0  0.00000000000E+00  0.00000000000E+00  0.11751597915E+04  0.27627193207E+04  0.25003234810E+04 0.  0.
        1    1    3    3  502    0 -0.11962234176E+04  0.36278510834E+03  0.56717943864E+03  0.13726820518E+04  0.50400001928E-02 0. -1.
       -1    1    3    3    0  502  0.11962234176E+04 -0.36278510834E+03  0.60798035282E+03  0.13900372689E+04  0.50400001928E-02 0.  1.
</event>
<event>
 5   0  0.8997210E-07  0.2499900E+04  0.7818609E-02  0.8403021E-01
        2   -1    0    0  501    0  0.00000000000E+00  0.00000000000E+00  0.18539452397E+04  0.18539452398E+04  0.25500000920E-02 0. -1.
       -2   -1    0    0    0  501  0.00000000000E+00  0.00000000000E+00 -0.84272960768E+03  0.84272960769E+03  0.25500000920E-02 0.  1.
    10030    2    1    2    0    0  0.00000000000E+00  0.00000000000E+00  0.10112156321E+04  0.26966748474E+04  0.24998996336E+04 0.  0.
        1    1    3    3  502    0 -0.55837262532E+03 -0.23131972949E+03 -0.67462759267E+03  0.90576552970E+03  0.50400001928E-02 0.  1.
       -1    1    3    3    0  502  0.55837262532E+03  0.23131972949E+03  0.16858432247E+04  0.17909093177E+04  0.50400001928E-02 0. -1.
</event>
<event>
 5   0  0.9768582E-07  0.2500266E+04  0.7818609E-02  0.8402891E-01
        2   -1    0    0  501    0  0.00000000000E+00  0.00000000000E+00  0.16356836891E+04  0.16356836891E+04  0.25500000920E-02 0.  1.
       -2   -1    0    0    0  501  0.00000000000E+00  0.00000000000E+00 -0.95546155025E+03  0.95546155025E+03  0.25500000920E-02 0. -1.
    10030    2    1    2    0    0  0.00000000000E+00  0.00000000000E+00  0.68022213881E+03  0.25911452393E+04  0.25002662844E+04 0.  0.
        3    1    3    3  502    0 -0.41345793922E+03  0.11263065099E+04 -0.23821197291E+02  0.12000338667E+04  0.10100000352E+00 0.  1.
       -3    1    3    3    0  502  0.41345793922E+03 -0.11263065099E+04  0.70404333610E+03  0.13911113726E+04  0.10100000352E+00 0. -1.
</event>
<event>
 5   0  0.3805418E-07  0.2500690E+04  0.7818609E-02  0.8402740E-01
       -1   -1    0    0    0  501  0.00000000000E+00  0.00000000000E+00  0.13024737213E+04  0.13024737213E+04  0.50400001928E-02 0.  1.
        1   -1    0    0  501    0  0.00000000000E+00  0.00000000000E+00 -0.12003025612E+04  0.12003025613E+04  0.50400001928E-02 0. -1.
    10030    2    1    2    0    0  0.00000000000E+00  0.00000000000E+00  0.10217116009E+03  0.25027762826E+04  0.25006899398E+04 0.  0.
        4    1    3    3  502    0 -0.74652599458E+03 -0.89147626046E+03  0.51117548694E+03  0.12701704511E+04  0.12699999809E+01 0.  1.
       -4    1    3    3    0  502  0.74652599458E+03  0.89147626046E+03 -0.40900432684E+03  0.12326058315E+04  0.12699999809E+01 0. -1.
</event>
<event>
 5   0  0.8997210E-07  0.2498927E+04  0.7818609E-02  0.8403368E-01
        2   -1    0    0  501    0  0.00000000000E+00  0.00000000000E+00  0.20130194285E+04  0.20130194285E+04  0.25500000920E-02 0. -1.
       -2   -1    0    0    0  501  0.00000000000E+00  0.00000000000E+00 -0.77553105527E+03  0.77553105528E+03  0.25500000920E-02 0.  1.
    10030    2    1    2    0    0  0.00000000000E+00  0.00000000000E+00  0.12374883732E+04  0.27885504837E+04  0.24989270351E+04 0.  0.
        1    1    3    3  502    0 -0.58147495193E+02 -0.93867592258E+03  0.15366792112E+04  0.18016316541E+04  0.50400001928E-02 0. -1.
       -1    1    3    3    0  502  0.58147495193E+02  0.93867592258E+03 -0.29919083798E+03  0.98691882969E+03  0.50400001928E-02 0.  1.
</event>
<event>
 5   0  0.3873231E-07  0.2500492E+04  0.7818609E-02  0.8402810E-01
        1   -1    0    0  501    0  0.00000000000E+00  0.00000000000E+00  0.16394048249E+04  0.16394048249E+04  0.50400001928E-02 0.  1.
       -1   -1    0    0    0  501  0.00000000000E+00  0.00000000000E+00 -0.95346530166E+03  0.95346530167E+03  0.50400001928E-02 0. -1.
    10030    2    1    2    0    0  0.00000000000E+00  0.00000000000E+00  0.68593952327E+03  0.25928701266E+04  0.25004924443E+04 0.  0.
        2    1    3    3  502    0  0.12475606791E+03 -0.34788701205E+03 -0.89552760814E+03  0.96879262311E+03  0.25500000920E-02 0. -1.
       -2    1    3    3    0  502 -0.12475606791E+03  0.34788701205E+03  0.15814671314E+04  0.16240775035E+04  0.25500000920E-02 0.  1.
</event>
<event>
 5   0  0.9251138E-07  0.2499695E+04  0.7818609E-02  0.8403094E-01
        2   -1    0    0  501    0  0.00000000000E+00  0.00000000000E+00  0.15157696798E+04  0.15157696798E+04  0.25500000920E-02 0. -1.
       -2   -1    0    0    0  501  0.00000000000E+00  0.00000000000E+00 -0.10305780277E+04  0.10305780277E+04  0.25500000920E-02 0.  1.
    10030    2    1    2    0    0  0.00000000000E+00  0.00000000000E+00  0.48519165208E+03  0.25463477075E+04  0.24996951231E+04 0.  0.
        5    1    3    3  502    0 -0.94279024580E+03  0.76753295790E+03 -0.52880716778E+02  0.12168725279E+04  0.46999998093E+01 0.  1.
       -5    1    3    3    0  502  0.94279024580E+03 -0.76753295790E+03  0.53807236886E+03  0.13294751796E+04  0.46999998093E+01 0. -1.
</event>
<event>
 5   0  0.9768582E-07  0.2499775E+04  0.7818609E-02  0.8403066E-01
       -2   -1    0    0    0  501  0.00000000000E+00  0.00000000000E+00  0.11994095835E+04  0.11994095835E+04  0.25500000920E-02 0. -1.
        2   -1    0    0  501    0  0.00000000000E+00  0.00000000000E+00 -0.13024896787E+04  0.13024896787E+04  0.25500000920E-02 0.  1.
    10030    2    1    2    0    0  0.00000000000E+00  0.00000000000E+00 -0.10308009513E+03  0.25018992622E+04  0.24997748723E+04 0.  0.
        3    1    3    3  502    0  0.11167871173E+03  0.32711663162E+03 -0.12537024268E+04  0.13004796079E+04  0.10100000352E+00 0.  1.
       -3    1    3    3    0  502 -0.11167871173E+03 -0.32711663162E+03  0.11506223317E+04  0.12014196543E+04  0.10100000352E+00 0. -1.
</event>
<event>
 5   0  0.3873231E-07  0.2499607E+04  0.7818609E-02  0.8403126E-01
        1   -1    0    0  501    0  0.00000000000E+00  0.00000000000E+00  0.14354778460E+04  0.14354778460E+04  0.50400001928E-02 0. -1.
       -1   -1    0    0    0  501  0.00000000000E+00  0.00000000000E+00 -0.10881451794E+04  0.10881451794E+04  0.50400001928E-02 0.  1.
    10030    2    1    2    0    0  0.00000000000E+00  0.00000000000E+00  0.34733266669E+03  0.25236230254E+04  0.24996066077E+04 0.  0.
        2    1    3    3  502    0  0.14974799250E+03  0.75914621590E+03 -0.81723242159E+03  0.11254315924E+04  0.25500000920E-02 0.  1.
       -2    1    3    3    0  502 -0.14974799250E+03 -0.75914621590E+03  0.11645650883E+04  0.13981914330E+04  0.25500000920E-02 0. -1.
</event>
<event>
 5   0  0.3873231E-07  0.2499993E+04  0.7818609E-02  0.8402988E-01
       -1   -1    0    0    0  501  0.00000000000E+00  0.00000000000E+00  0.12487719375E+04  0.12487719375E+04  0.50400001928E-02 0. -1.
        1   -1    0    0  501    0  0.00000000000E+00  0.00000000000E+00 -0.12512221396E+04  0.12512221396E+04  0.50400001928E-02 0.  1.
    10030    2    1    2    0    0  0.00000000000E+00  0.00000000000E+00 -0.24502021096E+01  0.24999940770E+04  0.24999928763E+04 0.  0.
        2    1    3    3  502    0 -0.97946704751E+03  0.52533636989E+03  0.57075165632E+03  0.12494364537E+04  0.25500000920E-02 0. -1.
       -2    1    3    3    0  502  0.97946704751E+03 -0.52533636989E+03 -0.57320185843E+03  0.12505576233E+04  0.25500000920E-02 0.  1.
</event>
<event>
 5   0  0.3837524E-07  0.2500803E+04  0.7818609E-02  0.8402700E-01
       -1   -1    0    0    0  501  0.00000000000E+00  0.00000000000E+00  0.80739776310E+03  0.80739776311E+03  0.50400001928E-02 0.  1.
        1   -1    0    0  501    0  0.00000000000E+00  0.00000000000E+00 -0.19364728319E+04  0.19364728319E+04  0.50400001928E-02 0. -1.
    10030    2    1    2    0    0  0.00000000000E+00  0.00000000000E+00 -0.11290750688E+04  0.27438705950E+04  0.25008029373E+04 0.  0.
        5    1    3    3  502    0  0.11227893719E+03  0.86691042779E+03  0.41642028531E+03  0.96828105092E+03  0.46999998093E+01 0.  1.
       -5    1    3    3    0  502 -0.11227893719E+03 -0.86691042779E+03 -0.15454953541E+04  0.17755895441E+04  0.46999998093E+01 0. -1.
</event>
<event>
 5   0  0.9508784E-07  0.2499987E+04  0.7818609E-02  0.8402990E-01
        2   -1    0    0  501    0  0.00000000000E+00  0.00000000000E+00  0.20130023118E+04  0.20130023118E+04  0.25500000920E-02 0.  1.
       -2   -1    0    0    0  501  0.00000000000E+00  0.00000000000E+00 -0.77619565105E+03  0.77619565106E+03  0.25500000920E-02 0. -1.
    10030    2    1    2    0    0  0.00000000000E+00  0.00000000000E+00  0.12368066608E+04  0.27891979629E+04  0.24999869120E+04 0.  0.
        2    1    3    3  502    0 -0.31474371622E+03 -0.24496957364E+03 -0.70329967816E+03  0.80851971913E+03  0.25500000920E-02 0. -1.
       -2    1    3    3    0  502  0.31474371622E+03  0.24496957364E+03  0.19401063390E+04  0.19806782438E+04  0.25500000920E-02 0.  1.
</event>
<event>
 5   0  0.9508784E-07  0.2500053E+04  0.7818609E-02  0.8402967E-01
       -2   -1    0    0    0  501  0.00000000000E+00  0.00000000000E+00  0.13623332468E+04  0.13623332468E+04  0.25500000920E-02 0. -1.
        2   -1    0    0  501    0  0.00000000000E+00  0.00000000000E+00 -0.11469778023E+04  0.11469778023E+04  0.25500000920E-02 0.  1.
    10030    2    1    2    0    0  0.00000000000E+00  0.00000000000E+00  0.21535544447E+03  0.25093110491E+04  0.25000527942E+04 0.  0.
        2    1    3    3  502    0 -0.12774326449E+03 -0.95140718573E+03 -0.69595706832E+03  0.11856855467E+04  0.25500000920E-02 0.  1.
       -2    1    3    3    0  502  0.12774326449E+03  0.95140718573E+03  0.91131251279E+03  0.13236255024E+04  0.25500000920E-02 0. -1.
</event>
<event>
 5   0  0.3972587E-07  0.2500114E+04  0.7818609E-02  0.8402945E-01
        1   -1    0    0  501    0  0.00000000000E+00  0.00000000000E+00  0.84440349742E+03  0.84440349744E+03  0.50400001928E-02 0. -1.
       -1   -1    0    0    0  501  0.00000000000E+00  0.00000000000E+00 -0.18505869348E+04  0.18505869348E+04  0.50400001928E-02 0.  1.
    10030    2    1    2    0    0  0.00000000000E+00  0.00000000000E+00 -0.10061834374E+04  0.26949904322E+04  0.25001136614E+04 0.  0.
        3    1    3    3  502    0 -0.10507041150E+04 -0.58194867460E+02  0.22424412626E+03  0.10759420144E+04  0.10100000352E+00 0. -1.
       -3    1    3    3    0  502  0.10507041150E+04  0.58194867460E+02 -0.12304275636E+04  0.16190484179E+04  0.10100000352E+00 0.  1.
</event>
<event>
 5   0  0.9261602E-07  0.2500094E+04  0.7818609E-02  0.8402952E-01
        2   -1    0    0  501    0  0.00000000000E+00  0.00000000000E+00  0.18224810959E+04  0.18224810959E+04  0.25500000920E-02 0.  1.
       -2   -1    0    0    0  501  0.00000000000E+00  0.00000000000E+00 -0.85741232804E+03  0.85741232804E+03  0.25500000920E-02 0. -1.
    10030    2    1    2    0    0  0.00000000000E+00  0.00000000000E+00  0.96506876784E+03  0.26798934239E+04  0.25000942056E+04 0.  0.
        4    1    3    3  502    0 -0.15983943681E+02 -0.12476274362E+04  0.56407366646E+03  0.13693101987E+04  0.12699999809E+01 0.  1.
       -4    1    3    3    0  502  0.15983943681E+02  0.12476274362E+04  0.40099510137E+03  0.13105832253E+04  0.12699999809E+01 0. -1.
</event>
<event>
 5   0  0.3991066E-07  0.2496583E+04  0.7818609E-02  0.8404204E-01
        1   -1    0    0  501    0  0.00000000000E+00  0.00000000000E+00  0.20527234703E+04  0.20527234703E+04  0.50400001928E-02 0.  1.
       -1   -1    0    0    0  501  0.00000000000E+00  0.00000000000E+00 -0.75910427491E+03  0.75910427493E+03  0.50400001928E-02 0. -1.
    10030    2    1    2    0    0  0.00000000000E+00  0.00000000000E+00  0.12936191954E+04  0.28118277453E+04  0.24965825935E+04 0.  0.
        1    1    3    3  502    0  0.33429684943E+03  0.13718570105E+03 -0.69891035663E+03  0.78679729711E+03  0.50400001928E-02 0. -1.
       -1    1    3    3    0  502 -0.33429684943E+03 -0.13718570105E+03  0.19925295520E+04  0.20250304481E+04  0.50400001928E-02 0.  1.
</event>
<event>
 5   0  0.9508784E-07  0.2498917E+04  0.7818609E-02  0.8403371E-01
       -2   -1    0    0    0  501  0.00000000000E+00  0.00000000000E+00  0.87553551896E+03  0.87553551896E+03  0.25500000920E-02 0.  1.
        2   -1    0    0  501    0  0.00000000000E+00  0.00000000000E+00 -0.17830766124E+04  0.17830766124E+04  0.25500000920E-02 0. -1.
    10030    2    1    2    0    0  0.00000000000E+00  0.00000000000E+00 -0.90754109347E+03  0.26586121314E+04  0.24989172913E+04 0.  0.
        2    1    3    3  502    0  0.11411725486E+04 -0.50859080846E+03 -0.46909636483E+03  0.13345376711E+04  0.25500000920E-02 0. -1.
       -2    1    3    3    0  502 -0.11411725486E+04  0.50859080846E+03 -0.43844472864E+03  0.13240744602E+04  0.25500000920E-02 0.  1.
</event>
<event>
 5   0  0.3972587E-07  0.2500092E+04  0.7818609E-02  0.8402953E-01
        1   -1    0    0  501    0  0.00000000000E+00  0.00000000000E+00  0.11407358861E+04  0.11407358861E+04  0.50400001928E-02 0.  1.
       -1   -1    0    0    0  501  0.00000000000E+00  0.00000000000E+00 -0.13698304922E+04  0.13698304922E+04  0.50400001928E-02 0. -1.
    10030    2    1    2    0    0  0.00000000000E+00  0.00000000000E+00 -0.22909460612E+03  0.25105663783E+04  0.25000918386E+04 0.  0.
        3    1    3    3  502    0  0.84787607431E+03  0.12489376661E+03  0.79927770360E+03  0.11718946830E+04  0.10100000352E+00 0.  1.
       -3    1    3    3    0  502 -0.84787607431E+03 -0.12489376661E+03 -0.10283723097E+04  0.13386716954E+04  0.10100000352E+00 0. -1.
</event>
<event>
 5   0  0.8997210E-07  0.2500564E+04  0.7818609E-02  0.8402784E-01
        2   -1    0    0  501    0  0.00000000000E+00  0.00000000000E+00  0.16323828051E+04  0.16323828051E+04  0.25500000920E-02 0. -1.
       -2   -1    0    0    0  501  0.00000000000E+00  0.00000000000E+00 -0.95762196566E+03  0.95762196566E+03  0.25500000920E-02 0.  1.
    10030    2    1    2    0    0  0.00000000000E+00  0.00000000000E+00  0.67476083940E+03  0.25900047707E+04  0.25005644407E+04 0.  0.
        1    1    3    3  502    0  0.54126454775E+03 -0.27973425007E+03 -0.79345208954E+03  0.10003923129E+04  0.50400001928E-02 0.  1.
       -1    1    3    3    0  502 -0.54126454775E+03  0.27973425007E+03  0.14682129289E+04  0.15896124578E+04  0.50400001928E-02 0. -1.
</event>
<event>
 5   0  0.9251138E-07  0.2499320E+04  0.7818609E-02  0.8403228E-01
       -2   -1    0    0    0  501  0.00000000000E+00  0.00000000000E+00  0.78515435853E+03  0.78515435853E+03  0.25500000920E-02 0.  1.
        2   -1    0    0  501    0  0.00000000000E+00  0.00000000000E+00 -0.19889721496E+04  0.19889721496E+04  0.25500000920E-02 0. -1.
    10030    2    1    2    0    0  0.00000000000E+00  0.00000000000E+00 -0.12038177910E+04  0.27741265081E+04  0.24993200293E+04 0.  0.
        5    1    3    3  502    0 -0.69457163403E+03 -0.31205940124E+02  0.55063902090E+03  0.88692107137E+03  0.46999998093E+01 0.  1.
       -5    1    3    3    0  502  0.69457163403E+03  0.31205940124E+02 -0.17544568119E+04  0.18872054367E+04  0.46999998093E+01 0. -1.
</event>
<event>
 5   0  0.3991066E-07  0.2503131E+04  0.7818609E-02  0.8401871E-01
       -1   -1    0    0    0  501  0.00000000000E+00  0.00000000000E+00  0.96575418589E+03  0.96575418590E+03  0.50400001928E-02 0. -1.
        1   -1    0    0  501    0  0.00000000000E+00  0.00000000000E+00 -0.16219616610E+04  0.16219616610E+04  0.50400001928E-02 0.  1.
    10030    2    1    2    0    0  0.00000000000E+00  0.00000000000E+00 -0.65620747515E+03  0.25877158469E+04  0.25031310501E+04 0.  0.
        1    1    3    3  502    0 -0.51719161943E+02 -0.19390183751E+03 -0.16052207179E+04  0.16177163989E+04  0.50400001928E-02 0.  1.
       -1    1    3    3    0  502  0.51719161943E+02  0.19390183751E+03  0.94901324271E+03  0.96999944802E+03  0.50400001928E-02 0. -1.
</event>
<event>
 5   0  0.3805418E-07  0.2500384E+04  0.7818609E-02  0.8402849E-01
        1   -1    0    0  501    0  0.00000000000E+00  0.00000000000E+00  0.14806685367E+04  0.14806685367E+04  0.50400001928E-02 0. -1.
       -1   -1    0    0    0  501  0.00000000000E+00  0.00000000000E+00 -0.10555909162E+04  0.10555909163E+04  0.50400001928E-02 0.  1.
    10030    2    1    2    0    0  0.00000000000E+00  0.00000000000E+00  0.42507762041E+03  0.25362594529E+04  0.25003841763E+04 0.  0.
        4    1    3    3  502    0 -0.96374027210E+03  0.32263642628E+03 -0.52597965957E+03  0.11443538748E+04  0.12699999809E+01 0.  1.
       -4    1    3    3    0  502  0.96374027210E+03 -0.32263642628E+03  0.95105727998E+03  0.13919055781E+04  0.12699999809E+01 0. -1.
</event>
<event>
 5   0  0.3805418E-07  0.2500109E+04  0.7818609E-02  0.8402947E-01
        1   -1    0    0  501    0  0.00000000000E+00  0.00000000000E+00  0.27157714591E+04  0.27157714591E+04  0.50400001928E-02 0.  1.
       -1   -1    0    0    0  501  0.00000000000E+00  0.00000000000E+00 -0.57539292239E+03  0.57539292241E+03  0.50400001928E-02 0. -1.
    10030    2    1    2    0    0  0.00000000000E+00  0.00000000000E+00  0.21403785367E+04  0.32911643815E+04  0.25001085388E+04 0.  0.
        4    1    3    3  502    0 -0.11576193284E+04  0.34920306652E+03  0.14877394104E+04  0.19171320918E+04  0.12699999809E+01 0.  1.
       -4    1    3    3    0  502  0.11576193284E+04 -0.34920306652E+03  0.65263912629E+03  0.13740322897E+04  0.12699999809E+01 0. -1.
</event>
<event>
 5   0  0.9508784E-07  0.2499968E+04  0.7818609E-02  0.8402997E-01
       -2   -1    0    0    0  501  0.00000000000E+00  0.00000000000E+00  0.89002743527E+03  0.89002743527E+03  0.25500000920E-02 0. -1.
        2   -1    0    0  501    0  0.00000000000E+00  0.00000000000E+00 -0.17555187278E+04  0.17555187278E+04  0.25500000920E-02 0.  1.
    10030    2    1    2    0    0  0.00000000000E+00  0.00000000000E+00 -0.86549129257E+03  0.26455461631E+04  0.24999678645E+04 0.  0.
        2    1    3    3  502    0 -0.11529335882E+04  0.24316648566E+03  0.87718443462E+01  0.11783304901E+04  0.25500000920E-02 0.  1.
       -2    1    3    3    0  502  0.11529335882E+04 -0.24316648566E+03 -0.87426313691E+03  0.14672156730E+04  0.25500000920E-02 0. -1.
</event>
<event>
 5   0  0.9508784E-07  0.2511880E+04  0.7818609E-02  0.8398766E-01
       -2   -1    0    0    0  501  0.00000000000E+00  0.00000000000E+00  0.15138425302E+04  0.15138425302E+04  0.25500000920E-02 0. -1.
        2   -1    0    0  501    0  0.00000000000E+00  0.00000000000E+00 -0.10419741963E+04  0.10419741963E+04  0.25500000920E-02 0.  1.
    10030    2    1    2    0    0  0.00000000000E+00  0.00000000000E+00  0.47186833387E+03  0.25558167265E+04  0.25118796578E+04 0.  0.
        2    1    3    3  502    0  0.43396286540E+02  0.12284994849E+04 -0.26039089089E+02  0.12295414821E+04  0.25500000920E-02 0.  1.
       -2    1    3    3    0  502 -0.43396286540E+02 -0.12284994849E+04  0.49790742296E+03  0.13262752444E+04  0.25500000920E-02 0. -1.
</event>
<event>
 5   0  0.9261602E-07  0.2499953E+04  0.7818609E-02  0.8403002E-01
       -2   -1    0    0    0  501  0.00000000000E+00  0.00000000000E+00  0.15863777766E+04  0.15863777766E+04  0.25500000920E-02 0.  1.
        2   -1    0    0  501    0  0.00000000000E+00  0.00000000000E+00 -0.98491137567E+03  0.98491137567E+03  0.25500000920E-02 0. -1.
    10030    2    1    2    0    0  0.00000000000E+00  0.00000000000E+00  0.60146640097E+03  0.25712891523E+04  0.24999532142E+04 0.  0.
        4    1    3    3  502    0  0.51416131617E+03  0.11301982658E+04  0.15264586605E+03  0.12510045373E+04  0.12699999809E+01 0.  1.
       -4    1    3    3    0  502 -0.51416131617E+03 -0.11301982658E+04  0.44882053492E+03  0.13202846150E+04  0.12699999809E+01 0. -1.
</event>
<event>
 5   0  0.9251138E-07  0.2493206E+04  0.7818609E-02  0.8405410E-01
        2   -1    0    0  501    0  0.00000000000E+00  0.00000000000E+00  0.18702759825E+04  0.18702759825E+04  0.25500000920E-02 0. -1.
       -2   -1    0    0    0  501  0.00000000000E+00  0.00000000000E+00 -0.83090327806E+03  0.83090327806E+03  0.25500000920E-02 0.  1.
    10030    2    1    2    0    0  0.00000000000E+00  0.00000000000E+00  0.10393727045E+04  0.27011792606E+04  0.24932055228E+04 0.  0.
        5    1    3    3  502    0 -0.73478714811E+03 -0.79135729243E+03  0.11944014288E+04  0.16102097318E+04  0.46999998093E+01 0. -1.
       -5    1    3    3    0  502  0.73478714811E+03  0.79135729243E+03 -0.15502872436E+03  0.10909695288E+04  0.46999998093E+01 0.  1.
</event>
<event>
 5   0  0.9508784E-07  0.2498688E+04  0.7818609E-02  0.8403453E-01
        2   -1    0    0  501    0  0.00000000000E+00  0.00000000000E+00  0.12154898963E+04  0.12154898963E+04  0.25500000920E-02 0. -1.
       -2   -1    0    0    0  501  0.00000000000E+00  0.00000000000E+00 -0.12841414665E+04  0.12841414665E+04  0.25500000920E-02 0.  1.
    10030    2    1    2    0    0  0.00000000000E+00  0.00000000000E+00 -0.68651570131E+02  0.24996313628E+04  0.24986884383E+04 0.  0.
        2    1    3    3  502    0  0.49662454357E+03 -0.11088896503E+04  0.25662547940E+03  0.12418247986E+04  0.25500000920E-02 0.  1.
       -2    1    3    3    0  502 -0.49662454357E+03  0.11088896503E+04 -0.32527704953E+03  0.12578065641E+04  0.25500000920E-02 0. -1.
</event>
<event>
 5   0  0.8997210E-07  0.2500393E+04  0.7818609E-02  0.8402846E-01
        2   -1    0    0  501    0  0.00000000000E+00  0.00000000000E+00  0.26483986217E+04  0.26483986217E+04  0.25500000920E-02 0.  1.
       -2   -1    0    0    0  501  0.00000000000E+00  0.00000000000E+00 -0.59016450213E+03  0.59016450213E+03  0.25500000920E-02 0. -1.
    10030    2    1    2    0    0  0.00000000000E+00  0.00000000000E+00  0.20582341196E+04  0.32385631238E+04  0.25003926524E+04 0.  0.
        1    1    3    3  502    0 -0.72489395632E+02  0.12363337904E+04  0.80773299554E+03  0.14785832901E+04  0.50400001928E-02 0. -1.
       -1    1    3    3    0  502  0.72489395632E+02 -0.12363337904E+04  0.12505011240E+04  0.17599798337E+04  0.50400001928E-02 0.  1.
</event>
<event>
 5   0  0.9261602E-07  0.2499921E+04  0.7818609E-02  0.8403014E-01
        2   -1    0    0  501    0  0.00000000000E+00  0.00000000000E+00  0.15601771436E+04  0.15601771436E+04  0.25500000920E-02 0.  1.
       -2   -1    0    0    0  501  0.00000000000E+00  0.00000000000E+00 -0.10014251707E+04  0.10014251707E+04  0.25500000920E-02 0. -1.
    10030    2    1    2    0    0  0.00000000000E+00  0.00000000000E+00  0.55875197291E+03  0.25616023143E+04  0.24999205286E+04 0.  0.
        4    1    3    3  502    0 -0.18608815330E+03 -0.44635260429E+03 -0.90168617605E+03  0.10231808350E+04  0.12699999809E+01 0. -1.
       -4    1    3    3    0  502  0.18608815330E+03  0.44635260429E+03  0.14604381490E+04  0.15384214793E+04  0.12699999809E+01 0.  1.
</event>
<event>
 5   0  0.9261602E-07  0.2497813E+04  0.7818609E-02  0.8403765E-01
       -2   -1    0    0    0  501  0.00000000000E+00  0.00000000000E+00  0.46945193493E+03  0.46945193494E+03  0.25500000920E-02 0. -1.
        2   -1    0    0  501    0  0.00000000000E+00  0.00000000000E+00 -0.33225295710E+04  0.33225295710E+04  0.25500000920E-02 0.  1.
    10030    2    1    2    0    0  0.00000000000E+00  0.00000000000E+00 -0.28530776360E+04  0.37919815059E+04  0.24978133925E+04 0.  0.
        4    1    3    3  502    0 -0.56196846684E+03  0.91686317494E+03 -0.23906584576E+04  0.26213920182E+04  0.12699999809E+01 0.  1.
       -4    1    3    3    0  502  0.56196846684E+03 -0.91686317494E+03 -0.46241917845E+03  0.11705894877E+04  0.12699999809E+01 0. -1.
</event>
<event>
 5   0  0.9251138E-07  0.2510072E+04  0.7818609E-02  0.8399406E-01
       -2   -1    0    0    0  501  0.00000000000E+00  0.00000000000E+00  0.61611337886E+03  0.61611337887E+03  0.25500000920E-02 0.  1.
        2   -1    0    0  501    0  0.00000000000E+00  0.00000000000E+00 -0.25565340616E+04  0.25565340616E+04  0.25500000920E-02 0. -1.
    10030    2    1    2    0    0  0.00000000000E+00  0.00000000000E+00 -0.19404206827E+04  0.31726474404E+04  0.25100715837E+04 0.  0.
        5    1    3    3  502    0 -0.74626393752E+03 -0.96010603742E+03 -0.13626090311E+04  0.18263184085E+04  0.46999998093E+01 0. -1.
       -5    1    3    3    0  502  0.74626393752E+03  0.96010603742E+03 -0.57781165159E+03  0.13463290319E+04  0.46999998093E+01 0.  1.
</event>
<event>
 5   0  0.3805418E-07  0.2501220E+04  0.7818609E-02  0.8402551E-01
        1   -1    0    0  501    0  0.00000000000E+00  0.00000000000E+00  0.19205402403E+04  0.19205402403E+04  0.50400001928E-02 0. -1.
       -1   -1    0    0    0  501  0.00000000000E+00  0.00000000000E+00 -0.81436713565E+03  0.81436713566E+03  0.50400001928E-02 0.  1.
    10030    2    1    2    0    0  0.00000000000E+00  0.00000000000E+00  0.11061731047E+04  0.27349073760E+04  0.25012195861E+04 0.  0.
        4    1    3    3  502    0 -0.30679112948E+03  0.95526152525E+03 -0.26324326468E+03  0.10372772089E+04  0.12699999809E+01 0.  1.
       -4    1    3    3    0  502  0.30679112948E+03 -0.95526152525E+03  0.13694163694E+04  0.16976301671E+04  0.12699999809E+01 0. -1.
</event>
<event>
 5   0  0.9251138E-07  0.2500116E+04  0.7818609E-02  0.8402944E-01
        2   -1    0    0  501    0  0.00000000000E+00  0.00000000000E+00  0.23529514261E+04  0.23529514261E+04  0.25500000920E-02 0.  1.
       -2   -1    0    0    0  501  0.00000000000E+00  0.00000000000E+00 -0.66412136414E+03  0.66412136415E+03  0.25500000920E-02 0. -1.
    10030    2    1    2    0    0  0.00000000000E+00  0.00000000000E+00  0.16888300620E+04  0.30170727903E+04  0.25001162460E+04 0.  0.
        5    1    3    3  502    0  0.91615247020E+03  0.83511908801E+03  0.10384916746E+04  0.16171723124E+04  0.46999998093E+01 0.  1.
       -5    1    3    3    0  502 -0.91615247020E+03 -0.83511908801E+03  0.65033838739E+03  0.13999004779E+04  0.46999998093E+01 0. -1.
</event>
<event>
 5   0  0.9768582E-07  0.2493607E+04  0.7818609E-02  0.8405267E-01
        2   -1    0    0  501    0  0.00000000000E+00  0.00000000000E+00  0.19516384034E+04  0.19516384035E+04  0.25500000920E-02 0. -1.
       -2   -1    0    0    0  501  0.00000000000E+00  0.00000000000E+00 -0.79651991475E+03  0.79651991475E+03  0.25500000920E-02 0.  1.
    10030    2    1    2    0    0  0.00000000000E+00  0.00000000000E+00  0.11551184887E+04  0.27481583182E+04  0.24936069095E+04 0.  0.
        3    1    3    3  502    0  0.14671395869E+03 -0.63520049856E+03 -0.59371771569E+03  0.88176266374E+03  0.10100000352E+00 0.  1.
       -3    1    3    3    0  502 -0.14671395869E+03  0.63520049856E+03  0.17488362044E+04  0.18663956545E+04  0.10100000352E+00 0. -1.
</event>
<event>
 5   0  0.3214375E-07  0.2499719E+04  0.7818609E-02  0.8403086E-01
       -4   -1    0    0    0  501  0.00000000000E+00  0.00000000000E+00  0.10608003339E+04  0.10608010942E+04  0.12699999809E+01 0.  1.
        4   -1    0    0  501    0  0.00000000000E+00  0.00000000000E+00 -0.14726114793E+04  0.14726120269E+04  0.12699999809E+01 0. -1.
    10030    2    1    2    0    0  0.00000000000E+00  0.00000000000E+00 -0.41181114535E+03  0.25334131211E+04  0.24997187087E+04 0.  0.
        2    1    3    3  502    0 -0.10572963978E+04  0.65914791030E+03 -0.30621834308E+03  0.12830125931E+04  0.25500000920E-02 0. -1.
       -2    1    3    3    0  502  0.10572963978E+04 -0.65914791030E+03 -0.10559280227E+03  0.12504005280E+04  0.25500000920E-02 0.  1.
</event>
<event>
 5   0  0.3991066E-07  0.2500276E+04  0.7818609E-02  0.8402887E-01
        1   -1    0    0  501    0  0.00000000000E+00  0.00000000000E+00  0.13364262339E+04  0.13364262340E+04  0.50400001928E-02 0. -1.
       -1   -1    0    0    0  501  0.00000000000E+00  0.00000000000E+00 -0.11694214044E+04  0.11694214044E+04  0.50400001928E-02 0.  1.
    10030    2    1    2    0    0  0.00000000000E+00  0.00000000000E+00  0.16700482957E+03  0.25058476383E+04  0.25002763394E+04 0.  0.
        1    1    3    3  502    0  0.27760092659E+03  0.83281979175E+03 -0.80853387809E+03  0.11934731300E+04  0.50400001928E-02 0.  1.
       -1    1    3    3    0  502 -0.27760092659E+03 -0.83281979175E+03  0.97553870767E+03  0.13123745083E+04  0.50400001928E-02 0. -1.
</event>
<event>
 5   0  0.3837524E-07  0.2501473E+04  0.7818609E-02  0.8402461E-01
       -1   -1    0    0    0  501  0.00000000000E+00  0.00000000000E+00  0.75720455637E+03  0.75720455639E+03  0.50400001928E-02 0. -1.
        1   -1    0    0  501    0  0.00000000000E+00  0.00000000000E+00 -0.20659436547E+04  0.20659436547E+04  0.50400001928E-02 0.  1.
    10030    2    1    2    0    0  0.00000000000E+00  0.00000000000E+00 -0.13087390983E+04  0.28231482111E+04  0.25014731248E+04 0.  0.
        5    1    3    3  502    0 -0.91412466802E+03  0.37153192512E+03  0.21300487044E+03  0.10094815723E+04  0.46999998093E+01 0. -1.
       -5    1    3    3    0  502  0.91412466802E+03 -0.37153192512E+03 -0.15217439687E+04  0.18136666387E+04  0.46999998093E+01 0.  1.
</event>
<event>
 5   0  0.3837524E-07  0.2499887E+04  0.7818609E-02  0.8403026E-01
        1   -1    0    0  501    0  0.00000000000E+00  0.00000000000E+00  0.15023133432E+04  0.15023133432E+04  0.50400001928E-02 0. -1.
       -1   -1    0    0    0  501  0.00000000000E+00  0.00000000000E+00 -0.10399688595E+04  0.10399688595E+04  0.50400001928E-02 0.  1.
    10030    2    1    2    0    0  0.00000000000E+00  0.00000000000E+00  0.46234448371E+03  0.25422822026E+04  0.24998872727E+04 0.  0.
        5    1    3    3  502    0  0.57067447963E+03  0.60309848251E+03 -0.71898502601E+03  0.10983436161E+04  0.46999998093E+01 0.  1.
       -5    1    3    3    0  502 -0.57067447963E+03 -0.60309848251E+03  0.11813295097E+04  0.14439385866E+04  0.46999998093E+01 0. -1.
</event>
<event>
 5   0  0.8997210E-07  0.2500735E+04  0.7818609E-02  0.8402724E-01
        2   -1    0    0  501    0  0.00000000000E+00  0.00000000000E+00  0.26207146133E+04  0.26207146133E+04  0.25500000920E-02 0.  1.
       -2   -1    0    0    0  501  0.00000000000E+00  0.00000000000E+00 -0.59656218176E+03  0.59656218177E+03  0.25500000920E-02 0. -1.
    10030    2    1    2    0    0  0.00000000000E+00  0.00000000000E+00  0.20241524315E+04  0.32172767951E+04  0.25007352739E+04 0.  0.
        1    1    3    3  502    0  0.83118991219E+03 -0.92430122607E+03  0.11856856431E+04  0.17178649164E+04  0.50400001928E-02 0.  1.
       -1    1    3    3    0  502 -0.83118991219E+03  0.92430122607E+03  0.83846678846E+03  0.14994118787E+04  0.50400001928E-02 0. -1.
</event>
<event>
 5   0  0.8997210E-07  0.2499137E+04  0.7818609E-02  0.8403293E-01
       -2   -1    0    0    0  501  0.00000000000E+00  0.00000000000E+00  0.17403450214E+04  0.17403450214E+04  0.25500000920E-02 0. -1.
        2   -1    0    0  501    0  0.00000000000E+00  0.00000000000E+00 -0.89719060496E+03  0.89719060496E+03  0.25500000920E-02 0.  1.
    10030    2    1    2    0    0  0.00000000000E+00  0.00000000000E+00  0.84315441643E+03  0.26375356264E+04  0.24991368130E+04 0.  0.
        1    1    3    3  502    0 -0.97875341336E+03 -0.59390141148E+03 -0.10689680896E+03  0.11498278386E+04  0.50400001928E-02 0.  1.
       -1    1    3    3    0  502  0.97875341336E+03  0.59390141148E+03  0.95005122538E+03  0.14877077877E+04  0.50400001928E-02 0. -1.
</event>
<event>
 5   0  0.3805418E-07  0.2499339E+04  0.7818609E-02  0.8403221E-01
        1   -1    0    0  501    0  0.00000000000E+00  0.00000000000E+00  0.27930109224E+04  0.27930109224E+04  0.50400001928E-02 0.  1.
       -1   -1    0    0    0  501  0.00000000000E+00  0.00000000000E+00 -0.55913613161E+03  0.55913613163E+03  0.50400001928E-02 0. -1.
    10030    2    1    2    0    0  0.00000000000E+00  0.00000000000E+00  0.22338747908E+04  0.33521470541E+04  0.24993385707E+04 0.  0.
        4    1    3    3  502    0 -0.58623732285E+03 -0.39333527225E+03 -0.26606454320E+03  0.75443938733E+03  0.12699999809E+01 0. -1.
       -4    1    3    3    0  502  0.58623732285E+03  0.39333527225E+03  0.24999393340E+04  0.25977076667E+04  0.12699999809E+01 0.  1.
</event>
<event>
 5   0  0.9508784E-07  0.2500167E+04  0.7818609E-02  0.8402926E-01
        2   -1    0    0  501    0  0.00000000000E+00  0.00000000000E+00  0.11389016512E+04  0.11389016512E+04  0.25500000920E-02 0. -1.
       -2   -1    0    0    0  501  0.00000000000E+00  0.00000000000E+00 -0.13721191212E+04  0.13721191212E+04  0.25500000920E-02 0.  1.
    10030    2    1    2    0    0  0.00000000000E+00  0.00000000000E+00 -0.23321747003E+03  0.25110207724E+04  0.25001669806E+04 0.  0.
        2    1    3    3  502    0 -0.11294561820E+04  0.14241089045E+03  0.40211829644E+03  0.12073322878E+04  0.25500000920E-02 0. -1.
       -2    1    3    3    0  502  0.11294561820E+04 -0.14241089045E+03 -0.63533576647E+03  0.13036884846E+04  0.25500000920E-02 0.  1.
</event>
<event>
 5   0  0.3214375E-07  0.2501735E+04  0.7818609E-02  0.8402368E-01
        3   -1    0    0  501    0  0.00000000000E+00  0.00000000000E+00  0.11991386150E+04  0.11991386192E+04  0.10100000352E+00 0.  1.
       -3   -1    0    0    0  501  0.00000000000E+00  0.00000000000E+00 -0.13048276687E+04  0.13048276727E+04  0.10100000352E+00 0. -1.
    10030    2    1    2    0    0  0.00000000000E+00  0.00000000000E+00 -0.10568905379E+03  0.25039662919E+04  0.25017348010E+04 0.  0.
        1    1    3    3  502    0  0.12733810404E+03  0.11961697679E+04 -0.39612588559E+03  0.12664725910E+04  0.50400001928E-02 0.  1.
       -1    1    3    3    0  502 -0.12733810404E+03 -0.11961697679E+04  0.29043683180E+03  0.12374937009E+04  0.50400001928E-02 0. -1.
</event>
<event>
 5   0  0.9251138E-07  0.2500433E+04  0.7818609E-02  0.8402831E-01
        2   -1    0    0  501    0  0.00000000000E+00  0.00000000000E+00  0.16397791856E+04  0.16397791856E+04  0.25500000920E-02 0.  1.
       -2   -1    0    0    0  501  0.00000000000E+00  0.00000000000E+00 -0.95320200183E+03  0.95320200183E+03  0.25500000920E-02 0. -1.
    10030    2    1    2    0    0  0.00000000000E+00  0.00000000000E+00  0.68657718377E+03  0.25929811874E+04  0.25004326044E+04 0.  0.
        5    1    3    3  502    0 -0.89857652592E+02  0.32343923350E+03 -0.90558313567E+03  0.96581066525E+03  0.46999998093E+01 0. -1.
       -5    1    3    3    0  502  0.89857652592E+02 -0.32343923350E+03  0.15921603194E+04  0.16271705222E+04  0.46999998093E+01 0.  1.
</event>
<event>
 5   0  0.9251138E-07  0.2500530E+04  0.7818609E-02  0.8402797E-01
       -2   -1    0    0    0  501  0.00000000000E+00  0.00000000000E+00  0.17924679898E+04  0.17924679898E+04  0.25500000920E-02 0. -1.
        2   -1    0    0  501    0  0.00000000000E+00  0.00000000000E+00 -0.87207256388E+03  0.87207256388E+03  0.25500000920E-02 0.  1.
    10030    2    1    2    0    0  0.00000000000E+00  0.00000000000E+00  0.92039542595E+03  0.26645405537E+04  0.25005296683E+04 0.  0.
        5    1    3    3  502    0 -0.99196901889E+03  0.34122822007E+02  0.12703080239E+04  0.16121015685E+04  0.46999998093E+01 0. -1.
       -5    1    3    3    0  502  0.99196901889E+03 -0.34122822007E+02 -0.34991259798E+03  0.10524389852E+04  0.46999998093E+01 0.  1.
</event>
<event>
 5   0  0.3991066E-07  0.2498860E+04  0.7818609E-02  0.8403392E-01
       -1   -1    0    0    0  501  0.00000000000E+00  0.00000000000E+00  0.14553444369E+04  0.14553444369E+04  0.50400001928E-02 0. -1.
        1   -1    0    0  501    0  0.00000000000E+00  0.00000000000E+00 -0.10726503783E+04  0.10726503783E+04  0.50400001928E-02 0.  1.
    10030    2    1    2    0    0  0.00000000000E+00  0.00000000000E+00  0.38269405864E+03  0.25279948152E+04  0.24988603489E+04 0.  0.
        1    1    3    3  502    0  0.24779065202E+02  0.49911711424E+02  0.14540866842E+04  0.14551540352E+04  0.50400001928E-02 0. -1.
       -1    1    3    3    0  502 -0.24779065202E+02 -0.49911711424E+02 -0.10713926256E+04  0.10728407800E+04  0.50400001928E-02 0.  1.
</event>
<event>
 5   0  0.3805418E-07  0.2500140E+04  0.7818609E-02  0.8402936E-01
        1   -1    0    0  501    0  0.00000000000E+00  0.00000000000E+00  0.28489924479E+04  0.28489924479E+04  0.50400001928E-02 0.  1.
       -1   -1    0    0    0  501  0.00000000000E+00  0.00000000000E+00 -0.54850073153E+03  0.54850073155E+03  0.50400001928E-02 0. -1.
    10030    2    1    2    0    0  0.00000000000E+00  0.00000000000E+00  0.23004917163E+04  0.33974931794E+04  0.25001395496E+04 0.  0.
        4    1    3    3  502    0 -0.11377575851E+04  0.51759342623E+03  0.11728853240E+04  0.17140760991E+04  0.12699999809E+01 0. -1.
       -4    1    3    3    0  502  0.11377575851E+04 -0.51759342623E+03  0.11276063923E+04  0.16834170803E+04  0.12699999809E+01 0.  1.
</event>
<event>
 5   0  0.9768582E-07  0.2499575E+04  0.7818609E-02  0.8403137E-01
       -2   -1    0    0    0  501  0.00000000000E+00  0.00000000000E+00  0.90228821672E+03  0.90228821672E+03  0.25500000920E-02 0. -1.
        2   -1    0    0  501    0  0.00000000000E+00  0.00000000000E+00 -0.17311198370E+04  0.17311198370E+04  0.25500000920E-02 0.  1.
    10030    2    1    2    0    0  0.00000000000E+00  0.00000000000E+00 -0.82883162032E+03  0.26334080538E+04  0.24995751885E+04 0.  0.
        3    1    3    3  502    0  0.62336357572E+02  0.11417896327E+04 -0.94580191653E+03  0.14839510310E+04  0.10100000352E+00 0.  1.
       -3    1    3    3    0  502 -0.62336357572E+02 -0.11417896327E+04  0.11697029621E+03  0.11494570228E+04  0.10100000352E+00 0. -1.
</event>
<event>
 5   0  0.8997210E-07  0.2499560E+04  0.7818609E-02  0.8403142E-01
        2   -1    0    0  501    0  0.00000000000E+00  0.00000000000E+00  0.17227453357E+04  0.17227453357E+04  0.25500000920E-02 0. -1.
       -2   -1    0    0    0  501  0.00000000000E+00  0.00000000000E+00 -0.90666331416E+03  0.90666331417E+03  0.25500000920E-02 0.  1.
    10030    2    1    2    0    0  0.00000000000E+00  0.00000000000E+00  0.81608202150E+03  0.26294086498E+04  0.24995599577E+04 0.  0.
        1    1    3    3  502    0  0.46861465592E+03 -0.11416254725E+04  0.20018708897E+03  0.12501932993E+04  0.50400001928E-02 0. -1.
       -1    1    3    3    0  502 -0.46861465592E+03  0.11416254725E+04  0.61589493253E+03  0.13792153505E+04  0.50400001928E-02 0.  1.
</event>
<event>
 5   0  0.9251138E-07  0.2499700E+04  0.7818609E-02  0.8403092E-01
        2   -1    0    0  501    0  0.00000000000E+00  0.00000000000E+00  0.19090564999E+04  0.19090564999E+04  0.25500000920E-02 0. -1.
       -2   -1    0    0    0  501  0.00000000000E+00  0.00000000000E+00 -0.81827099639E+03  0.81827099639E+03  0.25500000920E-02 0.  1.
    10030    2    1    2    0    0  0.00000000000E+00  0.00000000000E+00  0.10907855035E+04  0.27273274963E+04  0.24997004335E+04 0.  0.
        5    1    3    3  502    0 -0.55543563451E+03  0.10836826125E+02 -0.67614687775E+03  0.87511306194E+03  0.46999998093E+01 0.  1.
       -5    1    3    3    0  502  0.55543563451E+03 -0.10836826125E+02  0.17669323813E+04  0.18522144344E+04  0.46999998093E+01 0. -1.
</event>
<event>
 5   0  0.3214375E-07  0.2500141E+04  0.7818609E-02  0.8402935E-01
       -4   -1    0    0    0  501  0.00000000000E+00  0.00000000000E+00  0.14250957582E+04  0.14250963241E+04  0.12699999809E+01 0. -1.
        4   -1    0    0  501    0  0.00000000000E+00  0.00000000000E+00 -0.10965399805E+04  0.10965407160E+04  0.12699999809E+01 0.  1.
    10030    2    1    2    0    0  0.00000000000E+00  0.00000000000E+00  0.32855577771E+03  0.25216370401E+04  0.25001408886E+04 0.  0.
        1    1    3    3  502    0 -0.27359382953E+03  0.86371694789E+03  0.10329703718E+04  0.13740044900E+04  0.50400001928E-02 0. -1.
       -1    1    3    3    0  502  0.27359382953E+03 -0.86371694789E+03 -0.70441459407E+03  0.11476325501E+04  0.50400001928E-02 0.  1.
</event>
<event>
 5   0  0.9768582E-07  0.2499179E+04  0.7818609E-02  0.8403278E-01
       -2   -1    0    0    0  501  0.00000000000E+00  0.00000000000E+00  0.14889637888E+04  0.14889637888E+04  0.25500000920E-02 0.  1.
        2   -1    0    0  501    0  0.00000000000E+00  0.00000000000E+00 -0.10486987839E+04  0.10486987839E+04  0.25500000920E-02 0. -1.
    10030    2    1    2    0    0  0.00000000000E+00  0.00000000000E+00  0.44026500489E+03  0.25376625728E+04  0.24991794771E+04 0.  0.
        3    1    3    3  502    0  0.11956719233E+04  0.23861296172E+03  0.49803833524E+03  0.13170458182E+04  0.10100000352E+00 0. -1.
       -3    1    3    3    0  502 -0.11956719233E+04 -0.23861296172E+03 -0.57773330346E+02  0.12206167546E+04  0.10100000352E+00 0.  1.
</event>
<event>
 5   0  0.9261602E-07  0.2500001E+04  0.7818609E-02  0.8402985E-01
       -2   -1    0    0    0  501  0.00000000000E+00  0.00000000000E+00  0.80689115695E+03  0.80689115695E+03  0.25500000920E-02 0. -1.
        2   -1    0    0  501    0  0.00000000000E+00  0.00000000000E+00 -0.19364456800E+04  0.19364456800E+04  0.25500000920E-02 0.  1.
    10030    2    1    2    0    0  0.00000000000E+00  0.00000000000E+00 -0.11295545230E+04  0.27433368369E+04  0.25000007161E+04 0.  0.
        4    1    3    3  502    0 -0.11762493716E+02  0.71482654109E+03  0.56039669650E+03  0.90838395541E+03  0.12699999809E+01 0. -1.
       -4    1    3    3    0  502  0.11762493716E+02 -0.71482654109E+03 -0.16899512195E+04  0.18349528815E+04  0.12699999809E+01 0.  1.
</event>
<event>
 5   0  0.3214375E-07  0.2499384E+04  0.7818609E-02  0.8403205E-01
       -3   -1    0    0    0  501  0.00000000000E+00  0.00000000000E+00  0.22509892266E+04  0.22509892289E+04  0.10100000352E+00 0. -1.
        3   -1    0    0  501    0  0.00000000000E+00  0.00000000000E+00 -0.69379705045E+03  0.69379705780E+03  0.10100000352E+00 0.  1.
    10030    2    1    2    0    0  0.00000000000E+00  0.00000000000E+00  0.15571921762E+04  0.29447862867E+04  0.24993836842E+04 0.  0.
        2    1    3    3  502    0  0.70007929797E+03 -0.85974762152E+03  0.99258278807E+02  0.11131618041E+04  0.25500000920E-02 0.  1.
       -2    1    3    3    0  502 -0.70007929797E+03  0.85974762152E+03  0.14579338974E+04  0.18316244826E+04  0.25500000920E-02 0. -1.
</event>
<event>
 5   0  0.9768582E-07  0.2500247E+04  0.7818609E-02  0.8402897E-01
       -2   -1    0    0    0  501  0.00000000000E+00  0.00000000000E+00  0.77533179291E+03  0.77533179291E+03  0.25500000920E-02 0. -1.
        2   -1    0    0  501    0  0.00000000000E+00  0.00000000000E+00 -0.20156652546E+04  0.20156652546E+04  0.25500000920E-02 0.  1.
    10030    2    1    2    0    0  0.00000000000E+00  0.00000000000E+00 -0.12403334617E+04  0.27909970475E+04  0.25002474723E+04 0.  0.
        3    1    3    3  502    0  0.95121862284E+03 -0.79836023417E+03 -0.78043639931E+03  0.14667231898E+04  0.10100000352E+00 0. -1.
       -3    1    3    3    0  502 -0.95121862284E+03  0.79836023417E+03 -0.45989706235E+03  0.13242738577E+04  0.10100000352E+00 0.  1.
</event>
<event>
 5   0  0.9261602E-07  0.2501505E+04  0.7818609E-02  0.8402450E-01
        2   -1    0    0  501    0  0.00000000000E+00  0.00000000000E+00  0.14122323007E+04  0.14122323007E+04  0.25500000920E-02 0. -1.
       -2   -1    0    0    0  501  0.00000000000E+00  0.00000000000E+00 -0.11077368961E+04  0.11077368961E+04  0.25500000920E-02 0.  1.
    10030    2    1    2    0    0  0.00000000000E+00  0.00000000000E+00  0.30449540456E+03  0.25199691968E+04  0.25015050073E+04 0.  0.
        4    1    3    3  502    0 -0.21473794248E+03  0.76398281435E+03  0.11261296142E+04  0.13776616585E+04  0.12699999809E+01 0. -1.
       -4    1    3    3    0  502  0.21473794248E+03 -0.76398281435E+03 -0.82163420964E+03  0.11423075382E+04  0.12699999809E+01 0.  1.
</event>
<event>
 5   0  0.8997210E-07  0.2500257E+04  0.7818609E-02  0.8402894E-01
        2   -1    0    0  501    0  0.00000000000E+00  0.00000000000E+00  0.96064856160E+03  0.96064856161E+03  0.25500000920E-02 0.  1.
       -2   -1    0    0    0  501  0.00000000000E+00  0.00000000000E+00 -0.16268402897E+04  0.16268402897E+04  0.25500000920E-02 0. -1.
    10030    2    1    2    0    0  0.00000000000E+00  0.00000000000E+00 -0.66619172809E+03  0.25874888513E+04  0.25002574142E+04 0.  0.
        1    1    3    3  502    0 -0.20879145591E+03 -0.56973063248E+03  0.79803112743E+03  0.10025171051E+04  0.50400001928E-02 0.  1.
       -1    1    3    3    0  502  0.20879145591E+03  0.56973063248E+03 -0.14642228555E+04  0.15849717462E+04  0.50400001928E-02 0. -1.
</event>
<event>
 5   0  0.3805418E-07  0.2502091E+04  0.7818609E-02  0.8402241E-01
       -1   -1    0    0    0  501  0.00000000000E+00  0.00000000000E+00  0.17144458844E+04  0.17144458844E+04  0.50400001928E-02 0. -1.
        1   -1    0    0  501    0  0.00000000000E+00  0.00000000000E+00 -0.91289863357E+03  0.91289863358E+03  0.50400001928E-02 0.  1.
    10030    2    1    2    0    0  0.00000000000E+00  0.00000000000E+00  0.80154725086E+03  0.26273445180E+04  0.25020913694E+04 0.  0.
        4    1    3    3  502    0  0.11193836888E+04 -0.54568367943E+03  0.52644415881E+03  0.13520116811E+04  0.12699999809E+01 0. -1.
       -4    1    3    3    0  502 -0.11193836888E+04  0.54568367943E+03  0.27510309205E+03  0.12753328369E+04  0.12699999809E+01 0.  1.
</event>
<event>
 5   0  0.9768582E-07  0.2499137E+04  0.7818609E-02  0.8403293E-01
        2   -1    0    0  501    0  0.00000000000E+00  0.00000000000E+00  0.11711436448E+04  0.11711436448E+04  0.25500000920E-02 0. -1.
       -2   -1    0    0    0  501  0.00000000000E+00  0.00000000000E+00 -0.13332444952E+04  0.13332444952E+04  0.25500000920E-02 0.  1.
    10030    2    1    2    0    0  0.00000000000E+00  0.00000000000E+00 -0.16210085040E+03  0.25043881400E+04  0.24991365049E+04 0.  0.
        3    1    3    3  502    0 -0.96417211542E+03 -0.79472210724E+03 -0.95562271820E+02  0.12531333743E+04  0.10100000352E+00 0.  1.
       -3    1    3    3    0  502  0.96417211542E+03  0.79472210724E+03 -0.66538578583E+02  0.12512547656E+04  0.10100000352E+00 0. -1.
</event>
<event>
 5   0  0.9251138E-07  0.2501113E+04  0.7818609E-02  0.8402589E-01
       -2   -1    0    0    0  501  0.00000000000E+00  0.00000000000E+00  0.10378087106E+04  0.10378087106E+04  0.25500000920E-02 0.  1.
        2   -1    0    0  501    0  0.00000000000E+00  0.00000000000E+00 -0.15069169589E+04  0.15069169589E+04  0.25500000920E-02 0. -1.
    10030    2    1    2    0    0  0.00000000000E+00  0.00000000000E+00 -0.46910824830E+03  0.25447256695E+04  0.25011129892E+04 0.  0.
        5    1    3    3  502    0 -0.85750739956E+03  0.50443004792E+03 -0.10054607017E+04  0.14144758486E+04  0.46999998093E+01 0. -1.
       -5    1    3    3    0  502  0.85750739956E+03 -0.50443004792E+03  0.53635245339E+03  0.11302498210E+04  0.46999998093E+01 0.  1.
</event>
<event>
 5   0  0.3972587E-07  0.2501936E+04  0.7818609E-02  0.8402296E-01
       -1   -1    0    0    0  501  0.00000000000E+00  0.00000000000E+00  0.14071077476E+04  0.14071077476E+04  0.50400001928E-02 0.  1.
        1   -1    0    0  501    0  0.00000000000E+00  0.00000000000E+00 -0.11121544746E+04  0.11121544747E+04  0.50400001928E-02 0. -1.
    10030    2    1    2    0    0  0.00000000000E+00  0.00000000000E+00  0.29495327291E+03  0.25192622222E+04  0.25019361924E+04 0.  0.
        3    1    3    3  502    0 -0.97806014219E+03 -0.62800556955E+03 -0.31825045166E+03  0.12051041438E+04  0.10100000352E+00 0. -1.
       -3    1    3    3    0  502  0.97806014219E+03  0.62800556955E+03  0.61320372456E+03  0.13141580785E+04  0.10100000352E+00 0.  1.
</event>
<event>
 5   0  0.3805418E-07  0.2500497E+04  0.7818609E-02  0.8402809E-01
        1   -1    0    0  501    0  0.00000000000E+00  0.00000000000E+00  0.15974068873E+04  0.15974068873E+04  0.50400001928E-02 0.  1.
       -1   -1    0    0    0  501  0.00000000000E+00  0.00000000000E+00 -0.97853636581E+03  0.97853636582E+03  0.50400001928E-02 0. -1.
    10030    2    1    2    0    0  0.00000000000E+00  0.00000000000E+00  0.61887052150E+03  0.25759432531E+04  0.25004965349E+04 0.  0.
        4    1    3    3  502    0  0.89362947971E+03  0.14200636232E+03  0.11982418881E+04  0.15015074722E+04  0.12699999809E+01 0.  1.
       -4    1    3    3    0  502 -0.89362947971E+03 -0.14200636232E+03 -0.57937136658E+03  0.10744357809E+04  0.12699999809E+01 0. -1.
</event>
<event>
 5   0  0.9261602E-07  0.2501424E+04  0.7818609E-02  0.8402478E-01
       -2   -1    0    0    0  501  0.00000000000E+00  0.00000000000E+00  0.13620774680E+04  0.13620774680E+04  0.25500000920E-02 0. -1.
        2   -1    0    0  501    0  0.00000000000E+00  0.00000000000E+00 -0.11484521347E+04  0.11484521347E+04  0.25500000920E-02 0.  1.
    10030    2    1    2    0    0  0.00000000000E+00  0.00000000000E+00  0.21362533335E+03  0.25105296027E+04  0.25014242149E+04 0.  0.
        4    1    3    3  502    0 -0.52551103382E+03 -0.46925059989E+02 -0.10312971992E+04  0.11584210520E+04  0.12699999809E+01 0.  1.
       -4    1    3    3    0  502  0.52551103382E+03  0.46925059989E+02  0.12449225325E+04  0.13521085507E+04  0.12699999809E+01 0. -1.
</event>
<event>
 5   0  0.3972587E-07  0.2498950E+04  0.7818609E-02  0.8403360E-01
       -1   -1    0    0    0  501  0.00000000000E+00  0.00000000000E+00  0.13731269473E+04  0.13731269473E+04  0.50400001928E-02 0.  1.
        1   -1    0    0  501    0  0.00000000000E+00  0.00000000000E+00 -0.11369581715E+04  0.11369581715E+04  0.50400001928E-02 0. -1.
    10030    2    1    2    0    0  0.00000000000E+00  0.00000000000E+00  0.23616877585E+03  0.25100851188E+04  0.24989501021E+04 0.  0.
        3    1    3    3  502    0  0.95098542683E+03  0.10646580720E+02  0.93206636644E+03  0.13316284592E+04  0.10100000352E+00 0.  1.
       -3    1    3    3    0  502 -0.95098542683E+03 -0.10646580720E+02 -0.69589759059E+03  0.11784566596E+04  0.10100000352E+00 0. -1.
</event>
<event>
 5   0  0.9251138E-07  0.2497484E+04  0.7818609E-02  0.8403883E-01
       -2   -1    0    0    0  501  0.00000000000E+00  0.00000000000E+00  0.14327123648E+04  0.14327123648E+04  0.25500000920E-02 0. -1.
        2   -1    0    0  501    0  0.00000000000E+00  0.00000000000E+00 -0.10883944629E+04  0.10883944629E+04  0.25500000920E-02 0.  1.
    10030    2    1    2    0    0  0.00000000000E+00  0.00000000000E+00  0.34431790186E+03  0.25211068277E+04  0.24974836975E+04 0.  0.
        5    1    3    3  502    0 -0.98895481603E+03 -0.75628243089E+03  0.26971347401E+03  0.12738768353E+04  0.46999998093E+01 0.  1.
       -5    1    3    3    0  502  0.98895481603E+03  0.75628243089E+03  0.74604427848E+02  0.12472299925E+04  0.46999998093E+01 0. -1.
</event>
<event>
 5   0  0.9508784E-07  0.2500899E+04  0.7818609E-02  0.8402665E-01
       -2   -1    0    0    0  501  0.00000000000E+00  0.00000000000E+00  0.97963598678E+03  0.97963598679E+03  0.25500000920E-02 0.  1.
        2   -1    0    0  501    0  0.00000000000E+00  0.00000000000E+00 -0.15961274017E+04  0.15961274017E+04  0.25500000920E-02 0. -1.
    10030    2    1    2    0    0  0.00000000000E+00  0.00000000000E+00 -0.61649141494E+03  0.25757633885E+04  0.25008989122E+04 0.  0.
        2    1    3    3  502    0 -0.11527654669E+03 -0.70850487460E+03  0.74629711811E+03  0.10354840550E+04  0.25500000920E-02 0.  1.
       -2    1    3    3    0  502  0.11527654669E+03  0.70850487460E+03 -0.13627885330E+04  0.15402793336E+04  0.25500000920E-02 0. -1.
</event>
<event>
 5   0  0.9251138E-07  0.2500086E+04  0.7818609E-02  0.8402955E-01
       -2   -1    0    0    0  501  0.00000000000E+00  0.00000000000E+00  0.12135090508E+04  0.12135090508E+04  0.25500000920E-02 0. -1.
        2   -1    0    0  501    0  0.00000000000E+00  0.00000000000E+00 -0.12876769862E+04  0.12876769862E+04  0.25500000920E-02 0.  1.
    10030    2    1    2    0    0  0.00000000000E+00  0.00000000000E+00 -0.74167935435E+02  0.25011860370E+04  0.25000861403E+04 0.  0.
        5    1    3    3  502    0 -0.93901018761E+03 -0.39796143275E+03  0.68605638552E+03  0.12291496607E+04  0.46999998093E+01 0. -1.
       -5    1    3    3    0  502  0.93901018761E+03  0.39796143275E+03 -0.76022432096E+03  0.12720363763E+04  0.46999998093E+01 0.  1.
</event>
<event>
 5   0  0.3837524E-07  0.2499853E+04  0.7818609E-02  0.8403038E-01
       -1   -1    0    0    0  501  0.00000000000E+00  0.00000000000E+00  0.60840765068E+03  0.60840765070E+03  0.50400001928E-02 0.  1.
        1   -1    0    0  501    0  0.00000000000E+00  0.00000000000E+00 -0.25678764603E+04  0.25678764603E+04  0.50400001928E-02 0. -1.
    10030    2    1    2    0    0  0.00000000000E+00  0.00000000000E+00 -0.19594688096E+04  0.31762841110E+04  0.24998525432E+04 0.  0.
        5    1    3    3  502    0  0.75563096956E+03 -0.38667293247E+03  0.18602593319E+03  0.86897747766E+03  0.46999998093E+01 0.  1.
       -5    1    3    3    0  502 -0.75563096956E+03  0.38667293247E+03 -0.21454947428E+04  0.23073066333E+04  0.46999998093E+01 0. -1.
</event>
<event>
 5   0  0.3805418E-07  0.2510232E+04  0.7818609E-02  0.8399350E-01
        1   -1    0    0  501    0  0.00000000000E+00  0.00000000000E+00  0.12602442533E+04  0.12602442533E+04  0.50400001928E-02 0. -1.
       -1   -1    0    0    0  501  0.00000000000E+00  0.00000000000E+00 -0.12500081588E+04  0.12500081588E+04  0.50400001928E-02 0.  1.
    10030    2    1    2    0    0  0.00000000000E+00  0.00000000000E+00  0.10236094503E+02  0.25102524120E+04  0.25102315420E+04 0.  0.
        4    1    3    3  502    0 -0.78040005590E+03 -0.95904491198E+03  0.22081081225E+03  0.12560057397E+04  0.12699999809E+01 0. -1.
       -4    1    3    3    0  502  0.78040005590E+03  0.95904491198E+03 -0.21057471775E+03  0.12542466723E+04  0.12699999809E+01 0.  1.
</event>
<event>
 5   0  0.9768582E-07  0.2500079E+04  0.7818609E-02  0.8402957E-01
        2   -1    0    0  501    0  0.00000000000E+00  0.00000000000E+00  0.21041118593E+04  0.21041118593E+04  0.25500000920E-02 0.  1.
       -2   -1    0    0    0  501  0.00000000000E+00  0.00000000000E+00 -0.74264061899E+03  0.74264061899E+03  0.25500000920E-02 0. -1.
    10030    2    1    2    0    0  0.00000000000E+00  0.00000000000E+00  0.13614712403E+04  0.28467524783E+04  0.25000791456E+04 0.  0.
        3    1    3    3  502    0 -0.10187637286E+04  0.70627375185E+03  0.86397499472E+03  0.15110112339E+04  0.10100000352E+00 0.  1.
       -3    1    3    3    0  502  0.10187637286E+04 -0.70627375185E+03  0.49749624557E+03  0.13357412444E+04  0.10100000352E+00 0. -1.
</event>
<event>
 5   0  0.3873231E-07  0.2504328E+04  0.7818609E-02  0.8401445E-01
        1   -1    0    0  501    0  0.00000000000E+00  0.00000000000E+00  0.93417513403E+03  0.93417513404E+03  0.50400001928E-02 0. -1.
       -1   -1    0    0    0  501  0.00000000000E+00  0.00000000000E+00 -0.16783945611E+04  0.16783945611E+04  0.50400001928E-02 0.  1.
    10030    2    1    2    0    0  0.00000000000E+00  0.00000000000E+00 -0.74421942706E+03  0.26125696951E+04  0.25043278252E+04 0.  0.
        2    1    3    3  502    0 -0.11911120311E+04 -0.38578861777E+03 -0.39116774965E+03  0.13117137403E+04  0.25500000920E-02 0.  1.
       -2    1    3    3    0  502  0.11911120311E+04  0.38578861777E+03 -0.35305167741E+03  0.13008559548E+04  0.25500000920E-02 0. -1.
</event>
<event>
 5   0  0.9261602E-07  0.2499968E+04  0.7818609E-02  0.8402997E-01
       -2   -1    0    0    0  501  0.00000000000E+00  0.00000000000E+00  0.90328937776E+03  0.90328937777E+03  0.25500000920E-02 0.  1.
        2   -1    0    0  501    0  0.00000000000E+00  0.00000000000E+00 -0.17297450377E+04  0.17297450377E+04  0.25500000920E-02 0. -1.
    10030    2    1    2    0    0  0.00000000000E+00  0.00000000000E+00 -0.82645565992E+03  0.26330344155E+04  0.24999682548E+04 0.  0.
        4    1    3    3  502    0  0.11212188388E+04 -0.30752684608E+03 -0.89674313202E+03  0.14682827736E+04  0.12699999809E+01 0. -1.
       -4    1    3    3    0  502 -0.11212188388E+04  0.30752684608E+03  0.70287472102E+02  0.11647516418E+04  0.12699999809E+01 0.  1.
</event>
<event>
 5   0  0.3805418E-07  0.2498212E+04  0.7818609E-02  0.8403623E-01
        1   -1    0    0  501    0  0.00000000000E+00  0.00000000000E+00  0.23948460243E+04  0.23948460243E+04  0.50400001928E-02 0.  1.
       -1   -1    0    0    0  501  0.00000000000E+00  0.00000000000E+00 -0.65150975008E+03  0.65150975010E+03  0.50400001928E-02 0. -1.
    10030    2    1    2    0    0  0.00000000000E+00  0.00000000000E+00  0.17433362742E+04  0.30463557744E+04  0.24982117883E+04 0.  0.
        4    1    3    3  502    0  0.29638660356E+03  0.65623309021E+03  0.21162938194E+04  0.22354391135E+04  0.12699999809E+01 0.  1.
       -4    1    3    3    0  502 -0.29638660356E+03 -0.65623309021E+03 -0.37295754518E+03  0.81091666086E+03  0.12699999809E+01 0. -1.
</event>
<event>
 5   0  0.3991066E-07  0.2500306E+04  0.7818609E-02  0.8402876E-01
        1   -1    0    0  501    0  0.00000000000E+00  0.00000000000E+00  0.13349028511E+04  0.13349028511E+04  0.50400001928E-02 0.  1.
       -1   -1    0    0    0  501  0.00000000000E+00  0.00000000000E+00 -0.11707839837E+04  0.11707839837E+04  0.50400001928E-02 0. -1.
    10030    2    1    2    0    0  0.00000000000E+00  0.00000000000E+00  0.16411886741E+03  0.25056868348E+04  0.25003062835E+04 0.  0.
        1    1    3    3  502    0  0.86035663460E+03 -0.29616445101E+03  0.94120002034E+03  0.13091158845E+04  0.50400001928E-02 0.  1.
       -1    1    3    3    0  502 -0.86035663460E+03  0.29616445101E+03 -0.77708115293E+03  0.11965709503E+04  0.50400001928E-02 0. -1.
</event>
<event>
 5   0  0.3837524E-07  0.2500130E+04  0.7818609E-02  0.8402939E-01
        1   -1    0    0  501    0  0.00000000000E+00  0.00000000000E+00  0.14942690467E+04  0.14942690467E+04  0.50400001928E-02 0. -1.
       -1   -1    0    0    0  501  0.00000000000E+00  0.00000000000E+00 -0.10457704497E+04  0.10457704497E+04  0.50400001928E-02 0.  1.
    10030    2    1    2    0    0  0.00000000000E+00  0.00000000000E+00  0.44849859706E+03  0.25400394964E+04  0.25001299270E+04 0.  0.
        5    1    3    3  502    0  0.33099358896E+03  0.81814995815E+03 -0.67515871457E+03  0.11112099216E+04  0.46999998093E+01 0.  1.
       -5    1    3    3    0  502 -0.33099358896E+03 -0.81814995815E+03  0.11236573116E+04  0.14288295748E+04  0.46999998093E+01 0. -1.
</event>
<event>
 5   0  0.3972587E-07  0.2500655E+04  0.7818609E-02  0.8402752E-01
        1   -1    0    0  501    0  0.00000000000E+00  0.00000000000E+00  0.17612048918E+04  0.17612048918E+04  0.50400001928E-02 0. -1.
       -1   -1    0    0    0  501  0.00000000000E+00  0.00000000000E+00 -0.88764136320E+03  0.88764136322E+03  0.50400001928E-02 0.  1.
    10030    2    1    2    0    0  0.00000000000E+00  0.00000000000E+00  0.87356352864E+03  0.26488462551E+04  0.25006545632E+04 0.  0.
        3    1    3    3  502    0  0.51113073195E+03 -0.11398951779E+04  0.38171384287E+03  0.13062622669E+04  0.10100000352E+00 0.  1.
       -3    1    3    3    0  502 -0.51113073195E+03  0.11398951779E+04  0.49184968576E+03  0.13425839882E+04  0.10100000352E+00 0. -1.
</event>
<event>
 5   0  0.9508784E-07  0.2500039E+04  0.7818609E-02  0.8402972E-01
       -2   -1    0    0    0  501  0.00000000000E+00  0.00000000000E+00  0.10653202573E+04  0.10653202573E+04  0.25500000920E-02 0. -1.
        2   -1    0    0  501    0  0.00000000000E+00  0.00000000000E+00 -0.14667404690E+04  0.14667404690E+04  0.25500000920E-02 0.  1.
    10030    2    1    2    0    0  0.00000000000E+00  0.00000000000E+00 -0.40142021168E+03  0.25320607263E+04  0.25000386668E+04 0.  0.
        2    1    3    3  502    0  0.23628341519E+03 -0.78627874992E+03  0.75395763628E+03  0.11146821261E+04  0.25500000920E-02 0. -1.
       -2    1    3    3    0  502 -0.23628341519E+03  0.78627874992E+03 -0.11553778480E+04  0.14173786002E+04  0.25500000920E-02 0.  1.
</event>
<event>
 5   0  0.3805418E-07  0.2499055E+04  0.7818609E-02  0.8403322E-01
       -1   -1    0    0    0  501  0.00000000000E+00  0.00000000000E+00  0.15130821867E+04  0.15130821867E+04  0.50400001928E-02 0. -1.
        1   -1    0    0  501    0  0.00000000000E+00  0.00000000000E+00 -0.10318795945E+04  0.10318795945E+04  0.50400001928E-02 0.  1.
    10030    2    1    2    0    0  0.00000000000E+00  0.00000000000E+00  0.48120259216E+03  0.25449617812E+04  0.24990547279E+04 0.  0.
        4    1    3    3  502    0 -0.38463203375E+03 -0.19133485173E+03 -0.95430980084E+03  0.10465465282E+04  0.12699999809E+01 0.  1.
       -4    1    3    3    0  502  0.38463203375E+03  0.19133485173E+03  0.14355123930E+04  0.14984152529E+04  0.12699999809E+01 0. -1.
</event>
<event>
 5   0  0.9768582E-07  0.2500104E+04  0.7818609E-02  0.8402948E-01
       -2   -1    0    0    0  501  0.00000000000E+00  0.00000000000E+00  0.16284053236E+04  0.16284053236E+04  0.25500000920E-02 0. -1.
        2   -1    0    0  501    0  0.00000000000E+00  0.00000000000E+00 -0.95960781370E+03  0.95960781370E+03  0.25500000920E-02 0.  1.
    10030    2    1    2    0    0  0.00000000000E+00  0.00000000000E+00  0.66879750993E+03  0.25880131373E+04  0.25001043758E+04 0.  0.
        3    1    3    3  502    0 -0.17824280456E+03  0.50424538885E+03 -0.83519534825E+03  0.99175863469E+03  0.10100000352E+00 0.  1.
       -3    1    3    3    0  502  0.17824280456E+03 -0.50424538885E+03  0.15039928582E+04  0.15962545026E+04  0.10100000352E+00 0. -1.
</event>
<event>
 5   0  0.9261602E-07  0.2500026E+04  0.7818609E-02  0.8402976E-01
       -2   -1    0    0    0  501  0.00000000000E+00  0.00000000000E+00  0.14986546972E+04  0.14986546972E+04  0.25500000920E-02 0. -1.
        2   -1    0    0  501    0  0.00000000000E+00  0.00000000000E+00 -0.10426231718E+04  0.10426231718E+04  0.25500000920E-02 0.  1.
    10030    2    1    2    0    0  0.00000000000E+00  0.00000000000E+00  0.45603152540E+03  0.25412778690E+04  0.25000256909E+04 0.  0.
        4    1    3    3  502    0 -0.11702492043E+04 -0.24138104610E+03 -0.14516944637E+03  0.12036709645E+04  0.12699999809E+01 0.  1.
       -4    1    3    3    0  502  0.11702492043E+04  0.24138104610E+03  0.60120097177E+03  0.13376069045E+04  0.12699999809E+01 0. -1.
</event>
<event>
 5   0  0.3991066E-07  0.2499832E+04  0.7818609E-02  0.8403045E-01
       -1   -1    0    0    0  501  0.00000000000E+00  0.00000000000E+00  0.95678905977E+03  0.95678905979E+03  0.50400001928E-02 0. -1.
        1   -1    0    0  501    0  0.00000000000E+00  0.00000000000E+00 -0.16328472016E+04  0.16328472016E+04  0.50400001928E-02 0.  1.
    10030    2    1    2    0    0  0.00000000000E+00  0.00000000000E+00 -0.67605814180E+03  0.25896362614E+04  0.24998322654E+04 0.  0.
        1    1    3    3  502    0 -0.38267716948E+03  0.11592966443E+04 -0.61576455404E+03  0.13673245817E+04  0.50400001928E-02 0.  1.
       -1    1    3    3    0  502  0.38267716948E+03 -0.11592966443E+04 -0.60293587755E+02  0.12223116797E+04  0.50400001928E-02 0. -1.
</event>
<event>
 5   0  0.9251138E-07  0.2501953E+04  0.7818609E-02  0.8402290E-01
       -2   -1    0    0    0  501  0.00000000000E+00  0.00000000000E+00  0.18115921807E+04  0.18115921807E+04  0.25500000920E-02 0. -1.
        2   -1    0    0  501    0  0.00000000000E+00  0.00000000000E+00 -0.86384873850E+03  0.86384873851E+03  0.25500000920E-02 0.  1.
    10030    2    1    2    0    0  0.00000000000E+00  0.00000000000E+00  0.94774344221E+03  0.26754409192E+04  0.25019525335E+04 0.  0.
        5    1    3    3  502    0  0.64398728975E+03  0.61832414855E+03 -0.46317577594E+03  0.10057824176E+04  0.46999998093E+01 0.  1.
       -5    1    3    3    0  502 -0.64398728975E+03 -0.61832414855E+03  0.14109192182E+04  0.16696585017E+04  0.46999998093E+01 0. -1.
</event>
<event>
 5   0  0.8997210E-07  0.2500275E+04  0.7818609E-02  0.8402888E-01
        2   -1    0    0  501    0  0.00000000000E+00  0.00000000000E+00  0.14167494418E+04  0.14167494418E+04  0.25500000920E-02 0. -1.
       -2   -1    0    0    0  501  0.00000000000E+00  0.00000000000E+00 -0.11031193778E+04  0.11031193778E+04  0.25500000920E-02 0.  1.
    10030    2    1    2    0    0  0.00000000000E+00  0.00000000000E+00  0.31363006397E+03  0.25198688196E+04  0.25002749951E+04 0.  0.
        1    1    3    3  502    0 -0.32564721606E+03  0.70853548667E+03  0.11415983910E+04  0.13825033568E+04  0.50400001928E-02 0. -1.
       -1    1    3    3    0  502  0.32564721606E+03 -0.70853548667E+03 -0.82796832708E+03  0.11373654628E+04  0.50400001928E-02 0.  1.
</event>
<event>
 5   0  0.9768582E-07  0.2500382E+04  0.7818609E-02  0.8402849E-01
       -2   -1    0    0    0  501  0.00000000000E+00  0.00000000000E+00  0.11727436179E+04  0.11727436179E+04  0.25500000920E-02 0.  1.
        2   -1    0    0  501    0  0.00000000000E+00  0.00000000000E+00 -0.13327529701E+04  0.13327529701E+04  0.25500000920E-02 0. -1.
    10030    2    1    2    0    0  0.00000000000E+00  0.00000000000E+00 -0.16000935223E+03  0.25054965880E+04  0.25003820028E+04 0.  0.
        3    1    3    3  502    0  0.31635900448E+03 -0.97454768108E+03 -0.79781579239E+03  0.12985901013E+04  0.10100000352E+00 0. -1.
       -3    1    3    3    0  502 -0.31635900448E+03  0.97454768108E+03  0.63780644016E+03  0.12069064867E+04  0.10100000352E+00 0.  1.
</event>
<event>
 5   0  0.3991066E-07  0.2500863E+04  0.7818609E-02  0.8402678E-01
        1   -1    0    0  501    0  0.00000000000E+00  0.00000000000E+00  0.12072776783E+04  0.12072776783E+04  0.50400001928E-02 0. -1.
       -1   -1    0    0    0  501  0.00000000000E+00  0.00000000000E+00 -0.12951275916E+04  0.12951275916E+04  0.50400001928E-02 0.  1.
    10030    2    1    2    0    0  0.00000000000E+00  0.00000000000E+00 -0.87849913308E+02  0.25024052700E+04  0.25008627567E+04 0.  0.
        1    1    3    3  502    0 -0.29096902493E+03  0.12160534881E+04 -0.55314971928E+02  0.12516024950E+04  0.50400001928E-02 0. -1.
       -1    1    3    3    0  502  0.29096902493E+03 -0.12160534881E+04 -0.32534941380E+02  0.12508027750E+04  0.50400001928E-02 0.  1.
</event>
<event>
 5   0  0.3873231E-07  0.2499172E+04  0.7818609E-02  0.8403280E-01
       -1   -1    0    0    0  501  0.00000000000E+00  0.00000000000E+00  0.12569401365E+04  0.12569401365E+04  0.50400001928E-02 0.  1.
        1   -1    0    0  501    0  0.00000000000E+00  0.00000000000E+00 -0.12422751327E+04  0.12422751327E+04  0.50400001928E-02 0. -1.
    10030    2    1    2    0    0  0.00000000000E+00  0.00000000000E+00  0.14665003846E+02  0.24992152692E+04  0.24991722428E+04 0.  0.
        2    1    3    3  502    0  0.73588999306E+03  0.17538640818E+03 -0.98725538292E+03  0.12437715486E+04  0.25500000920E-02 0. -1.
       -2    1    3    3    0  502 -0.73588999306E+03 -0.17538640818E+03  0.10019203868E+04  0.12554437206E+04  0.25500000920E-02 0.  1.
</event>
<event>
 5   0  0.8997210E-07  0.2498831E+04  0.7818609E-02  0.8403402E-01
       -2   -1    0    0    0  501  0.00000000000E+00  0.00000000000E+00  0.11760229566E+04  0.11760229567E+04  0.25500000920E-02 0. -1.
        2   -1    0    0  501    0  0.00000000000E+00  0.00000000000E+00 -0.13273883310E+04  0.13273883310E+04  0.25500000920E-02 0.  1.
    10030    2    1    2    0    0  0.00000000000E+00  0.00000000000E+00 -0.15136537439E+03  0.25034112877E+04  0.24988310465E+04 0.  0.
        1    1    3    3  502    0 -0.87434918501E+02  0.11065150015E+04 -0.65033570776E+03  0.12864512608E+04  0.50400001928E-02 0.  1.
       -1    1    3    3    0  502  0.87434918501E+02 -0.11065150015E+04  0.49897033337E+03  0.12169600269E+04  0.50400001928E-02 0. -1.
</event>
<event>
 5   0  0.9768582E-07  0.2499722E+04  0.7818609E-02  0.8403084E-01
       -2   -1    0    0    0  501  0.00000000000E+00  0.00000000000E+00  0.18805137170E+04  0.18805137170E+04  0.25500000920E-02 0. -1.
        2   -1    0    0  501    0  0.00000000000E+00  0.00000000000E+00 -0.83070538027E+03  0.83070538027E+03  0.25500000920E-02 0.  1.
    10030    2    1    2    0    0  0.00000000000E+00  0.00000000000E+00  0.10498083367E+04  0.27112190972E+04  0.24997222745E+04 0.  0.
        3    1    3    3  502    0 -0.62839991762E+03 -0.21601809551E+03 -0.62324591965E+03  0.91103554300E+03  0.10100000352E+00 0.  1.
       -3    1    3    3    0  502  0.62839991762E+03  0.21601809551E+03  0.16730542563E+04  0.18001835542E+04  0.10100000352E+00 0. -1.
</event>
<event>
 5   0  0.3837524E-07  0.2489737E+04  0.7818609E-02  0.8406651E-01
       -1   -1    0    0    0  501  0.00000000000E+00  0.00000000000E+00  0.11271212771E+04  0.11271212772E+04  0.50400001928E-02 0. -1.
        1   -1    0    0  501    0  0.00000000000E+00  0.00000000000E+00 -0.13749162584E+04  0.13749162584E+04  0.50400001928E-02 0.  1.
    10030    2    1    2    0    0  0.00000000000E+00  0.00000000000E+00 -0.24779498121E+03  0.25020375355E+04  0.24897368287E+04 0.  0.
        5    1    3    3  502    0  0.66360306993E+03  0.54623800840E+03 -0.10288632273E+04  0.13406441089E+04  0.46999998093E+01 0.  1.
       -5    1    3    3    0  502 -0.66360306993E+03 -0.54623800840E+03  0.78106824612E+03  0.11613934266E+04  0.46999998093E+01 0. -1.
</event>
<event>
 5   0  0.9768582E-07  0.2500236E+04  0.7818609E-02  0.8402901E-01
        2   -1    0    0  501    0  0.00000000000E+00  0.00000000000E+00  0.14371194529E+04  0.14371194529E+04  0.25500000920E-02 0.  1.
       -2   -1    0    0    0  501  0.00000000000E+00  0.00000000000E+00 -0.10874499714E+04  0.10874499714E+04  0.25500000920E-02 0. -1.
    10030    2    1    2    0    0  0.00000000000E+00  0.00000000000E+00  0.34966948145E+03  0.25245694243E+04  0.25002363952E+04 0.  0.
        3    1    3    3  502    0  0.20286836256E+03  0.91403334936E+03 -0.66158872858E+03  0.11464345565E+04  0.10100000352E+00 0. -1.
       -3    1    3    3    0  502 -0.20286836256E+03 -0.91403334936E+03  0.10112582100E+04  0.13781348678E+04  0.10100000352E+00 0.  1.
</event>
<event>
 5   0  0.3805418E-07  0.2500742E+04  0.7818609E-02  0.8402721E-01
        1   -1    0    0  501    0  0.00000000000E+00  0.00000000000E+00  0.69588275721E+03  0.69588275723E+03  0.50400001928E-02 0. -1.
       -1   -1    0    0    0  501  0.00000000000E+00  0.00000000000E+00 -0.22466830101E+04  0.22466830101E+04  0.50400001928E-02 0.  1.
    10030    2    1    2    0    0  0.00000000000E+00  0.00000000000E+00 -0.15508002529E+04  0.29425657673E+04  0.25007422639E+04 0.  0.
        4    1    3    3  502    0 -0.50282101923E+03 -0.65145833309E+03 -0.18831022146E+04  0.20550675173E+04  0.12699999809E+01 0.  1.
       -4    1    3    3    0  502  0.50282101923E+03  0.65145833309E+03  0.33230196173E+03  0.88749825003E+03  0.12699999809E+01 0. -1.
</event>
<event>
 5   0  0.3805418E-07  0.2499449E+04  0.7818609E-02  0.8403182E-01
       -1   -1    0    0    0  501  0.00000000000E+00  0.00000000000E+00  0.74389834313E+03  0.74389834315E+03  0.50400001928E-02 0.  1.
        1   -1    0    0  501    0  0.00000000000E+00  0.00000000000E+00 -0.20994958922E+04  0.20994958923E+04  0.50400001928E-02 0. -1.
    10030    2    1    2    0    0  0.00000000000E+00  0.00000000000E+00 -0.13555975491E+04  0.28433942354E+04  0.24994491519E+04 0.  0.
        4    1    3    3  502    0  0.30535880454E+03 -0.11230205596E+04 -0.11958675748E+04  0.16686881213E+04  0.12699999809E+01 0. -1.
       -4    1    3    3    0  502 -0.30535880454E+03  0.11230205596E+04 -0.15972997429E+03  0.11747061141E+04  0.12699999809E+01 0.  1.
</event>
<event>
 5   0  0.9768582E-07  0.2500736E+04  0.7818609E-02  0.8402724E-01
       -2   -1    0    0    0  501  0.00000000000E+00  0.00000000000E+00  0.74008902291E+03  0.74008902291E+03  0.25500000920E-02 0. -1.
        2   -1    0    0  501    0  0.00000000000E+00  0.00000000000E+00 -0.21124751451E+04  0.21124751451E+04  0.25500000920E-02 0.  1.
    10030    2    1    2    0    0  0.00000000000E+00  0.00000000000E+00 -0.13723861222E+04  0.28525641680E+04  0.25007356246E+04 0.  0.
        3    1    3    3  502    0 -0.39608269709E+03  0.69332533126E+02  0.66432378027E+03  0.77654014598E+03  0.10100000352E+00 0. -1.
       -3    1    3    3    0  502  0.39608269709E+03 -0.69332533126E+02 -0.20367099025E+04  0.20760240221E+04  0.10100000352E+00 0.  1.
</event>
<event>
 5   0  0.3972587E-07  0.2499716E+04  0.7818609E-02  0.8403087E-01
        1   -1    0    0  501    0  0.00000000000E+00  0.00000000000E+00  0.11570703624E+04  0.11570703624E+04  0.50400001928E-02 0.  1.
       -1   -1    0    0    0  501  0.00000000000E+00  0.00000000000E+00 -0.13500861596E+04  0.13500861596E+04  0.50400001928E-02 0. -1.
    10030    2    1    2    0    0  0.00000000000E+00  0.00000000000E+00 -0.19301579725E+03  0.25071565220E+04  0.24997157294E+04 0.  0.
        3    1    3    3  502    0 -0.28795585389E+03 -0.96232227626E+03  0.64945455413E+03  0.11961496417E+04  0.10100000352E+00 0.  1.
       -3    1    3    3    0  502  0.28795585389E+03  0.96232227626E+03 -0.84247035137E+03  0.13110068804E+04  0.10100000352E+00 0. -1.
</event>
<event>
 5   0  0.3991066E-07  0.2498947E+04  0.7818609E-02  0.8403361E-01
        1   -1    0    0  501    0  0.00000000000E+00  0.00000000000E+00  0.18539503052E+04  0.18539503052E+04  0.50400001928E-02 0. -1.
       -1   -1    0    0    0  501  0.00000000000E+00  0.00000000000E+00 -0.84208547135E+03  0.84208547137E+03  0.50400001928E-02 0.  1.
    10030    2    1    2    0    0  0.00000000000E+00  0.00000000000E+00  0.10118648338E+04  0.26960357765E+04  0.24989474717E+04 0.  0.
        1    1    3    3  502    0 -0.14931757517E+02 -0.71702817236E+03  0.16097748184E+04  0.17623073861E+04  0.50400001928E-02 0. -1.
       -1    1    3    3    0  502  0.14931757517E+02  0.71702817236E+03 -0.59790998458E+03  0.93372839039E+03  0.50400001928E-02 0.  1.
</event>
<event>
 5   0  0.3805418E-07  0.2501795E+04  0.7818609E-02  0.8402347E-01
       -1   -1    0    0    0  501  0.00000000000E+00  0.00000000000E+00  0.21586574292E+04  0.21586574292E+04  0.50400001928E-02 0. -1.
        1   -1    0    0  501    0  0.00000000000E+00  0.00000000000E+00 -0.72486905624E+03  0.72486905626E+03  0.50400001928E-02 0.  1.
    10030    2    1    2    0    0  0.00000000000E+00  0.00000000000E+00  0.14337883730E+04  0.28835264855E+04  0.25017945347E+04 0.  0.
        4    1    3    3  502    0 -0.31621920629E+03  0.13641366132E+03  0.21029392094E+04  0.21309524173E+04  0.12699999809E+01 0. -1.
       -4    1    3    3    0  502  0.31621920629E+03 -0.13641366132E+03 -0.66915083639E+03  0.75257406822E+03  0.12699999809E+01 0.  1.
</event>
<event>
 5   0  0.9508784E-07  0.2500496E+04  0.7818609E-02  0.8402809E-01
       -2   -1    0    0    0  501  0.00000000000E+00  0.00000000000E+00  0.61320763605E+03  0.61320763606E+03  0.25500000920E-02 0.  1.
        2   -1    0    0  501    0  0.00000000000E+00  0.00000000000E+00 -0.25490875118E+04  0.25490875118E+04  0.25500000920E-02 0. -1.
    10030    2    1    2    0    0  0.00000000000E+00  0.00000000000E+00 -0.19358798757E+04  0.31622951478E+04  0.25004958926E+04 0.  0.
        2    1    3    3  502    0  0.56930503576E+03 -0.63644447960E+02 -0.23733494642E+04  0.24415049701E+04  0.25500000920E-02 0. -1.
       -2    1    3    3    0  502 -0.56930503576E+03  0.63644447960E+02  0.43746958850E+03  0.72079017777E+03  0.25500000920E-02 0.  1.
</event>
<event>
 5   0  0.9508784E-07  0.2496459E+04  0.7818609E-02  0.8404248E-01
       -2   -1    0    0    0  501  0.00000000000E+00  0.00000000000E+00  0.93330198436E+03  0.93330198436E+03  0.25500000920E-02 0. -1.
        2   -1    0    0  501    0  0.00000000000E+00  0.00000000000E+00 -0.16694243540E+04  0.16694243540E+04  0.25500000920E-02 0.  1.
    10030    2    1    2    0    0  0.00000000000E+00  0.00000000000E+00 -0.73612236966E+03  0.26027263384E+04  0.24964591424E+04 0.  0.
        2    1    3    3  502    0  0.85061073220E+03  0.88249931672E+03 -0.12193273549E+03  0.12317512954E+04  0.25500000920E-02 0. -1.
       -2    1    3    3    0  502 -0.85061073220E+03 -0.88249931672E+03 -0.61418963417E+03  0.13709750430E+04  0.25500000920E-02 0.  1.
</event>
<event>
 5   0  0.9508784E-07  0.2499421E+04  0.7818609E-02  0.8403192E-01
        2   -1    0    0  501    0  0.00000000000E+00  0.00000000000E+00  0.20220511920E+04  0.20220511920E+04  0.25500000920E-02 0. -1.
       -2   -1    0    0    0  501  0.00000000000E+00  0.00000000000E+00 -0.77237223875E+03  0.77237223876E+03  0.25500000920E-02 0.  1.
    10030    2    1    2    0    0  0.00000000000E+00  0.00000000000E+00  0.12496789533E+04  0.27944234308E+04  0.24994208978E+04 0.  0.
        2    1    3    3  502    0 -0.53202487397E+03 -0.22129580514E+03 -0.61498990137E+03  0.84275434065E+03  0.25500000920E-02 0.  1.
       -2    1    3    3    0  502  0.53202487397E+03  0.22129580514E+03  0.18646688547E+04  0.19516690901E+04  0.25500000920E-02 0. -1.
</event>
<event>
 5   0  0.3873231E-07  0.2498591E+04  0.7818609E-02  0.8403488E-01
       -1   -1    0    0    0  501  0.00000000000E+00  0.00000000000E+00  0.83463934562E+03  0.83463934564E+03  0.50400001928E-02 0.  1.
        1   -1    0    0  501    0  0.00000000000E+00  0.00000000000E+00 -0.18699560723E+04  0.18699560723E+04  0.50400001928E-02 0. -1.
    10030    2    1    2    0    0  0.00000000000E+00  0.00000000000E+00 -0.10353167267E+04  0.27045954179E+04  0.24985907328E+04 0.  0.
        2    1    3    3  502    0  0.67682733912E+03  0.54541370426E+03 -0.14889514927E+04  0.17241078572E+04  0.25500000920E-02 0. -1.
       -2    1    3    3    0  502 -0.67682733912E+03 -0.54541370426E+03  0.45363476601E+03  0.98048756071E+03  0.25500000920E-02 0.  1.
</event>
<event>
 5   0  0.3805418E-07  0.2499243E+04  0.7818609E-02  0.8403255E-01
        1   -1    0    0  501    0  0.00000000000E+00  0.00000000000E+00  0.17000475000E+04  0.17000475000E+04  0.50400001928E-02 0. -1.
       -1   -1    0    0    0  501  0.00000000000E+00  0.00000000000E+00 -0.91853520620E+03  0.91853520622E+03  0.50400001928E-02 0.  1.
    10030    2    1    2    0    0  0.00000000000E+00  0.00000000000E+00  0.78151229384E+03  0.26185827063E+04  0.24992426701E+04 0.  0.
        4    1    3    3  502    0 -0.69345876737E+03 -0.14492377854E+03  0.14693102588E+04  0.16311842977E+04  0.12699999809E+01 0. -1.
       -4    1    3    3    0  502  0.69345876737E+03  0.14492377854E+03 -0.68779796498E+03  0.98739840853E+03  0.12699999809E+01 0.  1.
</event>
<event>
 5   0  0.3972587E-07  0.2501469E+04  0.7818609E-02  0.8402462E-01
       -1   -1    0    0    0  501  0.00000000000E+00  0.00000000000E+00  0.63602817773E+03  0.63602817775E+03  0.50400001928E-02 0.  1.
        1   -1    0    0  501    0  0.00000000000E+00  0.00000000000E+00 -0.24595400693E+04  0.24595400693E+04  0.50400001928E-02 0. -1.
    10030    2    1    2    0    0  0.00000000000E+00  0.00000000000E+00 -0.18235118916E+04  0.30955682471E+04  0.25014689991E+04 0.  0.
        3    1    3    3  502    0 -0.46314429387E+03  0.16036641736E+03  0.51223883805E+03  0.70894898418E+03  0.10100000352E+00 0.  1.
       -3    1    3    3    0  502  0.46314429387E+03 -0.16036641736E+03 -0.23357507297E+04  0.23866192629E+04  0.10100000352E+00 0. -1.
</event>
<event>
 5   0  0.9251138E-07  0.2499616E+04  0.7818609E-02  0.8403122E-01
        2   -1    0    0  501    0  0.00000000000E+00  0.00000000000E+00  0.14018116494E+04  0.14018116494E+04  0.25500000920E-02 0.  1.
       -2   -1    0    0    0  501  0.00000000000E+00  0.00000000000E+00 -0.11142867315E+04  0.11142867315E+04  0.25500000920E-02 0. -1.
    10030    2    1    2    0    0  0.00000000000E+00  0.00000000000E+00  0.28752491790E+03  0.25160983810E+04  0.24996160674E+04 0.  0.
        5    1    3    3  502    0  0.25774078826E+03  0.95926206991E+02  0.13709676237E+04  0.13982869757E+04  0.46999998093E+01 0.  1.
       -5    1    3    3    0  502 -0.25774078826E+03 -0.95926206991E+02 -0.10834427058E+04  0.11178114053E+04  0.46999998093E+01 0. -1.
</event>
<event>
 5   0  0.3805418E-07  0.2501546E+04  0.7818609E-02  0.8402435E-01
        1   -1    0    0  501    0  0.00000000000E+00  0.00000000000E+00  0.15532401440E+04  0.15532401440E+04  0.50400001928E-02 0.  1.
       -1   -1    0    0    0  501  0.00000000000E+00  0.00000000000E+00 -0.10072065582E+04  0.10072065582E+04  0.50400001928E-02 0. -1.
    10030    2    1    2    0    0  0.00000000000E+00  0.00000000000E+00  0.54603358585E+03  0.25604467022E+04  0.25015464493E+04 0.  0.
        4    1    3    3  502    0 -0.12073079577E+04  0.30274312141E+03  0.14688315270E+03  0.12533244495E+04  0.12699999809E+01 0. -1.
       -4    1    3    3    0  502  0.12073079577E+04 -0.30274312141E+03  0.39915043315E+03  0.13071222527E+04  0.12699999809E+01 0.  1.
</event>
<event>
 5   0  0.9251138E-07  0.2499637E+04  0.7818609E-02  0.8403115E-01
       -2   -1    0    0    0  501  0.00000000000E+00  0.00000000000E+00  0.71611113312E+03  0.71611113313E+03  0.25500000920E-02 0. -1.
        2   -1    0    0  501    0  0.00000000000E+00  0.00000000000E+00 -0.21812899376E+04  0.21812899376E+04  0.25500000920E-02 0.  1.
    10030    2    1    2    0    0  0.00000000000E+00  0.00000000000E+00 -0.14651788045E+04  0.28974010708E+04  0.24996367807E+04 0.  0.
        5    1    3    3  502    0  0.18689319385E+03  0.66332177405E+03  0.47596519119E+03  0.83754987616E+03  0.46999998093E+01 0. -1.
       -5    1    3    3    0  502 -0.18689319385E+03 -0.66332177405E+03 -0.19411439957E+04  0.20598511946E+04  0.46999998093E+01 0.  1.
</event>
<event>
 5   0  0.3805418E-07  0.2504564E+04  0.7818609E-02  0.8401361E-01
        1   -1    0    0  501    0  0.00000000000E+00  0.00000000000E+00  0.89771429136E+03  0.89771429137E+03  0.50400001928E-02 0. -1.
       -1   -1    0    0    0  501  0.00000000000E+00  0.00000000000E+00 -0.17468927246E+04  0.17468927246E+04  0.50400001928E-02 0.  1.
    10030    2    1    2    0    0  0.00000000000E+00  0.00000000000E+00 -0.84917843325E+03  0.26446070160E+04  0.25045642850E+04 0.  0.
        4    1    3    3  502    0  0.42328497445E+03  0.24250329461E+03  0.79325709170E+03  0.93125530545E+03  0.12699999809E+01 0. -1.
       -4    1    3    3    0  502 -0.42328497445E+03 -0.24250329461E+03 -0.16424355249E+04  0.17133517105E+04  0.12699999809E+01 0.  1.
</event>
<event>
 5   0  0.3837524E-07  0.2499329E+04  0.7818609E-02  0.8403225E-01
        1   -1    0    0  501    0  0.00000000000E+00  0.00000000000E+00  0.10312489819E+04  0.10312489820E+04  0.50400001928E-02 0.  1.
       -1   -1    0    0    0  501  0.00000000000E+00  0.00000000000E+00 -0.15143395911E+04  0.15143395911E+04  0.50400001928E-02 0. -1.
    10030    2    1    2    0    0  0.00000000000E+00  0.00000000000E+00 -0.48309060913E+03  0.25455885731E+04  0.24993288392E+04 0.  0.
        5    1    3    3  502    0  0.51401483674E+03 -0.37412565862E+03 -0.13373102362E+04  0.14807437383E+04  0.46999998093E+01 0. -1.
       -5    1    3    3    0  502 -0.51401483674E+03  0.37412565862E+03  0.85421962704E+03  0.10648448347E+04  0.46999998093E+01 0.  1.
</event>
<event>
 5   0  0.3972587E-07  0.2492153E+04  0.7818609E-02  0.8405787E-01
       -1   -1    0    0    0  501  0.00000000000E+00  0.00000000000E+00  0.80464808721E+03  0.80464808722E+03  0.50400001928E-02 0. -1.
        1   -1    0    0  501    0  0.00000000000E+00  0.00000000000E+00 -0.19296712215E+04  0.19296712215E+04  0.50400001928E-02 0.  1.
    10030    2    1    2    0    0  0.00000000000E+00  0.00000000000E+00 -0.11250231343E+04  0.27343193087E+04  0.24921526898E+04 0.  0.
        3    1    3    3  502    0 -0.77876615721E+03 -0.58273982902E+03 -0.14170694167E+04  0.17187635608E+04  0.10100000352E+00 0.  1.
       -3    1    3    3    0  502  0.77876615721E+03  0.58273982902E+03  0.29204628240E+03  0.10155557480E+04  0.10100000352E+00 0. -1.
</event>
<event>
 5   0  0.3991066E-07  0.2499808E+04  0.7818609E-02  0.8403054E-01
       -1   -1    0    0    0  501  0.00000000000E+00  0.00000000000E+00  0.85275599694E+03  0.85275599695E+03  0.50400001928E-02 0. -1.
        1   -1    0    0  501    0  0.00000000000E+00  0.00000000000E+00 -0.18320134412E+04  0.18320134412E+04  0.50400001928E-02 0.  1.
    10030    2    1    2    0    0  0.00000000000E+00  0.00000000000E+00 -0.97925744424E+03  0.26847694381E+04  0.24998083514E+04 0.  0.
        1    1    3    3  502    0 -0.32097503623E+03 -0.74311870633E+03  0.53320805113E+03  0.96930965712E+03  0.50400001928E-02 0. -1.
       -1    1    3    3    0  502  0.32097503623E+03  0.74311870633E+03 -0.15124654954E+04  0.17154597810E+04  0.50400001928E-02 0.  1.
</event>
<event>
 5   0  0.9261602E-07  0.2502409E+04  0.7818609E-02  0.8402128E-01
        2   -1    0    0  501    0  0.00000000000E+00  0.00000000000E+00  0.63493779256E+03  0.63493779256E+03  0.25500000920E-02 0.  1.
       -2   -1    0    0    0  501  0.00000000000E+00  0.00000000000E+00 -0.24656155717E+04  0.24656155717E+04  0.25500000920E-02 0. -1.
    10030    2    1    2    0    0  0.00000000000E+00  0.00000000000E+00 -0.18306777791E+04  0.31005533642E+04  0.25024088462E+04 0.  0.
        4    1    3    3  502    0 -0.83303757532E+03 -0.24156825212E+03 -0.20326669776E+04  0.22099872120E+04  0.12699999809E+01 0. -1.
       -4    1    3    3    0  502  0.83303757532E+03  0.24156825212E+03  0.20198919850E+03  0.89056615226E+03  0.12699999809E+01 0.  1.
</event>
<event>
 5   0  0.9508784E-07  0.2499858E+04  0.7818609E-02  0.8403036E-01
       -2   -1    0    0    0  501  0.00000000000E+00  0.00000000000E+00  0.12159997857E+04  0.12159997857E+04  0.25500000920E-02 0.  1.
        2   -1    0    0  501    0  0.00000000000E+00  0.00000000000E+00 -0.12848045738E+04  0.12848045738E+04  0.25500000920E-02 0. -1.
    10030    2    1    2    0    0  0.00000000000E+00  0.00000000000E+00 -0.68804788024E+02  0.25008043595E+04  0.24998576651E+04 0.  0.
        2    1    3    3  502    0 -0.43730684434E+02  0.64019522630E+03  0.10386453138E+04  0.12208793505E+04  0.25500000920E-02 0.  1.
       -2    1    3    3    0  502  0.43730684434E+02 -0.64019522630E+03 -0.11074501019E+04  0.12799250090E+04  0.25500000920E-02 0. -1.
</event>
<event>
 5   0  0.3972587E-07  0.2499989E+04  0.7818609E-02  0.8402990E-01
       -1   -1    0    0    0  501  0.00000000000E+00  0.00000000000E+00  0.75624352999E+03  0.75624353001E+03  0.50400001928E-02 0.  1.
        1   -1    0    0  501    0  0.00000000000E+00  0.00000000000E+00 -0.20661145584E+04  0.20661145584E+04  0.50400001928E-02 0. -1.
    10030    2    1    2    0    0  0.00000000000E+00  0.00000000000E+00 -0.13098710284E+04  0.28223580884E+04  0.24999886136E+04 0.  0.
        3    1    3    3  502    0  0.11755282915E+04  0.22400571011E+03 -0.10626725882E+04  0.16004119351E+04  0.10100000352E+00 0. -1.
       -3    1    3    3    0  502 -0.11755282915E+04 -0.22400571011E+03 -0.24719844023E+03  0.12219461532E+04  0.10100000352E+00 0.  1.
</event>
<event>
 5   0  0.9768582E-07  0.2499574E+04  0.7818609E-02  0.8403137E-01
        2   -1    0    0  501    0  0.00000000000E+00  0.00000000000E+00  0.18275359139E+04  0.18275359139E+04  0.25500000920E-02 0. -1.
       -2   -1    0    0    0  501  0.00000000000E+00  0.00000000000E+00 -0.85468492893E+03  0.85468492893E+03  0.25500000920E-02 0.  1.
    10030    2    1    2    0    0  0.00000000000E+00  0.00000000000E+00  0.97285098494E+03  0.26822208428E+04  0.24995738858E+04 0.  0.
        3    1    3    3  502    0  0.93257697136E+03 -0.35467801154E+03 -0.32121378321E+03  0.10481768000E+04  0.10100000352E+00 0.  1.
       -3    1    3    3    0  502 -0.93257697136E+03  0.35467801154E+03  0.12940647682E+04  0.16340440428E+04  0.10100000352E+00 0. -1.
</event>
<event>
 5   0  0.3991066E-07  0.2499109E+04  0.7818609E-02  0.8403303E-01
       -1   -1    0    0    0  501  0.00000000000E+00  0.00000000000E+00  0.11255760326E+04  0.11255760326E+04  0.50400001928E-02 0.  1.
        1   -1    0    0  501    0  0.00000000000E+00  0.00000000000E+00 -0.13871893368E+04  0.13871893368E+04  0.50400001928E-02 0. -1.
    10030    2    1    2    0    0  0.00000000000E+00  0.00000000000E+00 -0.26161330419E+03  0.25127653694E+04  0.24991094975E+04 0.  0.
        1    1    3    3  502    0  0.86621628585E+03 -0.75678554710E+03  0.36005361477E+03  0.12052774053E+04  0.50400001928E-02 0. -1.
       -1    1    3    3    0  502 -0.86621628585E+03  0.75678554710E+03 -0.62166691895E+03  0.13074879641E+04  0.50400001928E-02 0.  1.
</event>
<event>
 5   0  0.3805418E-07  0.2498621E+04  0.7818609E-02  0.8403477E-01
        1   -1    0    0  501    0  0.00000000000E+00  0.00000000000E+00  0.99014187884E+03  0.99014187886E+03  0.50400001928E-02 0. -1.
       -1   -1    0    0    0  501  0.00000000000E+00  0.00000000000E+00 -0.15763168187E+04  0.15763168187E+04  0.50400001928E-02 0.  1.
    10030    2    1    2    0    0  0.00000000000E+00  0.00000000000E+00 -0.58617493981E+03  0.25664586975E+04  0.24986214571E+04 0.  0.
        4    1    3    3  502    0  0.78977001716E+03  0.25354291029E+03  0.66648987536E+03  0.10640634634E+04  0.12699999809E+01 0. -1.
       -4    1    3    3    0  502 -0.78977001716E+03 -0.25354291029E+03 -0.12526648152E+04  0.15023952341E+04  0.12699999809E+01 0.  1.
</event>
<event>
 5   0  0.3837524E-07  0.2500097E+04  0.7818609E-02  0.8402951E-01
        1   -1    0    0  501    0  0.00000000000E+00  0.00000000000E+00  0.10444156647E+04  0.10444156647E+04  0.50400001928E-02 0. -1.
       -1   -1    0    0    0  501  0.00000000000E+00  0.00000000000E+00 -0.14961682399E+04  0.14961682399E+04  0.50400001928E-02 0.  1.
    10030    2    1    2    0    0  0.00000000000E+00  0.00000000000E+00 -0.45175257528E+03  0.25405839046E+04  0.25000972355E+04 0.  0.
        5    1    3    3  502    0 -0.22839088847E+03 -0.97929916738E+03 -0.98047149065E+03  0.14044698968E+04  0.46999998093E+01 0.  1.
       -5    1    3    3    0  502  0.22839088847E+03  0.97929916738E+03  0.52871891537E+03  0.11361140078E+04  0.46999998093E+01 0. -1.
</event>
<event>
 5   0  0.9768582E-07  0.2498091E+04  0.7818609E-02  0.8403666E-01
       -2   -1    0    0    0  501  0.00000000000E+00  0.00000000000E+00  0.12353956146E+04  0.12353956146E+04  0.25500000920E-02 0.  1.
        2   -1    0    0  501    0  0.00000000000E+00  0.00000000000E+00 -0.12628466581E+04  0.12628466581E+04  0.25500000920E-02 0. -1.
    10030    2    1    2    0    0  0.00000000000E+00  0.00000000000E+00 -0.27451043463E+02  0.24982422727E+04  0.24980914501E+04 0.  0.
        3    1    3    3  502    0  0.10689810244E+04  0.63148904682E+03 -0.15017556516E+03  0.12506204689E+04  0.10100000352E+00 0. -1.
       -3    1    3    3    0  502 -0.10689810244E+04 -0.63148904682E+03  0.12272452169E+03  0.12476218037E+04  0.10100000352E+00 0.  1.
</event>
<event>
 5   0  0.3991066E-07  0.2506118E+04  0.7818609E-02  0.8400809E-01
       -1   -1    0    0    0  501  0.00000000000E+00  0.00000000000E+00  0.27730125200E+04  0.27730125200E+04  0.50400001928E-02 0. -1.
        1   -1    0    0  501    0  0.00000000000E+00  0.00000000000E+00 -0.56622769640E+03  0.56622769642E+03  0.50400001928E-02 0.  1.
    10030    2    1    2    0    0  0.00000000000E+00  0.00000000000E+00  0.22067848236E+04  0.33392402164E+04  0.25061177078E+04 0.  0.
        1    1    3    3  502    0 -0.10279390090E+04 -0.24412072896E+03  0.20010851292E+04  0.22628732247E+04  0.50400001928E-02 0. -1.
       -1    1    3    3    0  502  0.10279390090E+04  0.24412072896E+03  0.20569969439E+03  0.10763669917E+04  0.50400001928E-02 0.  1.
</event>
<event>
 5   0  0.8997210E-07  0.2500990E+04  0.7818609E-02  0.8402633E-01
       -2   -1    0    0    0  501  0.00000000000E+00  0.00000000000E+00  0.11355872316E+04  0.11355872316E+04  0.25500000920E-02 0. -1.
        2   -1    0    0  501    0  0.00000000000E+00  0.00000000000E+00 -0.13770298091E+04  0.13770298092E+04  0.25500000920E-02 0.  1.
    10030    2    1    2    0    0  0.00000000000E+00  0.00000000000E+00 -0.24144257754E+03  0.25126170408E+04  0.25009897791E+04 0.  0.
        1    1    3    3  502    0 -0.57735175684E+03 -0.10829280931E+04 -0.36198177982E+03  0.12794917409E+04  0.50400001928E-02 0. -1.
       -1    1    3    3    0  502  0.57735175684E+03  0.10829280931E+04  0.12053920228E+03  0.12331252999E+04  0.50400001928E-02 0.  1.
</event>
<event>
 5   0  0.3805418E-07  0.2500584E+04  0.7818609E-02  0.8402778E-01
        1   -1    0    0  501    0  0.00000000000E+00  0.00000000000E+00  0.73237620157E+03  0.73237620159E+03  0.50400001928E-02 0. -1.
       -1   -1    0    0    0  501  0.00000000000E+00  0.00000000000E+00 -0.21344629353E+04  0.21344629353E+04  0.50400001928E-02 0.  1.
    10030    2    1    2    0    0  0.00000000000E+00  0.00000000000E+00 -0.14020867338E+04  0.28668391369E+04  0.25005838174E+04 0.  0.
        4    1    3    3  502    0  0.33396190839E+03  0.20625991488E+03 -0.20619903892E+04  0.20990187438E+04  0.12699999809E+01 0.  1.
       -4    1    3    3    0  502 -0.33396190839E+03 -0.20625991488E+03  0.65990365544E+03  0.76782039313E+03  0.12699999809E+01 0. -1.
</event>
<event>
 5   0  0.3837524E-07  0.2509098E+04  0.7818609E-02  0.8399751E-01
       -1   -1    0    0    0  501  0.00000000000E+00  0.00000000000E+00  0.58031877775E+03  0.58031877777E+03  0.50400001928E-02 0.  1.
        1   -1    0    0  501    0  0.00000000000E+00  0.00000000000E+00 -0.27121186035E+04  0.27121186035E+04  0.50400001928E-02 0. -1.
    10030    2    1    2    0    0  0.00000000000E+00  0.00000000000E+00 -0.21317998257E+04  0.32924373813E+04  0.25090981273E+04 0.  0.
        5    1    3    3  502    0 -0.10756443679E+04  0.64337650297E+03 -0.99490600844E+03  0.16002512885E+04  0.46999998093E+01 0. -1.
       -5    1    3    3    0  502  0.10756443679E+04 -0.64337650297E+03 -0.11368938173E+04  0.16921860928E+04  0.46999998093E+01 0.  1.
</event>
<event>
 5   0  0.3873231E-07  0.2500246E+04  0.7818609E-02  0.8402898E-01
        1   -1    0    0  501    0  0.00000000000E+00  0.00000000000E+00  0.22186963678E+04  0.22186963678E+04  0.50400001928E-02 0.  1.
       -1   -1    0    0    0  501  0.00000000000E+00  0.00000000000E+00 -0.70438107147E+03  0.70438107148E+03  0.50400001928E-02 0. -1.
    10030    2    1    2    0    0  0.00000000000E+00  0.00000000000E+00  0.15143152963E+04  0.29230774393E+04  0.25002461677E+04 0.  0.
        2    1    3    3  502    0  0.63491570036E+03  0.74756137796E+03  0.16633859205E+04  0.19310149355E+04  0.25500000920E-02 0.  1.
       -2    1    3    3    0  502 -0.63491570036E+03 -0.74756137796E+03 -0.14907062424E+03  0.99206250378E+03  0.25500000920E-02 0. -1.
</event>
<event>
 5   0  0.3873231E-07  0.2501529E+04  0.7818609E-02  0.8402441E-01
       -1   -1    0    0    0  501  0.00000000000E+00  0.00000000000E+00  0.15705126027E+04  0.15705126027E+04  0.50400001928E-02 0. -1.
        1   -1    0    0  501    0  0.00000000000E+00  0.00000000000E+00 -0.99611570409E+03  0.99611570410E+03  0.50400001928E-02 0.  1.
    10030    2    1    2    0    0  0.00000000000E+00  0.00000000000E+00  0.57439689859E+03  0.25666283068E+04  0.25015293458E+04 0.  0.
        2    1    3    3  502    0 -0.62388743499E+03  0.38413552409E+03 -0.75289638777E+03  0.10505468115E+04  0.25500000920E-02 0.  1.
       -2    1    3    3    0  502  0.62388743499E+03 -0.38413552409E+03  0.13272932864E+04  0.15160814953E+04  0.25500000920E-02 0. -1.
</event>
<event>
 5   0  0.3837524E-07  0.2501187E+04  0.7818609E-02  0.8402563E-01
        1   -1    0    0  501    0  0.00000000000E+00  0.00000000000E+00  0.24781346754E+04  0.24781346754E+04  0.50400001928E-02 0. -1.
       -1   -1    0    0    0  501  0.00000000000E+00  0.00000000000E+00 -0.63111352377E+03  0.63111352379E+03  0.50400001928E-02 0.  1.
    10030    2    1    2    0    0  0.00000000000E+00  0.00000000000E+00  0.18470211516E+04  0.31092481992E+04  0.25011871641E+04 0.  0.
        5    1    3    3  502    0 -0.10493469511E+04  0.59131559397E+03  0.13417184883E+04  0.18030567787E+04  0.46999998093E+01 0.  1.
       -5    1    3    3    0  502  0.10493469511E+04 -0.59131559397E+03  0.50530266328E+03  0.13061914205E+04  0.46999998093E+01 0. -1.
</event>
<event>
 5   0  0.9508784E-07  0.2500797E+04  0.7818609E-02  0.8402702E-01
        2   -1    0    0  501    0  0.00000000000E+00  0.00000000000E+00  0.17075247377E+04  0.17075247377E+04  0.25500000920E-02 0.  1.
       -2   -1    0    0    0  501  0.00000000000E+00  0.00000000000E+00 -0.91565090675E+03  0.91565090675E+03  0.25500000920E-02 0. -1.
    10030    2    1    2    0    0  0.00000000000E+00  0.00000000000E+00  0.79187383096E+03  0.26231756445E+04  0.25007971324E+04 0.  0.
        2    1    3    3  502    0  0.29562143822E+03 -0.24006982881E+03 -0.85334122795E+03  0.93446070477E+03  0.25500000920E-02 0. -1.
       -2    1    3    3    0  502 -0.29562143822E+03  0.24006982881E+03  0.16452150589E+04  0.16887149397E+04  0.25500000920E-02 0.  1.
</event>
<event>
 5   0  0.3991066E-07  0.2499823E+04  0.7818609E-02  0.8403049E-01
        1   -1    0    0  501    0  0.00000000000E+00  0.00000000000E+00  0.15226910407E+04  0.15226910407E+04  0.50400001928E-02 0. -1.
       -1   -1    0    0    0  501  0.00000000000E+00  0.00000000000E+00 -0.10259983923E+04  0.10259983923E+04  0.50400001928E-02 0.  1.
    10030    2    1    2    0    0  0.00000000000E+00  0.00000000000E+00  0.49669264841E+03  0.25486894330E+04  0.24998228415E+04 0.  0.
        1    1    3    3  502    0  0.85407348485E+03  0.85695788380E+03 -0.71571254394E+02  0.12119986702E+04  0.50400001928E-02 0. -1.
       -1    1    3    3    0  502 -0.85407348485E+03 -0.85695788380E+03  0.56826390281E+03  0.13366907628E+04  0.50400001928E-02 0.  1.
</event>
<event>
 5   0  0.3991066E-07  0.2498446E+04  0.7818609E-02  0.8403540E-01
       -1   -1    0    0    0  501  0.00000000000E+00  0.00000000000E+00  0.10411338463E+04  0.10411338463E+04  0.50400001928E-02 0. -1.
        1   -1    0    0  501    0  0.00000000000E+00  0.00000000000E+00 -0.14989019065E+04  0.14989019065E+04  0.50400001928E-02 0.  1.
    10030    2    1    2    0    0  0.00000000000E+00  0.00000000000E+00 -0.45776806022E+03  0.25400357528E+04  0.24984455224E+04 0.  0.
        1    1    3    3  502    0  0.20674585575E+03  0.67170980971E+03  0.82108073040E+03  0.10807920629E+04  0.50400001928E-02 0. -1.
       -1    1    3    3    0  502 -0.20674585575E+03 -0.67170980971E+03 -0.12788487906E+04  0.14592436899E+04  0.50400001928E-02 0.  1.
</event>
<event>
 5   0  0.3991066E-07  0.2501999E+04  0.7818609E-02  0.8402274E-01
        1   -1    0    0  501    0  0.00000000000E+00  0.00000000000E+00  0.18669042198E+04  0.18669042198E+04  0.50400001928E-02 0. -1.
       -1   -1    0    0    0  501  0.00000000000E+00  0.00000000000E+00 -0.83828579181E+03  0.83828579183E+03  0.50400001928E-02 0.  1.
    10030    2    1    2    0    0  0.00000000000E+00  0.00000000000E+00  0.10286184280E+04  0.27051900116E+04  0.25019986268E+04 0.  0.
        1    1    3    3  502    0  0.31129343843E+03 -0.56303534643E+03 -0.64570886927E+03  0.91151102572E+03  0.50400001928E-02 0.  1.
       -1    1    3    3    0  502 -0.31129343843E+03  0.56303534643E+03  0.16743272973E+04  0.17936789859E+04  0.50400001928E-02 0. -1.
</event>
<event>
 5   0  0.9261602E-07  0.2504517E+04  0.7818609E-02  0.8401378E-01
       -2   -1    0    0    0  501  0.00000000000E+00  0.00000000000E+00  0.11117306340E+04  0.11117306341E+04  0.25500000920E-02 0.  1.
        2   -1    0    0  501    0  0.00000000000E+00  0.00000000000E+00 -0.14105494658E+04  0.14105494658E+04  0.25500000920E-02 0. -1.
    10030    2    1    2    0    0  0.00000000000E+00  0.00000000000E+00 -0.29881883177E+03  0.25222800999E+04  0.25045167614E+04 0.  0.
        4    1    3    3  502    0  0.10292199192E+04 -0.70906799038E+03 -0.22792635659E+03  0.12704420860E+04  0.12699999809E+01 0. -1.
       -4    1    3    3    0  502 -0.10292199192E+04  0.70906799038E+03 -0.70892475174E+02  0.12518380139E+04  0.12699999809E+01 0.  1.
</event>
<event>
 5   0  0.3972587E-07  0.2500029E+04  0.7818609E-02  0.8402975E-01
       -1   -1    0    0    0  501  0.00000000000E+00  0.00000000000E+00  0.11447747939E+04  0.11447747939E+04  0.50400001928E-02 0. -1.
        1   -1    0    0  501    0  0.00000000000E+00  0.00000000000E+00 -0.13649287843E+04  0.13649287844E+04  0.50400001928E-02 0.  1.
    10030    2    1    2    0    0  0.00000000000E+00  0.00000000000E+00 -0.22015399041E+03  0.25097035783E+04  0.25000288541E+04 0.  0.
        3    1    3    3  502    0  0.59706664916E+03  0.96105121214E+03 -0.64357317778E+03  0.13016506679E+04  0.10100000352E+00 0. -1.
       -3    1    3    3    0  502 -0.59706664916E+03 -0.96105121214E+03  0.42341918736E+03  0.12080529104E+04  0.10100000352E+00 0.  1.
</event>
<event>
 5   0  0.9261602E-07  0.2497195E+04  0.7818609E-02  0.8403985E-01
        2   -1    0    0  501    0  0.00000000000E+00  0.00000000000E+00  0.19172101313E+04  0.19172101313E+04  0.25500000920E-02 0. -1.
       -2   -1    0    0    0  501  0.00000000000E+00  0.00000000000E+00 -0.81315867308E+03  0.81315867309E+03  0.25500000920E-02 0.  1.
    10030    2    1    2    0    0  0.00000000000E+00  0.00000000000E+00  0.11040514582E+04  0.27303688044E+04  0.24971952638E+04 0.  0.
        4    1    3    3  502    0 -0.70953222971E+03  0.10273748402E+04  0.56045153788E+03  0.13685914608E+04  0.12699999809E+01 0. -1.
       -4    1    3    3    0  502  0.70953222971E+03 -0.10273748402E+04  0.54359992030E+03  0.13617773436E+04  0.12699999809E+01 0.  1.
</event>
<event>
 5   0  0.9768582E-07  0.2493535E+04  0.7818609E-02  0.8405292E-01
        2   -1    0    0  501    0  0.00000000000E+00  0.00000000000E+00  0.11040690510E+04  0.11040690510E+04  0.25500000920E-02 0. -1.
       -2   -1    0    0    0  501  0.00000000000E+00  0.00000000000E+00 -0.14079099114E+04  0.14079099114E+04  0.25500000920E-02 0.  1.
    10030    2    1    2    0    0  0.00000000000E+00  0.00000000000E+00 -0.30384086044E+03  0.25119789624E+04  0.24935354497E+04 0.  0.
        3    1    3    3  502    0  0.84768122074E+03 -0.86607863999E+03  0.14311794173E+03  0.12203025928E+04  0.10100000352E+00 0. -1.
       -3    1    3    3    0  502 -0.84768122074E+03  0.86607863999E+03 -0.44695880217E+03  0.12916763696E+04  0.10100000352E+00 0.  1.
</event>
<event>
 5   0  0.8997210E-07  0.2499030E+04  0.7818609E-02  0.8403331E-01
       -2   -1    0    0    0  501  0.00000000000E+00  0.00000000000E+00  0.12028065256E+04  0.12028065256E+04  0.25500000920E-02 0.  1.
        2   -1    0    0  501    0  0.00000000000E+00  0.00000000000E+00 -0.12980374601E+04  0.12980374601E+04  0.25500000920E-02 0. -1.
    10030    2    1    2    0    0  0.00000000000E+00  0.00000000000E+00 -0.95230934473E+02  0.25008439857E+04  0.24990301538E+04 0.  0.
        1    1    3    3  502    0 -0.15053934475E+03 -0.10190285908E+03 -0.12847334425E+04  0.12975308495E+04  0.50400001928E-02 0. -1.
       -1    1    3    3    0  502  0.15053934475E+03  0.10190285908E+03  0.11895025081E+04  0.12033131362E+04  0.50400001928E-02 0.  1.
</event>
<event>
 5   0  0.9261602E-07  0.2501377E+04  0.7818609E-02  0.8402495E-01
        2   -1    0    0  501    0  0.00000000000E+00  0.00000000000E+00  0.97805673594E+03  0.97805673595E+03  0.25500000920E-02 0. -1.
       -2   -1    0    0    0  501  0.00000000000E+00  0.00000000000E+00 -0.15993154094E+04  0.15993154094E+04  0.25500000920E-02 0.  1.
    10030    2    1    2    0    0  0.00000000000E+00  0.00000000000E+00 -0.62125867346E+03  0.25773721453E+04  0.25013765883E+04 0.  0.
        4    1    3    3  502    0  0.20687541462E+03 -0.11001985320E+04  0.26397382941E+03  0.11501817432E+04  0.12699999809E+01 0. -1.
       -4    1    3    3    0  502 -0.20687541462E+03  0.11001985320E+04 -0.88523250287E+03  0.14271904021E+04  0.12699999809E+01 0.  1.
</event>
<event>
 5   0  0.3972587E-07  0.2500362E+04  0.7818609E-02  0.8402857E-01
        1   -1    0    0  501    0  0.00000000000E+00  0.00000000000E+00  0.21653965651E+04  0.21653965651E+04  0.50400001928E-02 0. -1.
       -1   -1    0    0    0  501  0.00000000000E+00  0.00000000000E+00 -0.72178572312E+03  0.72178572314E+03  0.50400001928E-02 0.  1.
    10030    2    1    2    0    0  0.00000000000E+00  0.00000000000E+00  0.14436108420E+04  0.28871822883E+04  0.25003618343E+04 0.  0.
        3    1    3    3  502    0 -0.11317214839E+04  0.53116505836E+03  0.71633070357E+03  0.14408537481E+04  0.10100000352E+00 0. -1.
       -3    1    3    3    0  502  0.11317214839E+04 -0.53116505836E+03  0.72728013844E+03  0.14463285402E+04  0.10100000352E+00 0.  1.
</event>
<event>
 5   0  0.9768582E-07  0.2499560E+04  0.7818609E-02  0.8403142E-01
       -2   -1    0    0    0  501  0.00000000000E+00  0.00000000000E+00  0.56024034464E+03  0.56024034465E+03  0.25500000920E-02 0.  1.
        2   -1    0    0  501    0  0.00000000000E+00  0.00000000000E+00 -0.27879994392E+04  0.27879994392E+04  0.25500000920E-02 0. -1.
    10030    2    1    2    0    0  0.00000000000E+00  0.00000000000E+00 -0.22277590946E+04  0.33482397839E+04  0.24995597746E+04 0.  0.
        3    1    3    3  502    0 -0.27940165822E+03  0.11290613945E+04 -0.17264204092E+04  0.20816753730E+04  0.10100000352E+00 0.  1.
       -3    1    3    3    0  502  0.27940165822E+03 -0.11290613945E+04 -0.50133868541E+03  0.12665644109E+04  0.10100000352E+00 0. -1.
</event>
<event>
 5   0  0.3972587E-07  0.2498692E+04  0.7818609E-02  0.8403452E-01
        1   -1    0    0  501    0  0.00000000000E+00  0.00000000000E+00  0.12043921832E+04  0.12043921832E+04  0.50400001928E-02 0. -1.
       -1   -1    0    0    0  501  0.00000000000E+00  0.00000000000E+00 -0.12959780318E+04  0.12959780318E+04  0.50400001928E-02 0.  1.
    10030    2    1    2    0    0  0.00000000000E+00  0.00000000000E+00 -0.91585848591E+02  0.25003702150E+04  0.24986923069E+04 0.  0.
        3    1    3    3  502    0 -0.32824751367E+03 -0.61701864116E+03  0.99047351100E+03  0.12122277921E+04  0.10100000352E+00 0. -1.
       -3    1    3    3    0  502  0.32824751367E+03  0.61701864116E+03 -0.10820593596E+04  0.12881424229E+04  0.10100000352E+00 0.  1.
</event>
<event>
 5   0  0.9261602E-07  0.2499607E+04  0.7818609E-02  0.8403126E-01
       -2   -1    0    0    0  501  0.00000000000E+00  0.00000000000E+00  0.96320732352E+03  0.96320732352E+03  0.25500000920E-02 0.  1.
        2   -1    0    0  501    0  0.00000000000E+00  0.00000000000E+00 -0.16216742499E+04  0.16216742499E+04  0.25500000920E-02 0. -1.
    10030    2    1    2    0    0  0.00000000000E+00  0.00000000000E+00 -0.65846692635E+03  0.25848815734E+04  0.24996067801E+04 0.  0.
        4    1    3    3  502    0 -0.53030042264E+03  0.11296566662E+04 -0.39985815503E+03  0.13104315621E+04  0.12699999809E+01 0. -1.
       -4    1    3    3    0  502  0.53030042264E+03 -0.11296566662E+04 -0.25860877132E+03  0.12744500113E+04  0.12699999809E+01 0.  1.
</event>
<event>
 5   0  0.9508784E-07  0.2499010E+04  0.7818609E-02  0.8403338E-01
       -2   -1    0    0    0  501  0.00000000000E+00  0.00000000000E+00  0.11262056423E+04  0.11262056423E+04  0.25500000920E-02 0. -1.
        2   -1    0    0  501    0  0.00000000000E+00  0.00000000000E+00 -0.13863028981E+04  0.13863028981E+04  0.25500000920E-02 0.  1.
    10030    2    1    2    0    0  0.00000000000E+00  0.00000000000E+00 -0.26009725582E+03  0.25125085404E+04  0.24990095204E+04 0.  0.
        2    1    3    3  502    0 -0.11227748896E+04  0.29517150577E+03 -0.59461873722E+03  0.13043470065E+04  0.25500000920E-02 0.  1.
       -2    1    3    3    0  502  0.11227748896E+04 -0.29517150577E+03  0.33452148140E+03  0.12081615339E+04  0.25500000920E-02 0. -1.
</event>
<event>
 5   0  0.8997210E-07  0.2501938E+04  0.7818609E-02  0.8402295E-01
       -2   -1    0    0    0  501  0.00000000000E+00  0.00000000000E+00  0.12783919978E+04  0.12783919978E+04  0.25500000920E-02 0. -1.
        2   -1    0    0  501    0  0.00000000000E+00  0.00000000000E+00 -0.12241342139E+04  0.12241342139E+04  0.25500000920E-02 0.  1.
    10030    2    1    2    0    0  0.00000000000E+00  0.00000000000E+00  0.54257783925E+02  0.25025262117E+04  0.25019379555E+04 0.  0.
        1    1    3    3  502    0  0.47435048516E+03  0.81772636408E+03  0.84661304354E+03  0.12690305098E+04  0.50400001928E-02 0. -1.
       -1    1    3    3    0  502 -0.47435048516E+03 -0.81772636408E+03 -0.79235525961E+03  0.12334957020E+04  0.50400001928E-02 0.  1.
</event>
<event>
 5   0  0.9768582E-07  0.2495732E+04  0.7818609E-02  0.8404508E-01
        2   -1    0    0  501    0  0.00000000000E+00  0.00000000000E+00  0.81650272353E+03  0.81650272353E+03  0.25500000920E-02 0.  1.
       -2   -1    0    0    0  501  0.00000000000E+00  0.00000000000E+00 -0.19071214696E+04  0.19071214696E+04  0.25500000920E-02 0. -1.
    10030    2    1    2    0    0  0.00000000000E+00  0.00000000000E+00 -0.10906187461E+04  0.27236241931E+04  0.24957322565E+04 0.  0.
        3    1    3    3  502    0 -0.10153701949E+04 -0.50574439101E+02  0.24439349331E+03  0.10455919837E+04  0.10100000352E+00 0.  1.
       -3    1    3    3    0  502  0.10153701949E+04  0.50574439101E+02 -0.13350122394E+04  0.16780322095E+04  0.10100000352E+00 0. -1.
</event>
<event>
 5   0  0.9508784E-07  0.2499762E+04  0.7818609E-02  0.8403070E-01
       -2   -1    0    0    0  501  0.00000000000E+00  0.00000000000E+00  0.10391980223E+04  0.10391980223E+04  0.25500000920E-02 0.  1.
        2   -1    0    0  501    0  0.00000000000E+00  0.00000000000E+00 -0.15032773574E+04  0.15032773574E+04  0.25500000920E-02 0. -1.
    10030    2    1    2    0    0  0.00000000000E+00  0.00000000000E+00 -0.46407933513E+03  0.25424753798E+04  0.24997622742E+04 0.  0.
        2    1    3    3  502    0  0.76977906273E+03  0.64726146717E+03  0.52272900741E+03  0.11334693765E+04  0.25500000920E-02 0.  1.
       -2    1    3    3    0  502 -0.76977906273E+03 -0.64726146717E+03 -0.98680834254E+03  0.14090060033E+04  0.25500000920E-02 0. -1.
</event>
<event>
 5   0  0.3873231E-07  0.2500753E+04  0.7818609E-02  0.8402717E-01
        1   -1    0    0  501    0  0.00000000000E+00  0.00000000000E+00  0.12947351464E+04  0.12947351464E+04  0.50400001928E-02 0. -1.
       -1   -1    0    0    0  501  0.00000000000E+00  0.00000000000E+00 -0.12075376443E+04  0.12075376443E+04  0.50400001928E-02 0.  1.
    10030    2    1    2    0    0  0.00000000000E+00  0.00000000000E+00  0.87197502075E+02  0.25022727908E+04  0.25007530296E+04 0.  0.
        2    1    3    3  502    0 -0.82655436358E+03  0.83892401794E+03 -0.37672296153E+03  0.12364893099E+04  0.25500000920E-02 0.  1.
       -2    1    3    3    0  502  0.82655436358E+03 -0.83892401794E+03  0.46392046360E+03  0.12657834808E+04  0.25500000920E-02 0. -1.
</event>
<event>
 5   0  0.3873231E-07  0.2499573E+04  0.7818609E-02  0.8403138E-01
        1   -1    0    0  501    0  0.00000000000E+00  0.00000000000E+00  0.11538280812E+04  0.11538280812E+04  0.50400001928E-02 0.  1.
       -1   -1    0    0    0  501  0.00000000000E+00  0.00000000000E+00 -0.13537251388E+04  0.13537251388E+04  0.50400001928E-02 0. -1.
    10030    2    1    2    0    0  0.00000000000E+00  0.00000000000E+00 -0.19989705761E+03  0.25075532200E+04  0.24995728270E+04 0.  0.
        2    1    3    3  502    0  0.68137665163E+03 -0.50211565984E+03 -0.10224341602E+04  0.13273152938E+04  0.25500000920E-02 0. -1.
       -2    1    3    3    0  502 -0.68137665163E+03  0.50211565984E+03  0.82253710260E+03  0.11802379262E+04  0.25500000920E-02 0.  1.
</event>
<event>
 5   0  0.3805418E-07  0.2499789E+04  0.7818609E-02  0.8403061E-01
       -1   -1    0    0    0  501  0.00000000000E+00  0.00000000000E+00  0.20318927114E+04  0.20318927114E+04  0.50400001928E-02 0.  1.
        1   -1    0    0  501    0  0.00000000000E+00  0.00000000000E+00 -0.76885745288E+03  0.76885745290E+03  0.50400001928E-02 0. -1.
    10030    2    1    2    0    0  0.00000000000E+00  0.00000000000E+00  0.12630352585E+04  0.28007501643E+04  0.24997886748E+04 0.  0.
        4    1    3    3  502    0  0.99350336735E+03  0.36459438359E+03 -0.11357120768E+03  0.10643674354E+04  0.12699999809E+01 0. -1.
       -4    1    3    3    0  502 -0.99350336735E+03 -0.36459438359E+03  0.13766064662E+04  0.17363827289E+04  0.12699999809E+01 0.  1.
</event>
<event>
 5   0  0.3837524E-07  0.2499361E+04  0.7818609E-02  0.8403213E-01
       -1   -1    0    0    0  501  0.00000000000E+00  0.00000000000E+00  0.13489518439E+04  0.13489518439E+04  0.50400001928E-02 0.  1.
        1   -1    0    0  501    0  0.00000000000E+00  0.00000000000E+00 -0.11577142790E+04  0.11577142790E+04  0.50400001928E-02 0. -1.
    10030    2    1    2    0    0  0.00000000000E+00  0.00000000000E+00  0.19123756492E+03  0.25066661228E+04  0.24993605673E+04 0.  0.
        5    1    3    3  502    0 -0.30850527445E+03 -0.78968545455E+03  0.10163982590E+04  0.13235807994E+04  0.46999998093E+01 0.  1.
       -5    1    3    3    0  502  0.30850527445E+03  0.78968545455E+03 -0.82516069412E+03  0.11830853235E+04  0.46999998093E+01 0. -1.
</event>
<event>
 5   0  0.3837524E-07  0.2493979E+04  0.7818609E-02  0.8405134E-01
        1   -1    0    0  501    0  0.00000000000E+00  0.00000000000E+00  0.21317492098E+04  0.21317492098E+04  0.50400001928E-02 0.  1.
       -1   -1    0    0    0  501  0.00000000000E+00  0.00000000000E+00 -0.72943958006E+03  0.72943958008E+03  0.50400001928E-02 0. -1.
    10030    2    1    2    0    0  0.00000000000E+00  0.00000000000E+00  0.14023096297E+04  0.28611887898E+04  0.24939785471E+04 0.  0.
        5    1    3    3  502    0  0.11733638290E+04  0.12501000755E+02  0.11852042009E+04  0.16678339359E+04  0.46999998093E+01 0.  1.
       -5    1    3    3    0  502 -0.11733638290E+04 -0.12501000755E+02  0.21710542884E+03  0.11933548539E+04  0.46999998093E+01 0. -1.
</event>
<event>
 5   0  0.9768582E-07  0.2499843E+04  0.7818609E-02  0.8403041E-01
        2   -1    0    0  501    0  0.00000000000E+00  0.00000000000E+00  0.15289336133E+04  0.15289336133E+04  0.25500000920E-02 0.  1.
       -2   -1    0    0    0  501  0.00000000000E+00  0.00000000000E+00 -0.10218259209E+04  0.10218259209E+04  0.25500000920E-02 0. -1.
    10030    2    1    2    0    0  0.00000000000E+00  0.00000000000E+00  0.50710769239E+03  0.25507595342E+04  0.24998431930E+04 0.  0.
        3    1    3    3  502    0  0.47677353098E+03 -0.14656272452E+03  0.14229818822E+04  0.15078697156E+04  0.10100000352E+00 0.  1.
       -3    1    3    3    0  502 -0.47677353098E+03  0.14656272452E+03 -0.91587418976E+03  0.10428898186E+04  0.10100000352E+00 0. -1.
</event>
<event>
 5   0  0.9768582E-07  0.2500348E+04  0.7818609E-02  0.8402862E-01
       -2   -1    0    0    0  501  0.00000000000E+00  0.00000000000E+00  0.78134076899E+03  0.78134076900E+03  0.25500000920E-02 0.  1.
        2   -1    0    0  501    0  0.00000000000E+00  0.00000000000E+00 -0.20003240494E+04  0.20003240494E+04  0.25500000920E-02 0. -1.
    10030    2    1    2    0    0  0.00000000000E+00  0.00000000000E+00 -0.12189832804E+04  0.27816648184E+04  0.25003477606E+04 0.  0.
        3    1    3    3  502    0  0.47259060306E+03  0.78993874037E+03 -0.15505929979E+04  0.18032425646E+04  0.10100000352E+00 0. -1.
       -3    1    3    3    0  502 -0.47259060306E+03 -0.78993874037E+03  0.33160971751E+03  0.97842225372E+03  0.10100000352E+00 0.  1.
</event>
<event>
 5   0  0.3837524E-07  0.2499746E+04  0.7818609E-02  0.8403076E-01
        1   -1    0    0  501    0  0.00000000000E+00  0.00000000000E+00  0.28001830894E+04  0.28001830894E+04  0.50400001928E-02 0. -1.
       -1   -1    0    0    0  501  0.00000000000E+00  0.00000000000E+00 -0.55788598648E+03  0.55788598651E+03  0.50400001928E-02 0.  1.
    10030    2    1    2    0    0  0.00000000000E+00  0.00000000000E+00  0.22422971029E+04  0.33580690759E+04  0.24997463113E+04 0.  0.
        5    1    3    3  502    0 -0.84617767970E+03 -0.53721932373E+03  0.11807788905E+03  0.10092500906E+04  0.46999998093E+01 0.  1.
       -5    1    3    3    0  502  0.84617767970E+03  0.53721932373E+03  0.21242192139E+04  0.23488189854E+04  0.46999998093E+01 0. -1.
</event>
<event>
 5   0  0.8997210E-07  0.2503470E+04  0.7818609E-02  0.8401750E-01
        2   -1    0    0  501    0  0.00000000000E+00  0.00000000000E+00  0.30038634259E+04  0.30038634259E+04  0.25500000920E-02 0. -1.
       -2   -1    0    0    0  501  0.00000000000E+00  0.00000000000E+00 -0.52160854801E+03  0.52160854802E+03  0.25500000920E-02 0.  1.
    10030    2    1    2    0    0  0.00000000000E+00  0.00000000000E+00  0.24822548779E+04  0.35254719739E+04  0.25034702635E+04 0.  0.
        1    1    3    3  502    0  0.25649211912E+03  0.64969248724E+03 -0.22164225169E+03  0.73281226989E+03  0.50400001928E-02 0.  1.
       -1    1    3    3    0  502 -0.25649211912E+03 -0.64969248724E+03  0.27038971295E+04  0.27926597040E+04  0.50400001928E-02 0. -1.
</event>
<event>
 5   0  0.3873231E-07  0.2500740E+04  0.7818609E-02  0.8402722E-01
        1   -1    0    0  501    0  0.00000000000E+00  0.00000000000E+00  0.12556660068E+04  0.12556660068E+04  0.50400001928E-02 0.  1.
       -1   -1    0    0    0  501  0.00000000000E+00  0.00000000000E+00 -0.12450965309E+04  0.12450965309E+04  0.50400001928E-02 0. -1.
    10030    2    1    2    0    0  0.00000000000E+00  0.00000000000E+00  0.10569475920E+02  0.25007625378E+04  0.25007402017E+04 0.  0.
        2    1    3    3  502    0  0.90116620100E+03  0.85036428931E+03  0.17323099898E+03  0.12510910940E+04  0.25500000920E-02 0.  1.
       -2    1    3    3    0  502 -0.90116620100E+03 -0.85036428931E+03 -0.16266152306E+03  0.12496714438E+04  0.25500000920E-02 0. -1.
</event>
<event>
 5   0  0.9768582E-07  0.2500743E+04  0.7818609E-02  0.8402721E-01
        2   -1    0    0  501    0  0.00000000000E+00  0.00000000000E+00  0.12468974614E+04  0.12468974614E+04  0.25500000920E-02 0. -1.
       -2   -1    0    0    0  501  0.00000000000E+00  0.00000000000E+00 -0.12538556165E+04  0.12538556165E+04  0.25500000920E-02 0.  1.
    10030    2    1    2    0    0  0.00000000000E+00  0.00000000000E+00 -0.69581550341E+01  0.25007530779E+04  0.25007433976E+04 0.  0.
        3    1    3    3  502    0 -0.11645113377E+04  0.27396214340E+03 -0.36719392124E+03  0.12513885478E+04  0.10100000352E+00 0. -1.
       -3    1    3    3    0  502  0.11645113377E+04 -0.27396214340E+03  0.36023576620E+03  0.12493645301E+04  0.10100000352E+00 0.  1.
</event>
<event>
 5   0  0.9261602E-07  0.2500272E+04  0.7818609E-02  0.8402888E-01
        2   -1    0    0  501    0  0.00000000000E+00  0.00000000000E+00  0.82263445554E+03  0.82263445555E+03  0.25500000920E-02 0.  1.
       -2   -1    0    0    0  501  0.00000000000E+00  0.00000000000E+00 -0.18997995945E+04  0.18997995945E+04  0.25500000920E-02 0. -1.
    10030    2    1    2    0    0  0.00000000000E+00  0.00000000000E+00 -0.10771651390E+04  0.27224340501E+04  0.25002724692E+04 0.  0.
        4    1    3    3  502    0 -0.80791254304E+03  0.95289859909E+03 -0.58848700078E+03  0.13809623385E+04  0.12699999809E+01 0.  1.
       -4    1    3    3    0  502  0.80791254304E+03 -0.95289859909E+03 -0.48867813821E+03  0.13414717116E+04  0.12699999809E+01 0. -1.
</event>
<event>
 5   0  0.9251138E-07  0.2500975E+04  0.7818609E-02  0.8402638E-01
        2   -1    0    0  501    0  0.00000000000E+00  0.00000000000E+00  0.17146098154E+04  0.17146098154E+04  0.25500000920E-02 0.  1.
       -2   -1    0    0    0  501  0.00000000000E+00  0.00000000000E+00 -0.91199668947E+03  0.91199668947E+03  0.25500000920E-02 0. -1.
    10030    2    1    2    0    0  0.00000000000E+00  0.00000000000E+00  0.80261312597E+03  0.26266065049E+04  0.25009745904E+04 0.  0.
        5    1    3    3  502    0 -0.12217635834E+04  0.24170415829E+03  0.28356220618E+03  0.12773240656E+04  0.46999998093E+01 0.  1.
       -5    1    3    3    0  502  0.12217635834E+04 -0.24170415829E+03  0.51905091979E+03  0.13492824393E+04  0.46999998093E+01 0. -1.
</event>
<event>
 5   0  0.3991066E-07  0.2492138E+04  0.7818609E-02  0.8405792E-01
        1   -1    0    0  501    0  0.00000000000E+00  0.00000000000E+00  0.16846327807E+04  0.16846327807E+04  0.50400001928E-02 0.  1.
       -1   -1    0    0    0  501  0.00000000000E+00  0.00000000000E+00 -0.92167718152E+03  0.92167718153E+03  0.50400001928E-02 0. -1.
    10030    2    1    2    0    0  0.00000000000E+00  0.00000000000E+00  0.76295559920E+03  0.26063099623E+04  0.24921377115E+04 0.  0.
        1    1    3    3  502    0  0.68867856889E+03 -0.23286719811E+02 -0.70428921875E+03  0.98531403432E+03  0.50400001928E-02 0. -1.
       -1    1    3    3    0  502 -0.68867856889E+03  0.23286719811E+02  0.14672448179E+04  0.16209959279E+04  0.50400001928E-02 0.  1.
</event>
<event>
 5   0  0.3972587E-07  0.2499655E+04  0.7818609E-02  0.8403108E-01
        1   -1    0    0  501    0  0.00000000000E+00  0.00000000000E+00  0.17280059823E+04  0.17280059823E+04  0.50400001928E-02 0. -1.
       -1   -1    0    0    0  501  0.00000000000E+00  0.00000000000E+00 -0.90397178484E+03  0.90397178485E+03  0.50400001928E-02 0.  1.
    10030    2    1    2    0    0  0.00000000000E+00  0.00000000000E+00  0.82403419746E+03  0.26319777672E+04  0.24996548978E+04 0.  0.
        3    1    3    3  502    0  0.63185308657E+01 -0.84714420834E+03 -0.55552517763E+03  0.10130653813E+04  0.10100000352E+00 0.  1.
       -3    1    3    3    0  502 -0.63185308657E+01  0.84714420834E+03  0.13795593751E+04  0.16189123859E+04  0.10100000352E+00 0. -1.
</event>
<event>
 5   0  0.3805418E-07  0.2501813E+04  0.7818609E-02  0.8402340E-01
        1   -1    0    0  501    0  0.00000000000E+00  0.00000000000E+00  0.18045059356E+04  0.18045059356E+04  0.50400001928E-02 0.  1.
       -1   -1    0    0    0  501  0.00000000000E+00  0.00000000000E+00 -0.86714416133E+03  0.86714416135E+03  0.50400001928E-02 0. -1.
    10030    2    1    2    0    0  0.00000000000E+00  0.00000000000E+00  0.93736177426E+03  0.26716500970E+04  0.25018127717E+04 0.  0.
        4    1    3    3  502    0  0.10455365509E+03  0.51541964934E+03  0.16807082486E+04  0.17610708991E+04  0.12699999809E+01 0.  1.
       -4    1    3    3    0  502 -0.10455365509E+03 -0.51541964934E+03 -0.74334647437E+03  0.91057919786E+03  0.12699999809E+01 0. -1.
</event>
<event>
 5   0  0.3837524E-07  0.2500370E+04  0.7818609E-02  0.8402854E-01
       -1   -1    0    0    0  501  0.00000000000E+00  0.00000000000E+00  0.77122774986E+03  0.77122774988E+03  0.50400001928E-02 0. -1.
        1   -1    0    0  501    0  0.00000000000E+00  0.00000000000E+00 -0.20265906489E+04  0.20265906489E+04  0.50400001928E-02 0.  1.
    10030    2    1    2    0    0  0.00000000000E+00  0.00000000000E+00 -0.12553628991E+04  0.27978183988E+04  0.25003703295E+04 0.  0.
        5    1    3    3  502    0  0.75753134083E+03 -0.90325680380E+03 -0.16198061172E+03  0.11899522656E+04  0.46999998093E+01 0. -1.
       -5    1    3    3    0  502 -0.75753134083E+03  0.90325680380E+03 -0.10933822874E+04  0.16078661332E+04  0.46999998093E+01 0.  1.
</event>
<event>
 5   0  0.9768582E-07  0.2499797E+04  0.7818609E-02  0.8403058E-01
        2   -1    0    0  501    0  0.00000000000E+00  0.00000000000E+00  0.14209569070E+04  0.14209569070E+04  0.25500000920E-02 0.  1.
       -2   -1    0    0    0  501  0.00000000000E+00  0.00000000000E+00 -0.10994323759E+04  0.10994323759E+04  0.25500000920E-02 0. -1.
    10030    2    1    2    0    0  0.00000000000E+00  0.00000000000E+00  0.32152453109E+03  0.25203892829E+04  0.24997968144E+04 0.  0.
        3    1    3    3  502    0  0.15106259741E+03 -0.63078526156E+03  0.12379905106E+04  0.13976159949E+04  0.10100000352E+00 0.  1.
       -3    1    3    3    0  502 -0.15106259741E+03  0.63078526156E+03 -0.91646597953E+03  0.11227732881E+04  0.10100000352E+00 0. -1.
</event>
<event>
 5   0  0.3873231E-07  0.2496873E+04  0.7818609E-02  0.8404100E-01
       -1   -1    0    0    0  501  0.00000000000E+00  0.00000000000E+00  0.73225377776E+03  0.73225377778E+03  0.50400001928E-02 0. -1.
        1   -1    0    0  501    0  0.00000000000E+00  0.00000000000E+00 -0.21284882715E+04  0.21284882715E+04  0.50400001928E-02 0.  1.
    10030    2    1    2    0    0  0.00000000000E+00  0.00000000000E+00 -0.13962344937E+04  0.28607420493E+04  0.24968729065E+04 0.  0.
        2    1    3    3  502    0  0.71278344370E+03 -0.10136098829E+04 -0.52387456536E+03  0.13453288789E+04  0.25500000920E-02 0. -1.
       -2    1    3    3    0  502 -0.71278344370E+03  0.10136098829E+04 -0.87235992837E+03  0.15154131704E+04  0.25500000920E-02 0.  1.
</event>
<event>
 5   0  0.3805418E-07  0.2495802E+04  0.7818609E-02  0.8404483E-01
       -1   -1    0    0    0  501  0.00000000000E+00  0.00000000000E+00  0.89846551950E+03  0.89846551952E+03  0.50400001928E-02 0.  1.
        1   -1    0    0  501    0  0.00000000000E+00  0.00000000000E+00 -0.17332399896E+04  0.17332399896E+04  0.50400001928E-02 0. -1.
    10030    2    1    2    0    0  0.00000000000E+00  0.00000000000E+00 -0.83477447008E+03  0.26317055091E+04  0.24958015688E+04 0.  0.
        4    1    3    3  502    0  0.80344968301E+03 -0.90325448008E+03 -0.90924243680E+02  0.12122990060E+04  0.12699999809E+01 0.  1.
       -4    1    3    3    0  502 -0.80344968301E+03  0.90325448008E+03 -0.74385022640E+03  0.14194065031E+04  0.12699999809E+01 0. -1.
</event>
<event>
 5   0  0.3972587E-07  0.2499150E+04  0.7818609E-02  0.8403288E-01
        1   -1    0    0  501    0  0.00000000000E+00  0.00000000000E+00  0.10124604203E+04  0.10124604203E+04  0.50400001928E-02 0. -1.
       -1   -1    0    0    0  501  0.00000000000E+00  0.00000000000E+00 -0.15422207113E+04  0.15422207113E+04  0.50400001928E-02 0.  1.
    10030    2    1    2    0    0  0.00000000000E+00  0.00000000000E+00 -0.52976029099E+03  0.25546811316E+04  0.24991497991E+04 0.  0.
        3    1    3    3  502    0  0.10627343106E+04 -0.16761977958E+03  0.38480229616E+03  0.11426169187E+04  0.10100000352E+00 0. -1.
       -3    1    3    3    0  502 -0.10627343106E+04  0.16761977958E+03 -0.91456258715E+03  0.14120642130E+04  0.10100000352E+00 0.  1.
</event>
<event>
 5   0  0.3805418E-07  0.2499205E+04  0.7818609E-02  0.8403269E-01
        1   -1    0    0  501    0  0.00000000000E+00  0.00000000000E+00  0.99092324973E+03  0.99092324974E+03  0.50400001928E-02 0. -1.
       -1   -1    0    0    0  501  0.00000000000E+00  0.00000000000E+00 -0.15758093171E+04  0.15758093171E+04  0.50400001928E-02 0.  1.
    10030    2    1    2    0    0  0.00000000000E+00  0.00000000000E+00 -0.58488606734E+03  0.25667325668E+04  0.24992047451E+04 0.  0.
        4    1    3    3  502    0  0.62578792303E+02 -0.79663535985E+02 -0.15715844903E+04  0.15748465980E+04  0.12699999809E+01 0.  1.
       -4    1    3    3    0  502 -0.62578792303E+02  0.79663535985E+02  0.98669842300E+03  0.99188596878E+03  0.12699999809E+01 0. -1.
</event>
<event>
 5   0  0.9508784E-07  0.2499260E+04  0.7818609E-02  0.8403249E-01
       -2   -1    0    0    0  501  0.00000000000E+00  0.00000000000E+00  0.12088845011E+04  0.12088845011E+04  0.25500000920E-02 0.  1.
        2   -1    0    0  501    0  0.00000000000E+00  0.00000000000E+00 -0.12917483945E+04  0.12917483945E+04  0.25500000920E-02 0. -1.
    10030    2    1    2    0    0  0.00000000000E+00  0.00000000000E+00 -0.82863893368E+02  0.25006328956E+04  0.24992595811E+04 0.  0.
        2    1    3    3  502    0  0.10675054943E+04  0.30111116014E+03 -0.61736851960E+03  0.12694013550E+04  0.25500000920E-02 0. -1.
       -2    1    3    3    0  502 -0.10675054943E+04 -0.30111116014E+03  0.53450462623E+03  0.12312315406E+04  0.25500000920E-02 0.  1.
</event>
<event>
 5   0  0.9251138E-07  0.2500193E+04  0.7818609E-02  0.8402917E-01
        2   -1    0    0  501    0  0.00000000000E+00  0.00000000000E+00  0.17227585068E+04  0.17227585068E+04  0.25500000920E-02 0. -1.
       -2   -1    0    0    0  501  0.00000000000E+00  0.00000000000E+00 -0.90711588297E+03  0.90711588297E+03  0.25500000920E-02 0.  1.
    10030    2    1    2    0    0  0.00000000000E+00  0.00000000000E+00  0.81564262380E+03  0.26298743897E+04  0.25001932757E+04 0.  0.
        5    1    3    3  502    0  0.89896392053E+03 -0.52416967589E+03 -0.32080510206E+03  0.10889572917E+04  0.46999998093E+01 0.  1.
       -5    1    3    3    0  502 -0.89896392053E+03  0.52416967589E+03  0.11364477259E+04  0.15409170981E+04  0.46999998093E+01 0. -1.
</event>
<event>
 5   0  0.9768582E-07  0.2499797E+04  0.7818609E-02  0.8403058E-01
       -2   -1    0    0    0  501  0.00000000000E+00  0.00000000000E+00  0.84245964051E+03  0.84245964051E+03  0.25500000920E-02 0. -1.
        2   -1    0    0  501    0  0.00000000000E+00  0.00000000000E+00 -0.18543873089E+04  0.18543873089E+04  0.25500000920E-02 0.  1.
    10030    2    1    2    0    0  0.00000000000E+00  0.00000000000E+00 -0.10119276684E+04  0.26968469494E+04  0.24997971643E+04 0.  0.
        3    1    3    3  502    0  0.88639331016E+03  0.71998049397E+03 -0.10541322911E+04  0.15541106490E+04  0.10100000352E+00 0.  1.
       -3    1    3    3    0  502 -0.88639331016E+03 -0.71998049397E+03  0.42204622669E+02  0.11427363004E+04  0.10100000352E+00 0. -1.
</event>
<event>
 5   0  0.9251138E-07  0.2505695E+04  0.7818609E-02  0.8400959E-01
       -2   -1    0    0    0  501  0.00000000000E+00  0.00000000000E+00  0.44754775382E+03  0.44754775383E+03  0.25500000920E-02 0.  1.
        2   -1    0    0  501    0  0.00000000000E+00  0.00000000000E+00 -0.35071717408E+04  0.35071717408E+04  0.25500000920E-02 0. -1.
    10030    2    1    2    0    0  0.00000000000E+00  0.00000000000E+00 -0.30596239869E+04  0.39547194946E+04  0.25056949813E+04 0.  0.
        5    1    3    3  502    0  0.99646567715E+03 -0.61946207206E+03 -0.83657024660E+03  0.14410235848E+04  0.46999998093E+01 0.  1.
       -5    1    3    3    0  502 -0.99646567715E+03  0.61946207206E+03 -0.22230537403E+04  0.25136959098E+04  0.46999998093E+01 0. -1.
</event>
<event>
 5   0  0.3805418E-07  0.2499610E+04  0.7818609E-02  0.8403125E-01
       -1   -1    0    0    0  501  0.00000000000E+00  0.00000000000E+00  0.67836699724E+03  0.67836699726E+03  0.50400001928E-02 0.  1.
        1   -1    0    0  501    0  0.00000000000E+00  0.00000000000E+00 -0.23026065186E+04  0.23026065186E+04  0.50400001928E-02 0. -1.
    10030    2    1    2    0    0  0.00000000000E+00  0.00000000000E+00 -0.16242395214E+04  0.29809735159E+04  0.24996097855E+04 0.  0.
        4    1    3    3  502    0  0.91346807528E+03  0.84621662188E+03 -0.68420714430E+03  0.14207911616E+04  0.12699999809E+01 0. -1.
       -4    1    3    3    0  502 -0.91346807528E+03 -0.84621662188E+03 -0.94003237706E+03  0.15601823543E+04  0.12699999809E+01 0.  1.
</event>
<event>
 5   0  0.3972587E-07  0.2500843E+04  0.7818609E-02  0.8402685E-01
        1   -1    0    0  501    0  0.00000000000E+00  0.00000000000E+00  0.16988009458E+04  0.16988009458E+04  0.50400001928E-02 0.  1.
       -1   -1    0    0    0  501  0.00000000000E+00  0.00000000000E+00 -0.92038683508E+03  0.92038683509E+03  0.50400001928E-02 0. -1.
    10030    2    1    2    0    0  0.00000000000E+00  0.00000000000E+00  0.77841411069E+03  0.26191877809E+04  0.25008430786E+04 0.  0.
        3    1    3    3  502    0  0.90899851421E+03 -0.99612912692E+02  0.12824154722E+04  0.15750525340E+04  0.10100000352E+00 0.  1.
       -3    1    3    3    0  502 -0.90899851421E+03  0.99612912692E+02 -0.50400136152E+03  0.10441352469E+04  0.10100000352E+00 0. -1.
</event>
<event>
 5   0  0.3972587E-07  0.2499425E+04  0.7818609E-02  0.8403190E-01
       -1   -1    0    0    0  501  0.00000000000E+00  0.00000000000E+00  0.10585423996E+04  0.10585423997E+04  0.50400001928E-02 0.  1.
        1   -1    0    0  501    0  0.00000000000E+00  0.00000000000E+00 -0.14754078880E+04  0.14754078880E+04  0.50400001928E-02 0. -1.
    10030    2    1    2    0    0  0.00000000000E+00  0.00000000000E+00 -0.41686548831E+03  0.25339502876E+04  0.24994253789E+04 0.  0.
        3    1    3    3  502    0 -0.80296405737E+03  0.15397818134E+03  0.74977956335E+03  0.11093376229E+04  0.10100000352E+00 0.  1.
       -3    1    3    3    0  502  0.80296405737E+03 -0.15397818134E+03 -0.11666450517E+04  0.14246126647E+04  0.10100000352E+00 0. -1.
</event>
<event>
 5   0  0.3837524E-07  0.2498704E+04  0.7818609E-02  0.8403447E-01
        1   -1    0    0  501    0  0.00000000000E+00  0.00000000000E+00  0.15295630567E+04  0.15295630567E+04  0.50400001928E-02 0. -1.
       -1   -1    0    0    0  501  0.00000000000E+00  0.00000000000E+00 -0.10204747510E+04  0.10204747510E+04  0.50400001928E-02 0.  1.
    10030    2    1    2    0    0  0.00000000000E+00  0.00000000000E+00  0.50908830570E+03  0.25500378078E+04  0.24987040477E+04 0.  0.
        5    1    3    3  502    0 -0.43268939749E+03  0.71206339387E+03  0.12045847048E+04  0.14646845369E+04  0.46999998093E+01 0. -1.
       -5    1    3    3    0  502  0.43268939749E+03 -0.71206339387E+03 -0.69549639906E+03  0.10853532709E+04  0.46999998093E+01 0.  1.
</event>
<event>
 5   0  0.9508784E-07  0.2500273E+04  0.7818609E-02  0.8402888E-01
        2   -1    0    0  501    0  0.00000000000E+00  0.00000000000E+00  0.13927819254E+04  0.13927819254E+04  0.25500000920E-02 0. -1.
       -2   -1    0    0    0  501  0.00000000000E+00  0.00000000000E+00 -0.11221009158E+04  0.11221009158E+04  0.25500000920E-02 0.  1.
    10030    2    1    2    0    0  0.00000000000E+00  0.00000000000E+00  0.27068100963E+03  0.25148828412E+04  0.25002734842E+04 0.  0.
        2    1    3    3  502    0  0.97872323894E+03 -0.48881645933E+03  0.74385576837E+03  0.13229369273E+04  0.25500000920E-02 0. -1.
       -2    1    3    3    0  502 -0.97872323894E+03  0.48881645933E+03 -0.47317475874E+03  0.11919459139E+04  0.25500000920E-02 0.  1.
</event>
<event>
 5   0  0.9768582E-07  0.2499416E+04  0.7818609E-02  0.8403194E-01
        2   -1    0    0  501    0  0.00000000000E+00  0.00000000000E+00  0.14249171489E+04  0.14249171489E+04  0.25500000920E-02 0.  1.
       -2   -1    0    0    0  501  0.00000000000E+00  0.00000000000E+00 -0.10960424508E+04  0.10960424508E+04  0.25500000920E-02 0. -1.
    10030    2    1    2    0    0  0.00000000000E+00  0.00000000000E+00  0.32887469811E+03  0.25209595997E+04  0.24994156789E+04 0.  0.
        3    1    3    3  502    0 -0.21266835305E+03  0.36851608493E+03  0.13496137462E+04  0.14150933565E+04  0.10100000352E+00 0.  1.
       -3    1    3    3    0  502  0.21266835305E+03 -0.36851608493E+03 -0.10207390481E+04  0.11058662432E+04  0.10100000352E+00 0. -1.
</event>
<event>
 5   0  0.9768582E-07  0.2499273E+04  0.7818609E-02  0.8403245E-01
       -2   -1    0    0    0  501  0.00000000000E+00  0.00000000000E+00  0.88159803603E+03  0.88159803603E+03  0.25500000920E-02 0. -1.
        2   -1    0    0  501    0  0.00000000000E+00  0.00000000000E+00 -0.17713185880E+04  0.17713185880E+04  0.25500000920E-02 0.  1.
    10030    2    1    2    0    0  0.00000000000E+00  0.00000000000E+00 -0.88972055201E+03  0.26529166241E+04  0.24992726849E+04 0.  0.
        3    1    3    3  502    0 -0.10738990276E+04  0.57411930849E+03 -0.74267721899E+03  0.14263385165E+04  0.10100000352E+00 0.  1.
       -3    1    3    3    0  502  0.10738990276E+04 -0.57411930849E+03 -0.14704333302E+03  0.12265781075E+04  0.10100000352E+00 0. -1.
</event>
<event>
 5   0  0.3873231E-07  0.2497685E+04  0.7818609E-02  0.8403811E-01
        1   -1    0    0  501    0  0.00000000000E+00  0.00000000000E+00  0.10072584146E+04  0.10072584146E+04  0.50400001928E-02 0. -1.
       -1   -1    0    0    0  501  0.00000000000E+00  0.00000000000E+00 -0.15483683862E+04  0.15483683862E+04  0.50400001928E-02 0.  1.
    10030    2    1    2    0    0  0.00000000000E+00  0.00000000000E+00 -0.54110997164E+03  0.25556268009E+04  0.24976845966E+04 0.  0.
        2    1    3    3  502    0  0.14851847561E+03  0.95237466018E+03  0.54192627775E+03  0.11057844824E+04  0.25500000920E-02 0. -1.
       -2    1    3    3    0  502 -0.14851847561E+03 -0.95237466018E+03 -0.10830362494E+04  0.14498423185E+04  0.25500000920E-02 0.  1.
</event>
<event>
 5   0  0.9261602E-07  0.2500465E+04  0.7818609E-02  0.8402820E-01
       -2   -1    0    0    0  501  0.00000000000E+00  0.00000000000E+00  0.11158370115E+04  0.11158370115E+04  0.25500000920E-02 0. -1.
        2   -1    0    0  501    0  0.00000000000E+00  0.00000000000E+00 -0.14008152567E+04  0.14008152567E+04  0.25500000920E-02 0.  1.
    10030    2    1    2    0    0  0.00000000000E+00  0.00000000000E+00 -0.28497824517E+03  0.25166522682E+04  0.25004651645E+04 0.  0.
        4    1    3    3  502    0  0.10068038819E+04 -0.31067591527E+02  0.60288642040E+03  0.11739220164E+04  0.12699999809E+01 0. -1.
       -4    1    3    3    0  502 -0.10068038819E+04  0.31067591527E+02 -0.88786466557E+03  0.13427302518E+04  0.12699999809E+01 0.  1.
</event>
<event>
 5   0  0.9768582E-07  0.2498996E+04  0.7818609E-02  0.8403343E-01
        2   -1    0    0  501    0  0.00000000000E+00  0.00000000000E+00  0.10053488078E+04  0.10053488078E+04  0.25500000920E-02 0.  1.
       -2   -1    0    0    0  501  0.00000000000E+00  0.00000000000E+00 -0.15529385924E+04  0.15529385924E+04  0.25500000920E-02 0. -1.
    10030    2    1    2    0    0  0.00000000000E+00  0.00000000000E+00 -0.54758978463E+03  0.25582874002E+04  0.24989957683E+04 0.  0.
        3    1    3    3  502    0  0.11882783789E+04  0.38755566201E+02 -0.66728073776E+03  0.13633675560E+04  0.10100000352E+00 0. -1.
       -3    1    3    3    0  502 -0.11882783789E+04 -0.38755566201E+02  0.11969095313E+03  0.11949198442E+04  0.10100000352E+00 0.  1.
</event>
<event>
 5   0  0.9768582E-07  0.2498981E+04  0.7818609E-02  0.8403349E-01
       -2   -1    0    0    0  501  0.00000000000E+00  0.00000000000E+00  0.74663684652E+03  0.74663684652E+03  0.25500000920E-02 0. -1.
        2   -1    0    0  501    0  0.00000000000E+00  0.00000000000E+00 -0.20910114149E+04  0.20910114149E+04  0.25500000920E-02 0.  1.
    10030    2    1    2    0    0  0.00000000000E+00  0.00000000000E+00 -0.13443745684E+04  0.28376482614E+04  0.24989807273E+04 0.  0.
        3    1    3    3  502    0 -0.18096598115E+03  0.11881179522E+04 -0.28402264716E+03  0.12349258395E+04  0.10100000352E+00 0. -1.
       -3    1    3    3    0  502  0.18096598115E+03 -0.11881179522E+04 -0.10603519212E+04  0.16027224219E+04  0.10100000352E+00 0.  1.
</event>
<event>
 5   0  0.9768582E-07  0.2499682E+04  0.7818609E-02  0.8403099E-01
        2   -1    0    0  501    0  0.00000000000E+00  0.00000000000E+00  0.13228588904E+04  0.13228588904E+04  0.25500000920E-02 0.  1.
       -2   -1    0    0    0  501  0.00000000000E+00  0.00000000000E+00 -0.11808535213E+04  0.11808535213E+04  0.25500000920E-02 0. -1.
    10030    2    1    2    0    0  0.00000000000E+00  0.00000000000E+00  0.14200536909E+03  0.25037124118E+04  0.24996820430E+04 0.  0.
        3    1    3    3  502    0 -0.61421921267E+03 -0.91685415458E+03  0.65864771011E+03  0.12851862115E+04  0.10100000352E+00 0.  1.
       -3    1    3    3    0  502  0.61421921267E+03  0.91685415458E+03 -0.51664234102E+03  0.12185262003E+04  0.10100000352E+00 0. -1.
</event>
<event>
 5   0  0.9251138E-07  0.2497891E+04  0.7818609E-02  0.8403737E-01
       -2   -1    0    0    0  501  0.00000000000E+00  0.00000000000E+00  0.99670894526E+03  0.99670894527E+03  0.25500000920E-02 0.  1.
        2   -1    0    0  501    0  0.00000000000E+00  0.00000000000E+00 -0.15650149767E+04  0.15650149767E+04  0.25500000920E-02 0. -1.
    10030    2    1    2    0    0  0.00000000000E+00  0.00000000000E+00 -0.56830603146E+03  0.25617239220E+04  0.24978906515E+04 0.  0.
        5    1    3    3  502    0  0.25848904248E+03  0.63549721982E+02  0.96727070028E+03  0.10032396772E+04  0.46999998093E+01 0.  1.
       -5    1    3    3    0  502 -0.25848904248E+03 -0.63549721982E+02 -0.15355767317E+04  0.15584842448E+04  0.46999998093E+01 0. -1.
</event>
<event>
 5   0  0.3972587E-07  0.2500313E+04  0.7818609E-02  0.8402874E-01
        1   -1    0    0  501    0  0.00000000000E+00  0.00000000000E+00  0.12617793143E+04  0.12617793143E+04  0.50400001928E-02 0.  1.
       -1   -1    0    0    0  501  0.00000000000E+00  0.00000000000E+00 -0.12386403391E+04  0.12386403391E+04  0.50400001928E-02 0. -1.
    10030    2    1    2    0    0  0.00000000000E+00  0.00000000000E+00  0.23138975181E+02  0.25004196534E+04  0.25003125866E+04 0.  0.
        3    1    3    3  502    0 -0.40071462131E+03 -0.11838372089E+04  0.40691217161E+02  0.12504793202E+04  0.10100000352E+00 0.  1.
       -3    1    3    3    0  502  0.40071462131E+03  0.11838372089E+04 -0.17552241980E+02  0.12499403331E+04  0.10100000352E+00 0. -1.
</event>
<event>
 5   0  0.3873231E-07  0.2499048E+04  0.7818609E-02  0.8403325E-01
       -1   -1    0    0    0  501  0.00000000000E+00  0.00000000000E+00  0.10490817333E+04  0.10490817333E+04  0.50400001928E-02 0. -1.
        1   -1    0    0  501    0  0.00000000000E+00  0.00000000000E+00 -0.14882639480E+04  0.14882639480E+04  0.50400001928E-02 0.  1.
    10030    2    1    2    0    0  0.00000000000E+00  0.00000000000E+00 -0.43918221470E+03  0.25373456813E+04  0.24990482366E+04 0.  0.
        2    1    3    3  502    0 -0.10199312634E+04 -0.24777483459E+03 -0.90796214003E+03  0.13878210974E+04  0.25500000920E-02 0. -1.
       -2    1    3    3    0  502  0.10199312634E+04  0.24777483459E+03  0.46877992532E+03  0.11495245839E+04  0.25500000920E-02 0.  1.
</event>
<event>
 5   0  0.3805418E-07  0.2500024E+04  0.7818609E-02  0.8402977E-01
       -1   -1    0    0    0  501  0.00000000000E+00  0.00000000000E+00  0.23671904766E+04  0.23671904766E+04  0.50400001928E-02 0. -1.
        1   -1    0    0  501    0  0.00000000000E+00  0.00000000000E+00 -0.66007806717E+03  0.66007806719E+03  0.50400001928E-02 0.  1.
    10030    2    1    2    0    0  0.00000000000E+00  0.00000000000E+00  0.17071124094E+04  0.30272685438E+04  0.25000244114E+04 0.  0.
        4    1    3    3  502    0 -0.42450635787E+03 -0.11484645115E+04  0.54877467530E+03  0.13417643755E+04  0.12699999809E+01 0.  1.
       -4    1    3    3    0  502  0.42450635787E+03  0.11484645115E+04  0.11583377341E+04  0.16855041683E+04  0.12699999809E+01 0. -1.
</event>
<event>
 5   0  0.9768582E-07  0.2499804E+04  0.7818609E-02  0.8403055E-01
       -2   -1    0    0    0  501  0.00000000000E+00  0.00000000000E+00  0.10796867288E+04  0.10796867288E+04  0.25500000920E-02 0.  1.
        2   -1    0    0  501    0  0.00000000000E+00  0.00000000000E+00 -0.14469525177E+04  0.14469525177E+04  0.25500000920E-02 0. -1.
    10030    2    1    2    0    0  0.00000000000E+00  0.00000000000E+00 -0.36726578885E+03  0.25266392465E+04  0.24998043368E+04 0.  0.
        3    1    3    3  502    0  0.10660009900E+03 -0.12104102139E+04  0.11242607005E+03  0.12202852529E+04  0.10100000352E+00 0.  1.
       -3    1    3    3    0  502 -0.10660009900E+03  0.12104102139E+04 -0.47969185890E+03  0.13063539936E+04  0.10100000352E+00 0. -1.
</event>
<event>
 5   0  0.9768582E-07  0.2498272E+04  0.7818609E-02  0.8403601E-01
        2   -1    0    0  501    0  0.00000000000E+00  0.00000000000E+00  0.16889441613E+04  0.16889441613E+04  0.25500000920E-02 0.  1.
       -2   -1    0    0    0  501  0.00000000000E+00  0.00000000000E+00 -0.92385556740E+03  0.92385556741E+03  0.25500000920E-02 0. -1.
    10030    2    1    2    0    0  0.00000000000E+00  0.00000000000E+00  0.76508859389E+03  0.26127997287E+04  0.24982717758E+04 0.  0.
        3    1    3    3  502    0 -0.10092181975E+04  0.14202730078E+03 -0.37281736029E+03  0.10852123842E+04  0.10100000352E+00 0. -1.
       -3    1    3    3    0  502  0.10092181975E+04 -0.14202730078E+03  0.11379059542E+04  0.15275873445E+04  0.10100000352E+00 0.  1.
</event>
<event>
 5   0  0.8997210E-07  0.2499708E+04  0.7818609E-02  0.8403089E-01
        2   -1    0    0  501    0  0.00000000000E+00  0.00000000000E+00  0.77455942537E+03  0.77455942537E+03  0.25500000920E-02 0. -1.
       -2   -1    0    0    0  501  0.00000000000E+00  0.00000000000E+00 -0.20168049806E+04  0.20168049806E+04  0.25500000920E-02 0.  1.
    10030    2    1    2    0    0  0.00000000000E+00  0.00000000000E+00 -0.12422455552E+04  0.27913644059E+04  0.24997082284E+04 0.  0.
        1    1    3    3  502    0 -0.11810165469E+04 -0.17695795603E+03 -0.10329645222E+04  0.15789648212E+04  0.50400001928E-02 0.  1.
       -1    1    3    3    0  502  0.11810165469E+04  0.17695795603E+03 -0.20928103296E+03  0.12123995847E+04  0.50400001928E-02 0. -1.
</event>
<event>
 5   0  0.3991066E-07  0.2499810E+04  0.7818609E-02  0.8403053E-01
       -1   -1    0    0    0  501  0.00000000000E+00  0.00000000000E+00  0.65991729861E+03  0.65991729863E+03  0.50400001928E-02 0. -1.
        1   -1    0    0  501    0  0.00000000000E+00  0.00000000000E+00 -0.23673619766E+04  0.23673619766E+04  0.50400001928E-02 0.  1.
    10030    2    1    2    0    0  0.00000000000E+00  0.00000000000E+00 -0.17074446780E+04  0.30272792753E+04  0.24998104892E+04 0.  0.
        1    1    3    3  502    0 -0.59010043679E+03 -0.69879933915E+03 -0.18853694540E+04  0.20955087736E+04  0.50400001928E-02 0.  1.
       -1    1    3    3    0  502  0.59010043679E+03  0.69879933915E+03  0.17792477600E+03  0.93177050170E+03  0.50400001928E-02 0. -1.
</event>
<event>
 5   0  0.9508784E-07  0.2505670E+04  0.7818609E-02  0.8400968E-01
       -2   -1    0    0    0  501  0.00000000000E+00  0.00000000000E+00  0.92747543704E+03  0.92747543705E+03  0.25500000920E-02 0.  1.
        2   -1    0    0  501    0  0.00000000000E+00  0.00000000000E+00 -0.16923310605E+04  0.16923310605E+04  0.25500000920E-02 0. -1.
    10030    2    1    2    0    0  0.00000000000E+00  0.00000000000E+00 -0.76485562342E+03  0.26198064975E+04  0.25056699623E+04 0.  0.
        2    1    3    3  502    0  0.83177585179E+03 -0.18391477275E+03  0.57806900730E+03  0.10294850599E+04  0.25500000920E-02 0.  1.
       -2    1    3    3    0  502 -0.83177585179E+03  0.18391477275E+03 -0.13429246307E+04  0.15903214377E+04  0.25500000920E-02 0. -1.
</event>
<event>
 5   0  0.9768582E-07  0.2506842E+04  0.7818609E-02  0.8400552E-01
        2   -1    0    0  501    0  0.00000000000E+00  0.00000000000E+00  0.81310968824E+03  0.81310968824E+03  0.25500000920E-02 0.  1.
       -2   -1    0    0    0  501  0.00000000000E+00  0.00000000000E+00 -0.19321680926E+04  0.19321680926E+04  0.25500000920E-02 0. -1.
    10030    2    1    2    0    0  0.00000000000E+00  0.00000000000E+00 -0.11190584044E+04  0.27452777808E+04  0.25068423129E+04 0.  0.
        3    1    3    3  502    0 -0.43556829350E+02  0.11230731608E+04 -0.11671684681E+04  0.16203310664E+04  0.10100000352E+00 0. -1.
       -3    1    3    3    0  502  0.43556829350E+02 -0.11230731608E+04  0.48110063739E+02  0.11249467144E+04  0.10100000352E+00 0.  1.
</event>
<event>
 5   0  0.3991066E-07  0.2499960E+04  0.7818609E-02  0.8403000E-01
        1   -1    0    0  501    0  0.00000000000E+00  0.00000000000E+00  0.10530474933E+04  0.10530474933E+04  0.50400001928E-02 0.  1.
       -1   -1    0    0    0  501  0.00000000000E+00  0.00000000000E+00 -0.14837416639E+04  0.14837416639E+04  0.50400001928E-02 0. -1.
    10030    2    1    2    0    0  0.00000000000E+00  0.00000000000E+00 -0.43069417059E+03  0.25367891572E+04  0.24999603516E+04 0.  0.
        1    1    3    3  502    0 -0.64804878452E+03  0.77388700383E+03  0.53279456363E+03  0.11413756476E+04  0.50400001928E-02 0.  1.
       -1    1    3    3    0  502  0.64804878452E+03 -0.77388700383E+03 -0.96348873422E+03  0.13954135096E+04  0.50400001928E-02 0. -1.
</event>
<event>
 5   0  0.9261602E-07  0.2499751E+04  0.7818609E-02  0.8403074E-01
       -2   -1    0    0    0  501  0.00000000000E+00  0.00000000000E+00  0.94166851893E+03  0.94166851894E+03  0.25500000920E-02 0.  1.
        2   -1    0    0  501    0  0.00000000000E+00  0.00000000000E+00 -0.16589578559E+04  0.16589578559E+04  0.25500000920E-02 0. -1.
    10030    2    1    2    0    0  0.00000000000E+00  0.00000000000E+00 -0.71728933694E+03  0.26006263748E+04  0.24997506973E+04 0.  0.
        4    1    3    3  502    0 -0.92329199097E+03 -0.56085078367E+03  0.29534447681E+03  0.11199337815E+04  0.12699999809E+01 0.  1.
       -4    1    3    3    0  502  0.92329199097E+03  0.56085078367E+03 -0.10126338138E+04  0.14806925933E+04  0.12699999809E+01 0. -1.
</event>
<event>
 5   0  0.3837524E-07  0.2499917E+04  0.7818609E-02  0.8403015E-01
       -1   -1    0    0    0  501  0.00000000000E+00  0.00000000000E+00  0.12038019865E+04  0.12038019865E+04  0.50400001928E-02 0.  1.
        1   -1    0    0  501    0  0.00000000000E+00  0.00000000000E+00 -0.12978850184E+04  0.12978850185E+04  0.50400001928E-02 0. -1.
    10030    2    1    2    0    0  0.00000000000E+00  0.00000000000E+00 -0.94083031965E+02  0.25016870050E+04  0.24999172494E+04 0.  0.
        5    1    3    3  502    0 -0.23245723902E+03  0.23591603920E+03 -0.12531672297E+04  0.12962032792E+04  0.46999998093E+01 0. -1.
       -5    1    3    3    0  502  0.23245723902E+03 -0.23591603920E+03  0.11590841977E+04  0.12054837257E+04  0.46999998093E+01 0.  1.
</event>
<event>
 5   0  0.9251138E-07  0.2500249E+04  0.7818609E-02  0.8402897E-01
       -2   -1    0    0    0  501  0.00000000000E+00  0.00000000000E+00  0.11984480865E+04  0.11984480865E+04  0.25500000920E-02 0.  1.
        2   -1    0    0  501    0  0.00000000000E+00  0.00000000000E+00 -0.13040290982E+04  0.13040290982E+04  0.25500000920E-02 0. -1.
    10030    2    1    2    0    0  0.00000000000E+00  0.00000000000E+00 -0.10558101165E+03  0.25024771847E+04  0.25002489296E+04 0.  0.
        5    1    3    3  502    0  0.52283080556E+03 -0.32069145275E+02 -0.11888829859E+04  0.12991710147E+04  0.46999998093E+01 0. -1.
       -5    1    3    3    0  502 -0.52283080556E+03  0.32069145275E+02  0.10833019743E+04  0.12033061700E+04  0.46999998093E+01 0.  1.
</event>
<event>
 5   0  0.9261602E-07  0.2500160E+04  0.7818609E-02  0.8402929E-01
       -2   -1    0    0    0  501  0.00000000000E+00  0.00000000000E+00  0.11764087090E+04  0.11764087090E+04  0.25500000920E-02 0. -1.
        2   -1    0    0  501    0  0.00000000000E+00  0.00000000000E+00 -0.13283649272E+04  0.13283649272E+04  0.25500000920E-02 0.  1.
    10030    2    1    2    0    0  0.00000000000E+00  0.00000000000E+00 -0.15195621822E+03  0.25047736362E+04  0.25001600501E+04 0.  0.
        4    1    3    3  502    0  0.73329059601E+03  0.65391223180E+03  0.69835315288E+03  0.12054107367E+04  0.12699999809E+01 0. -1.
       -4    1    3    3    0  502 -0.73329059601E+03 -0.65391223180E+03 -0.85030937111E+03  0.12993628995E+04  0.12699999809E+01 0.  1.
</event>
<event>
 5   0  0.9768582E-07  0.2505499E+04  0.7818609E-02  0.8401029E-01
       -2   -1    0    0    0  501  0.00000000000E+00  0.00000000000E+00  0.68688490890E+03  0.68688490891E+03  0.25500000920E-02 0. -1.
        2   -1    0    0  501    0  0.00000000000E+00  0.00000000000E+00 -0.22847807356E+04  0.22847807356E+04  0.25500000920E-02 0.  1.
    10030    2    1    2    0    0  0.00000000000E+00  0.00000000000E+00 -0.15978958267E+04  0.29716656445E+04  0.25054990780E+04 0.  0.
        3    1    3    3  502    0  0.11913604913E+04  0.38287964931E+03 -0.86855999588E+03  0.15232639701E+04  0.10100000352E+00 0.  1.
       -3    1    3    3    0  502 -0.11913604913E+04 -0.38287964931E+03 -0.72933583083E+03  0.14484016744E+04  0.10100000352E+00 0. -1.
</event>
<event>
 5   0  0.9768582E-07  0.2501091E+04  0.7818609E-02  0.8402597E-01
       -2   -1    0    0    0  501  0.00000000000E+00  0.00000000000E+00  0.61458473090E+03  0.61458473091E+03  0.25500000920E-02 0.  1.
        2   -1    0    0  501    0  0.00000000000E+00  0.00000000000E+00 -0.25445874805E+04  0.25445874805E+04  0.25500000920E-02 0. -1.
    10030    2    1    2    0    0  0.00000000000E+00  0.00000000000E+00 -0.19300027496E+04  0.31591722114E+04  0.25010914513E+04 0.  0.
        3    1    3    3  502    0 -0.10312975451E+04 -0.40314889583E+02 -0.18569668305E+04  0.21245059982E+04  0.10100000352E+00 0. -1.
       -3    1    3    3    0  502  0.10312975451E+04  0.40314889583E+02 -0.73035919121E+02  0.10346662131E+04  0.10100000352E+00 0.  1.
</event>
<event>
 5   0  0.9261602E-07  0.2500023E+04  0.7818609E-02  0.8402977E-01
        2   -1    0    0  501    0  0.00000000000E+00  0.00000000000E+00  0.15471631888E+04  0.15471631888E+04  0.25500000920E-02 0. -1.
       -2   -1    0    0    0  501  0.00000000000E+00  0.00000000000E+00 -0.10099311705E+04  0.10099311705E+04  0.25500000920E-02 0.  1.
    10030    2    1    2    0    0  0.00000000000E+00  0.00000000000E+00  0.53723201825E+03  0.25570943593E+04  0.25000226641E+04 0.  0.
        4    1    3    3  502    0  0.87146326466E+03 -0.51467318547E+03  0.10189776485E+04  0.14361941966E+04  0.12699999809E+01 0. -1.
       -4    1    3    3    0  502 -0.87146326466E+03  0.51467318547E+03 -0.48174563023E+03  0.11209001627E+04  0.12699999809E+01 0.  1.
</event>
<event>
 5   0  0.9768582E-07  0.2500342E+04  0.7818609E-02  0.8402864E-01
       -2   -1    0    0    0  501  0.00000000000E+00  0.00000000000E+00  0.89877376624E+03  0.89877376625E+03  0.25500000920E-02 0.  1.
        2   -1    0    0  501    0  0.00000000000E+00  0.00000000000E+00 -0.17389560302E+04  0.17389560302E+04  0.25500000920E-02 0. -1.
    10030    2    1    2    0    0  0.00000000000E+00  0.00000000000E+00 -0.84018226396E+03  0.26377297965E+04  0.25003424250E+04 0.  0.
        3    1    3    3  502    0  0.65342007804E+03 -0.92971591994E+03  0.12969596997E+03  0.11437440907E+04  0.10100000352E+00 0.  1.
       -3    1    3    3    0  502 -0.65342007804E+03  0.92971591994E+03 -0.96987823393E+03  0.14939857058E+04  0.10100000352E+00 0. -1.
</event>
<event>
 5   0  0.3837524E-07  0.2503028E+04  0.7818609E-02  0.8401907E-01
        1   -1    0    0  501    0  0.00000000000E+00  0.00000000000E+00  0.16474131515E+04  0.16474131516E+04  0.50400001928E-02 0.  1.
       -1   -1    0    0    0  501  0.00000000000E+00  0.00000000000E+00 -0.95075590358E+03  0.95075590360E+03  0.50400001928E-02 0. -1.
    10030    2    1    2    0    0  0.00000000000E+00  0.00000000000E+00  0.69665724796E+03  0.25981690552E+04  0.25030283894E+04 0.  0.
        5    1    3    3  502    0  0.59901117900E+03 -0.43576813554E+03 -0.69875434358E+03  0.10183260692E+04  0.46999998093E+01 0. -1.
       -5    1    3    3    0  502 -0.59901117900E+03  0.43576813554E+03  0.13954115915E+04  0.15798429860E+04  0.46999998093E+01 0.  1.
</event>
<event>
 5   0  0.8997210E-07  0.2500588E+04  0.7818609E-02  0.8402776E-01
        2   -1    0    0  501    0  0.00000000000E+00  0.00000000000E+00  0.76496930144E+03  0.76496930144E+03  0.25500000920E-02 0. -1.
       -2   -1    0    0    0  501  0.00000000000E+00  0.00000000000E+00 -0.20435272699E+04  0.20435272699E+04  0.25500000920E-02 0.  1.
    10030    2    1    2    0    0  0.00000000000E+00  0.00000000000E+00 -0.12785579684E+04  0.28084965713E+04  0.25005884332E+04 0.  0.
        1    1    3    3  502    0  0.36884090520E+03 -0.71016893734E+03 -0.17182200702E+04  0.18954323366E+04  0.50400001928E-02 0.  1.
       -1    1    3    3    0  502 -0.36884090520E+03  0.71016893734E+03  0.43966210180E+03  0.91306423470E+03  0.50400001928E-02 0. -1.
</event>
<event>
 5   0  0.3972587E-07  0.2500315E+04  0.7818609E-02  0.8402873E-01
        1   -1    0    0  501    0  0.00000000000E+00  0.00000000000E+00  0.69059737604E+03  0.69059737606E+03  0.50400001928E-02 0.  1.
       -1   -1    0    0    0  501  0.00000000000E+00  0.00000000000E+00 -0.22631048710E+04  0.22631048710E+04  0.50400001928E-02 0. -1.
    10030    2    1    2    0    0  0.00000000000E+00  0.00000000000E+00 -0.15725074950E+04  0.29537022471E+04  0.25003154086E+04 0.  0.
        3    1    3    3  502    0 -0.19722182087E+03  0.42179729647E+03 -0.21568455735E+04  0.22065339888E+04  0.10100000352E+00 0. -1.
       -3    1    3    3    0  502  0.19722182087E+03 -0.42179729647E+03  0.58433807850E+03  0.74716825824E+03  0.10100000352E+00 0.  1.
</event>
<event>
 5   0  0.9261602E-07  0.2499940E+04  0.7818609E-02  0.8403007E-01
        2   -1    0    0  501    0  0.00000000000E+00  0.00000000000E+00  0.21154776317E+04  0.21154776317E+04  0.25500000920E-02 0.  1.
       -2   -1    0    0    0  501  0.00000000000E+00  0.00000000000E+00 -0.73856859397E+03  0.73856859398E+03  0.25500000920E-02 0. -1.
    10030    2    1    2    0    0  0.00000000000E+00  0.00000000000E+00  0.13769090378E+04  0.28540462257E+04  0.24999402713E+04 0.  0.
        4    1    3    3  502    0 -0.50380396720E+03  0.99719618293E+03  0.48516430871E+02  0.11182907143E+04  0.12699999809E+01 0. -1.
       -4    1    3    3    0  502  0.50380396720E+03 -0.99719618293E+03  0.13283926069E+04  0.17357555115E+04  0.12699999809E+01 0.  1.
</event>
<event>
 5   0  0.9261602E-07  0.2501579E+04  0.7818609E-02  0.8402423E-01
       -2   -1    0    0    0  501  0.00000000000E+00  0.00000000000E+00  0.13595339996E+04  0.13595339996E+04  0.25500000920E-02 0.  1.
        2   -1    0    0  501    0  0.00000000000E+00  0.00000000000E+00 -0.11507432152E+04  0.11507432153E+04  0.25500000920E-02 0. -1.
    10030    2    1    2    0    0  0.00000000000E+00  0.00000000000E+00  0.20879078433E+03  0.25102772148E+04  0.25015791220E+04 0.  0.
        4    1    3    3  502    0 -0.98123621026E+03  0.77003798738E+03  0.19793921130E+03  0.12629190578E+04  0.12699999809E+01 0. -1.
       -4    1    3    3    0  502  0.98123621026E+03 -0.77003798738E+03  0.10851573037E+02  0.12473581570E+04  0.12699999809E+01 0.  1.
</event>
<event>
 5   0  0.3214375E-07  0.2500353E+04  0.7818609E-02  0.8402860E-01
       -3   -1    0    0    0  501  0.00000000000E+00  0.00000000000E+00  0.24168119551E+04  0.24168119572E+04  0.10100000352E+00 0. -1.
        3   -1    0    0  501    0  0.00000000000E+00  0.00000000000E+00 -0.64669549116E+03  0.64669549905E+03  0.10100000352E+00 0.  1.
    10030    2    1    2    0    0  0.00000000000E+00  0.00000000000E+00  0.17701164639E+04  0.30635074562E+04  0.25003531028E+04 0.  0.
        3    1    3    3  502    0  0.98458707150E+03  0.50790872153E+03  0.15948021394E+04  0.19418488213E+04  0.10100000352E+00 0.  1.
       -3    1    3    3    0  502 -0.98458707150E+03 -0.50790872153E+03  0.17531432455E+03  0.11216586350E+04  0.10100000352E+00 0. -1.
</event>
<event>
 5   0  0.9261602E-07  0.2504024E+04  0.7818609E-02  0.8401553E-01
       -2   -1    0    0    0  501  0.00000000000E+00  0.00000000000E+00  0.99361635097E+03  0.99361635097E+03  0.25500000920E-02 0.  1.
        2   -1    0    0  501    0  0.00000000000E+00  0.00000000000E+00 -0.15776046512E+04  0.15776046512E+04  0.25500000920E-02 0. -1.
    10030    2    1    2    0    0  0.00000000000E+00  0.00000000000E+00 -0.58398830027E+03  0.25712210022E+04  0.25040237833E+04 0.  0.
        4    1    3    3  502    0  0.68087974955E+01  0.10047343846E+04 -0.10590305313E+04  0.14598235587E+04  0.12699999809E+01 0. -1.
       -4    1    3    3    0  502 -0.68087974955E+01 -0.10047343846E+04  0.47504223100E+03  0.11113974435E+04  0.12699999809E+01 0.  1.
</event>
<event>
 5   0  0.8997210E-07  0.2499308E+04  0.7818609E-02  0.8403232E-01
        2   -1    0    0  501    0  0.00000000000E+00  0.00000000000E+00  0.24805619003E+04  0.24805619003E+04  0.25500000920E-02 0.  1.
       -2   -1    0    0    0  501  0.00000000000E+00  0.00000000000E+00 -0.62954883316E+03  0.62954883317E+03  0.25500000920E-02 0. -1.
    10030    2    1    2    0    0  0.00000000000E+00  0.00000000000E+00  0.18510130671E+04  0.31101107334E+04  0.24993077841E+04 0.  0.
        1    1    3    3  502    0 -0.86526110943E+03 -0.75276857647E+03  0.15430764624E+04  0.19226081988E+04  0.50400001928E-02 0.  1.
       -1    1    3    3    0  502  0.86526110943E+03  0.75276857647E+03  0.30793660469E+03  0.11875025346E+04  0.50400001928E-02 0. -1.
</event>
<event>
 5   0  0.3805418E-07  0.2499409E+04  0.7818609E-02  0.8403196E-01
       -1   -1    0    0    0  501  0.00000000000E+00  0.00000000000E+00  0.62823393965E+03  0.62823393967E+03  0.50400001928E-02 0. -1.
        1   -1    0    0  501    0  0.00000000000E+00  0.00000000000E+00 -0.24859550360E+04  0.24859550360E+04  0.50400001928E-02 0.  1.
    10030    2    1    2    0    0  0.00000000000E+00  0.00000000000E+00 -0.18577210963E+04  0.31141889757E+04  0.24994089910E+04 0.  0.
        4    1    3    3  502    0  0.38989798604E+03 -0.81696003904E+03 -0.20023602290E+04  0.21974740601E+04  0.12699999809E+01 0.  1.
       -4    1    3    3    0  502 -0.38989798604E+03  0.81696003904E+03  0.14463913269E+03  0.91671491561E+03  0.12699999809E+01 0. -1.
</event>
<event>
 5   0  0.3214375E-07  0.2495099E+04  0.7818609E-02  0.8404733E-01
        3   -1    0    0  501    0  0.00000000000E+00  0.00000000000E+00  0.10523831676E+04  0.10523831725E+04  0.10100000352E+00 0.  1.
       -3   -1    0    0    0  501  0.00000000000E+00  0.00000000000E+00 -0.14789103372E+04  0.14789103407E+04  0.10100000352E+00 0. -1.
    10030    2    1    2    0    0  0.00000000000E+00  0.00000000000E+00 -0.42652716962E+03  0.25312935131E+04  0.24950994816E+04 0.  0.
        5    1    3    3  502    0  0.16684549602E+03  0.20990716754E+03 -0.14493216274E+04  0.14739245938E+04  0.46999998093E+01 0. -1.
       -5    1    3    3    0  502 -0.16684549602E+03 -0.20990716754E+03  0.10227944578E+04  0.10573689193E+04  0.46999998093E+01 0.  1.
</event>
<event>
 5   0  0.3837524E-07  0.2499344E+04  0.7818609E-02  0.8403219E-01
       -1   -1    0    0    0  501  0.00000000000E+00  0.00000000000E+00  0.79011917331E+03  0.79011917333E+03  0.50400001928E-02 0.  1.
        1   -1    0    0  501    0  0.00000000000E+00  0.00000000000E+00 -0.19765125655E+04  0.19765125655E+04  0.50400001928E-02 0. -1.
    10030    2    1    2    0    0  0.00000000000E+00  0.00000000000E+00 -0.11863933922E+04  0.27666317389E+04  0.24993442935E+04 0.  0.
        5    1    3    3  502    0  0.11906690288E+04 -0.37690846109E+03 -0.54487435050E+03  0.13625941699E+04  0.46999998093E+01 0.  1.
       -5    1    3    3    0  502 -0.11906690288E+04  0.37690846109E+03 -0.64151904170E+03  0.14040375689E+04  0.46999998093E+01 0. -1.
</event>
<event>
 5   0  0.9261602E-07  0.2499900E+04  0.7818609E-02  0.8403021E-01
        2   -1    0    0  501    0  0.00000000000E+00  0.00000000000E+00  0.77742556772E+03  0.77742556773E+03  0.25500000920E-02 0. -1.
       -2   -1    0    0    0  501  0.00000000000E+00  0.00000000000E+00 -0.20096781416E+04  0.20096781416E+04  0.25500000920E-02 0.  1.
    10030    2    1    2    0    0  0.00000000000E+00  0.00000000000E+00 -0.12322525739E+04  0.27871037093E+04  0.24999001341E+04 0.  0.
        4    1    3    3  502    0  0.70450579818E+03 -0.16974232117E+03  0.51932515369E+03  0.89153861578E+03  0.12699999809E+01 0. -1.
       -4    1    3    3    0  502 -0.70450579818E+03  0.16974232117E+03 -0.17515777276E+04  0.18955650935E+04  0.12699999809E+01 0.  1.
</event>
<event>
 5   0  0.8997210E-07  0.2500606E+04  0.7818609E-02  0.8402770E-01
       -2   -1    0    0    0  501  0.00000000000E+00  0.00000000000E+00  0.11632873253E+04  0.11632873253E+04  0.25500000920E-02 0. -1.
        2   -1    0    0  501    0  0.00000000000E+00  0.00000000000E+00 -0.13438278617E+04  0.13438278617E+04  0.25500000920E-02 0.  1.
    10030    2    1    2    0    0  0.00000000000E+00  0.00000000000E+00 -0.18054053645E+03  0.25071151870E+04  0.25006062617E+04 0.  0.
        1    1    3    3  502    0  0.92611461373E+03 -0.49860004826E+03  0.58748311378E+03  0.12047517150E+04  0.50400001928E-02 0. -1.
       -1    1    3    3    0  502 -0.92611461373E+03  0.49860004826E+03 -0.76802365023E+03  0.13023634720E+04  0.50400001928E-02 0.  1.
</event>
<event>
 5   0  0.9508784E-07  0.2501105E+04  0.7818609E-02  0.8402592E-01
        2   -1    0    0  501    0  0.00000000000E+00  0.00000000000E+00  0.17743222465E+04  0.17743222465E+04  0.25500000920E-02 0.  1.
       -2   -1    0    0    0  501  0.00000000000E+00  0.00000000000E+00 -0.88139674896E+03  0.88139674896E+03  0.25500000920E-02 0. -1.
    10030    2    1    2    0    0  0.00000000000E+00  0.00000000000E+00  0.89292549759E+03  0.26557189955E+04  0.25011052435E+04 0.  0.
        2    1    3    3  502    0 -0.85409991287E+03 -0.43832060001E+03  0.12974225725E+04  0.16139755083E+04  0.25500000920E-02 0.  1.
       -2    1    3    3    0  502  0.85409991287E+03  0.43832060001E+03 -0.40449707495E+03  0.10417434872E+04  0.25500000920E-02 0. -1.
</event>
<event>
 5   0  0.9251138E-07  0.2499499E+04  0.7818609E-02  0.8403164E-01
       -2   -1    0    0    0  501  0.00000000000E+00  0.00000000000E+00  0.14065997624E+04  0.14065997624E+04  0.25500000920E-02 0.  1.
        2   -1    0    0  501    0  0.00000000000E+00  0.00000000000E+00 -0.11103898808E+04  0.11103898808E+04  0.25500000920E-02 0. -1.
    10030    2    1    2    0    0  0.00000000000E+00  0.00000000000E+00  0.29620988159E+03  0.25169896432E+04  0.24994992639E+04 0.  0.
        5    1    3    3  502    0  0.39050408288E+03  0.47400007147E+03 -0.94794264642E+03  0.11295073516E+04  0.46999998093E+01 0. -1.
       -5    1    3    3    0  502 -0.39050408288E+03 -0.47400007147E+03  0.12441525280E+04  0.13874822916E+04  0.46999998093E+01 0.  1.
</event>
<event>
 5   0  0.9508784E-07  0.2499833E+04  0.7818609E-02  0.8403045E-01
        2   -1    0    0  501    0  0.00000000000E+00  0.00000000000E+00  0.72126461944E+03  0.72126461945E+03  0.25500000920E-02 0.  1.
       -2   -1    0    0    0  501  0.00000000000E+00  0.00000000000E+00 -0.21660451311E+04  0.21660451311E+04  0.25500000920E-02 0. -1.
    10030    2    1    2    0    0  0.00000000000E+00  0.00000000000E+00 -0.14447805117E+04  0.28873097506E+04  0.24998333682E+04 0.  0.
        2    1    3    3  502    0  0.43491873405E+03  0.32140358060E+03 -0.20239266933E+04  0.20949305064E+04  0.25500000920E-02 0. -1.
       -2    1    3    3    0  502 -0.43491873405E+03 -0.32140358060E+03  0.57914618163E+03  0.79237924415E+03  0.25500000920E-02 0.  1.
</event>
<event>
 5   0  0.3972587E-07  0.2501400E+04  0.7818609E-02  0.8402487E-01
       -1   -1    0    0    0  501  0.00000000000E+00  0.00000000000E+00  0.31983767422E+04  0.31983767422E+04  0.50400001928E-02 0.  1.
        1   -1    0    0  501    0  0.00000000000E+00  0.00000000000E+00 -0.48907621386E+03  0.48907621389E+03  0.50400001928E-02 0. -1.
    10030    2    1    2    0    0  0.00000000000E+00  0.00000000000E+00  0.27093005283E+04  0.36874529561E+04  0.25013995983E+04 0.  0.
        3    1    3    3  502    0 -0.11022444685E+04  0.25928305164E+03  0.57170914103E+03  0.12684722785E+04  0.10100000352E+00 0.  1.
       -3    1    3    3    0  502  0.11022444685E+04 -0.25928305164E+03  0.21375913873E+04  0.24189806776E+04  0.10100000352E+00 0. -1.
</event>
<event>
 5   0  0.8997210E-07  0.2498527E+04  0.7818609E-02  0.8403510E-01
        2   -1    0    0  501    0  0.00000000000E+00  0.00000000000E+00  0.11171813956E+04  0.11171813956E+04  0.25500000920E-02 0. -1.
       -2   -1    0    0    0  501  0.00000000000E+00  0.00000000000E+00 -0.13969619624E+04  0.13969619624E+04  0.25500000920E-02 0.  1.
    10030    2    1    2    0    0  0.00000000000E+00  0.00000000000E+00 -0.27978056678E+03  0.25141433580E+04  0.24985274982E+04 0.  0.
        1    1    3    3  502    0 -0.38298102705E+03  0.57672012983E+03  0.90650298759E+03  0.11406262498E+04  0.50400001928E-02 0.  1.
       -1    1    3    3    0  502  0.38298102705E+03 -0.57672012983E+03 -0.11862835544E+04  0.13735171082E+04  0.50400001928E-02 0. -1.
</event>
<event>
 5   0  0.3873231E-07  0.2497119E+04  0.7818609E-02  0.8404013E-01
        1   -1    0    0  501    0  0.00000000000E+00  0.00000000000E+00  0.15069719005E+04  0.15069719005E+04  0.50400001928E-02 0.  1.
       -1   -1    0    0    0  501  0.00000000000E+00  0.00000000000E+00 -0.10344592940E+04  0.10344592941E+04  0.50400001928E-02 0. -1.
    10030    2    1    2    0    0  0.00000000000E+00  0.00000000000E+00  0.47251260649E+03  0.25414311946E+04  0.24971192109E+04 0.  0.
        2    1    3    3  502    0 -0.19853499880E+03  0.99784027316E+03 -0.50032673938E+03  0.11337672612E+04  0.25500000920E-02 0. -1.
       -2    1    3    3    0  502  0.19853499880E+03 -0.99784027316E+03  0.97283934586E+03  0.14076639334E+04  0.25500000920E-02 0.  1.
</event>
<event>
 5   0  0.3805418E-07  0.2499429E+04  0.7818609E-02  0.8403189E-01
        1   -1    0    0  501    0  0.00000000000E+00  0.00000000000E+00  0.22946777578E+04  0.22946777578E+04  0.50400001928E-02 0.  1.
       -1   -1    0    0    0  501  0.00000000000E+00  0.00000000000E+00 -0.68061249234E+03  0.68061249236E+03  0.50400001928E-02 0. -1.
    10030    2    1    2    0    0  0.00000000000E+00  0.00000000000E+00  0.16140652655E+04  0.29752902502E+04  0.24994290131E+04 0.  0.
        4    1    3    3  502    0 -0.55253223698E+02 -0.86847306025E+03  0.18747292699E+04  0.20668598945E+04  0.12699999809E+01 0.  1.
       -4    1    3    3    0  502  0.55253223698E+02  0.86847306025E+03 -0.26066400440E+03  0.90843035572E+03  0.12699999809E+01 0. -1.
</event>
<event>
 5   0  0.9768582E-07  0.2500310E+04  0.7818609E-02  0.8402875E-01
        2   -1    0    0  501    0  0.00000000000E+00  0.00000000000E+00  0.18949384672E+04  0.18949384672E+04  0.25500000920E-02 0.  1.
       -2   -1    0    0    0  501  0.00000000000E+00  0.00000000000E+00 -0.82476974641E+03  0.82476974642E+03  0.25500000920E-02 0. -1.
    10030    2    1    2    0    0  0.00000000000E+00  0.00000000000E+00  0.10701687207E+04  0.27197082136E+04  0.25003103160E+04 0.  0.
        3    1    3    3  502    0 -0.87781858507E+03 -0.79476103646E+03  0.97110365771E+03  0.15314218549E+04  0.10100000352E+00 0.  1.
       -3    1    3    3    0  502  0.87781858507E+03  0.79476103646E+03  0.99065063034E+02  0.11882863587E+04  0.10100000352E+00 0. -1.
</event>
<event>
 5   0  0.9251138E-07  0.2499996E+04  0.7818609E-02  0.8402987E-01
        2   -1    0    0  501    0  0.00000000000E+00  0.00000000000E+00  0.18456700170E+04  0.18456700170E+04  0.25500000920E-02 0. -1.
       -2   -1    0    0    0  501  0.00000000000E+00  0.00000000000E+00 -0.84657352467E+03  0.84657352467E+03  0.25500000920E-02 0.  1.
    10030    2    1    2    0    0  0.00000000000E+00  0.00000000000E+00  0.99909649232E+03  0.26922435417E+04  0.24999962973E+04 0.  0.
        5    1    3    3  502    0  0.35426116587E+03 -0.48885708684E+03  0.16782441284E+04  0.17835379642E+04  0.46999998093E+01 0. -1.
       -5    1    3    3    0  502 -0.35426116587E+03  0.48885708684E+03 -0.67914763610E+03  0.90870557752E+03  0.46999998093E+01 0.  1.
</event>
<event>
 5   0  0.3214375E-07  0.2499401E+04  0.7818609E-02  0.8403199E-01
        3   -1    0    0  501    0  0.00000000000E+00  0.00000000000E+00  0.17626505748E+04  0.17626505777E+04  0.10100000352E+00 0.  1.
       -3   -1    0    0    0  501  0.00000000000E+00  0.00000000000E+00 -0.88602458109E+03  0.88602458685E+03  0.10100000352E+00 0. -1.
    10030    2    1    2    0    0  0.00000000000E+00  0.00000000000E+00  0.87662599371E+03  0.26486751645E+04  0.24994013272E+04 0.  0.
        5    1    3    3  502    0 -0.96070682701E+03 -0.56344642789E+02  0.12831710268E+04  0.16039583225E+04  0.46999998093E+01 0.  1.
       -5    1    3    3    0  502  0.96070682701E+03  0.56344642789E+02 -0.40654503306E+03  0.10447168421E+04  0.46999998093E+01 0. -1.
</event>
<event>
 5   0  0.9251138E-07  0.2499942E+04  0.7818609E-02  0.8403006E-01
        2   -1    0    0  501    0  0.00000000000E+00  0.00000000000E+00  0.17704325274E+04  0.17704325274E+04  0.25500000920E-02 0.  1.
       -2   -1    0    0    0  501  0.00000000000E+00  0.00000000000E+00 -0.88251162799E+03  0.88251162800E+03  0.25500000920E-02 0. -1.
    10030    2    1    2    0    0  0.00000000000E+00  0.00000000000E+00  0.88792089945E+03  0.26529441554E+04  0.24999418330E+04 0.  0.
        5    1    3    3  502    0 -0.10077996513E+04 -0.12460554581E+03  0.12174150185E+04  0.15853416340E+04  0.46999998093E+01 0.  1.
       -5    1    3    3    0  502  0.10077996513E+04  0.12460554581E+03 -0.32949411903E+03  0.10676025214E+04  0.46999998093E+01 0. -1.
</event>
<event>
 5   0  0.8997210E-07  0.2499680E+04  0.7818609E-02  0.8403099E-01
       -2   -1    0    0    0  501  0.00000000000E+00  0.00000000000E+00  0.78022174673E+03  0.78022174674E+03  0.25500000920E-02 0. -1.
        2   -1    0    0  501    0  0.00000000000E+00  0.00000000000E+00 -0.20021236509E+04  0.20021236509E+04  0.25500000920E-02 0.  1.
    10030    2    1    2    0    0  0.00000000000E+00  0.00000000000E+00 -0.12219019042E+04  0.27823453977E+04  0.24996803092E+04 0.  0.
        1    1    3    3  502    0  0.56511348859E+03  0.58347799680E+03  0.44635868831E+03  0.92684189935E+03  0.50400001928E-02 0. -1.
       -1    1    3    3    0  502 -0.56511348859E+03 -0.58347799680E+03 -0.16682605925E+04  0.18555034983E+04  0.50400001928E-02 0.  1.
</event>
<event>
 5   0  0.3805418E-07  0.2500371E+04  0.7818609E-02  0.8402854E-01
        1   -1    0    0  501    0  0.00000000000E+00  0.00000000000E+00  0.80517351681E+03  0.80517351683E+03  0.50400001928E-02 0.  1.
       -1   -1    0    0    0  501  0.00000000000E+00  0.00000000000E+00 -0.19411509434E+04  0.19411509434E+04  0.50400001928E-02 0. -1.
    10030    2    1    2    0    0  0.00000000000E+00  0.00000000000E+00 -0.11359774266E+04  0.27463244603E+04  0.25003706380E+04 0.  0.
        4    1    3    3  502    0 -0.54928711832E+03 -0.80815794350E+03  0.28854464792E+03  0.10188695828E+04  0.12699999809E+01 0.  1.
       -4    1    3    3    0  502  0.54928711832E+03  0.80815794350E+03 -0.14245220745E+04  0.17274548775E+04  0.12699999809E+01 0. -1.
</event>
<event>
 5   0  0.3837524E-07  0.2500421E+04  0.7818609E-02  0.8402835E-01
        1   -1    0    0  501    0  0.00000000000E+00  0.00000000000E+00  0.12521587828E+04  0.12521587828E+04  0.50400001928E-02 0.  1.
       -1   -1    0    0    0  501  0.00000000000E+00  0.00000000000E+00 -0.12482656561E+04  0.12482656561E+04  0.50400001928E-02 0. -1.
    10030    2    1    2    0    0  0.00000000000E+00  0.00000000000E+00  0.38931267418E+01  0.25004244389E+04  0.25004214082E+04 0.  0.
        5    1    3    3  502    0  0.96502199285E+03  0.74600053446E+03 -0.27231727465E+03  0.12497851944E+04  0.46999998093E+01 0. -1.
       -5    1    3    3    0  502 -0.96502199285E+03 -0.74600053446E+03  0.27621040139E+03  0.12506392445E+04  0.46999998093E+01 0.  1.
</event>
<event>
 5   0  0.9251138E-07  0.2501093E+04  0.7818609E-02  0.8402596E-01
        2   -1    0    0  501    0  0.00000000000E+00  0.00000000000E+00  0.15534383987E+04  0.15534383987E+04  0.25500000920E-02 0. -1.
       -2   -1    0    0    0  501  0.00000000000E+00  0.00000000000E+00 -0.10067128552E+04  0.10067128552E+04  0.25500000920E-02 0.  1.
    10030    2    1    2    0    0  0.00000000000E+00  0.00000000000E+00  0.54672554344E+03  0.25601512539E+04  0.25010928857E+04 0.  0.
        5    1    3    3  502    0 -0.11590704769E+03 -0.57774751229E+03  0.14024119675E+04  0.15211863950E+04  0.46999998093E+01 0. -1.
       -5    1    3    3    0  502  0.11590704769E+03  0.57774751229E+03 -0.85568642408E+03  0.10389648589E+04  0.46999998093E+01 0.  1.
</event>
<event>
 5   0  0.9508784E-07  0.2500378E+04  0.7818609E-02  0.8402851E-01
       -2   -1    0    0    0  501  0.00000000000E+00  0.00000000000E+00  0.14468700031E+04  0.14468700031E+04  0.25500000920E-02 0. -1.
        2   -1    0    0  501    0  0.00000000000E+00  0.00000000000E+00 -0.10802442422E+04  0.10802442422E+04  0.25500000920E-02 0.  1.
    10030    2    1    2    0    0  0.00000000000E+00  0.00000000000E+00  0.36662576092E+03  0.25271142453E+04  0.25003783634E+04 0.  0.
        2    1    3    3  502    0  0.12187810281E+04  0.17148987874E+03  0.40506037978E+03  0.12957275502E+04  0.25500000920E-02 0.  1.
       -2    1    3    3    0  502 -0.12187810281E+04 -0.17148987874E+03 -0.38434618861E+02  0.12313866951E+04  0.25500000920E-02 0. -1.
</event>
<event>
 5   0  0.9768582E-07  0.2500043E+04  0.7818609E-02  0.8402970E-01
       -2   -1    0    0    0  501  0.00000000000E+00  0.00000000000E+00  0.25219469279E+04  0.25219469279E+04  0.25500000920E-02 0. -1.
        2   -1    0    0  501    0  0.00000000000E+00  0.00000000000E+00 -0.61958251976E+03  0.61958251976E+03  0.25500000920E-02 0.  1.
    10030    2    1    2    0    0  0.00000000000E+00  0.00000000000E+00  0.19023644081E+04  0.31415294476E+04  0.25000433854E+04 0.  0.
        3    1    3    3  502    0 -0.47776988599E+03  0.11065691019E+04  0.13675573837E+04  0.18229022051E+04  0.10100000352E+00 0. -1.
       -3    1    3    3    0  502  0.47776988599E+03 -0.11065691019E+04  0.53480702441E+03  0.13186272426E+04  0.10100000352E+00 0.  1.
</event>
<event>
 5   0  0.3991066E-07  0.2500579E+04  0.7818609E-02  0.8402779E-01
       -1   -1    0    0    0  501  0.00000000000E+00  0.00000000000E+00  0.10830870340E+04  0.10830870340E+04  0.50400001928E-02 0. -1.
        1   -1    0    0  501    0  0.00000000000E+00  0.00000000000E+00 -0.14433035892E+04  0.14433035892E+04  0.50400001928E-02 0.  1.
    10030    2    1    2    0    0  0.00000000000E+00  0.00000000000E+00 -0.36021655521E+03  0.25263906232E+04  0.25005786559E+04 0.  0.
        1    1    3    3  502    0  0.33513678429E+03 -0.20446596453E+03 -0.13794168870E+04  0.14341945276E+04  0.50400001928E-02 0.  1.
       -1    1    3    3    0  502 -0.33513678429E+03  0.20446596453E+03  0.10192003318E+04  0.10921960956E+04  0.50400001928E-02 0. -1.
</event>
<event>
 5   0  0.9768582E-07  0.2500397E+04  0.7818609E-02  0.8402844E-01
        2   -1    0    0  501    0  0.00000000000E+00  0.00000000000E+00  0.15182061799E+04  0.15182061799E+04  0.25500000920E-02 0.  1.
       -2   -1    0    0    0  501  0.00000000000E+00  0.00000000000E+00 -0.10295016372E+04  0.10295016372E+04  0.25500000920E-02 0. -1.
    10030    2    1    2    0    0  0.00000000000E+00  0.00000000000E+00  0.48870454269E+03  0.25477078172E+04  0.25003965669E+04 0.  0.
        3    1    3    3  502    0 -0.10010075850E+04  0.25763349793E+03 -0.47223612597E+03  0.11363970139E+04  0.10100000352E+00 0. -1.
       -3    1    3    3    0  502  0.10010075850E+04 -0.25763349793E+03  0.96094066865E+03  0.14113108032E+04  0.10100000352E+00 0.  1.
</event>
<event>
 5   0  0.9251138E-07  0.2502120E+04  0.7818609E-02  0.8402231E-01
        2   -1    0    0  501    0  0.00000000000E+00  0.00000000000E+00  0.20421517604E+04  0.20421517604E+04  0.25500000920E-02 0.  1.
       -2   -1    0    0    0  501  0.00000000000E+00  0.00000000000E+00 -0.76642240567E+03  0.76642240567E+03  0.25500000920E-02 0. -1.
    10030    2    1    2    0    0  0.00000000000E+00  0.00000000000E+00  0.12757293548E+04  0.28085741661E+04  0.25021197933E+04 0.  0.
        5    1    3    3  502    0 -0.11594161439E+04 -0.46410834010E+03  0.72100709952E+03  0.14420525905E+04  0.46999998093E+01 0. -1.
       -5    1    3    3    0  502  0.11594161439E+04  0.46410834010E+03  0.55472225525E+03  0.13665215756E+04  0.46999998093E+01 0.  1.
</event>
<event>
 5   0  0.3991066E-07  0.2507324E+04  0.7818609E-02  0.8400381E-01
       -1   -1    0    0    0  501  0.00000000000E+00  0.00000000000E+00  0.15274377670E+04  0.15274377670E+04  0.50400001928E-02 0.  1.
        1   -1    0    0  501    0  0.00000000000E+00  0.00000000000E+00 -0.10289574133E+04  0.10289574133E+04  0.50400001928E-02 0. -1.
    10030    2    1    2    0    0  0.00000000000E+00  0.00000000000E+00  0.49848035367E+03  0.25563951803E+04  0.25073240027E+04 0.  0.
        1    1    3    3  502    0  0.51100175259E+03  0.10197632225E+04 -0.28116086839E+03  0.11747728526E+04  0.50400001928E-02 0. -1.
       -1    1    3    3    0  502 -0.51100175259E+03 -0.10197632225E+04  0.77964122206E+03  0.13816223277E+04  0.50400001928E-02 0.  1.
</event>
<event>
 5   0  0.3873231E-07  0.2501662E+04  0.7818609E-02  0.8402394E-01
       -1   -1    0    0    0  501  0.00000000000E+00  0.00000000000E+00  0.64566310067E+03  0.64566310069E+03  0.50400001928E-02 0. -1.
        1   -1    0    0  501    0  0.00000000000E+00  0.00000000000E+00 -0.24232118510E+04  0.24232118510E+04  0.50400001928E-02 0.  1.
    10030    2    1    2    0    0  0.00000000000E+00  0.00000000000E+00 -0.17775487503E+04  0.30688749517E+04  0.25016622293E+04 0.  0.
        2    1    3    3  502    0  0.57983880910E+03 -0.11081335339E+04 -0.86407147207E+03  0.15201291006E+04  0.25500000920E-02 0. -1.
       -2    1    3    3    0  502 -0.57983880910E+03  0.11081335339E+04 -0.91347727824E+03  0.15487458511E+04  0.25500000920E-02 0.  1.
</event>
<event>
 5   0  0.9261602E-07  0.2499440E+04  0.7818609E-02  0.8403185E-01
       -2   -1    0    0    0  501  0.00000000000E+00  0.00000000000E+00  0.11511293048E+04  0.11511293048E+04  0.25500000920E-02 0.  1.
        2   -1    0    0  501    0  0.00000000000E+00  0.00000000000E+00 -0.13567552181E+04  0.13567552181E+04  0.25500000920E-02 0. -1.
    10030    2    1    2    0    0  0.00000000000E+00  0.00000000000E+00 -0.20562591327E+03  0.25078845229E+04  0.24994404902E+04 0.  0.
        4    1    3    3  502    0  0.95094267843E+03  0.41791109370E+03  0.59441402968E+03  0.11967753805E+04  0.12699999809E+01 0.  1.
       -4    1    3    3    0  502 -0.95094267843E+03 -0.41791109370E+03 -0.80003994295E+03  0.13111091423E+04  0.12699999809E+01 0. -1.
</event>
<event>
 5   0  0.9261602E-07  0.2498767E+04  0.7818609E-02  0.8403425E-01
        2   -1    0    0  501    0  0.00000000000E+00  0.00000000000E+00  0.11727620073E+04  0.11727620073E+04  0.25500000920E-02 0. -1.
       -2   -1    0    0    0  501  0.00000000000E+00  0.00000000000E+00 -0.13310114500E+04  0.13310114500E+04  0.25500000920E-02 0.  1.
    10030    2    1    2    0    0  0.00000000000E+00  0.00000000000E+00 -0.15824944273E+03  0.25037734574E+04  0.24987674241E+04 0.  0.
        4    1    3    3  502    0 -0.66819569952E+03  0.16196532034E+03  0.96615252339E+03  0.11858206311E+04  0.12699999809E+01 0. -1.
       -4    1    3    3    0  502  0.66819569952E+03 -0.16196532034E+03 -0.11244019661E+04  0.13179528262E+04  0.12699999809E+01 0.  1.
</event>
<event>
 5   0  0.9508784E-07  0.2499700E+04  0.7818609E-02  0.8403092E-01
       -2   -1    0    0    0  501  0.00000000000E+00  0.00000000000E+00  0.96088782717E+03  0.96088782717E+03  0.25500000920E-02 0.  1.
        2   -1    0    0  501    0  0.00000000000E+00  0.00000000000E+00 -0.16257105800E+04  0.16257105800E+04  0.25500000920E-02 0. -1.
    10030    2    1    2    0    0  0.00000000000E+00  0.00000000000E+00 -0.66482275288E+03  0.25865984072E+04  0.24997003875E+04 0.  0.
        2    1    3    3  502    0 -0.60039558155E+03 -0.29654174103E+03 -0.14244244033E+04  0.15739748217E+04  0.25500000920E-02 0. -1.
       -2    1    3    3    0  502  0.60039558155E+03  0.29654174103E+03  0.75960165047E+03  0.10126235855E+04  0.25500000920E-02 0.  1.
</event>
<event>
 5   0  0.8997210E-07  0.2499892E+04  0.7818609E-02  0.8403024E-01
        2   -1    0    0  501    0  0.00000000000E+00  0.00000000000E+00  0.19845374269E+04  0.19845374269E+04  0.25500000920E-02 0.  1.
       -2   -1    0    0    0  501  0.00000000000E+00  0.00000000000E+00 -0.78726903072E+03  0.78726903073E+03  0.25500000920E-02 0. -1.
    10030    2    1    2    0    0  0.00000000000E+00  0.00000000000E+00  0.11972683962E+04  0.27718064577E+04  0.24998918829E+04 0.  0.
        1    1    3    3  502    0  0.46605424192E+03  0.11494853451E+04  0.76983691899E+03  0.14598534163E+04  0.50400001928E-02 0.  1.
       -1    1    3    3    0  502 -0.46605424192E+03 -0.11494853451E+04  0.42743147722E+03  0.13119530414E+04  0.50400001928E-02 0. -1.
</event>
<event>
 5   0  0.9261602E-07  0.2500372E+04  0.7818609E-02  0.8402853E-01
       -2   -1    0    0    0  501  0.00000000000E+00  0.00000000000E+00  0.13629278327E+04  0.13629278327E+04  0.25500000920E-02 0.  1.
        2   -1    0    0  501    0  0.00000000000E+00  0.00000000000E+00 -0.11467699080E+04  0.11467699080E+04  0.25500000920E-02 0. -1.
    10030    2    1    2    0    0  0.00000000000E+00  0.00000000000E+00  0.21615792467E+03  0.25096977407E+04  0.25003716727E+04 0.  0.
        4    1    3    3  502    0  0.16636612859E+03  0.75954614441E+03 -0.87453873771E+03  0.11702169247E+04  0.12699999809E+01 0. -1.
       -4    1    3    3    0  502 -0.16636612859E+03 -0.75954614441E+03  0.10906966624E+04  0.13394808160E+04  0.12699999809E+01 0.  1.
</event>
<event>
 5   0  0.9768582E-07  0.2506748E+04  0.7818609E-02  0.8400585E-01
       -2   -1    0    0    0  501  0.00000000000E+00  0.00000000000E+00  0.10892831527E+04  0.10892831527E+04  0.25500000920E-02 0.  1.
        2   -1    0    0  501    0  0.00000000000E+00  0.00000000000E+00 -0.14421840459E+04  0.14421840459E+04  0.25500000920E-02 0. -1.
    10030    2    1    2    0    0  0.00000000000E+00  0.00000000000E+00 -0.35290089314E+03  0.25314671986E+04  0.25067483195E+04 0.  0.
        3    1    3    3  502    0 -0.77881920194E+03  0.14401499731E+03 -0.11574445072E+04  0.14024897383E+04  0.10100000352E+00 0. -1.
       -3    1    3    3    0  502  0.77881920194E+03 -0.14401499731E+03  0.80454361403E+03  0.11289774603E+04  0.10100000352E+00 0.  1.
</event>
<event>
 5   0  0.3972587E-07  0.2498715E+04  0.7818609E-02  0.8403444E-01
       -1   -1    0    0    0  501  0.00000000000E+00  0.00000000000E+00  0.83967303127E+03  0.83967303128E+03  0.50400001928E-02 0.  1.
        1   -1    0    0  501    0  0.00000000000E+00  0.00000000000E+00 -0.18589306323E+04  0.18589306323E+04  0.50400001928E-02 0. -1.
    10030    2    1    2    0    0  0.00000000000E+00  0.00000000000E+00 -0.10192576010E+04  0.26986036636E+04  0.24987148048E+04 0.  0.
        3    1    3    3  502    0  0.11589836114E+04 -0.55225148516E+02 -0.93197405913E+01  0.11603360273E+04  0.10100000352E+00 0.  1.
       -3    1    3    3    0  502 -0.11589836114E+04  0.55225148516E+02 -0.10099378604E+04  0.15382676363E+04  0.10100000352E+00 0. -1.
</event>
<event>
 5   0  0.3972587E-07  0.2496351E+04  0.7818609E-02  0.8404287E-01
        1   -1    0    0  501    0  0.00000000000E+00  0.00000000000E+00  0.19712640556E+04  0.19712640556E+04  0.50400001928E-02 0. -1.
       -1   -1    0    0    0  501  0.00000000000E+00  0.00000000000E+00 -0.79032635396E+03  0.79032635398E+03  0.50400001928E-02 0.  1.
    10030    2    1    2    0    0  0.00000000000E+00  0.00000000000E+00  0.11809377016E+04  0.27615904096E+04  0.24963508838E+04 0.  0.
        3    1    3    3  502    0 -0.68195438179E+03  0.10265155377E+04  0.80934442987E+03  0.14743928731E+04  0.10100000352E+00 0.  1.
       -3    1    3    3    0  502  0.68195438179E+03 -0.10265155377E+04  0.37159327176E+03  0.12871975364E+04  0.10100000352E+00 0. -1.
</event>
<event>
 5   0  0.3805418E-07  0.2500172E+04  0.7818609E-02  0.8402924E-01
        1   -1    0    0  501    0  0.00000000000E+00  0.00000000000E+00  0.21432169819E+04  0.21432169819E+04  0.50400001928E-02 0.  1.
       -1   -1    0    0    0  501  0.00000000000E+00  0.00000000000E+00 -0.72914457907E+03  0.72914457909E+03  0.50400001928E-02 0. -1.
    10030    2    1    2    0    0  0.00000000000E+00  0.00000000000E+00  0.14140724028E+04  0.28723615610E+04  0.25001720294E+04 0.  0.
        4    1    3    3  502    0  0.11333315048E+04 -0.13208408878E+03  0.12029656883E+03  0.11473270605E+04  0.12699999809E+01 0. -1.
       -4    1    3    3    0  502 -0.11333315048E+04  0.13208408878E+03  0.12937758340E+04  0.17250345005E+04  0.12699999809E+01 0.  1.
</event>
<event>
 5   0  0.3991066E-07  0.2499930E+04  0.7818609E-02  0.8403011E-01
        1   -1    0    0  501    0  0.00000000000E+00  0.00000000000E+00  0.14184019525E+04  0.14184019525E+04  0.50400001928E-02 0.  1.
       -1   -1    0    0    0  501  0.00000000000E+00  0.00000000000E+00 -0.11015299079E+04  0.11015299079E+04  0.50400001928E-02 0. -1.
    10030    2    1    2    0    0  0.00000000000E+00  0.00000000000E+00  0.31687204458E+03  0.25199318604E+04  0.24999297367E+04 0.  0.
        1    1    3    3  502    0  0.50458090887E+03  0.93438194709E+03  0.82306017995E+03  0.13435399423E+04  0.50400001928E-02 0.  1.
       -1    1    3    3    0  502 -0.50458090887E+03 -0.93438194709E+03 -0.50618813537E+03  0.11763919181E+04  0.50400001928E-02 0. -1.
</event>
<event>
 5   0  0.8997210E-07  0.2499355E+04  0.7818609E-02  0.8403215E-01
       -2   -1    0    0    0  501  0.00000000000E+00  0.00000000000E+00  0.80435490028E+03  0.80435490028E+03  0.25500000920E-02 0. -1.
        2   -1    0    0  501    0  0.00000000000E+00  0.00000000000E+00 -0.19415482475E+04  0.19415482475E+04  0.25500000920E-02 0.  1.
    10030    2    1    2    0    0  0.00000000000E+00  0.00000000000E+00 -0.11371933472E+04  0.27459031477E+04  0.24993549944E+04 0.  0.
        1    1    3    3  502    0  0.61675691367E+03 -0.61252032871E+03 -0.15550080864E+04  0.17814657988E+04  0.50400001928E-02 0.  1.
       -1    1    3    3    0  502 -0.61675691367E+03  0.61252032871E+03  0.41781473921E+03  0.96443734891E+03  0.50400001928E-02 0. -1.
</event>
<event>
 5   0  0.9261602E-07  0.2500806E+04  0.7818609E-02  0.8402699E-01
        2   -1    0    0  501    0  0.00000000000E+00  0.00000000000E+00  0.16086447719E+04  0.16086447719E+04  0.25500000920E-02 0.  1.
       -2   -1    0    0    0  501  0.00000000000E+00  0.00000000000E+00 -0.97194072768E+03  0.97194072769E+03  0.25500000920E-02 0. -1.
    10030    2    1    2    0    0  0.00000000000E+00  0.00000000000E+00  0.63670404422E+03  0.25805854996E+04  0.25008057663E+04 0.  0.
        4    1    3    3  502    0  0.10621941480E+04 -0.63428434312E+03  0.50561507535E+03  0.13364958860E+04  0.12699999809E+01 0. -1.
       -4    1    3    3    0  502 -0.10621941480E+04  0.63428434312E+03  0.13108896887E+03  0.12440896136E+04  0.12699999809E+01 0.  1.
</event>
<event>
 5   0  0.9508784E-07  0.2499554E+04  0.7818609E-02  0.8403144E-01
        2   -1    0    0  501    0  0.00000000000E+00  0.00000000000E+00  0.12171006940E+04  0.12171006940E+04  0.25500000920E-02 0.  1.
       -2   -1    0    0    0  501  0.00000000000E+00  0.00000000000E+00 -0.12833309851E+04  0.12833309851E+04  0.25500000920E-02 0. -1.
    10030    2    1    2    0    0  0.00000000000E+00  0.00000000000E+00 -0.66230291079E+02  0.25004316791E+04  0.24995543863E+04 0.  0.
        2    1    3    3  502    0 -0.75095771147E+03 -0.41264704109E+03  0.87699973783E+03  0.12261091326E+04  0.25500000920E-02 0.  1.
       -2    1    3    3    0  502  0.75095771147E+03  0.41264704109E+03 -0.94323002891E+03  0.12743225464E+04  0.25500000920E-02 0. -1.
</event>
<event>
 5   0  0.3837524E-07  0.2501692E+04  0.7818609E-02  0.8402383E-01
       -1   -1    0    0    0  501  0.00000000000E+00  0.00000000000E+00  0.13446140174E+04  0.13446140174E+04  0.50400001928E-02 0.  1.
        1   -1    0    0  501    0  0.00000000000E+00  0.00000000000E+00 -0.11636170354E+04  0.11636170354E+04  0.50400001928E-02 0. -1.
    10030    2    1    2    0    0  0.00000000000E+00  0.00000000000E+00  0.18099698203E+03  0.25082310528E+04  0.25016920488E+04 0.  0.
        5    1    3    3  502    0  0.17883482676E+02  0.31669882450E+03  0.13036097386E+04  0.13416550992E+04  0.46999998093E+01 0.  1.
       -5    1    3    3    0  502 -0.17883482676E+02 -0.31669882450E+03 -0.11226127566E+04  0.11665759537E+04  0.46999998093E+01 0. -1.
</event>
<event>
 5   0  0.3972587E-07  0.2499810E+04  0.7818609E-02  0.8403053E-01
       -1   -1    0    0    0  501  0.00000000000E+00  0.00000000000E+00  0.11193830574E+04  0.11193830574E+04  0.50400001928E-02 0.  1.
        1   -1    0    0  501    0  0.00000000000E+00  0.00000000000E+00 -0.13956464140E+04  0.13956464140E+04  0.50400001928E-02 0. -1.
    10030    2    1    2    0    0  0.00000000000E+00  0.00000000000E+00 -0.27626335660E+03  0.25150294714E+04  0.24998103527E+04 0.  0.
        3    1    3    3  502    0  0.11923595501E+04  0.24920493295E+03  0.14364223198E+03  0.12265632867E+04  0.10100000352E+00 0.  1.
       -3    1    3    3    0  502 -0.11923595501E+04 -0.24920493295E+03 -0.41990558859E+03  0.12884661846E+04  0.10100000352E+00 0. -1.
</event>
<event>
 5   0  0.8997210E-07  0.2499941E+04  0.7818609E-02  0.8403006E-01
       -2   -1    0    0    0  501  0.00000000000E+00  0.00000000000E+00  0.10010951430E+04  0.10010951430E+04  0.25500000920E-02 0. -1.
        2   -1    0    0  501    0  0.00000000000E+00  0.00000000000E+00 -0.15607172270E+04  0.15607172270E+04  0.25500000920E-02 0.  1.
    10030    2    1    2    0    0  0.00000000000E+00  0.00000000000E+00 -0.55962208401E+03  0.25618123700E+04  0.24999411477E+04 0.  0.
        1    1    3    3  502    0  0.10045944733E+04 -0.15820904707E+03 -0.10245620339E+04  0.14435953449E+04  0.50400001928E-02 0.  1.
       -1    1    3    3    0  502 -0.10045944733E+04  0.15820904707E+03  0.46493994993E+03  0.11182170252E+04  0.50400001928E-02 0. -1.
</event>
<event>
 5   0  0.3805418E-07  0.2501080E+04  0.7818609E-02  0.8402601E-01
        1   -1    0    0  501    0  0.00000000000E+00  0.00000000000E+00  0.16975658095E+04  0.16975658095E+04  0.50400001928E-02 0. -1.
       -1   -1    0    0    0  501  0.00000000000E+00  0.00000000000E+00 -0.92123138167E+03  0.92123138168E+03  0.50400001928E-02 0.  1.
    10030    2    1    2    0    0  0.00000000000E+00  0.00000000000E+00  0.77633442786E+03  0.26187971912E+04  0.25010804835E+04 0.  0.
        4    1    3    3  502    0 -0.40603150554E+03  0.66855906397E+03 -0.63346935954E+03  0.10065375541E+04  0.12699999809E+01 0.  1.
       -4    1    3    3    0  502  0.40603150554E+03 -0.66855906397E+03  0.14098037874E+04  0.16122596371E+04  0.12699999809E+01 0. -1.
</event>
<event>
 5   0  0.3972587E-07  0.2502944E+04  0.7818609E-02  0.8401938E-01
       -1   -1    0    0    0  501  0.00000000000E+00  0.00000000000E+00  0.12072725954E+04  0.12072725954E+04  0.50400001928E-02 0. -1.
        1   -1    0    0  501    0  0.00000000000E+00  0.00000000000E+00 -0.12972893801E+04  0.12972893801E+04  0.50400001928E-02 0.  1.
    10030    2    1    2    0    0  0.00000000000E+00  0.00000000000E+00 -0.90016784686E+02  0.25045619755E+04  0.25029438003E+04 0.  0.
        3    1    3    3  502    0 -0.54148219261E+03 -0.27016362139E+03 -0.11411574105E+04  0.12916778209E+04  0.10100000352E+00 0.  1.
       -3    1    3    3    0  502  0.54148219261E+03  0.27016362139E+03  0.10511406258E+04  0.12128841547E+04  0.10100000352E+00 0. -1.
</event>
<event>
 5   0  0.3991066E-07  0.2501745E+04  0.7818609E-02  0.8402364E-01
        1   -1    0    0  501    0  0.00000000000E+00  0.00000000000E+00  0.16162488431E+04  0.16162488431E+04  0.50400001928E-02 0.  1.
       -1   -1    0    0    0  501  0.00000000000E+00  0.00000000000E+00 -0.96809482526E+03  0.96809482527E+03  0.50400001928E-02 0. -1.
    10030    2    1    2    0    0  0.00000000000E+00  0.00000000000E+00  0.64815401786E+03  0.25843436684E+04  0.25017451040E+04 0.  0.
        1    1    3    3  502    0  0.11081414359E+04  0.23998881706E+03 -0.22167451633E+03  0.11552972195E+04  0.50400001928E-02 0. -1.
       -1    1    3    3    0  502 -0.11081414359E+04 -0.23998881706E+03  0.86982853419E+03  0.14290464489E+04  0.50400001928E-02 0.  1.
</event>
<event>
 5   0  0.3837524E-07  0.2500424E+04  0.7818609E-02  0.8402834E-01
       -1   -1    0    0    0  501  0.00000000000E+00  0.00000000000E+00  0.82778707713E+03  0.82778707715E+03  0.50400001928E-02 0. -1.
        1   -1    0    0  501    0  0.00000000000E+00  0.00000000000E+00 -0.18882037445E+04  0.18882037446E+04  0.50400001928E-02 0.  1.
    10030    2    1    2    0    0  0.00000000000E+00  0.00000000000E+00 -0.10604166674E+04  0.27159908217E+04  0.25004244910E+04 0.  0.
        5    1    3    3  502    0  0.73283337068E+03 -0.74661624456E+03 -0.12737106577E+04  0.16482844097E+04  0.46999998093E+01 0.  1.
       -5    1    3    3    0  502 -0.73283337068E+03  0.74661624456E+03  0.21329399031E+03  0.10677064120E+04  0.46999998093E+01 0. -1.
</event>
<event>
 5   0  0.3972587E-07  0.2502011E+04  0.7818609E-02  0.8402269E-01
        1   -1    0    0  501    0  0.00000000000E+00  0.00000000000E+00  0.11367530421E+04  0.11367530421E+04  0.50400001928E-02 0. -1.
       -1   -1    0    0    0  501  0.00000000000E+00  0.00000000000E+00 -0.13767417279E+04  0.13767417280E+04  0.50400001928E-02 0.  1.
    10030    2    1    2    0    0  0.00000000000E+00  0.00000000000E+00 -0.23998868587E+03  0.25134947700E+04  0.25020114687E+04 0.  0.
        3    1    3    3  502    0 -0.95346104633E+02 -0.11371817468E+04  0.39494200653E+03  0.12075812203E+04  0.10100000352E+00 0. -1.
       -3    1    3    3    0  502  0.95346104633E+02  0.11371817468E+04 -0.63493069240E+03  0.13059135497E+04  0.10100000352E+00 0.  1.
</event>
<event>
 5   0  0.9261602E-07  0.2500684E+04  0.7818609E-02  0.8402742E-01
        2   -1    0    0  501    0  0.00000000000E+00  0.00000000000E+00  0.27490216837E+04  0.27490216837E+04  0.25500000920E-02 0.  1.
       -2   -1    0    0    0  501  0.00000000000E+00  0.00000000000E+00 -0.56869499011E+03  0.56869499012E+03  0.25500000920E-02 0. -1.
    10030    2    1    2    0    0  0.00000000000E+00  0.00000000000E+00  0.21803266936E+04  0.33177166738E+04  0.25006837939E+04 0.  0.
        4    1    3    3  502    0 -0.68133152707E+03  0.36581620441E+03 -0.21335145099E+03  0.80221854861E+03  0.12699999809E+01 0. -1.
       -4    1    3    3    0  502  0.68133152707E+03 -0.36581620441E+03  0.23936781446E+04  0.25154981252E+04  0.12699999809E+01 0.  1.
</event>
<event>
 5   0  0.8997210E-07  0.2501690E+04  0.7818609E-02  0.8402384E-01
       -2   -1    0    0    0  501  0.00000000000E+00  0.00000000000E+00  0.20438046077E+04  0.20438046077E+04  0.25500000920E-02 0. -1.
        2   -1    0    0  501    0  0.00000000000E+00  0.00000000000E+00 -0.76553974695E+03  0.76553974695E+03  0.25500000920E-02 0.  1.
    10030    2    1    2    0    0  0.00000000000E+00  0.00000000000E+00  0.12782648607E+04  0.28093443546E+04  0.25016903583E+04 0.  0.
        1    1    3    3  502    0  0.42888399010E+03  0.34290422894E+03  0.19012167651E+04  0.19789264704E+04  0.50400001928E-02 0. -1.
       -1    1    3    3    0  502 -0.42888399010E+03 -0.34290422894E+03 -0.62295190442E+03  0.83041788422E+03  0.50400001928E-02 0.  1.
</event>
<event>
 5   0  0.3805418E-07  0.2500147E+04  0.7818609E-02  0.8402933E-01
        1   -1    0    0  501    0  0.00000000000E+00  0.00000000000E+00  0.15152289785E+04  0.15152289785E+04  0.50400001928E-02 0. -1.
       -1   -1    0    0    0  501  0.00000000000E+00  0.00000000000E+00 -0.10313189511E+04  0.10313189511E+04  0.50400001928E-02 0.  1.
    10030    2    1    2    0    0  0.00000000000E+00  0.00000000000E+00  0.48391002743E+03  0.25465479296E+04  0.25001474843E+04 0.  0.
        4    1    3    3  502    0  0.34203760768E+03 -0.40045632728E+03  0.13967188338E+04  0.14927089832E+04  0.12699999809E+01 0. -1.
       -4    1    3    3    0  502 -0.34203760768E+03  0.40045632728E+03 -0.91280880634E+03  0.10538389464E+04  0.12699999809E+01 0.  1.
</event>
<event>
 5   0  0.9251138E-07  0.2501762E+04  0.7818609E-02  0.8402358E-01
        2   -1    0    0  501    0  0.00000000000E+00  0.00000000000E+00  0.13122601503E+04  0.13122601503E+04  0.25500000920E-02 0. -1.
       -2   -1    0    0    0  501  0.00000000000E+00  0.00000000000E+00 -0.11923728058E+04  0.11923728058E+04  0.25500000920E-02 0.  1.
    10030    2    1    2    0    0  0.00000000000E+00  0.00000000000E+00  0.11988734447E+03  0.25046329561E+04  0.25017620329E+04 0.  0.
        5    1    3    3  502    0  0.58516794734E+03  0.30824286563E+03 -0.10029931495E+04  0.12014376966E+04  0.46999998093E+01 0.  1.
       -5    1    3    3    0  502 -0.58516794734E+03 -0.30824286563E+03  0.11228804940E+04  0.13031952595E+04  0.46999998093E+01 0. -1.
</event>
<event>
 5   0  0.3805418E-07  0.2501687E+04  0.7818609E-02  0.8402385E-01
        1   -1    0    0  501    0  0.00000000000E+00  0.00000000000E+00  0.19881334468E+04  0.19881334468E+04  0.50400001928E-02 0.  1.
       -1   -1    0    0    0  501  0.00000000000E+00  0.00000000000E+00 -0.78697391327E+03  0.78697391329E+03  0.50400001928E-02 0. -1.
    10030    2    1    2    0    0  0.00000000000E+00  0.00000000000E+00  0.12011595335E+04  0.27751073601E+04  0.25016867580E+04 0.  0.
        4    1    3    3  502    0  0.11327851357E+03 -0.49527634745E+02  0.19813384363E+04  0.19851923384E+04  0.12699999809E+01 0.  1.
       -4    1    3    3    0  502 -0.11327851357E+03  0.49527634745E+02 -0.78017890280E+03  0.78991502170E+03  0.12699999809E+01 0. -1.
</event>
<event>
 5   0  0.3991066E-07  0.2500349E+04  0.7818609E-02  0.8402861E-01
        1   -1    0    0  501    0  0.00000000000E+00  0.00000000000E+00  0.22556976361E+04  0.22556976361E+04  0.50400001928E-02 0. -1.
       -1   -1    0    0    0  501  0.00000000000E+00  0.00000000000E+00 -0.69288385895E+03  0.69288385897E+03  0.50400001928E-02 0.  1.
    10030    2    1    2    0    0  0.00000000000E+00  0.00000000000E+00  0.15628137771E+04  0.29485814950E+04  0.25003491618E+04 0.  0.
        1    1    3    3  502    0 -0.11765460470E+04 -0.17983096967E+03  0.33028997456E+03  0.12351887490E+04  0.50400001928E-02 0.  1.
       -1    1    3    3    0  502  0.11765460470E+04  0.17983096967E+03  0.12325238025E+04  0.17133927460E+04  0.50400001928E-02 0. -1.
</event>
<event>
 5   0  0.3991066E-07  0.2499181E+04  0.7818609E-02  0.8403277E-01
       -1   -1    0    0    0  501  0.00000000000E+00  0.00000000000E+00  0.99380299158E+03  0.99380299159E+03  0.50400001928E-02 0. -1.
        1   -1    0    0  501    0  0.00000000000E+00  0.00000000000E+00 -0.15712137240E+04  0.15712137240E+04  0.50400001928E-02 0.  1.
    10030    2    1    2    0    0  0.00000000000E+00  0.00000000000E+00 -0.57741073243E+03  0.25650167156E+04  0.24991813855E+04 0.  0.
        1    1    3    3  502    0  0.54153093772E+03 -0.78906685518E+03 -0.11133605257E+04  0.14681464227E+04  0.50400001928E-02 0.  1.
       -1    1    3    3    0  502 -0.54153093772E+03  0.78906685518E+03  0.53594979325E+03  0.10968702929E+04  0.50400001928E-02 0. -1.
</event>
<event>
 5   0  0.3972587E-07  0.2501110E+04  0.7818609E-02  0.8402590E-01
        1   -1    0    0  501    0  0.00000000000E+00  0.00000000000E+00  0.10085143656E+04  0.10085143656E+04  0.50400001928E-02 0.  1.
       -1   -1    0    0    0  501  0.00000000000E+00  0.00000000000E+00 -0.15506841073E+04  0.15506841073E+04  0.50400001928E-02 0. -1.
    10030    2    1    2    0    0  0.00000000000E+00  0.00000000000E+00 -0.54216974168E+03  0.25591984729E+04  0.25011095128E+04 0.  0.
        3    1    3    3  502    0 -0.10535600123E+04 -0.79888394327E+01  0.41823388224E+03  0.11335661037E+04  0.10100000352E+00 0.  1.
       -3    1    3    3    0  502  0.10535600123E+04  0.79888394327E+01 -0.96040362391E+03  0.14256323692E+04  0.10100000352E+00 0. -1.
</event>
<event>
 5   0  0.9251138E-07  0.2501493E+04  0.7818609E-02  0.8402454E-01
       -2   -1    0    0    0  501  0.00000000000E+00  0.00000000000E+00  0.16631402271E+04  0.16631402271E+04  0.25500000920E-02 0. -1.
        2   -1    0    0  501    0  0.00000000000E+00  0.00000000000E+00 -0.94061053266E+03  0.94061053266E+03  0.25500000920E-02 0.  1.
    10030    2    1    2    0    0  0.00000000000E+00  0.00000000000E+00  0.72252969447E+03  0.26037507598E+04  0.25014933259E+04 0.  0.
        5    1    3    3  502    0  0.53514302669E+03 -0.38593135569E+02 -0.81473337796E+03  0.97554090447E+03  0.46999998093E+01 0.  1.
       -5    1    3    3    0  502 -0.53514302669E+03  0.38593135569E+02  0.15372630724E+04  0.16282098553E+04  0.46999998093E+01 0. -1.
</event>
<event>
 5   0  0.8997210E-07  0.2499643E+04  0.7818609E-02  0.8403113E-01
       -2   -1    0    0    0  501  0.00000000000E+00  0.00000000000E+00  0.58629139122E+03  0.58629139122E+03  0.25500000920E-02 0. -1.
        2   -1    0    0  501    0  0.00000000000E+00  0.00000000000E+00 -0.26642959450E+04  0.26642959450E+04  0.25500000920E-02 0.  1.
    10030    2    1    2    0    0  0.00000000000E+00  0.00000000000E+00 -0.20780045538E+04  0.32505873362E+04  0.24996429955E+04 0.  0.
        1    1    3    3  502    0  0.44679262165E+03  0.66275108583E+03 -0.22884832982E+04  0.24240500108E+04  0.50400001928E-02 0.  1.
       -1    1    3    3    0  502 -0.44679262165E+03 -0.66275108583E+03  0.21047874440E+03  0.82653732547E+03  0.50400001928E-02 0. -1.
</event>
<event>
 5   0  0.3805418E-07  0.2499894E+04  0.7818609E-02  0.8403023E-01
        1   -1    0    0  501    0  0.00000000000E+00  0.00000000000E+00  0.14794462064E+04  0.14794462065E+04  0.50400001928E-02 0. -1.
       -1   -1    0    0    0  501  0.00000000000E+00  0.00000000000E+00 -0.10560491337E+04  0.10560491337E+04  0.50400001928E-02 0.  1.
    10030    2    1    2    0    0  0.00000000000E+00  0.00000000000E+00  0.42339707278E+03  0.25354953401E+04  0.24998943055E+04 0.  0.
        4    1    3    3  502    0 -0.95836731692E+02  0.89668165367E+03 -0.66615832427E+03  0.11211561858E+04  0.12699999809E+01 0.  1.
       -4    1    3    3    0  502  0.95836731692E+02 -0.89668165367E+03  0.10895553971E+04  0.14143391543E+04  0.12699999809E+01 0. -1.
</event>
<event>
 5   0  0.3972587E-07  0.2499895E+04  0.7818609E-02  0.8403023E-01
        1   -1    0    0  501    0  0.00000000000E+00  0.00000000000E+00  0.20879780003E+04  0.20879780004E+04  0.50400001928E-02 0. -1.
       -1   -1    0    0    0  501  0.00000000000E+00  0.00000000000E+00 -0.74826869824E+03  0.74826869825E+03  0.50400001928E-02 0.  1.
    10030    2    1    2    0    0  0.00000000000E+00  0.00000000000E+00  0.13397093021E+04  0.28362466986E+04  0.24998948620E+04 0.  0.
        3    1    3    3  502    0 -0.91513766556E+03  0.74529324145E+02  0.16321058481E+04  0.18726454754E+04  0.10100000352E+00 0. -1.
       -3    1    3    3    0  502  0.91513766556E+03 -0.74529324145E+02 -0.29239654595E+03  0.96360122320E+03  0.10100000352E+00 0.  1.
</event>
<event>
 5   0  0.9251138E-07  0.2500318E+04  0.7818609E-02  0.8402872E-01
       -2   -1    0    0    0  501  0.00000000000E+00  0.00000000000E+00  0.82213596376E+03  0.82213596377E+03  0.25500000920E-02 0. -1.
        2   -1    0    0  501    0  0.00000000000E+00  0.00000000000E+00 -0.19010210790E+04  0.19010210791E+04  0.25500000920E-02 0.  1.
    10030    2    1    2    0    0  0.00000000000E+00  0.00000000000E+00 -0.10788851153E+04  0.27231570428E+04  0.25003182173E+04 0.  0.
        5    1    3    3  502    0  0.15981733615E+03 -0.45883592593E+03 -0.17939716659E+04  0.18586092693E+04  0.46999998093E+01 0.  1.
       -5    1    3    3    0  502 -0.15981733615E+03  0.45883592593E+03  0.71508655060E+03  0.86454777353E+03  0.46999998093E+01 0. -1.
</event>
<event>
 5   0  0.3972587E-07  0.2498289E+04  0.7818609E-02  0.8403595E-01
        1   -1    0    0  501    0  0.00000000000E+00  0.00000000000E+00  0.11147294653E+04  0.11147294653E+04  0.50400001928E-02 0. -1.
       -1   -1    0    0    0  501  0.00000000000E+00  0.00000000000E+00 -0.13997672467E+04  0.13997672467E+04  0.50400001928E-02 0.  1.
    10030    2    1    2    0    0  0.00000000000E+00  0.00000000000E+00 -0.28503778140E+03  0.25144967121E+04  0.24982888500E+04 0.  0.
        3    1    3    3  502    0 -0.66186763068E+03  0.80339796535E+03 -0.83753827505E+03  0.13360342150E+04  0.10100000352E+00 0.  1.
       -3    1    3    3    0  502  0.66186763068E+03 -0.80339796535E+03  0.55250049365E+03  0.11784624971E+04  0.10100000352E+00 0. -1.
</event>
<event>
 5   0  0.3972587E-07  0.2499470E+04  0.7818609E-02  0.8403174E-01
       -1   -1    0    0    0  501  0.00000000000E+00  0.00000000000E+00  0.11222885897E+04  0.11222885897E+04  0.50400001928E-02 0. -1.
        1   -1    0    0  501    0  0.00000000000E+00  0.00000000000E+00 -0.13916541242E+04  0.13916541242E+04  0.50400001928E-02 0.  1.
    10030    2    1    2    0    0  0.00000000000E+00  0.00000000000E+00 -0.26936553445E+03  0.25139427139E+04  0.24994699794E+04 0.  0.
        3    1    3    3  502    0 -0.87183731920E+02 -0.64881626468E+03  0.93603476009E+03  0.11422454337E+04  0.10100000352E+00 0. -1.
       -3    1    3    3    0  502  0.87183731920E+02  0.64881626468E+03 -0.12054002945E+04  0.13716972803E+04  0.10100000352E+00 0.  1.
</event>
<event>
 5   0  0.9261602E-07  0.2498908E+04  0.7818609E-02  0.8403375E-01
        2   -1    0    0  501    0  0.00000000000E+00  0.00000000000E+00  0.14792075414E+04  0.14792075414E+04  0.25500000920E-02 0. -1.
       -2   -1    0    0    0  501  0.00000000000E+00  0.00000000000E+00 -0.10553862120E+04  0.10553862120E+04  0.25500000920E-02 0.  1.
    10030    2    1    2    0    0  0.00000000000E+00  0.00000000000E+00  0.42382132948E+03  0.25345937534E+04  0.24989079566E+04 0.  0.
        4    1    3    3  502    0  0.12807631494E+03 -0.48063580076E+03 -0.95063331911E+03  0.10729024353E+04  0.12699999809E+01 0.  1.
       -4    1    3    3    0  502 -0.12807631494E+03  0.48063580076E+03  0.13744546486E+04  0.14616913181E+04  0.12699999809E+01 0. -1.
</event>
<event>
 5   0  0.9508784E-07  0.2501260E+04  0.7818609E-02  0.8402537E-01
       -2   -1    0    0    0  501  0.00000000000E+00  0.00000000000E+00  0.11247610479E+04  0.11247610479E+04  0.25500000920E-02 0. -1.
        2   -1    0    0  501    0  0.00000000000E+00  0.00000000000E+00 -0.13905842627E+04  0.13905842627E+04  0.25500000920E-02 0.  1.
    10030    2    1    2    0    0  0.00000000000E+00  0.00000000000E+00 -0.26582321475E+03  0.25153453106E+04  0.25012596927E+04 0.  0.
        2    1    3    3  502    0  0.94345233991E+03  0.41872296830E+03  0.57721212743E+03  0.11826263492E+04  0.25500000920E-02 0. -1.
       -2    1    3    3    0  502 -0.94345233991E+03 -0.41872296830E+03 -0.84303534218E+03  0.13327189614E+04  0.25500000920E-02 0.  1.
</event>
<event>
 5   0  0.3873231E-07  0.2501648E+04  0.7818609E-02  0.8402399E-01
       -1   -1    0    0    0  501  0.00000000000E+00  0.00000000000E+00  0.79801127311E+03  0.79801127312E+03  0.50400001928E-02 0.  1.
        1   -1    0    0  501    0  0.00000000000E+00  0.00000000000E+00 -0.19605747495E+04  0.19605747495E+04  0.50400001928E-02 0. -1.
    10030    2    1    2    0    0  0.00000000000E+00  0.00000000000E+00 -0.11625634764E+04  0.27585860226E+04  0.25016480583E+04 0.  0.
        2    1    3    3  502    0 -0.61081389543E+03  0.15019650381E+03 -0.17734855685E+04  0.18817289035E+04  0.25500000920E-02 0. -1.
       -2    1    3    3    0  502  0.61081389543E+03 -0.15019650381E+03  0.61092209215E+03  0.87685711908E+03  0.25500000920E-02 0.  1.
</event>
<event>
 5   0  0.9508784E-07  0.2501508E+04  0.7818609E-02  0.8402448E-01
       -2   -1    0    0    0  501  0.00000000000E+00  0.00000000000E+00  0.13378781055E+04  0.13378781055E+04  0.25500000920E-02 0. -1.
        2   -1    0    0  501    0  0.00000000000E+00  0.00000000000E+00 -0.11693036761E+04  0.11693036761E+04  0.25500000920E-02 0.  1.
    10030    2    1    2    0    0  0.00000000000E+00  0.00000000000E+00  0.16857442937E+03  0.25071817816E+04  0.25015081746E+04 0.  0.
        2    1    3    3  502    0  0.10899149457E+04  0.61021624234E+03  0.20053358422E+02  0.12492720234E+04  0.25500000920E-02 0. -1.
       -2    1    3    3    0  502 -0.10899149457E+04 -0.61021624234E+03  0.14852107095E+03  0.12579097582E+04  0.25500000920E-02 0.  1.
</event>
<event>
 5   0  0.3873231E-07  0.2500389E+04  0.7818609E-02  0.8402847E-01
       -1   -1    0    0    0  501  0.00000000000E+00  0.00000000000E+00  0.14081489136E+04  0.14081489136E+04  0.50400001928E-02 0. -1.
        1   -1    0    0  501    0  0.00000000000E+00  0.00000000000E+00 -0.11099576942E+04  0.11099576942E+04  0.50400001928E-02 0.  1.
    10030    2    1    2    0    0  0.00000000000E+00  0.00000000000E+00  0.29819121938E+03  0.25181066078E+04  0.25003885468E+04 0.  0.
        2    1    3    3  502    0  0.45806866308E+03  0.77248761081E+03  0.10249836672E+04  0.13627749363E+04  0.25500000920E-02 0. -1.
       -2    1    3    3    0  502 -0.45806866308E+03 -0.77248761081E+03 -0.72679244780E+03  0.11553316715E+04  0.25500000920E-02 0.  1.
</event>
<event>
 5   0  0.3214375E-07  0.2500403E+04  0.7818609E-02  0.8402842E-01
       -3   -1    0    0    0  501  0.00000000000E+00  0.00000000000E+00  0.12792931350E+04  0.12792931390E+04  0.10100000352E+00 0.  1.
        3   -1    0    0  501    0  0.00000000000E+00  0.00000000000E+00 -0.12217713902E+04  0.12217713944E+04  0.10100000352E+00 0. -1.
    10030    2    1    2    0    0  0.00000000000E+00  0.00000000000E+00  0.57521744757E+02  0.25010645334E+04  0.25004029773E+04 0.  0.
        3    1    3    3  502    0 -0.12219701144E+04 -0.14639164169E+03  0.24873331047E+03  0.12555913918E+04  0.10100000352E+00 0. -1.
       -3    1    3    3    0  502  0.12219701144E+04  0.14639164169E+03 -0.19121156572E+03  0.12454731416E+04  0.10100000352E+00 0.  1.
</event>
<event>
 5   0  0.3991066E-07  0.2499638E+04  0.7818609E-02  0.8403115E-01
        1   -1    0    0  501    0  0.00000000000E+00  0.00000000000E+00  0.16988708488E+04  0.16988708489E+04  0.50400001928E-02 0. -1.
       -1   -1    0    0    0  501  0.00000000000E+00  0.00000000000E+00 -0.91946189013E+03  0.91946189015E+03  0.50400001928E-02 0.  1.
    10030    2    1    2    0    0  0.00000000000E+00  0.00000000000E+00  0.77940895872E+03  0.26183327390E+04  0.24996375752E+04 0.  0.
        1    1    3    3  502    0 -0.77190625028E+03  0.48505723479E+03  0.12852442135E+04  0.15757450519E+04  0.50400001928E-02 0. -1.
       -1    1    3    3    0  502  0.77190625028E+03 -0.48505723479E+03 -0.50583525480E+03  0.10425876871E+04  0.50400001928E-02 0.  1.
</event>
<event>
 5   0  0.9508784E-07  0.2498214E+04  0.7818609E-02  0.8403622E-01
        2   -1    0    0  501    0  0.00000000000E+00  0.00000000000E+00  0.14257313879E+04  0.14257313879E+04  0.25500000920E-02 0.  1.
       -2   -1    0    0    0  501  0.00000000000E+00  0.00000000000E+00 -0.10943631998E+04  0.10943631998E+04  0.25500000920E-02 0. -1.
    10030    2    1    2    0    0  0.00000000000E+00  0.00000000000E+00  0.33136818810E+03  0.25200945877E+04  0.24982137328E+04 0.  0.
        2    1    3    3  502    0  0.24692459609E+03 -0.70829576415E+03  0.11732381819E+04  0.13925309610E+04  0.25500000920E-02 0.  1.
       -2    1    3    3    0  502 -0.24692459609E+03  0.70829576415E+03 -0.84186999385E+03  0.11275636267E+04  0.25500000920E-02 0. -1.
</event>
<event>
 5   0  0.9261602E-07  0.2499103E+04  0.7818609E-02  0.8403305E-01
        2   -1    0    0  501    0  0.00000000000E+00  0.00000000000E+00  0.24114470172E+04  0.24114470172E+04  0.25500000920E-02 0.  1.
       -2   -1    0    0    0  501  0.00000000000E+00  0.00000000000E+00 -0.64748654077E+03  0.64748654077E+03  0.25500000920E-02 0. -1.
    10030    2    1    2    0    0  0.00000000000E+00  0.00000000000E+00  0.17639604765E+04  0.30589335580E+04  0.24991034292E+04 0.  0.
        4    1    3    3  502    0 -0.96242945825E+03 -0.39446323497E+03  0.34395920229E+02  0.10406999558E+04  0.12699999809E+01 0. -1.
       -4    1    3    3    0  502  0.96242945825E+03  0.39446323497E+03  0.17295645562E+04  0.20182336022E+04  0.12699999809E+01 0.  1.
</event>
<event>
 5   0  0.8997210E-07  0.2501216E+04  0.7818609E-02  0.8402552E-01
       -2   -1    0    0    0  501  0.00000000000E+00  0.00000000000E+00  0.99639306925E+03  0.99639306925E+03  0.25500000920E-02 0. -1.
        2   -1    0    0  501    0  0.00000000000E+00  0.00000000000E+00 -0.15696823952E+04  0.15696823952E+04  0.25500000920E-02 0.  1.
    10030    2    1    2    0    0  0.00000000000E+00  0.00000000000E+00 -0.57328932591E+03  0.25660754644E+04  0.25012162317E+04 0.  0.
        1    1    3    3  502    0 -0.23198380894E+03  0.12103827976E+04 -0.68582644247E+02  0.12343202921E+04  0.50400001928E-02 0. -1.
       -1    1    3    3    0  502  0.23198380894E+03 -0.12103827976E+04 -0.50470668166E+03  0.13317551723E+04  0.50400001928E-02 0.  1.
</event>
<event>
 5   0  0.8997210E-07  0.2500931E+04  0.7818609E-02  0.8402654E-01
       -2   -1    0    0    0  501  0.00000000000E+00  0.00000000000E+00  0.13062307895E+04  0.13062307895E+04  0.25500000920E-02 0. -1.
        2   -1    0    0  501    0  0.00000000000E+00  0.00000000000E+00 -0.11970805959E+04  0.11970805959E+04  0.25500000920E-02 0.  1.
    10030    2    1    2    0    0  0.00000000000E+00  0.00000000000E+00  0.10915019363E+03  0.25033113855E+04  0.25009306523E+04 0.  0.
        1    1    3    3  502    0  0.32671204884E+03 -0.90747309176E+03 -0.74205648441E+03  0.12169207046E+04  0.50400001928E-02 0.  1.
       -1    1    3    3    0  502 -0.32671204884E+03  0.90747309176E+03  0.85120667804E+03  0.12863906809E+04  0.50400001928E-02 0. -1.
</event>
<event>
 5   0  0.3873231E-07  0.2499698E+04  0.7818609E-02  0.8403093E-01
        1   -1    0    0  501    0  0.00000000000E+00  0.00000000000E+00  0.27485294376E+04  0.27485294376E+04  0.50400001928E-02 0. -1.
       -1   -1    0    0    0  501  0.00000000000E+00  0.00000000000E+00 -0.56834853438E+03  0.56834853440E+03  0.50400001928E-02 0.  1.
    10030    2    1    2    0    0  0.00000000000E+00  0.00000000000E+00  0.21801809032E+04  0.33168779720E+04  0.24996981239E+04 0.  0.
        2    1    3    3  502    0  0.81205858500E+03  0.93423320699E+03  0.13195036005E+04  0.18092320421E+04  0.25500000920E-02 0.  1.
       -2    1    3    3    0  502 -0.81205858500E+03 -0.93423320699E+03  0.86067730275E+03  0.15076459299E+04  0.25500000920E-02 0. -1.
</event>
<event>
 5   0  0.3214375E-07  0.2500359E+04  0.7818609E-02  0.8402858E-01
        4   -1    0    0  501    0  0.00000000000E+00  0.00000000000E+00  0.90134141741E+03  0.90134231213E+03  0.12699999809E+01 0.  1.
       -4   -1    0    0    0  501  0.00000000000E+00  0.00000000000E+00 -0.17340236709E+04  0.17340241359E+04  0.12699999809E+01 0. -1.
    10030    2    1    2    0    0  0.00000000000E+00  0.00000000000E+00 -0.83268225345E+03  0.26353664481E+04  0.25003592903E+04 0.  0.
        1    1    3    3  502    0 -0.36906706342E+03  0.21172105180E+03 -0.16553628473E+04  0.17091701078E+04  0.50400001928E-02 0. -1.
       -1    1    3    3    0  502  0.36906706342E+03 -0.21172105180E+03  0.82268059390E+03  0.92619634024E+03  0.50400001928E-02 0.  1.
</event>
<event>
 5   0  0.8997210E-07  0.2500710E+04  0.7818609E-02  0.8402733E-01
       -2   -1    0    0    0  501  0.00000000000E+00  0.00000000000E+00  0.16858603532E+04  0.16858603533E+04  0.25500000920E-02 0.  1.
        2   -1    0    0  501    0  0.00000000000E+00  0.00000000000E+00 -0.92735317258E+03  0.92735317258E+03  0.25500000920E-02 0. -1.
    10030    2    1    2    0    0  0.00000000000E+00  0.00000000000E+00  0.75850718067E+03  0.26132135258E+04  0.25007102568E+04 0.  0.
        1    1    3    3  502    0 -0.85611867789E+02 -0.43823970586E+03 -0.84119481991E+03  0.95236135829E+03  0.50400001928E-02 0. -1.
       -1    1    3    3    0  502  0.85611867789E+02  0.43823970586E+03  0.15997020006E+04  0.16608521675E+04  0.50400001928E-02 0.  1.
</event>
<event>
 5   0  0.9251138E-07  0.2500277E+04  0.7818609E-02  0.8402887E-01
       -2   -1    0    0    0  501  0.00000000000E+00  0.00000000000E+00  0.12933018712E+04  0.12933018712E+04  0.25500000920E-02 0.  1.
        2   -1    0    0  501    0  0.00000000000E+00  0.00000000000E+00 -0.12084155734E+04  0.12084155734E+04  0.25500000920E-02 0. -1.
    10030    2    1    2    0    0  0.00000000000E+00  0.00000000000E+00  0.84886297815E+02  0.25017174446E+04  0.25002768824E+04 0.  0.
        5    1    3    3  502    0  0.51173253245E+03 -0.99094538719E+03  0.60755266210E+03  0.12700335714E+04  0.46999998093E+01 0.  1.
       -5    1    3    3    0  502 -0.51173253245E+03  0.99094538719E+03 -0.52266636428E+03  0.12316838732E+04  0.46999998093E+01 0. -1.
</event>
<event>
 5   0  0.9261602E-07  0.2499361E+04  0.7818609E-02  0.8403213E-01
       -2   -1    0    0    0  501  0.00000000000E+00  0.00000000000E+00  0.11795364094E+04  0.11795364094E+04  0.25500000920E-02 0. -1.
        2   -1    0    0  501    0  0.00000000000E+00  0.00000000000E+00 -0.13239963059E+04  0.13239963059E+04  0.25500000920E-02 0.  1.
    10030    2    1    2    0    0  0.00000000000E+00  0.00000000000E+00 -0.14445989658E+03  0.25035327153E+04  0.24993613974E+04 0.  0.
        4    1    3    3  502    0  0.33385000386E+03  0.67648540390E+03  0.92573193479E+03  0.11941815418E+04  0.12699999809E+01 0. -1.
       -4    1    3    3    0  502 -0.33385000386E+03 -0.67648540390E+03 -0.10701918314E+04  0.13093511735E+04  0.12699999809E+01 0.  1.
</event>
<event>
 5   0  0.3991066E-07  0.2500683E+04  0.7818609E-02  0.8402742E-01
        1   -1    0    0  501    0  0.00000000000E+00  0.00000000000E+00  0.10128309439E+04  0.10128309439E+04  0.50400001928E-02 0. -1.
       -1   -1    0    0    0  501  0.00000000000E+00  0.00000000000E+00 -0.15435481641E+04  0.15435481641E+04  0.50400001928E-02 0.  1.
    10030    2    1    2    0    0  0.00000000000E+00  0.00000000000E+00 -0.53071722016E+03  0.25563791080E+04  0.25006825820E+04 0.  0.
        1    1    3    3  502    0 -0.19645446606E+03  0.45740938595E+01 -0.15276636369E+04  0.15402504560E+04  0.50400001928E-02 0.  1.
       -1    1    3    3    0  502  0.19645446606E+03 -0.45740938595E+01  0.99694641675E+03  0.10161286520E+04  0.50400001928E-02 0. -1.
</event>
<event>
 5   0  0.9768582E-07  0.2500093E+04  0.7818609E-02  0.8402952E-01
       -2   -1    0    0    0  501  0.00000000000E+00  0.00000000000E+00  0.75530955606E+03  0.75530955606E+03  0.25500000920E-02 0.  1.
        2   -1    0    0  501    0  0.00000000000E+00  0.00000000000E+00 -0.20688429632E+04  0.20688429632E+04  0.25500000920E-02 0. -1.
    10030    2    1    2    0    0  0.00000000000E+00  0.00000000000E+00 -0.13135334072E+04  0.28241525193E+04  0.25000934864E+04 0.  0.
        3    1    3    3  502    0 -0.21830071590E+03 -0.97024099334E+03  0.19876128505E+03  0.10141641121E+04  0.10100000352E+00 0. -1.
       -3    1    3    3    0  502  0.21830071590E+03  0.97024099334E+03 -0.15122946922E+04  0.18099884072E+04  0.10100000352E+00 0.  1.
</event>
<event>
 5   0  0.8997210E-07  0.2500077E+04  0.7818609E-02  0.8402958E-01
        2   -1    0    0  501    0  0.00000000000E+00  0.00000000000E+00  0.19658231402E+04  0.19658231402E+04  0.25500000920E-02 0. -1.
       -2   -1    0    0    0  501  0.00000000000E+00  0.00000000000E+00 -0.79488134036E+03  0.79488134036E+03  0.25500000920E-02 0.  1.
    10030    2    1    2    0    0  0.00000000000E+00  0.00000000000E+00  0.11709417998E+04  0.27607044805E+04  0.25000769049E+04 0.  0.
        1    1    3    3  502    0  0.78752712971E+03 -0.10383144110E+03  0.16512938418E+04  0.18324167921E+04  0.50400001928E-02 0. -1.
       -1    1    3    3    0  502 -0.78752712971E+03  0.10383144110E+03 -0.48035204196E+03  0.92828768840E+03  0.50400001928E-02 0.  1.
</event>
<event>
 5   0  0.3805418E-07  0.2503602E+04  0.7818609E-02  0.8401703E-01
        1   -1    0    0  501    0  0.00000000000E+00  0.00000000000E+00  0.18795330661E+04  0.18795330661E+04  0.50400001928E-02 0.  1.
       -1   -1    0    0    0  501  0.00000000000E+00  0.00000000000E+00 -0.83372080223E+03  0.83372080224E+03  0.50400001928E-02 0. -1.
    10030    2    1    2    0    0  0.00000000000E+00  0.00000000000E+00  0.10458122639E+04  0.27132538684E+04  0.25036020576E+04 0.  0.
        4    1    3    3  502    0  0.28662790491E+03  0.19767132571E+02  0.18433169529E+04  0.18655737180E+04  0.12699999809E+01 0.  1.
       -4    1    3    3    0  502 -0.28662790491E+03 -0.19767132571E+02 -0.79750468904E+03  0.84768015038E+03  0.12699999809E+01 0. -1.
</event>
<event>
 5   0  0.9768582E-07  0.2501692E+04  0.7818609E-02  0.8402383E-01
        2   -1    0    0  501    0  0.00000000000E+00  0.00000000000E+00  0.21553201633E+04  0.21553201633E+04  0.25500000920E-02 0. -1.
       -2   -1    0    0    0  501  0.00000000000E+00  0.00000000000E+00 -0.72593168840E+03  0.72593168840E+03  0.25500000920E-02 0.  1.
    10030    2    1    2    0    0  0.00000000000E+00  0.00000000000E+00  0.14293884749E+04  0.28812518517E+04  0.25016915918E+04 0.  0.
        3    1    3    3  502    0 -0.22652204850E+03  0.50790712057E+03  0.20051020388E+04  0.20807969814E+04  0.10100000352E+00 0. -1.
       -3    1    3    3    0  502  0.22652204850E+03 -0.50790712057E+03 -0.57571356388E+03  0.80045487032E+03  0.10100000352E+00 0.  1.
</event>
<event>
 5   0  0.8997210E-07  0.2500588E+04  0.7818609E-02  0.8402776E-01
       -2   -1    0    0    0  501  0.00000000000E+00  0.00000000000E+00  0.97390847155E+03  0.97390847156E+03  0.25500000920E-02 0. -1.
        2   -1    0    0  501    0  0.00000000000E+00  0.00000000000E+00 -0.16051149243E+04  0.16051149243E+04  0.25500000920E-02 0.  1.
    10030    2    1    2    0    0  0.00000000000E+00  0.00000000000E+00 -0.63120645279E+03  0.25790233959E+04  0.25005879490E+04 0.  0.
        1    1    3    3  502    0 -0.45405224904E+03  0.38246019662E+03  0.81927325656E+03  0.10117548694E+04  0.50400001928E-02 0. -1.
       -1    1    3    3    0  502  0.45405224904E+03 -0.38246019662E+03 -0.14504797093E+04  0.15672685265E+04  0.50400001928E-02 0.  1.
</event>
<event>
 5   0  0.3873231E-07  0.2501207E+04  0.7818609E-02  0.8402556E-01
        1   -1    0    0  501    0  0.00000000000E+00  0.00000000000E+00  0.16081814166E+04  0.16081814166E+04  0.50400001928E-02 0. -1.
       -1   -1    0    0    0  501  0.00000000000E+00  0.00000000000E+00 -0.97253247257E+03  0.97253247258E+03  0.50400001928E-02 0.  1.
    10030    2    1    2    0    0  0.00000000000E+00  0.00000000000E+00  0.63564894403E+03  0.25807138892E+04  0.25012066284E+04 0.  0.
        2    1    3    3  502    0  0.83343189943E+03 -0.83455387606E+03  0.74687909247E+03  0.13960362753E+04  0.25500000920E-02 0.  1.
       -2    1    3    3    0  502 -0.83343189943E+03  0.83455387606E+03 -0.11123014844E+03  0.11846776139E+04  0.25500000920E-02 0. -1.
</event>
<event>
 5   0  0.9251138E-07  0.2500566E+04  0.7818609E-02  0.8402784E-01
        2   -1    0    0  501    0  0.00000000000E+00  0.00000000000E+00  0.25936522457E+04  0.25936522457E+04  0.25500000920E-02 0.  1.
       -2   -1    0    0    0  501  0.00000000000E+00  0.00000000000E+00 -0.60270499754E+03  0.60270499754E+03  0.25500000920E-02 0. -1.
    10030    2    1    2    0    0  0.00000000000E+00  0.00000000000E+00  0.19909472481E+04  0.31963572432E+04  0.25005656723E+04 0.  0.
        5    1    3    3  502    0 -0.49028342888E+03 -0.80141610160E+03  0.20499666396E+04  0.22550013131E+04  0.46999998093E+01 0.  1.
       -5    1    3    3    0  502  0.49028342888E+03  0.80141610160E+03 -0.59019391507E+02  0.94135593009E+03  0.46999998093E+01 0. -1.
</event>
<event>
 5   0  0.3991066E-07  0.2484470E+04  0.7818609E-02  0.8408539E-01
       -1   -1    0    0    0  501  0.00000000000E+00  0.00000000000E+00  0.10795064693E+04  0.10795064693E+04  0.50400001928E-02 0. -1.
        1   -1    0    0  501    0  0.00000000000E+00  0.00000000000E+00 -0.14294939608E+04  0.14294939608E+04  0.50400001928E-02 0.  1.
    10030    2    1    2    0    0  0.00000000000E+00  0.00000000000E+00 -0.34998749151E+03  0.25090004302E+04  0.24844701476E+04 0.  0.
        1    1    3    3  502    0  0.11362326049E+04  0.16968661867E+03  0.30225015446E+03  0.11879281279E+04  0.50400001928E-02 0. -1.
       -1    1    3    3    0  502 -0.11362326049E+04 -0.16968661867E+03 -0.65223764597E+03  0.13210723023E+04  0.50400001928E-02 0.  1.
</event>
<event>
 5   0  0.8997210E-07  0.2503568E+04  0.7818609E-02  0.8401715E-01
       -2   -1    0    0    0  501  0.00000000000E+00  0.00000000000E+00  0.11151968498E+04  0.11151968498E+04  0.25500000920E-02 0. -1.
        2   -1    0    0  501    0  0.00000000000E+00  0.00000000000E+00 -0.14051002702E+04  0.14051002702E+04  0.25500000920E-02 0.  1.
    10030    2    1    2    0    0  0.00000000000E+00  0.00000000000E+00 -0.28990342037E+03  0.25202971199E+04  0.25035681696E+04 0.  0.
        1    1    3    3  502    0 -0.90667097954E+03  0.75868903785E+03  0.26926103754E+03  0.12125027124E+04  0.50400001928E-02 0. -1.
       -1    1    3    3    0  502  0.90667097954E+03 -0.75868903785E+03 -0.55916445791E+03  0.13077944075E+04  0.50400001928E-02 0.  1.
</event>
<event>
 5   0  0.9508784E-07  0.2499972E+04  0.7818609E-02  0.8402995E-01
        2   -1    0    0  501    0  0.00000000000E+00  0.00000000000E+00  0.96513439463E+03  0.96513439463E+03  0.25500000920E-02 0. -1.
       -2   -1    0    0    0  501  0.00000000000E+00  0.00000000000E+00 -0.16189094406E+04  0.16189094406E+04  0.25500000920E-02 0.  1.
    10030    2    1    2    0    0  0.00000000000E+00  0.00000000000E+00 -0.65377504597E+03  0.25840438352E+04  0.24999721462E+04 0.  0.
        2    1    3    3  502    0  0.66885157317E+02 -0.77474336288E+03  0.68467801356E+03  0.10360911566E+04  0.25500000920E-02 0. -1.
       -2    1    3    3    0  502 -0.66885157317E+02  0.77474336288E+03 -0.13384530595E+04  0.15479526786E+04  0.25500000920E-02 0.  1.
</event>
<event>
 5   0  0.3837524E-07  0.2499254E+04  0.7818609E-02  0.8403251E-01
        1   -1    0    0  501    0  0.00000000000E+00  0.00000000000E+00  0.11579147054E+04  0.11579147054E+04  0.50400001928E-02 0.  1.
       -1   -1    0    0    0  501  0.00000000000E+00  0.00000000000E+00 -0.13486037543E+04  0.13486037543E+04  0.50400001928E-02 0. -1.
    10030    2    1    2    0    0  0.00000000000E+00  0.00000000000E+00 -0.19068904885E+03  0.25065184597E+04  0.24992543839E+04 0.  0.
        5    1    3    3  502    0  0.21715902663E+03  0.71866112802E+03  0.90651548010E+03  0.11770404689E+04  0.46999998093E+01 0.  1.
       -5    1    3    3    0  502 -0.21715902663E+03 -0.71866112802E+03 -0.10972045289E+04  0.13294779908E+04  0.46999998093E+01 0. -1.
</event>
<event>
 5   0  0.3972587E-07  0.2502473E+04  0.7818609E-02  0.8402105E-01
        1   -1    0    0  501    0  0.00000000000E+00  0.00000000000E+00  0.12024902062E+04  0.12024902063E+04  0.50400001928E-02 0. -1.
       -1   -1    0    0    0  501  0.00000000000E+00  0.00000000000E+00 -0.13019586334E+04  0.13019586334E+04  0.50400001928E-02 0.  1.
    10030    2    1    2    0    0  0.00000000000E+00  0.00000000000E+00 -0.99468427184E+02  0.25044488397E+04  0.25024727816E+04 0.  0.
        3    1    3    3  502    0  0.90527502136E+03  0.10247814540E+03  0.80859555425E+03  0.12181343995E+04  0.10100000352E+00 0. -1.
       -3    1    3    3    0  502 -0.90527502136E+03 -0.10247814540E+03 -0.90806398143E+03  0.12863144402E+04  0.10100000352E+00 0.  1.
</event>
<event>
 5   0  0.8997210E-07  0.2503975E+04  0.7818609E-02  0.8401571E-01
       -2   -1    0    0    0  501  0.00000000000E+00  0.00000000000E+00  0.10947019023E+04  0.10947019023E+04  0.25500000920E-02 0.  1.
        2   -1    0    0  501    0  0.00000000000E+00  0.00000000000E+00 -0.14318721700E+04  0.14318721700E+04  0.25500000920E-02 0. -1.
    10030    2    1    2    0    0  0.00000000000E+00  0.00000000000E+00 -0.33717026773E+03  0.25265740723E+04  0.25039753900E+04 0.  0.
        1    1    3    3  502    0  0.95096407279E+03 -0.48213683089E+03  0.49360338846E+03  0.11749182510E+04  0.50400001928E-02 0.  1.
       -1    1    3    3    0  502 -0.95096407279E+03  0.48213683089E+03 -0.83077365619E+03  0.13516558213E+04  0.50400001928E-02 0. -1.
</event>
<event>
 5   0  0.9251138E-07  0.2500458E+04  0.7818609E-02  0.8402822E-01
       -2   -1    0    0    0  501  0.00000000000E+00  0.00000000000E+00  0.16587162207E+04  0.16587162207E+04  0.25500000920E-02 0.  1.
        2   -1    0    0  501    0  0.00000000000E+00  0.00000000000E+00 -0.94233891333E+03  0.94233891334E+03  0.25500000920E-02 0. -1.
    10030    2    1    2    0    0  0.00000000000E+00  0.00000000000E+00  0.71637730739E+03  0.26010551341E+04  0.25004582308E+04 0.  0.
        5    1    3    3  502    0  0.11987009662E+04 -0.22998410070E+03  0.63977077472E+03  0.13780803413E+04  0.46999998093E+01 0.  1.
       -5    1    3    3    0  502 -0.11987009662E+04  0.22998410070E+03  0.76606532670E+02  0.12229747928E+04  0.46999998093E+01 0. -1.
</event>
<event>
 5   0  0.3837524E-07  0.2499679E+04  0.7818609E-02  0.8403100E-01
        1   -1    0    0  501    0  0.00000000000E+00  0.00000000000E+00  0.14750471810E+04  0.14750471810E+04  0.50400001928E-02 0. -1.
       -1   -1    0    0    0  501  0.00000000000E+00  0.00000000000E+00 -0.10590159278E+04  0.10590159278E+04  0.50400001928E-02 0.  1.
    10030    2    1    2    0    0  0.00000000000E+00  0.00000000000E+00  0.41603125320E+03  0.25340631089E+04  0.24996787466E+04 0.  0.
        5    1    3    3  502    0 -0.95633725919E+03 -0.42811739913E+03 -0.48268666923E+03  0.11536351119E+04  0.46999998093E+01 0.  1.
       -5    1    3    3    0  502  0.95633725919E+03  0.42811739913E+03  0.89871792243E+03  0.13804279970E+04  0.46999998093E+01 0. -1.
</event>
<event>
 5   0  0.8997210E-07  0.2500431E+04  0.7818609E-02  0.8402832E-01
       -2   -1    0    0    0  501  0.00000000000E+00  0.00000000000E+00  0.10076310798E+04  0.10076310798E+04  0.25500000920E-02 0.  1.
        2   -1    0    0  501    0  0.00000000000E+00  0.00000000000E+00 -0.15512010843E+04  0.15512010843E+04  0.25500000920E-02 0. -1.
    10030    2    1    2    0    0  0.00000000000E+00  0.00000000000E+00 -0.54357000449E+03  0.25588321641E+04  0.25004307017E+04 0.  0.
        1    1    3    3  502    0  0.82689103690E+03  0.87885906974E+03 -0.60637153892E+03  0.13504919454E+04  0.50400001928E-02 0. -1.
       -1    1    3    3    0  502 -0.82689103690E+03 -0.87885906974E+03  0.62801534428E+02  0.12083402187E+04  0.50400001928E-02 0.  1.
</event>
<event>
 5   0  0.3991066E-07  0.2499173E+04  0.7818609E-02  0.8403280E-01
        1   -1    0    0  501    0  0.00000000000E+00  0.00000000000E+00  0.11504210587E+04  0.11504210587E+04  0.50400001928E-02 0.  1.
       -1   -1    0    0    0  501  0.00000000000E+00  0.00000000000E+00 -0.13573004121E+04  0.13573004121E+04  0.50400001928E-02 0. -1.
    10030    2    1    2    0    0  0.00000000000E+00  0.00000000000E+00 -0.20687935339E+03  0.25077214709E+04  0.24991734451E+04 0.  0.
        1    1    3    3  502    0 -0.11130221669E+04  0.46059419239E+03  0.23011514992E+03  0.12263434822E+04  0.50400001928E-02 0.  1.
       -1    1    3    3    0  502  0.11130221669E+04 -0.46059419239E+03 -0.43699450331E+03  0.12813779887E+04  0.50400001928E-02 0. -1.
</event>
<event>
 5   0  0.9768582E-07  0.2500696E+04  0.7818609E-02  0.8402738E-01
        2   -1    0    0  501    0  0.00000000000E+00  0.00000000000E+00  0.13496406564E+04  0.13496406564E+04  0.25500000920E-02 0.  1.
       -2   -1    0    0    0  501  0.00000000000E+00  0.00000000000E+00 -0.11583598842E+04  0.11583598842E+04  0.25500000920E-02 0. -1.
    10030    2    1    2    0    0  0.00000000000E+00  0.00000000000E+00  0.19128077214E+03  0.25080005406E+04  0.25006955788E+04 0.  0.
        3    1    3    3  502    0 -0.18833933927E+03  0.12339210541E+04  0.22374198579E+02  0.12484123876E+04  0.10100000352E+00 0. -1.
       -3    1    3    3    0  502  0.18833933927E+03 -0.12339210541E+04  0.16890657356E+03  0.12595881530E+04  0.10100000352E+00 0.  1.
</event>
<event>
 5   0  0.9261602E-07  0.2501784E+04  0.7818609E-02  0.8402350E-01
        2   -1    0    0  501    0  0.00000000000E+00  0.00000000000E+00  0.22225691740E+04  0.22225691740E+04  0.25500000920E-02 0.  1.
       -2   -1    0    0    0  501  0.00000000000E+00  0.00000000000E+00 -0.70401901594E+03  0.70401901595E+03  0.25500000920E-02 0. -1.
    10030    2    1    2    0    0  0.00000000000E+00  0.00000000000E+00  0.15185501581E+04  0.29265881900E+04  0.25017841336E+04 0.  0.
        4    1    3    3  502    0  0.11844950617E+04  0.40002579691E+03  0.71132523768E+03  0.14384138473E+04  0.12699999809E+01 0.  1.
       -4    1    3    3    0  502 -0.11844950617E+04 -0.40002579691E+03  0.80722492040E+03  0.14881743427E+04  0.12699999809E+01 0. -1.
</event>
<event>
 5   0  0.9508784E-07  0.2501624E+04  0.7818609E-02  0.8402407E-01
        2   -1    0    0  501    0  0.00000000000E+00  0.00000000000E+00  0.93163308748E+03  0.93163308748E+03  0.25500000920E-02 0. -1.
       -2   -1    0    0    0  501  0.00000000000E+00  0.00000000000E+00 -0.16793417517E+04  0.16793417517E+04  0.25500000920E-02 0.  1.
    10030    2    1    2    0    0  0.00000000000E+00  0.00000000000E+00 -0.74770866422E+03  0.26109748392E+04  0.25016237455E+04 0.  0.
        2    1    3    3  502    0  0.27765521364E+03 -0.11718412164E+04 -0.21107318188E+02  0.12044707439E+04  0.25500000920E-02 0. -1.
       -2    1    3    3    0  502 -0.27765521364E+03  0.11718412164E+04 -0.72660134603E+03  0.14065040953E+04  0.25500000920E-02 0.  1.
</event>
<event>
 5   0  0.9508784E-07  0.2501741E+04  0.7818609E-02  0.8402365E-01
       -2   -1    0    0    0  501  0.00000000000E+00  0.00000000000E+00  0.12260869364E+04  0.12260869364E+04  0.25500000920E-02 0. -1.
        2   -1    0    0  501    0  0.00000000000E+00  0.00000000000E+00 -0.12761555256E+04  0.12761555256E+04  0.25500000920E-02 0.  1.
    10030    2    1    2    0    0  0.00000000000E+00  0.00000000000E+00 -0.50068589172E+02  0.25022424620E+04  0.25017414885E+04 0.  0.
        2    1    3    3  502    0  0.53017351303E+03 -0.97513220466E+03 -0.60196073032E+03  0.12626652333E+04  0.25500000920E-02 0.  1.
       -2    1    3    3    0  502 -0.53017351303E+03  0.97513220466E+03  0.55189214115E+03  0.12395772287E+04  0.25500000920E-02 0. -1.
</event>
<event>
 5   0  0.8997210E-07  0.2500666E+04  0.7818609E-02  0.8402748E-01
       -2   -1    0    0    0  501  0.00000000000E+00  0.00000000000E+00  0.15612207569E+04  0.15612207569E+04  0.25500000920E-02 0.  1.
        2   -1    0    0  501    0  0.00000000000E+00  0.00000000000E+00 -0.10013525216E+04  0.10013525216E+04  0.25500000920E-02 0. -1.
    10030    2    1    2    0    0  0.00000000000E+00  0.00000000000E+00  0.55986823532E+03  0.25625732784E+04  0.25006657846E+04 0.  0.
        1    1    3    3  502    0  0.12108647869E+04 -0.19333286041E+03  0.53044716455E+03  0.13360184585E+04  0.50400001928E-02 0. -1.
       -1    1    3    3    0  502 -0.12108647869E+04  0.19333286041E+03  0.29421070768E+02  0.12265548200E+04  0.50400001928E-02 0.  1.
</event>
<event>
 5   0  0.3837524E-07  0.2497978E+04  0.7818609E-02  0.8403706E-01
       -1   -1    0    0    0  501  0.00000000000E+00  0.00000000000E+00  0.11248535647E+04  0.11248535647E+04  0.50400001928E-02 0. -1.
        1   -1    0    0  501    0  0.00000000000E+00  0.00000000000E+00 -0.13868231389E+04  0.13868231389E+04  0.50400001928E-02 0.  1.
    10030    2    1    2    0    0  0.00000000000E+00  0.00000000000E+00 -0.26196957416E+03  0.25116767036E+04  0.24979775431E+04 0.  0.
        5    1    3    3  502    0  0.60633063480E+03 -0.80173463549E+03  0.61438729562E+03  0.11780955409E+04  0.46999998093E+01 0. -1.
       -5    1    3    3    0  502 -0.60633063480E+03  0.80173463549E+03 -0.87635686978E+03  0.13335811628E+04  0.46999998093E+01 0.  1.
</event>
<event>
 5   0  0.3991066E-07  0.2498486E+04  0.7818609E-02  0.8403525E-01
       -1   -1    0    0    0  501  0.00000000000E+00  0.00000000000E+00  0.17177965583E+04  0.17177965583E+04  0.50400001928E-02 0. -1.
        1   -1    0    0  501    0  0.00000000000E+00  0.00000000000E+00 -0.90849415372E+03  0.90849415373E+03  0.50400001928E-02 0.  1.
    10030    2    1    2    0    0  0.00000000000E+00  0.00000000000E+00  0.80930240461E+03  0.26262907121E+04  0.24984860460E+04 0.  0.
        1    1    3    3  502    0  0.59398037966E+03 -0.62066617712E+03 -0.54869803113E+03  0.10193668252E+04  0.50400001928E-02 0.  1.
       -1    1    3    3    0  502 -0.59398037966E+03  0.62066617712E+03  0.13580004357E+04  0.16069238869E+04  0.50400001928E-02 0. -1.
</event>
<event>
 5   0  0.8997210E-07  0.2500312E+04  0.7818609E-02  0.8402874E-01
        2   -1    0    0  501    0  0.00000000000E+00  0.00000000000E+00  0.12546226752E+04  0.12546226752E+04  0.25500000920E-02 0. -1.
       -2   -1    0    0    0  501  0.00000000000E+00  0.00000000000E+00 -0.12457050145E+04  0.12457050145E+04  0.25500000920E-02 0.  1.
    10030    2    1    2    0    0  0.00000000000E+00  0.00000000000E+00  0.89176606376E+01  0.25003276897E+04  0.25003117868E+04 0.  0.
        1    1    3    3  502    0 -0.71932397544E+03  0.95780106075E+03 -0.35342597443E+03  0.12488874141E+04  0.50400001928E-02 0.  1.
       -1    1    3    3    0  502  0.71932397544E+03 -0.95780106075E+03  0.36234363506E+03  0.12514402757E+04  0.50400001928E-02 0. -1.
</event>
<event>
 5   0  0.3873231E-07  0.2486112E+04  0.7818609E-02  0.8407950E-01
        1   -1    0    0  501    0  0.00000000000E+00  0.00000000000E+00  0.18664281749E+04  0.18664281749E+04  0.50400001928E-02 0.  1.
       -1   -1    0    0    0  501  0.00000000000E+00  0.00000000000E+00 -0.82788535607E+03  0.82788535608E+03  0.50400001928E-02 0. -1.
    10030    2    1    2    0    0  0.00000000000E+00  0.00000000000E+00  0.10385428189E+04  0.26943135310E+04  0.24861122696E+04 0.  0.
        2    1    3    3  502    0 -0.10361812789E+04 -0.28527427112E+03  0.11961879579E+04  0.16080791906E+04  0.25500000920E-02 0.  1.
       -2    1    3    3    0  502  0.10361812789E+04  0.28527427112E+03 -0.15764513903E+03  0.10862343405E+04  0.25500000920E-02 0. -1.
</event>
<event>
 5   0  0.3972587E-07  0.2499285E+04  0.7818609E-02  0.8403240E-01
       -1   -1    0    0    0  501  0.00000000000E+00  0.00000000000E+00  0.22080831656E+04  0.22080831656E+04  0.50400001928E-02 0. -1.
        1   -1    0    0  501    0  0.00000000000E+00  0.00000000000E+00 -0.70722273137E+03  0.70722273139E+03  0.50400001928E-02 0.  1.
    10030    2    1    2    0    0  0.00000000000E+00  0.00000000000E+00  0.15008604342E+04  0.29153058970E+04  0.24992851838E+04 0.  0.
        3    1    3    3  502    0 -0.31133729900E+03  0.43706235827E+03 -0.56598755827E+03  0.77993355171E+03  0.10100000352E+00 0.  1.
       -3    1    3    3    0  502  0.31133729900E+03 -0.43706235827E+03  0.20668479925E+04  0.21353723453E+04  0.10100000352E+00 0. -1.
</event>
<event>
 5   0  0.3805418E-07  0.2499945E+04  0.7818609E-02  0.8403005E-01
        1   -1    0    0  501    0  0.00000000000E+00  0.00000000000E+00  0.11720169157E+04  0.11720169158E+04  0.50400001928E-02 0. -1.
       -1   -1    0    0    0  501  0.00000000000E+00  0.00000000000E+00 -0.13331126957E+04  0.13331126957E+04  0.50400001928E-02 0.  1.
    10030    2    1    2    0    0  0.00000000000E+00  0.00000000000E+00 -0.16109577994E+03  0.25051296115E+04  0.24999445034E+04 0.  0.
        4    1    3    3  502    0  0.55316996790E+02 -0.61945005320E+03 -0.11670710351E+04  0.13224351600E+04  0.12699999809E+01 0.  1.
       -4    1    3    3    0  502 -0.55316996790E+02  0.61945005320E+03  0.10059752552E+04  0.11826944514E+04  0.12699999809E+01 0. -1.
</event>
<event>
 5   0  0.8997210E-07  0.2496577E+04  0.7818609E-02  0.8404206E-01
        2   -1    0    0  501    0  0.00000000000E+00  0.00000000000E+00  0.11800703254E+04  0.11800703254E+04  0.25500000920E-02 0.  1.
       -2   -1    0    0    0  501  0.00000000000E+00  0.00000000000E+00 -0.13204503383E+04  0.13204503383E+04  0.25500000920E-02 0. -1.
    10030    2    1    2    0    0  0.00000000000E+00  0.00000000000E+00 -0.14038001290E+03  0.25005206637E+04  0.24965770650E+04 0.  0.
        1    1    3    3  502    0  0.92962225238E+03 -0.10194513142E+03  0.75793761867E+03  0.12037689877E+04  0.50400001928E-02 0.  1.
       -1    1    3    3    0  502 -0.92962225238E+03  0.10194513142E+03 -0.89831763157E+03  0.12967516760E+04  0.50400001928E-02 0. -1.
</event>
<event>
 5   0  0.3873231E-07  0.2503418E+04  0.7818609E-02  0.8401769E-01
       -1   -1    0    0    0  501  0.00000000000E+00  0.00000000000E+00  0.96423846618E+03  0.96423846619E+03  0.50400001928E-02 0.  1.
        1   -1    0    0  501    0  0.00000000000E+00  0.00000000000E+00 -0.16248841242E+04  0.16248841242E+04  0.50400001928E-02 0. -1.
    10030    2    1    2    0    0  0.00000000000E+00  0.00000000000E+00 -0.66064565803E+03  0.25891225904E+04  0.25034182836E+04 0.  0.
        2    1    3    3  502    0 -0.88661499787E+03  0.85917031700E+03 -0.11706974027E+03  0.12401472139E+04  0.25500000920E-02 0.  1.
       -2    1    3    3    0  502  0.88661499787E+03 -0.85917031700E+03 -0.54357591776E+03  0.13489753765E+04  0.25500000920E-02 0. -1.
</event>
<event>
 5   0  0.3972587E-07  0.2500930E+04  0.7818609E-02  0.8402654E-01
       -1   -1    0    0    0  501  0.00000000000E+00  0.00000000000E+00  0.14611583704E+04  0.14611583704E+04  0.50400001928E-02 0.  1.
        1   -1    0    0  501    0  0.00000000000E+00  0.00000000000E+00 -0.10701530863E+04  0.10701530863E+04  0.50400001928E-02 0. -1.
    10030    2    1    2    0    0  0.00000000000E+00  0.00000000000E+00  0.39100528402E+03  0.25313114567E+04  0.25009303386E+04 0.  0.
        3    1    3    3  502    0 -0.26800129619E+03 -0.11181568008E+04 -0.30195936697E+03  0.11888140289E+04  0.10100000352E+00 0. -1.
       -3    1    3    3    0  502  0.26800129619E+03  0.11181568008E+04  0.69296465099E+03  0.13424974278E+04  0.10100000352E+00 0.  1.
</event>
<event>
 5   0  0.3837524E-07  0.2499134E+04  0.7818609E-02  0.8403294E-01
        1   -1    0    0  501    0  0.00000000000E+00  0.00000000000E+00  0.91317288305E+03  0.91317288307E+03  0.50400001928E-02 0. -1.
       -1   -1    0    0    0  501  0.00000000000E+00  0.00000000000E+00 -0.17098812030E+04  0.17098812030E+04  0.50400001928E-02 0.  1.
    10030    2    1    2    0    0  0.00000000000E+00  0.00000000000E+00 -0.79670831992E+03  0.26230540861E+04  0.24991335681E+04 0.  0.
        5    1    3    3  502    0 -0.75267270215E+03 -0.76767372807E+03  0.27005615625E+03  0.11085087130E+04  0.46999998093E+01 0. -1.
       -5    1    3    3    0  502  0.75267270215E+03  0.76767372807E+03 -0.10667644762E+04  0.15145453730E+04  0.46999998093E+01 0.  1.
</event>
<event>
 5   0  0.8997210E-07  0.2500752E+04  0.7818609E-02  0.8402718E-01
       -2   -1    0    0    0  501  0.00000000000E+00  0.00000000000E+00  0.10090831742E+04  0.10090831742E+04  0.25500000920E-02 0.  1.
        2   -1    0    0  501    0  0.00000000000E+00  0.00000000000E+00 -0.15493664535E+04  0.15493664535E+04  0.25500000920E-02 0. -1.
    10030    2    1    2    0    0  0.00000000000E+00  0.00000000000E+00 -0.54028327929E+03  0.25584496276E+04  0.25007515821E+04 0.  0.
        1    1    3    3  502    0  0.92471696644E+03  0.65937863547E+03 -0.80523677328E+03  0.13922240890E+04  0.50400001928E-02 0. -1.
       -1    1    3    3    0  502 -0.92471696644E+03 -0.65937863547E+03  0.26495349399E+03  0.11662255386E+04  0.50400001928E-02 0.  1.
</event>
<event>
 5   0  0.3837524E-07  0.2502794E+04  0.7818609E-02  0.8401991E-01
       -1   -1    0    0    0  501  0.00000000000E+00  0.00000000000E+00  0.11177461004E+04  0.11177461004E+04  0.50400001928E-02 0.  1.
        1   -1    0    0  501    0  0.00000000000E+00  0.00000000000E+00 -0.14010291648E+04  0.14010291648E+04  0.50400001928E-02 0. -1.
    10030    2    1    2    0    0  0.00000000000E+00  0.00000000000E+00 -0.28328306444E+03  0.25187752652E+04  0.25027943467E+04 0.  0.
        5    1    3    3  502    0  0.90372469419E+03 -0.68341887956E+03 -0.67625199694E+03  0.13195145097E+04  0.46999998093E+01 0. -1.
       -5    1    3    3    0  502 -0.90372469419E+03  0.68341887956E+03  0.39296893250E+03  0.11992607555E+04  0.46999998093E+01 0.  1.
</event>
<event>
 5   0  0.9508784E-07  0.2499145E+04  0.7818609E-02  0.8403290E-01
       -2   -1    0    0    0  501  0.00000000000E+00  0.00000000000E+00  0.10432446030E+04  0.10432446030E+04  0.25500000920E-02 0. -1.
        2   -1    0    0  501    0  0.00000000000E+00  0.00000000000E+00 -0.14967069266E+04  0.14967069266E+04  0.25500000920E-02 0.  1.
    10030    2    1    2    0    0  0.00000000000E+00  0.00000000000E+00 -0.45346232361E+03  0.25399515296E+04  0.24991449925E+04 0.  0.
        2    1    3    3  502    0 -0.55878049807E+01  0.11506237435E+04  0.26852964780E+03  0.11815559210E+04  0.25500000920E-02 0. -1.
       -2    1    3    3    0  502  0.55878049807E+01 -0.11506237435E+04 -0.72199197141E+03  0.13583956086E+04  0.25500000920E-02 0.  1.
</event>
<event>
 5   0  0.3873231E-07  0.2499260E+04  0.7818609E-02  0.8403249E-01
       -1   -1    0    0    0  501  0.00000000000E+00  0.00000000000E+00  0.10905329223E+04  0.10905329223E+04  0.50400001928E-02 0. -1.
        1   -1    0    0  501    0  0.00000000000E+00  0.00000000000E+00 -0.14319375182E+04  0.14319375182E+04  0.50400001928E-02 0.  1.
    10030    2    1    2    0    0  0.00000000000E+00  0.00000000000E+00 -0.34140459592E+03  0.25224704405E+04  0.24992598955E+04 0.  0.
        2    1    3    3  502    0 -0.76542301162E+03 -0.35889193548E+03 -0.10995200905E+04  0.13869463715E+04  0.25500000920E-02 0.  1.
       -2    1    3    3    0  502  0.76542301162E+03  0.35889193548E+03  0.75811549461E+03  0.11355240690E+04  0.25500000920E-02 0. -1.
</event>
<event>
 5   0  0.9251138E-07  0.2501021E+04  0.7818609E-02  0.8402622E-01
       -2   -1    0    0    0  501  0.00000000000E+00  0.00000000000E+00  0.11019945646E+04  0.11019945646E+04  0.25500000920E-02 0.  1.
        2   -1    0    0  501    0  0.00000000000E+00  0.00000000000E+00 -0.14190424211E+04  0.14190424211E+04  0.25500000920E-02 0. -1.
    10030    2    1    2    0    0  0.00000000000E+00  0.00000000000E+00 -0.31704785647E+03  0.25210369858E+04  0.25010214194E+04 0.  0.
        5    1    3    3  502    0  0.26908912488E+03  0.38689441336E+03  0.10090458143E+04  0.11136838823E+04  0.46999998093E+01 0.  1.
       -5    1    3    3    0  502 -0.26908912488E+03 -0.38689441336E+03 -0.13260936708E+04  0.14073531035E+04  0.46999998093E+01 0. -1.
</event>
<event>
 5   0  0.9261602E-07  0.2499060E+04  0.7818609E-02  0.8403320E-01
        2   -1    0    0  501    0  0.00000000000E+00  0.00000000000E+00  0.21843967389E+04  0.21843967389E+04  0.25500000920E-02 0. -1.
       -2   -1    0    0    0  501  0.00000000000E+00  0.00000000000E+00 -0.71476291341E+03  0.71476291342E+03  0.25500000920E-02 0.  1.
    10030    2    1    2    0    0  0.00000000000E+00  0.00000000000E+00  0.14696338255E+04  0.28991596524E+04  0.24990604452E+04 0.  0.
        4    1    3    3  502    0 -0.40273990377E+03  0.38648503623E+02 -0.63666990618E+03  0.75434960016E+03  0.12699999809E+01 0.  1.
       -4    1    3    3    0  502  0.40273990377E+03 -0.38648503623E+02  0.21063037317E+04  0.21448100522E+04  0.12699999809E+01 0. -1.
</event>
<event>
 5   0  0.9261602E-07  0.2500209E+04  0.7818609E-02  0.8402911E-01
       -2   -1    0    0    0  501  0.00000000000E+00  0.00000000000E+00  0.82450796475E+03  0.82450796475E+03  0.25500000920E-02 0.  1.
        2   -1    0    0  501    0  0.00000000000E+00  0.00000000000E+00 -0.18953868891E+04  0.18953868891E+04  0.25500000920E-02 0. -1.
    10030    2    1    2    0    0  0.00000000000E+00  0.00000000000E+00 -0.10708789244E+04  0.27198948539E+04  0.25002092603E+04 0.  0.
        4    1    3    3  502    0  0.32524486562E+03 -0.88675918830E+03  0.35543909327E+03  0.10091900924E+04  0.12699999809E+01 0.  1.
       -4    1    3    3    0  502 -0.32524486562E+03  0.88675918830E+03 -0.14263180176E+04  0.17107047615E+04  0.12699999809E+01 0. -1.
</event>
<event>
 5   0  0.3837524E-07  0.2499858E+04  0.7818609E-02  0.8403036E-01
        1   -1    0    0  501    0  0.00000000000E+00  0.00000000000E+00  0.11703770045E+04  0.11703770045E+04  0.50400001928E-02 0.  1.
       -1   -1    0    0    0  501  0.00000000000E+00  0.00000000000E+00 -0.13348880649E+04  0.13348880649E+04  0.50400001928E-02 0. -1.
    10030    2    1    2    0    0  0.00000000000E+00  0.00000000000E+00 -0.16451106038E+03  0.25052650694E+04  0.24998578318E+04 0.  0.
        5    1    3    3  502    0 -0.17212079674E+03  0.93814704436E+03  0.72730038992E+03  0.11994721309E+04  0.46999998093E+01 0.  1.
       -5    1    3    3    0  502  0.17212079674E+03 -0.93814704436E+03 -0.89181145030E+03  0.13057929386E+04  0.46999998093E+01 0. -1.
</event>
<event>
 5   0  0.3214375E-07  0.2500692E+04  0.7818609E-02  0.8402739E-01
        3   -1    0    0  501    0  0.00000000000E+00  0.00000000000E+00  0.18218268554E+04  0.18218268582E+04  0.10100000352E+00 0. -1.
       -3   -1    0    0    0  501  0.00000000000E+00  0.00000000000E+00 -0.85813021486E+03  0.85813022080E+03  0.10100000352E+00 0.  1.
    10030    2    1    2    0    0  0.00000000000E+00  0.00000000000E+00  0.96369664055E+03  0.26799570790E+04  0.25006916504E+04 0.  0.
        2    1    3    3  502    0 -0.34469881242E+03  0.98874943632E+03  0.12141496895E+04  0.16033097603E+04  0.25500000920E-02 0. -1.
       -2    1    3    3    0  502  0.34469881242E+03 -0.98874943632E+03 -0.25045304893E+03  0.10766473187E+04  0.25500000920E-02 0.  1.
</event>
<event>
 5   0  0.3837524E-07  0.2500104E+04  0.7818609E-02  0.8402948E-01
       -1   -1    0    0    0  501  0.00000000000E+00  0.00000000000E+00  0.13430397295E+04  0.13430397295E+04  0.50400001928E-02 0. -1.
        1   -1    0    0  501    0  0.00000000000E+00  0.00000000000E+00 -0.11635028007E+04  0.11635028007E+04  0.50400001928E-02 0.  1.
    10030    2    1    2    0    0  0.00000000000E+00  0.00000000000E+00  0.17953692880E+03  0.25065425303E+04  0.25001043873E+04 0.  0.
        5    1    3    3  502    0  0.96371860690E+03 -0.44092592467E+03  0.75437762015E+03  0.13008754391E+04  0.46999998093E+01 0. -1.
       -5    1    3    3    0  502 -0.96371860690E+03  0.44092592467E+03 -0.57484069135E+03  0.12056670912E+04  0.46999998093E+01 0.  1.
</event>
<event>
 5   0  0.9261602E-07  0.2502697E+04  0.7818609E-02  0.8402025E-01
       -2   -1    0    0    0  501  0.00000000000E+00  0.00000000000E+00  0.89121812062E+03  0.89121812063E+03  0.25500000920E-02 0. -1.
        2   -1    0    0  501    0  0.00000000000E+00  0.00000000000E+00 -0.17570033122E+04  0.17570033122E+04  0.25500000920E-02 0.  1.
    10030    2    1    2    0    0  0.00000000000E+00  0.00000000000E+00 -0.86578519157E+03  0.26482214328E+04  0.25026970970E+04 0.  0.
        4    1    3    3  502    0  0.31826135864E+03 -0.33242002935E+02 -0.17129777069E+04  0.17426099852E+04  0.12699999809E+01 0.  1.
       -4    1    3    3    0  502 -0.31826135864E+03  0.33242002935E+02  0.84719251534E+03  0.90561144765E+03  0.12699999809E+01 0. -1.
</event>
<event>
 5   0  0.9251138E-07  0.2499121E+04  0.7818609E-02  0.8403299E-01
        2   -1    0    0  501    0  0.00000000000E+00  0.00000000000E+00  0.15139596920E+04  0.15139596920E+04  0.25500000920E-02 0. -1.
       -2   -1    0    0    0  501  0.00000000000E+00  0.00000000000E+00 -0.10313365429E+04  0.10313365429E+04  0.25500000920E-02 0.  1.
    10030    2    1    2    0    0  0.00000000000E+00  0.00000000000E+00  0.48262314904E+03  0.25452962349E+04  0.24991214095E+04 0.  0.
        5    1    3    3  502    0 -0.80407091645E+03  0.34949148928E+03 -0.66547884417E+03  0.11007081910E+04  0.46999998093E+01 0.  1.
       -5    1    3    3    0  502  0.80407091645E+03 -0.34949148928E+03  0.11481019932E+04  0.14445880439E+04  0.46999998093E+01 0. -1.
</event>
<event>
 5   0  0.3972587E-07  0.2498872E+04  0.7818609E-02  0.8403387E-01
        1   -1    0    0  501    0  0.00000000000E+00  0.00000000000E+00  0.20573024110E+04  0.20573024110E+04  0.50400001928E-02 0.  1.
       -1   -1    0    0    0  501  0.00000000000E+00  0.00000000000E+00 -0.75880475291E+03  0.75880475293E+03  0.50400001928E-02 0. -1.
    10030    2    1    2    0    0  0.00000000000E+00  0.00000000000E+00  0.12984976580E+04  0.28161071639E+04  0.24988724238E+04 0.  0.
        3    1    3    3  502    0 -0.28180647972E+03 -0.94885336367E+03 -0.21001225187E+03  0.10118511520E+04  0.10100000352E+00 0. -1.
       -3    1    3    3    0  502  0.28180647972E+03  0.94885336367E+03  0.15085099099E+04  0.18042560118E+04  0.10100000352E+00 0.  1.
</event>
<event>
 5   0  0.9261602E-07  0.2499914E+04  0.7818609E-02  0.8403016E-01
        2   -1    0    0  501    0  0.00000000000E+00  0.00000000000E+00  0.17954642813E+04  0.17954642813E+04  0.25500000920E-02 0. -1.
       -2   -1    0    0    0  501  0.00000000000E+00  0.00000000000E+00 -0.87018834191E+03  0.87018834192E+03  0.25500000920E-02 0.  1.
    10030    2    1    2    0    0  0.00000000000E+00  0.00000000000E+00  0.92527593940E+03  0.26656526232E+04  0.24999136673E+04 0.  0.
        4    1    3    3  502    0 -0.90067937996E+03  0.48238691879E+03  0.12304242608E+04  0.15993329733E+04  0.12699999809E+01 0. -1.
       -4    1    3    3    0  502  0.90067937996E+03 -0.48238691879E+03 -0.30514832142E+03  0.10663196500E+04  0.12699999809E+01 0.  1.
</event>
<event>
 5   0  0.8997210E-07  0.2500297E+04  0.7818609E-02  0.8402880E-01
       -2   -1    0    0    0  501  0.00000000000E+00  0.00000000000E+00  0.89742723433E+03  0.89742723433E+03  0.25500000920E-02 0.  1.
        2   -1    0    0  501    0  0.00000000000E+00  0.00000000000E+00 -0.17415020604E+04  0.17415020604E+04  0.25500000920E-02 0. -1.
    10030    2    1    2    0    0  0.00000000000E+00  0.00000000000E+00 -0.84407482608E+03  0.26389292947E+04  0.25002970845E+04 0.  0.
        1    1    3    3  502    0 -0.26180180921E+03 -0.48764485511E+03 -0.16051421895E+04  0.16978866689E+04  0.50400001928E-02 0. -1.
       -1    1    3    3    0  502  0.26180180921E+03  0.48764485511E+03  0.76106736338E+03  0.94104262584E+03  0.50400001928E-02 0.  1.
</event>
<event>
 5   0  0.3972587E-07  0.2500345E+04  0.7818609E-02  0.8402863E-01
        1   -1    0    0  501    0  0.00000000000E+00  0.00000000000E+00  0.16302079305E+04  0.16302079306E+04  0.50400001928E-02 0. -1.
       -1   -1    0    0    0  501  0.00000000000E+00  0.00000000000E+00 -0.95873112500E+03  0.95873112501E+03  0.50400001928E-02 0.  1.
    10030    2    1    2    0    0  0.00000000000E+00  0.00000000000E+00  0.67147680555E+03  0.25889390556E+04  0.25003448428E+04 0.  0.
        3    1    3    3  502    0  0.12223215037E+04 -0.40401873018E+02  0.60421097931E+03  0.13641015679E+04  0.10100000352E+00 0.  1.
       -3    1    3    3    0  502 -0.12223215037E+04  0.40401873018E+02  0.67265826242E+02  0.12248374877E+04  0.10100000352E+00 0. -1.
</event>
<event>
 5   0  0.9768582E-07  0.2500279E+04  0.7818609E-02  0.8402886E-01
       -2   -1    0    0    0  501  0.00000000000E+00  0.00000000000E+00  0.83019424528E+03  0.83019424528E+03  0.25500000920E-02 0.  1.
        2   -1    0    0  501    0  0.00000000000E+00  0.00000000000E+00 -0.18825090289E+04  0.18825090289E+04  0.25500000920E-02 0. -1.
    10030    2    1    2    0    0  0.00000000000E+00  0.00000000000E+00 -0.10523147836E+04  0.27127032742E+04  0.25002785145E+04 0.  0.
        3    1    3    3  502    0  0.87015121875E+03  0.44322288073E+03  0.32069470671E+03  0.10278398565E+04  0.10100000352E+00 0.  1.
       -3    1    3    3    0  502 -0.87015121875E+03 -0.44322288073E+03 -0.13730094903E+04  0.16848634177E+04  0.10100000352E+00 0. -1.
</event>
<event>
 5   0  0.3972587E-07  0.2499586E+04  0.7818609E-02  0.8403133E-01
       -1   -1    0    0    0  501  0.00000000000E+00  0.00000000000E+00  0.14486345023E+04  0.14486345023E+04  0.50400001928E-02 0. -1.
        1   -1    0    0  501    0  0.00000000000E+00  0.00000000000E+00 -0.10782448180E+04  0.10782448180E+04  0.50400001928E-02 0.  1.
    10030    2    1    2    0    0  0.00000000000E+00  0.00000000000E+00  0.37038968428E+03  0.25268793203E+04  0.24995860820E+04 0.  0.
        3    1    3    3  502    0 -0.18678897593E+03  0.10834396764E+04  0.78603381059E+03  0.13515105680E+04  0.10100000352E+00 0. -1.
       -3    1    3    3    0  502  0.18678897593E+03 -0.10834396764E+04 -0.41564412631E+03  0.11753687523E+04  0.10100000352E+00 0.  1.
</event>
<event>
 5   0  0.3837524E-07  0.2498300E+04  0.7818609E-02  0.8403591E-01
        1   -1    0    0  501    0  0.00000000000E+00  0.00000000000E+00  0.10384929018E+04  0.10384929018E+04  0.50400001928E-02 0.  1.
       -1   -1    0    0    0  501  0.00000000000E+00  0.00000000000E+00 -0.15025391347E+04  0.15025391347E+04  0.50400001928E-02 0. -1.
    10030    2    1    2    0    0  0.00000000000E+00  0.00000000000E+00 -0.46404623285E+03  0.25410320365E+04  0.24983004032E+04 0.  0.
        5    1    3    3  502    0 -0.45197280115E+03  0.10034155015E+04 -0.83308962799E+03  0.13802834853E+04  0.46999998093E+01 0. -1.
       -5    1    3    3    0  502  0.45197280115E+03 -0.10034155015E+04  0.36904339514E+03  0.11607485512E+04  0.46999998093E+01 0.  1.
</event>
<event>
 5   0  0.3991066E-07  0.2500289E+04  0.7818609E-02  0.8402883E-01
       -1   -1    0    0    0  501  0.00000000000E+00  0.00000000000E+00  0.15291621120E+04  0.15291621121E+04  0.50400001928E-02 0.  1.
        1   -1    0    0  501    0  0.00000000000E+00  0.00000000000E+00 -0.10220377857E+04  0.10220377857E+04  0.50400001928E-02 0. -1.
    10030    2    1    2    0    0  0.00000000000E+00  0.00000000000E+00  0.50712432636E+03  0.25511998978E+04  0.25002891505E+04 0.  0.
        1    1    3    3  502    0 -0.51274237750E+03  0.62293147001E+03  0.12279480368E+04  0.14692871547E+04  0.50400001928E-02 0.  1.
       -1    1    3    3    0  502  0.51274237750E+03 -0.62293147001E+03 -0.72082371041E+03  0.10819127430E+04  0.50400001928E-02 0. -1.
</event>
<event>
 5   0  0.3991066E-07  0.2498644E+04  0.7818609E-02  0.8403469E-01
       -1   -1    0    0    0  501  0.00000000000E+00  0.00000000000E+00  0.98923714247E+03  0.98923714248E+03  0.50400001928E-02 0.  1.
        1   -1    0    0  501    0  0.00000000000E+00  0.00000000000E+00 -0.15777869164E+04  0.15777869164E+04  0.50400001928E-02 0. -1.
    10030    2    1    2    0    0  0.00000000000E+00  0.00000000000E+00 -0.58854977393E+03  0.25670240589E+04  0.24986439687E+04 0.  0.
        1    1    3    3  502    0  0.36734701438E+03 -0.98454932962E+03  0.39988172929E+03  0.11243605333E+04  0.50400001928E-02 0.  1.
       -1    1    3    3    0  502 -0.36734701438E+03  0.98454932962E+03 -0.98843150322E+03  0.14426635256E+04  0.50400001928E-02 0. -1.
</event>
<event>
 5   0  0.9768582E-07  0.2499296E+04  0.7818609E-02  0.8403237E-01
        2   -1    0    0  501    0  0.00000000000E+00  0.00000000000E+00  0.86740512133E+03  0.86740512133E+03  0.25500000920E-02 0. -1.
       -2   -1    0    0    0  501  0.00000000000E+00  0.00000000000E+00 -0.18003348307E+04  0.18003348307E+04  0.25500000920E-02 0.  1.
    10030    2    1    2    0    0  0.00000000000E+00  0.00000000000E+00 -0.93292970935E+03  0.26677399520E+04  0.24992956226E+04 0.  0.
        3    1    3    3  502    0 -0.44596250762E+03  0.91093445279E+03  0.31276070975E+03  0.10613686481E+04  0.10100000352E+00 0. -1.
       -3    1    3    3    0  502  0.44596250762E+03 -0.91093445279E+03 -0.12456904191E+04  0.16063713039E+04  0.10100000352E+00 0.  1.
</event>
<event>
 5   0  0.3991066E-07  0.2500991E+04  0.7818609E-02  0.8402633E-01
       -1   -1    0    0    0  501  0.00000000000E+00  0.00000000000E+00  0.17655207522E+04  0.17655207522E+04  0.50400001928E-02 0. -1.
        1   -1    0    0  501    0  0.00000000000E+00  0.00000000000E+00 -0.88570956404E+03  0.88570956405E+03  0.50400001928E-02 0.  1.
    10030    2    1    2    0    0  0.00000000000E+00  0.00000000000E+00  0.87981118813E+03  0.26512303162E+04  0.25009906963E+04 0.  0.
        1    1    3    3  502    0 -0.16486963738E+03  0.28498182362E+03  0.17187505924E+04  0.17500000675E+04  0.50400001928E-02 0. -1.
       -1    1    3    3    0  502  0.16486963738E+03 -0.28498182362E+03 -0.83893940432E+03  0.90123024875E+03  0.50400001928E-02 0.  1.
</event>
<event>
 5   0  0.3873231E-07  0.2500719E+04  0.7818609E-02  0.8402729E-01
        1   -1    0    0  501    0  0.00000000000E+00  0.00000000000E+00  0.13269911517E+04  0.13269911517E+04  0.50400001928E-02 0. -1.
       -1   -1    0    0    0  501  0.00000000000E+00  0.00000000000E+00 -0.11781534183E+04  0.11781534183E+04  0.50400001928E-02 0.  1.
    10030    2    1    2    0    0  0.00000000000E+00  0.00000000000E+00  0.14883773343E+03  0.25051445700E+04  0.25007192257E+04 0.  0.
        2    1    3    3  502    0 -0.82684708942E+03  0.45485308177E+03  0.89613363336E+03  0.13013926864E+04  0.25500000920E-02 0. -1.
       -2    1    3    3    0  502  0.82684708942E+03 -0.45485308177E+03 -0.74729589993E+03  0.12037518836E+04  0.25500000920E-02 0.  1.
</event>
<event>
 5   0  0.3837524E-07  0.2500530E+04  0.7818609E-02  0.8402797E-01
       -1   -1    0    0    0  501  0.00000000000E+00  0.00000000000E+00  0.65952229844E+03  0.65952229846E+03  0.50400001928E-02 0.  1.
        1   -1    0    0  501    0  0.00000000000E+00  0.00000000000E+00 -0.23701431895E+04  0.23701431895E+04  0.50400001928E-02 0. -1.
    10030    2    1    2    0    0  0.00000000000E+00  0.00000000000E+00 -0.17106208911E+04  0.30296654880E+04  0.25005297711E+04 0.  0.
        5    1    3    3  502    0 -0.17958046161E+03  0.11080853959E+03 -0.23484009658E+04  0.23578670150E+04  0.46999998093E+01 0. -1.
       -5    1    3    3    0  502  0.17958046161E+03 -0.11080853959E+03  0.63778007467E+03  0.67179847296E+03  0.46999998093E+01 0.  1.
</event>
<event>
 5   0  0.9261602E-07  0.2500802E+04  0.7818609E-02  0.8402700E-01
        2   -1    0    0  501    0  0.00000000000E+00  0.00000000000E+00  0.20258147587E+04  0.20258147587E+04  0.25500000920E-02 0. -1.
       -2   -1    0    0    0  501  0.00000000000E+00  0.00000000000E+00 -0.77178984586E+03  0.77178984587E+03  0.25500000920E-02 0.  1.
    10030    2    1    2    0    0  0.00000000000E+00  0.00000000000E+00  0.12540249129E+04  0.27976046046E+04  0.25008024795E+04 0.  0.
        4    1    3    3  502    0  0.51761218546E+02 -0.76931201457E+03  0.17282085800E+04  0.18924129329E+04  0.12699999809E+01 0. -1.
       -4    1    3    3    0  502 -0.51761218546E+02  0.76931201457E+03 -0.47418366715E+03  0.90519167175E+03  0.12699999809E+01 0.  1.
</event>
<event>
 5   0  0.9768582E-07  0.2500093E+04  0.7818609E-02  0.8402952E-01
       -2   -1    0    0    0  501  0.00000000000E+00  0.00000000000E+00  0.72552672757E+03  0.72552672758E+03  0.25500000920E-02 0.  1.
        2   -1    0    0  501    0  0.00000000000E+00  0.00000000000E+00 -0.21537678874E+04  0.21537678874E+04  0.25500000920E-02 0. -1.
    10030    2    1    2    0    0  0.00000000000E+00  0.00000000000E+00 -0.14282411599E+04  0.28792946150E+04  0.25000929321E+04 0.  0.
        3    1    3    3  502    0  0.46769092247E+03  0.11336592933E+04 -0.99314452505E+03  0.15780539440E+04  0.10100000352E+00 0.  1.
       -3    1    3    3    0  502 -0.46769092247E+03 -0.11336592933E+04 -0.43509663480E+03  0.13012406711E+04  0.10100000352E+00 0. -1.
</event>
<event>
 5   0  0.3805418E-07  0.2499779E+04  0.7818609E-02  0.8403064E-01
       -1   -1    0    0    0  501  0.00000000000E+00  0.00000000000E+00  0.15643818158E+04  0.15643818158E+04  0.50400001928E-02 0. -1.
        1   -1    0    0  501    0  0.00000000000E+00  0.00000000000E+00 -0.99862087558E+03  0.99862087559E+03  0.50400001928E-02 0.  1.
    10030    2    1    2    0    0  0.00000000000E+00  0.00000000000E+00  0.56576094019E+03  0.25630026914E+04  0.24997794612E+04 0.  0.
        4    1    3    3  502    0  0.11556007929E+04 -0.14786442835E+03  0.74703940272E+03  0.13839604633E+04  0.12699999809E+01 0. -1.
       -4    1    3    3    0  502 -0.11556007929E+04  0.14786442835E+03 -0.18127846253E+03  0.11790422281E+04  0.12699999809E+01 0.  1.
</event>
<event>
 5   0  0.3873231E-07  0.2517378E+04  0.7818609E-02  0.8396821E-01
       -1   -1    0    0    0  501  0.00000000000E+00  0.00000000000E+00  0.10053984035E+04  0.10053984035E+04  0.50400001928E-02 0.  1.
        1   -1    0    0  501    0  0.00000000000E+00  0.00000000000E+00 -0.15757913215E+04  0.15757913215E+04  0.50400001928E-02 0. -1.
    10030    2    1    2    0    0  0.00000000000E+00  0.00000000000E+00 -0.57039291798E+03  0.25811897250E+04  0.25173780637E+04 0.  0.
        2    1    3    3  502    0  0.75379307350E+03  0.84497666314E+03  0.27838016458E+03  0.11660553481E+04  0.25500000920E-02 0. -1.
       -2    1    3    3    0  502 -0.75379307350E+03 -0.84497666314E+03 -0.84877308256E+03  0.14151343769E+04  0.25500000920E-02 0.  1.
</event>
<event>
 5   0  0.3805418E-07  0.2499651E+04  0.7818609E-02  0.8403110E-01
        1   -1    0    0  501    0  0.00000000000E+00  0.00000000000E+00  0.12812899327E+04  0.12812899327E+04  0.50400001928E-02 0. -1.
       -1   -1    0    0    0  501  0.00000000000E+00  0.00000000000E+00 -0.12191338005E+04  0.12191338005E+04  0.50400001928E-02 0.  1.
    10030    2    1    2    0    0  0.00000000000E+00  0.00000000000E+00  0.62156132218E+02  0.25004237332E+04  0.24996510678E+04 0.  0.
        4    1    3    3  502    0  0.37595995958E+02  0.12487758385E+04  0.65840765389E+02  0.12510760061E+04  0.12699999809E+01 0.  1.
       -4    1    3    3    0  502 -0.37595995958E+02 -0.12487758385E+04 -0.36846331715E+01  0.12493477271E+04  0.12699999809E+01 0. -1.
</event>
<event>
 5   0  0.3991066E-07  0.2498468E+04  0.7818609E-02  0.8403531E-01
        1   -1    0    0  501    0  0.00000000000E+00  0.00000000000E+00  0.83679041953E+03  0.83679041955E+03  0.50400001928E-02 0.  1.
       -1   -1    0    0    0  501  0.00000000000E+00  0.00000000000E+00 -0.18649660446E+04  0.18649660446E+04  0.50400001928E-02 0. -1.
    10030    2    1    2    0    0  0.00000000000E+00  0.00000000000E+00 -0.10281756251E+04  0.27017564642E+04  0.24984681058E+04 0.  0.
        1    1    3    3  502    0  0.84186238320E+03 -0.75137341950E+03  0.65519326101E+02  0.11303039723E+04  0.50400001928E-02 0.  1.
       -1    1    3    3    0  502 -0.84186238320E+03  0.75137341950E+03 -0.10936949512E+04  0.15714524918E+04  0.50400001928E-02 0. -1.
</event>
<event>
 5   0  0.3214375E-07  0.2497089E+04  0.7818609E-02  0.8404023E-01
        3   -1    0    0  501    0  0.00000000000E+00  0.00000000000E+00  0.19032677062E+04  0.19032677089E+04  0.10100000352E+00 0. -1.
       -3   -1    0    0    0  501  0.00000000000E+00  0.00000000000E+00 -0.81904551635E+03  0.81904552258E+03  0.10100000352E+00 0.  1.
    10030    2    1    2    0    0  0.00000000000E+00  0.00000000000E+00  0.10842221899E+04  0.27223132315E+04  0.24970886194E+04 0.  0.
        3    1    3    3  502    0  0.87807269067E+03 -0.65723618521E+03  0.11924850598E+04  0.16201826074E+04  0.10100000352E+00 0. -1.
       -3    1    3    3    0  502 -0.87807269067E+03  0.65723618521E+03 -0.10826286997E+03  0.11021306241E+04  0.10100000352E+00 0.  1.
</event>
<event>
 5   0  0.3805418E-07  0.2495720E+04  0.7818609E-02  0.8404512E-01
       -1   -1    0    0    0  501  0.00000000000E+00  0.00000000000E+00  0.73859825549E+03  0.73859825551E+03  0.50400001928E-02 0.  1.
        1   -1    0    0  501    0  0.00000000000E+00  0.00000000000E+00 -0.21082562449E+04  0.21082562449E+04  0.50400001928E-02 0. -1.
    10030    2    1    2    0    0  0.00000000000E+00  0.00000000000E+00 -0.13696579894E+04  0.28468545004E+04  0.24957198438E+04 0.  0.
        4    1    3    3  502    0  0.84305489634E+03 -0.75896784467E+03 -0.91690736555E+02  0.11380608734E+04  0.12699999809E+01 0.  1.
       -4    1    3    3    0  502 -0.84305489634E+03  0.75896784467E+03 -0.12779672528E+04  0.17087936270E+04  0.12699999809E+01 0. -1.
</event>
<event>
 5   0  0.9261602E-07  0.2496001E+04  0.7818609E-02  0.8404411E-01
        2   -1    0    0  501    0  0.00000000000E+00  0.00000000000E+00  0.14552371727E+04  0.14552371727E+04  0.25500000920E-02 0. -1.
       -2   -1    0    0    0  501  0.00000000000E+00  0.00000000000E+00 -0.10702760742E+04  0.10702760742E+04  0.25500000920E-02 0.  1.
    10030    2    1    2    0    0  0.00000000000E+00  0.00000000000E+00  0.38496109854E+03  0.25255132469E+04  0.24960012245E+04 0.  0.
        4    1    3    3  502    0 -0.10277536498E+04 -0.13324464227E+03  0.89602350227E+03  0.13699968719E+04  0.12699999809E+01 0. -1.
       -4    1    3    3    0  502  0.10277536498E+04  0.13324464227E+03 -0.51106240373E+03  0.11555163750E+04  0.12699999809E+01 0.  1.
</event>
<event>
 5   0  0.9261602E-07  0.2501232E+04  0.7818609E-02  0.8402547E-01
       -2   -1    0    0    0  501  0.00000000000E+00  0.00000000000E+00  0.10300282093E+04  0.10300282093E+04  0.25500000920E-02 0.  1.
        2   -1    0    0  501    0  0.00000000000E+00  0.00000000000E+00 -0.15184445797E+04  0.15184445797E+04  0.25500000920E-02 0. -1.
    10030    2    1    2    0    0  0.00000000000E+00  0.00000000000E+00 -0.48841637048E+03  0.25484727890E+04  0.25012322974E+04 0.  0.
        4    1    3    3  502    0 -0.28935243130E+03 -0.58672669162E+03 -0.13302030533E+04  0.14823679759E+04  0.12699999809E+01 0. -1.
       -4    1    3    3    0  502  0.28935243130E+03  0.58672669162E+03  0.84178668282E+03  0.10661048131E+04  0.12699999809E+01 0.  1.
</event>
<event>
 5   0  0.3991066E-07  0.2500838E+04  0.7818609E-02  0.8402687E-01
       -1   -1    0    0    0  501  0.00000000000E+00  0.00000000000E+00  0.79198690891E+03  0.79198690893E+03  0.50400001928E-02 0. -1.
        1   -1    0    0  501    0  0.00000000000E+00  0.00000000000E+00 -0.19742091986E+04  0.19742091986E+04  0.50400001928E-02 0.  1.
    10030    2    1    2    0    0  0.00000000000E+00  0.00000000000E+00 -0.11822222897E+04  0.27661961075E+04  0.25008381321E+04 0.  0.
        1    1    3    3  502    0  0.44823476111E+03 -0.62663907569E+03  0.49825432085E+03  0.91752291553E+03  0.50400001928E-02 0. -1.
       -1    1    3    3    0  502 -0.44823476111E+03  0.62663907569E+03 -0.16804766105E+04  0.18486731920E+04  0.50400001928E-02 0.  1.
</event>
<event>
 5   0  0.3805418E-07  0.2499698E+04  0.7818609E-02  0.8403093E-01
       -1   -1    0    0    0  501  0.00000000000E+00  0.00000000000E+00  0.84164997875E+03  0.84164997876E+03  0.50400001928E-02 0.  1.
        1   -1    0    0  501    0  0.00000000000E+00  0.00000000000E+00 -0.18560234709E+04  0.18560234709E+04  0.50400001928E-02 0. -1.
    10030    2    1    2    0    0  0.00000000000E+00  0.00000000000E+00 -0.10143734921E+04  0.26976734496E+04  0.24996976736E+04 0.  0.
        4    1    3    3  502    0 -0.39794484662E+02 -0.80087279614E+03 -0.15418348015E+04  0.17378829087E+04  0.12699999809E+01 0. -1.
       -4    1    3    3    0  502  0.39794484662E+02  0.80087279614E+03  0.52746130935E+03  0.95979054088E+03  0.12699999809E+01 0.  1.
</event>
<event>
 5   0  0.9261602E-07  0.2499453E+04  0.7818609E-02  0.8403180E-01
        2   -1    0    0  501    0  0.00000000000E+00  0.00000000000E+00  0.91312425859E+03  0.91312425859E+03  0.25500000920E-02 0. -1.
       -2   -1    0    0    0  501  0.00000000000E+00  0.00000000000E+00 -0.17104093677E+04  0.17104093677E+04  0.25500000920E-02 0.  1.
    10030    2    1    2    0    0  0.00000000000E+00  0.00000000000E+00 -0.79728510914E+03  0.26235336263E+04  0.24994529688E+04 0.  0.
        4    1    3    3  502    0 -0.31741553854E+03 -0.47644158763E+03 -0.15646753482E+04  0.16661211747E+04  0.12699999809E+01 0.  1.
       -4    1    3    3    0  502  0.31741553854E+03  0.47644158763E+03  0.76739023910E+03  0.95741245161E+03  0.12699999809E+01 0. -1.
</event>
<event>
 5   0  0.9261602E-07  0.2496527E+04  0.7818609E-02  0.8404224E-01
       -2   -1    0    0    0  501  0.00000000000E+00  0.00000000000E+00  0.67430852180E+03  0.67430852181E+03  0.25500000920E-02 0. -1.
        2   -1    0    0  501    0  0.00000000000E+00  0.00000000000E+00 -0.23107543080E+04  0.23107543080E+04  0.25500000920E-02 0.  1.
    10030    2    1    2    0    0  0.00000000000E+00  0.00000000000E+00 -0.16364457862E+04  0.29850628298E+04  0.24965266445E+04 0.  0.
        4    1    3    3  502    0  0.37010679568E+03  0.24842744451E+03 -0.22123462473E+04  0.22568058769E+04  0.12699999809E+01 0.  1.
       -4    1    3    3    0  502 -0.37010679568E+03 -0.24842744451E+03  0.57590046110E+03  0.72825695286E+03  0.12699999809E+01 0. -1.
</event>
<event>
 5   0  0.9251138E-07  0.2500014E+04  0.7818609E-02  0.8402980E-01
        2   -1    0    0  501    0  0.00000000000E+00  0.00000000000E+00  0.16070278988E+04  0.16070278988E+04  0.25500000920E-02 0. -1.
       -2   -1    0    0    0  501  0.00000000000E+00  0.00000000000E+00 -0.97230284538E+03  0.97230284539E+03  0.25500000920E-02 0.  1.
    10030    2    1    2    0    0  0.00000000000E+00  0.00000000000E+00  0.63472505338E+03  0.25793307442E+04  0.25000142388E+04 0.  0.
        5    1    3    3  502    0  0.52157551979E+03  0.26441695076E+03 -0.82246796201E+03  0.10091744077E+04  0.46999998093E+01 0.  1.
       -5    1    3    3    0  502 -0.52157551979E+03 -0.26441695076E+03  0.14571930154E+04  0.15701563364E+04  0.46999998093E+01 0. -1.
</event>
<event>
 5   0  0.8997210E-07  0.2499712E+04  0.7818609E-02  0.8403088E-01
        2   -1    0    0  501    0  0.00000000000E+00  0.00000000000E+00  0.25673024131E+04  0.25673024131E+04  0.25500000920E-02 0.  1.
       -2   -1    0    0    0  501  0.00000000000E+00  0.00000000000E+00 -0.60847546361E+03  0.60847546361E+03  0.25500000920E-02 0. -1.
    10030    2    1    2    0    0  0.00000000000E+00  0.00000000000E+00  0.19588269495E+04  0.31757778767E+04  0.24997124043E+04 0.  0.
        1    1    3    3  502    0  0.10752364381E+04  0.51465754816E+02  0.17253964678E+03  0.10902073433E+04  0.50400001928E-02 0. -1.
       -1    1    3    3    0  502 -0.10752364381E+04 -0.51465754816E+02  0.17862873027E+04  0.20855705333E+04  0.50400001928E-02 0.  1.
</event>
<event>
 5   0  0.3837524E-07  0.2494940E+04  0.7818609E-02  0.8404790E-01
       -1   -1    0    0    0  501  0.00000000000E+00  0.00000000000E+00  0.85234662756E+03  0.85234662758E+03  0.50400001928E-02 0. -1.
        1   -1    0    0  501    0  0.00000000000E+00  0.00000000000E+00 -0.18257608575E+04  0.18257608575E+04  0.50400001928E-02 0.  1.
    10030    2    1    2    0    0  0.00000000000E+00  0.00000000000E+00 -0.97341422991E+03  0.26781074851E+04  0.24949397665E+04 0.  0.
        5    1    3    3  502    0  0.11429368552E+04  0.26860326471E+03 -0.93920836059E+03  0.15035247931E+04  0.46999998093E+01 0.  1.
       -5    1    3    3    0  502 -0.11429368552E+04 -0.26860326471E+03 -0.34205869318E+02  0.11745826920E+04  0.46999998093E+01 0. -1.
</event>
<event>
 5   0  0.9251138E-07  0.2499870E+04  0.7818609E-02  0.8403032E-01
        2   -1    0    0  501    0  0.00000000000E+00  0.00000000000E+00  0.22416562493E+04  0.22416562493E+04  0.25500000920E-02 0.  1.
       -2   -1    0    0    0  501  0.00000000000E+00  0.00000000000E+00 -0.69695657240E+03  0.69695657241E+03  0.25500000920E-02 0. -1.
    10030    2    1    2    0    0  0.00000000000E+00  0.00000000000E+00  0.15446996769E+04  0.29386128217E+04  0.24998696414E+04 0.  0.
        5    1    3    3  502    0 -0.11610691708E+04  0.45934360240E+03  0.83922780348E+03  0.15044612194E+04  0.46999998093E+01 0.  1.
       -5    1    3    3    0  502  0.11610691708E+04 -0.45934360240E+03  0.70547187345E+03  0.14341516024E+04  0.46999998093E+01 0. -1.
</event>
<event>
 5   0  0.3873231E-07  0.2499759E+04  0.7818609E-02  0.8403071E-01
       -1   -1    0    0    0  501  0.00000000000E+00  0.00000000000E+00  0.10520276050E+04  0.10520276050E+04  0.50400001928E-02 0. -1.
        1   -1    0    0  501    0  0.00000000000E+00  0.00000000000E+00 -0.14849405315E+04  0.14849405315E+04  0.50400001928E-02 0.  1.
    10030    2    1    2    0    0  0.00000000000E+00  0.00000000000E+00 -0.43291292651E+03  0.25369681365E+04  0.24997587331E+04 0.  0.
        2    1    3    3  502    0  0.12294538739E+04 -0.22502255068E+03 -0.21903486883E+03  0.12689240522E+04  0.25500000920E-02 0. -1.
       -2    1    3    3    0  502 -0.12294538739E+04  0.22502255068E+03 -0.21387805767E+03  0.12680440844E+04  0.25500000920E-02 0.  1.
</event>
<event>
 5   0  0.9251138E-07  0.2500899E+04  0.7818609E-02  0.8402665E-01
       -2   -1    0    0    0  501  0.00000000000E+00  0.00000000000E+00  0.14751384023E+04  0.14751384023E+04  0.25500000920E-02 0. -1.
        2   -1    0    0  501    0  0.00000000000E+00  0.00000000000E+00 -0.10599848071E+04  0.10599848071E+04  0.25500000920E-02 0.  1.
    10030    2    1    2    0    0  0.00000000000E+00  0.00000000000E+00  0.41515359517E+03  0.25351232094E+04  0.25008992741E+04 0.  0.
        5    1    3    3  502    0  0.98466551027E+03  0.67259909293E+03 -0.17393308425E+03  0.12050852728E+04  0.46999998093E+01 0.  1.
       -5    1    3    3    0  502 -0.98466551027E+03 -0.67259909293E+03  0.58908667943E+03  0.13300379366E+04  0.46999998093E+01 0. -1.
</event>
<event>
 5   0  0.3972587E-07  0.2500236E+04  0.7818609E-02  0.8402902E-01
       -1   -1    0    0    0  501  0.00000000000E+00  0.00000000000E+00  0.13200779199E+04  0.13200779199E+04  0.50400001928E-02 0.  1.
        1   -1    0    0  501    0  0.00000000000E+00  0.00000000000E+00 -0.11838655754E+04  0.11838655754E+04  0.50400001928E-02 0. -1.
    10030    2    1    2    0    0  0.00000000000E+00  0.00000000000E+00  0.13621234450E+03  0.25039434953E+04  0.25002358338E+04 0.  0.
        3    1    3    3  502    0 -0.10351009130E+04  0.67119714047E+03 -0.13432049335E+03  0.12409599134E+04  0.10100000352E+00 0. -1.
       -3    1    3    3    0  502  0.10351009130E+04 -0.67119714047E+03  0.27053283785E+03  0.12629835819E+04  0.10100000352E+00 0.  1.
</event>
<event>
 5   0  0.3805418E-07  0.2501681E+04  0.7818609E-02  0.8402387E-01
        1   -1    0    0  501    0  0.00000000000E+00  0.00000000000E+00  0.13382450088E+04  0.13382450088E+04  0.50400001928E-02 0.  1.
       -1   -1    0    0    0  501  0.00000000000E+00  0.00000000000E+00 -0.11691448248E+04  0.11691448248E+04  0.50400001928E-02 0. -1.
    10030    2    1    2    0    0  0.00000000000E+00  0.00000000000E+00  0.16910018395E+03  0.25073898336E+04  0.25016812158E+04 0.  0.
        4    1    3    3  502    0 -0.58978758415E+03  0.62142705505E+03  0.99799115712E+03  0.13152980429E+04  0.12699999809E+01 0.  1.
       -4    1    3    3    0  502  0.58978758415E+03 -0.62142705505E+03 -0.82889097316E+03  0.11920917907E+04  0.12699999809E+01 0. -1.
</event>
<event>
 5   0  0.3972587E-07  0.2499879E+04  0.7818609E-02  0.8403029E-01
        1   -1    0    0  501    0  0.00000000000E+00  0.00000000000E+00  0.13385310101E+04  0.13385310101E+04  0.50400001928E-02 0. -1.
       -1   -1    0    0    0  501  0.00000000000E+00  0.00000000000E+00 -0.11672115340E+04  0.11672115340E+04  0.50400001928E-02 0.  1.
    10030    2    1    2    0    0  0.00000000000E+00  0.00000000000E+00  0.17131947613E+03  0.25057425441E+04  0.24998790640E+04 0.  0.
        3    1    3    3  502    0 -0.71694168049E+03 -0.50023096754E+01 -0.94061598886E+03  0.11827040395E+04  0.10100000352E+00 0.  1.
       -3    1    3    3    0  502  0.71694168049E+03  0.50023096754E+01  0.11119354650E+04  0.13230385047E+04  0.10100000352E+00 0. -1.
</event>
<event>
 5   0  0.3972587E-07  0.2499335E+04  0.7818609E-02  0.8403223E-01
        1   -1    0    0  501    0  0.00000000000E+00  0.00000000000E+00  0.74092378448E+03  0.74092378449E+03  0.50400001928E-02 0. -1.
       -1   -1    0    0    0  501  0.00000000000E+00  0.00000000000E+00 -0.21077313637E+04  0.21077313637E+04  0.50400001928E-02 0.  1.
    10030    2    1    2    0    0  0.00000000000E+00  0.00000000000E+00 -0.13668075792E+04  0.28486551482E+04  0.24993345504E+04 0.  0.
        3    1    3    3  502    0  0.73946102063E+03  0.28513128481E+03 -0.17846589599E+04  0.19527186341E+04  0.10100000352E+00 0.  1.
       -3    1    3    3    0  502 -0.73946102063E+03 -0.28513128481E+03  0.41785138074E+03  0.89593651404E+03  0.10100000352E+00 0. -1.
</event>
<event>
 5   0  0.9508784E-07  0.2502209E+04  0.7818609E-02  0.8402199E-01
        2   -1    0    0  501    0  0.00000000000E+00  0.00000000000E+00  0.16437549502E+04  0.16437549502E+04  0.25500000920E-02 0. -1.
       -2   -1    0    0    0  501  0.00000000000E+00  0.00000000000E+00 -0.95224790129E+03  0.95224790129E+03  0.25500000920E-02 0.  1.
    10030    2    1    2    0    0  0.00000000000E+00  0.00000000000E+00  0.69150704893E+03  0.25960028515E+04  0.25022087855E+04 0.  0.
        2    1    3    3  502    0 -0.10296149398E+04 -0.22700383180E+03  0.10445165069E+04  0.14841335510E+04  0.25500000920E-02 0. -1.
       -2    1    3    3    0  502  0.10296149398E+04  0.22700383180E+03 -0.35300945798E+03  0.11118693005E+04  0.25500000920E-02 0.  1.
</event>
<event>
 5   0  0.3837524E-07  0.2498138E+04  0.7818609E-02  0.8403649E-01
       -1   -1    0    0    0  501  0.00000000000E+00  0.00000000000E+00  0.90705009654E+03  0.90705009655E+03  0.50400001928E-02 0.  1.
        1   -1    0    0  501    0  0.00000000000E+00  0.00000000000E+00 -0.17200516101E+04  0.17200516101E+04  0.50400001928E-02 0. -1.
    10030    2    1    2    0    0  0.00000000000E+00  0.00000000000E+00 -0.81300151359E+03  0.26271017067E+04  0.24981376896E+04 0.  0.
        5    1    3    3  502    0  0.25938581985E+03  0.71022261397E+03  0.63903450852E+03  0.98999209997E+03  0.46999998093E+01 0.  1.
       -5    1    3    3    0  502 -0.25938581985E+03 -0.71022261397E+03 -0.14520360221E+04  0.16371096067E+04  0.46999998093E+01 0. -1.
</event>
<event>
 5   0  0.3873231E-07  0.2499490E+04  0.7818609E-02  0.8403167E-01
       -1   -1    0    0    0  501  0.00000000000E+00  0.00000000000E+00  0.73516644231E+03  0.73516644232E+03  0.50400001928E-02 0.  1.
        1   -1    0    0  501    0  0.00000000000E+00  0.00000000000E+00 -0.21245021731E+04  0.21245021732E+04  0.50400001928E-02 0. -1.
    10030    2    1    2    0    0  0.00000000000E+00  0.00000000000E+00 -0.13893357308E+04  0.28596686155E+04  0.24994901115E+04 0.  0.
        2    1    3    3  502    0 -0.75086357838E+03 -0.49237732153E+03  0.29986517690E+03  0.94665234612E+03  0.25500000920E-02 0.  1.
       -2    1    3    3    0  502  0.75086357838E+03  0.49237732153E+03 -0.16892009077E+04  0.19130162694E+04  0.25500000920E-02 0. -1.
</event>
<event>
 5   0  0.3972587E-07  0.2499999E+04  0.7818609E-02  0.8402986E-01
       -1   -1    0    0    0  501  0.00000000000E+00  0.00000000000E+00  0.69073492160E+03  0.69073492162E+03  0.50400001928E-02 0. -1.
        1   -1    0    0  501    0  0.00000000000E+00  0.00000000000E+00 -0.22620813388E+04  0.22620813388E+04  0.50400001928E-02 0.  1.
    10030    2    1    2    0    0  0.00000000000E+00  0.00000000000E+00 -0.15713464172E+04  0.29528162605E+04  0.24999988610E+04 0.  0.
        3    1    3    3  502    0 -0.39493296060E+02  0.15430544366E+03  0.67869983328E+03  0.69713941524E+03  0.10100000352E+00 0. -1.
       -3    1    3    3    0  502  0.39493296060E+02 -0.15430544366E+03 -0.22500462505E+04  0.22556768452E+04  0.10100000352E+00 0.  1.
</event>
<event>
 5   0  0.8997210E-07  0.2500113E+04  0.7818609E-02  0.8402945E-01
       -2   -1    0    0    0  501  0.00000000000E+00  0.00000000000E+00  0.81667900459E+03  0.81667900459E+03  0.25500000920E-02 0.  1.
        2   -1    0    0  501    0  0.00000000000E+00  0.00000000000E+00 -0.19134092680E+04  0.19134092680E+04  0.25500000920E-02 0. -1.
    10030    2    1    2    0    0  0.00000000000E+00  0.00000000000E+00 -0.10967302634E+04  0.27300882725E+04  0.25001129385E+04 0.  0.
        1    1    3    3  502    0 -0.10242977568E+04 -0.69348556556E+03 -0.74532578027E+03  0.14441671105E+04  0.50400001928E-02 0.  1.
       -1    1    3    3    0  502  0.10242977568E+04  0.69348556556E+03 -0.35140448309E+03  0.12859211621E+04  0.50400001928E-02 0. -1.
</event>
<event>
 5   0  0.9508784E-07  0.2500039E+04  0.7818609E-02  0.8402972E-01
        2   -1    0    0  501    0  0.00000000000E+00  0.00000000000E+00  0.12065162091E+04  0.12065162091E+04  0.25500000920E-02 0. -1.
       -2   -1    0    0    0  501  0.00000000000E+00  0.00000000000E+00 -0.12950911727E+04  0.12950911727E+04  0.25500000920E-02 0.  1.
    10030    2    1    2    0    0  0.00000000000E+00  0.00000000000E+00 -0.88574963678E+02  0.25016073818E+04  0.25000387934E+04 0.  0.
        2    1    3    3  502    0  0.94270666265E+03  0.71702388972E+01 -0.86565646929E+03  0.12798860836E+04  0.25500000920E-02 0.  1.
       -2    1    3    3    0  502 -0.94270666265E+03 -0.71702388972E+01  0.77708150561E+03  0.12217212982E+04  0.25500000920E-02 0. -1.
</event>
<event>
 5   0  0.3972587E-07  0.2499879E+04  0.7818609E-02  0.8403029E-01
       -1   -1    0    0    0  501  0.00000000000E+00  0.00000000000E+00  0.97591919332E+03  0.97591919333E+03  0.50400001928E-02 0. -1.
        1   -1    0    0  501    0  0.00000000000E+00  0.00000000000E+00 -0.16008997663E+04  0.16008997663E+04  0.50400001928E-02 0.  1.
    10030    2    1    2    0    0  0.00000000000E+00  0.00000000000E+00 -0.62498057300E+03  0.25768189597E+04  0.24998790439E+04 0.  0.
        3    1    3    3  502    0  0.16300404892E+03  0.12052796320E+04 -0.60959655484E+03  0.13604695076E+04  0.10100000352E+00 0. -1.
       -3    1    3    3    0  502 -0.16300404892E+03 -0.12052796320E+04 -0.15384018162E+02  0.12163494520E+04  0.10100000352E+00 0.  1.
</event>
<event>
 5   0  0.8997210E-07  0.2499493E+04  0.7818609E-02  0.8403166E-01
       -2   -1    0    0    0  501  0.00000000000E+00  0.00000000000E+00  0.68142784508E+03  0.68142784509E+03  0.25500000920E-02 0.  1.
        2   -1    0    0  501    0  0.00000000000E+00  0.00000000000E+00 -0.22920492636E+04  0.22920492636E+04  0.25500000920E-02 0. -1.
    10030    2    1    2    0    0  0.00000000000E+00  0.00000000000E+00 -0.16106214185E+04  0.29734771087E+04  0.24994929010E+04 0.  0.
        1    1    3    3  502    0 -0.54540428477E+03  0.11195135533E+04 -0.93058841079E+03  0.15545968031E+04  0.50400001928E-02 0.  1.
       -1    1    3    3    0  502  0.54540428477E+03 -0.11195135533E+04 -0.68003300775E+03  0.14188803056E+04  0.50400001928E-02 0. -1.
</event>
<event>
 5   0  0.3991066E-07  0.2499332E+04  0.7818609E-02  0.8403224E-01
       -1   -1    0    0    0  501  0.00000000000E+00  0.00000000000E+00  0.12088931802E+04  0.12088931802E+04  0.50400001928E-02 0. -1.
        1   -1    0    0  501    0  0.00000000000E+00  0.00000000000E+00 -0.12918135486E+04  0.12918135486E+04  0.50400001928E-02 0.  1.
    10030    2    1    2    0    0  0.00000000000E+00  0.00000000000E+00 -0.82920368396E+02  0.25007067288E+04  0.24993315818E+04 0.  0.
        1    1    3    3  502    0  0.11763775495E+03 -0.12311578290E+04 -0.22065743492E+03  0.12562953255E+04  0.50400001928E-02 0.  1.
       -1    1    3    3    0  502 -0.11763775495E+03  0.12311578290E+04  0.13773706653E+03  0.12444114033E+04  0.50400001928E-02 0. -1.
</event>
<event>
 5   0  0.3972587E-07  0.2500320E+04  0.7818609E-02  0.8402871E-01
        1   -1    0    0  501    0  0.00000000000E+00  0.00000000000E+00  0.14873414901E+04  0.14873414901E+04  0.50400001928E-02 0. -1.
       -1   -1    0    0    0  501  0.00000000000E+00  0.00000000000E+00 -0.10508014184E+04  0.10508014184E+04  0.50400001928E-02 0.  1.
    10030    2    1    2    0    0  0.00000000000E+00  0.00000000000E+00  0.43654007167E+03  0.25381429085E+04  0.25003204174E+04 0.  0.
        3    1    3    3  502    0  0.66635198431E+03  0.10444921686E+04  0.48674900150E+02  0.12399024613E+04  0.10100000352E+00 0.  1.
       -3    1    3    3    0  502 -0.66635198431E+03 -0.10444921686E+04  0.38786517152E+03  0.12982404472E+04  0.10100000352E+00 0. -1.
</event>
<event>
 5   0  0.9261602E-07  0.2500346E+04  0.7818609E-02  0.8402862E-01
        2   -1    0    0  501    0  0.00000000000E+00  0.00000000000E+00  0.12530990648E+04  0.12530990648E+04  0.25500000920E-02 0.  1.
       -2   -1    0    0    0  501  0.00000000000E+00  0.00000000000E+00 -0.12472538160E+04  0.12472538160E+04  0.25500000920E-02 0. -1.
    10030    2    1    2    0    0  0.00000000000E+00  0.00000000000E+00  0.58452487953E+01  0.25003528807E+04  0.25003460483E+04 0.  0.
        4    1    3    3  502    0  0.70190505158E+03 -0.50434300646E+03 -0.90035079316E+03  0.12480647953E+04  0.12699999809E+01 0. -1.
       -4    1    3    3    0  502 -0.70190505158E+03  0.50434300646E+03  0.90619604195E+03  0.12522880854E+04  0.12699999809E+01 0.  1.
</event>
<event>
 5   0  0.9251138E-07  0.2499835E+04  0.7818609E-02  0.8403044E-01
       -2   -1    0    0    0  501  0.00000000000E+00  0.00000000000E+00  0.71236632871E+03  0.71236632871E+03  0.25500000920E-02 0.  1.
        2   -1    0    0  501    0  0.00000000000E+00  0.00000000000E+00 -0.21931043693E+04  0.21931043693E+04  0.25500000920E-02 0. -1.
    10030    2    1    2    0    0  0.00000000000E+00  0.00000000000E+00 -0.14807380406E+04  0.29054706980E+04  0.24998349610E+04 0.  0.
        5    1    3    3  502    0 -0.17166390545E+03 -0.12371837787E+04 -0.68610954942E+03  0.14250826652E+04  0.46999998093E+01 0. -1.
       -5    1    3    3    0  502  0.17166390545E+03  0.12371837787E+04 -0.79462849119E+03  0.14803880328E+04  0.46999998093E+01 0.  1.
</event>
<event>
 5   0  0.8997210E-07  0.2500814E+04  0.7818609E-02  0.8402696E-01
        2   -1    0    0  501    0  0.00000000000E+00  0.00000000000E+00  0.18974835893E+04  0.18974835893E+04  0.25500000920E-02 0.  1.
       -2   -1    0    0    0  501  0.00000000000E+00  0.00000000000E+00 -0.82399541445E+03  0.82399541446E+03  0.25500000920E-02 0. -1.
    10030    2    1    2    0    0  0.00000000000E+00  0.00000000000E+00  0.10734881748E+04  0.27214790037E+04  0.25008140887E+04 0.  0.
        1    1    3    3  502    0 -0.81704830927E+02 -0.80370998780E+03  0.15753651097E+04  0.17704238625E+04  0.50400001928E-02 0.  1.
       -1    1    3    3    0  502  0.81704830927E+02  0.80370998780E+03 -0.50187693490E+03  0.95105514125E+03  0.50400001928E-02 0. -1.
</event>
<event>
 5   0  0.9251138E-07  0.2501040E+04  0.7818609E-02  0.8402615E-01
       -2   -1    0    0    0  501  0.00000000000E+00  0.00000000000E+00  0.81456952939E+03  0.81456952940E+03  0.25500000920E-02 0. -1.
        2   -1    0    0  501    0  0.00000000000E+00  0.00000000000E+00 -0.19197872788E+04  0.19197872788E+04  0.25500000920E-02 0.  1.
    10030    2    1    2    0    0  0.00000000000E+00  0.00000000000E+00 -0.11052177494E+04  0.27343568082E+04  0.25010399599E+04 0.  0.
        5    1    3    3  502    0 -0.22212723732E+03  0.87238662938E+03  0.39633683030E+03  0.98361776810E+03  0.46999998093E+01 0. -1.
       -5    1    3    3    0  502  0.22212723732E+03 -0.87238662938E+03 -0.15015545797E+04  0.17507390401E+04  0.46999998093E+01 0.  1.
</event>
<event>
 5   0  0.9261602E-07  0.2506242E+04  0.7818609E-02  0.8400765E-01
        2   -1    0    0  501    0  0.00000000000E+00  0.00000000000E+00  0.99655602805E+03  0.99655602805E+03  0.25500000920E-02 0. -1.
       -2   -1    0    0    0  501  0.00000000000E+00  0.00000000000E+00 -0.15757395186E+04  0.15757395186E+04  0.25500000920E-02 0.  1.
    10030    2    1    2    0    0  0.00000000000E+00  0.00000000000E+00 -0.57918349051E+03  0.25722955466E+04  0.25062423792E+04 0.  0.
        4    1    3    3  502    0 -0.10953976512E+04 -0.39736346116E+03  0.18355407870E+03  0.11796132617E+04  0.12699999809E+01 0. -1.
       -4    1    3    3    0  502  0.10953976512E+04  0.39736346116E+03 -0.76273756921E+03  0.13926822849E+04  0.12699999809E+01 0.  1.
</event>
<event>
 5   0  0.3972587E-07  0.2490844E+04  0.7818609E-02  0.8406255E-01
       -1   -1    0    0    0  501  0.00000000000E+00  0.00000000000E+00  0.86252460273E+03  0.86252460274E+03  0.50400001928E-02 0. -1.
        1   -1    0    0  501    0  0.00000000000E+00  0.00000000000E+00 -0.17982973092E+04  0.17982973092E+04  0.50400001928E-02 0.  1.
    10030    2    1    2    0    0  0.00000000000E+00  0.00000000000E+00 -0.93577270645E+03  0.26608219119E+04  0.24908437705E+04 0.  0.
        3    1    3    3  502    0 -0.55887764010E+03  0.52208441190E+03  0.58212426675E+03  0.96113735849E+03  0.10100000352E+00 0. -1.
       -3    1    3    3    0  502  0.55887764010E+03 -0.52208441190E+03 -0.15178969732E+04  0.16996845534E+04  0.10100000352E+00 0.  1.
</event>
<event>
 5   0  0.3972587E-07  0.2499851E+04  0.7818609E-02  0.8403039E-01
       -1   -1    0    0    0  501  0.00000000000E+00  0.00000000000E+00  0.13381098807E+04  0.13381098807E+04  0.50400001928E-02 0. -1.
        1   -1    0    0  501    0  0.00000000000E+00  0.00000000000E+00 -0.11675529554E+04  0.11675529554E+04  0.50400001928E-02 0.  1.
    10030    2    1    2    0    0  0.00000000000E+00  0.00000000000E+00  0.17055692531E+03  0.25056628360E+04  0.24998513122E+04 0.  0.
        3    1    3    3  502    0 -0.80014270277E+01  0.12414485753E+04 -0.60164169330E+02  0.12429313438E+04  0.10100000352E+00 0.  1.
       -3    1    3    3    0  502  0.80014270277E+01 -0.12414485753E+04  0.23072109464E+03  0.12627314923E+04  0.10100000352E+00 0. -1.
</event>
<event>
 5   0  0.9768582E-07  0.2504409E+04  0.7818609E-02  0.8401417E-01
       -2   -1    0    0    0  501  0.00000000000E+00  0.00000000000E+00  0.88012890958E+03  0.88012890959E+03  0.25500000920E-02 0.  1.
        2   -1    0    0  501    0  0.00000000000E+00  0.00000000000E+00 -0.17815752915E+04  0.17815752915E+04  0.25500000920E-02 0. -1.
    10030    2    1    2    0    0  0.00000000000E+00  0.00000000000E+00 -0.90144638193E+03  0.26617042011E+04  0.25044088473E+04 0.  0.
        3    1    3    3  502    0  0.70935398318E+03 -0.10250378494E+04 -0.57705984353E+03  0.13736388679E+04  0.10100000352E+00 0. -1.
       -3    1    3    3    0  502 -0.70935398318E+03  0.10250378494E+04 -0.32438653839E+03  0.12880653332E+04  0.10100000352E+00 0.  1.
</event>
<event>
 5   0  0.9261602E-07  0.2500627E+04  0.7818609E-02  0.8402762E-01
       -2   -1    0    0    0  501  0.00000000000E+00  0.00000000000E+00  0.10438842539E+04  0.10438842539E+04  0.25500000920E-02 0.  1.
        2   -1    0    0  501    0  0.00000000000E+00  0.00000000000E+00 -0.14975645931E+04  0.14975645931E+04  0.25500000920E-02 0. -1.
    10030    2    1    2    0    0  0.00000000000E+00  0.00000000000E+00 -0.45368033921E+03  0.25414488470E+04  0.25006271997E+04 0.  0.
        4    1    3    3  502    0 -0.72340431800E+03 -0.69068129127E+03  0.53569321052E+03  0.11346026979E+04  0.12699999809E+01 0.  1.
       -4    1    3    3    0  502  0.72340431800E+03  0.69068129127E+03 -0.98937354973E+03  0.14068461491E+04  0.12699999809E+01 0. -1.
</event>
<event>
 5   0  0.3873231E-07  0.2500151E+04  0.7818609E-02  0.8402932E-01
        1   -1    0    0  501    0  0.00000000000E+00  0.00000000000E+00  0.19464352786E+04  0.19464352786E+04  0.50400001928E-02 0. -1.
       -1   -1    0    0    0  501  0.00000000000E+00  0.00000000000E+00 -0.80284639283E+03  0.80284639284E+03  0.50400001928E-02 0.  1.
    10030    2    1    2    0    0  0.00000000000E+00  0.00000000000E+00  0.11435888858E+04  0.27492816715E+04  0.25001508293E+04 0.  0.
        2    1    3    3  502    0 -0.57413630154E+03  0.13468315333E+03  0.17838603677E+04  0.18788107557E+04  0.25500000920E-02 0. -1.
       -2    1    3    3    0  502  0.57413630154E+03 -0.13468315333E+03 -0.64027148190E+03  0.87047091570E+03  0.25500000920E-02 0.  1.
</event>
<event>
 5   0  0.3991066E-07  0.2513806E+04  0.7818609E-02  0.8398084E-01
       -1   -1    0    0    0  501  0.00000000000E+00  0.00000000000E+00  0.10248950690E+04  0.10248950690E+04  0.50400001928E-02 0. -1.
        1   -1    0    0  501    0  0.00000000000E+00  0.00000000000E+00 -0.15414309785E+04  0.15414309785E+04  0.50400001928E-02 0.  1.
    10030    2    1    2    0    0  0.00000000000E+00  0.00000000000E+00 -0.51653590952E+03  0.25663260476E+04  0.25138058868E+04 0.  0.
        1    1    3    3  502    0  0.67446274667E+03 -0.10478088449E+04 -0.42602282645E+03  0.13169277963E+04  0.50400001928E-02 0.  1.
       -1    1    3    3    0  502 -0.67446274667E+03  0.10478088449E+04 -0.90513083063E+02  0.12493982513E+04  0.50400001928E-02 0. -1.
</event>
<event>
 5   0  0.3873231E-07  0.2499746E+04  0.7818609E-02  0.8403076E-01
        1   -1    0    0  501    0  0.00000000000E+00  0.00000000000E+00  0.21448380960E+04  0.21448380960E+04  0.50400001928E-02 0.  1.
       -1   -1    0    0    0  501  0.00000000000E+00  0.00000000000E+00 -0.72834503499E+03  0.72834503501E+03  0.50400001928E-02 0. -1.
    10030    2    1    2    0    0  0.00000000000E+00  0.00000000000E+00  0.14164930610E+04  0.28731831310E+04  0.24997457296E+04 0.  0.
        2    1    3    3  502    0 -0.73603131073E+03  0.88628901499E+03  0.12653533059E+04  0.17112478772E+04  0.25500000920E-02 0.  1.
       -2    1    3    3    0  502  0.73603131073E+03 -0.88628901499E+03  0.15113975511E+03  0.11619352538E+04  0.25500000920E-02 0. -1.
</event>
<event>
 5   0  0.9261602E-07  0.2498004E+04  0.7818609E-02  0.8403697E-01
        2   -1    0    0  501    0  0.00000000000E+00  0.00000000000E+00  0.97531485225E+03  0.97531485225E+03  0.25500000920E-02 0.  1.
       -2   -1    0    0    0  501  0.00000000000E+00  0.00000000000E+00 -0.15994890248E+04  0.15994890248E+04  0.25500000920E-02 0. -1.
    10030    2    1    2    0    0  0.00000000000E+00  0.00000000000E+00 -0.62417417258E+03  0.25748038771E+04  0.24980035244E+04 0.  0.
        4    1    3    3  502    0 -0.74199305376E+03 -0.94195471462E+03 -0.67236356197E+03  0.13747387929E+04  0.12699999809E+01 0. -1.
       -4    1    3    3    0  502  0.74199305376E+03  0.94195471462E+03  0.48189389387E+02  0.12000650842E+04  0.12699999809E+01 0.  1.
</event>
<event>
 5   0  0.9261602E-07  0.2498579E+04  0.7818609E-02  0.8403492E-01
       -2   -1    0    0    0  501  0.00000000000E+00  0.00000000000E+00  0.12493036462E+04  0.12493036462E+04  0.25500000920E-02 0. -1.
        2   -1    0    0  501    0  0.00000000000E+00  0.00000000000E+00 -0.12492752208E+04  0.12492752208E+04  0.25500000920E-02 0.  1.
    10030    2    1    2    0    0  0.00000000000E+00  0.00000000000E+00  0.28425417710E-01  0.24985788670E+04  0.24985788669E+04 0.  0.
        4    1    3    3  502    0 -0.10753439474E+04 -0.13352945464E+03 -0.62169935090E+03  0.12492823605E+04  0.12699999809E+01 0.  1.
       -4    1    3    3    0  502  0.10753439474E+04  0.13352945464E+03  0.62172777632E+03  0.12492965065E+04  0.12699999809E+01 0. -1.
</event>
<event>
 5   0  0.9251138E-07  0.2499901E+04  0.7818609E-02  0.8403021E-01
        2   -1    0    0  501    0  0.00000000000E+00  0.00000000000E+00  0.96519851896E+03  0.96519851897E+03  0.25500000920E-02 0. -1.
       -2   -1    0    0    0  501  0.00000000000E+00  0.00000000000E+00 -0.16187099061E+04  0.16187099061E+04  0.25500000920E-02 0.  1.
    10030    2    1    2    0    0  0.00000000000E+00  0.00000000000E+00 -0.65351138713E+03  0.25839084251E+04  0.24999011213E+04 0.  0.
        5    1    3    3  502    0  0.45159642103E+03  0.11418571586E+04 -0.56822391057E+03  0.13530253511E+04  0.46999998093E+01 0.  1.
       -5    1    3    3    0  502 -0.45159642103E+03 -0.11418571586E+04 -0.85287476565E+02  0.12308830740E+04  0.46999998093E+01 0. -1.
</event>
<event>
 5   0  0.3972587E-07  0.2511994E+04  0.7818609E-02  0.8398725E-01
       -1   -1    0    0    0  501  0.00000000000E+00  0.00000000000E+00  0.81357875136E+03  0.81357875137E+03  0.50400001928E-02 0. -1.
        1   -1    0    0  501    0  0.00000000000E+00  0.00000000000E+00 -0.19389993541E+04  0.19389993541E+04  0.50400001928E-02 0.  1.
    10030    2    1    2    0    0  0.00000000000E+00  0.00000000000E+00 -0.11254206028E+04  0.27525781055E+04  0.25119941667E+04 0.  0.
        3    1    3    3  502    0 -0.55394153244E+03 -0.38514001628E+03 -0.17235817691E+04  0.18509236015E+04  0.10100000352E+00 0.  1.
       -3    1    3    3    0  502  0.55394153244E+03  0.38514001628E+03  0.59816116634E+03  0.90165450402E+03  0.10100000352E+00 0. -1.
</event>
<event>
 5   0  0.3873231E-07  0.2497652E+04  0.7818609E-02  0.8403823E-01
        1   -1    0    0  501    0  0.00000000000E+00  0.00000000000E+00  0.21349980284E+04  0.21349980284E+04  0.50400001928E-02 0. -1.
       -1   -1    0    0    0  501  0.00000000000E+00  0.00000000000E+00 -0.73047671327E+03  0.73047671329E+03  0.50400001928E-02 0.  1.
    10030    2    1    2    0    0  0.00000000000E+00  0.00000000000E+00  0.14045213151E+04  0.28654747417E+04  0.24976519715E+04 0.  0.
        2    1    3    3  502    0  0.11066415423E+02  0.79025282985E+03  0.18115824401E+04  0.19764748766E+04  0.25500000920E-02 0. -1.
       -2    1    3    3    0  502 -0.11066415423E+02 -0.79025282985E+03 -0.40706112496E+03  0.88899986507E+03  0.25500000920E-02 0.  1.
</event>
<event>
 5   0  0.8997210E-07  0.2499741E+04  0.7818609E-02  0.8403078E-01
       -2   -1    0    0    0  501  0.00000000000E+00  0.00000000000E+00  0.62295223013E+03  0.62295223013E+03  0.25500000920E-02 0.  1.
        2   -1    0    0  501    0  0.00000000000E+00  0.00000000000E+00 -0.25076983646E+04  0.25076983646E+04  0.25500000920E-02 0. -1.
    10030    2    1    2    0    0  0.00000000000E+00  0.00000000000E+00 -0.18847461345E+04  0.31306505948E+04  0.24997410176E+04 0.  0.
        1    1    3    3  502    0  0.82195841503E+03 -0.53327406026E+03 -0.19142304565E+04  0.21504127743E+04  0.50400001928E-02 0. -1.
       -1    1    3    3    0  502 -0.82195841503E+03  0.53327406026E+03  0.29484321977E+02  0.98023782045E+03  0.50400001928E-02 0.  1.
</event>
<event>
 5   0  0.3805418E-07  0.2502180E+04  0.7818609E-02  0.8402209E-01
       -1   -1    0    0    0  501  0.00000000000E+00  0.00000000000E+00  0.95498621341E+03  0.95498621342E+03  0.50400001928E-02 0. -1.
        1   -1    0    0  501    0  0.00000000000E+00  0.00000000000E+00 -0.16390043010E+04  0.16390043010E+04  0.50400001928E-02 0.  1.
    10030    2    1    2    0    0  0.00000000000E+00  0.00000000000E+00 -0.68401808755E+03  0.25939905144E+04  0.25021802582E+04 0.  0.
        4    1    3    3  502    0 -0.56613370057E+03 -0.10506908802E+04 -0.73096371586E+03  0.13995600235E+04  0.12699999809E+01 0.  1.
       -4    1    3    3    0  502  0.56613370057E+03  0.10506908802E+04  0.46945628312E+02  0.11944304909E+04  0.12699999809E+01 0. -1.
</event>
<event>
 5   0  0.9261602E-07  0.2499881E+04  0.7818609E-02  0.8403028E-01
        2   -1    0    0  501    0  0.00000000000E+00  0.00000000000E+00  0.88337297963E+03  0.88337297963E+03  0.25500000920E-02 0.  1.
       -2   -1    0    0    0  501  0.00000000000E+00  0.00000000000E+00 -0.17686201925E+04  0.17686201925E+04  0.25500000920E-02 0. -1.
    10030    2    1    2    0    0  0.00000000000E+00  0.00000000000E+00 -0.88524721285E+03  0.26519931721E+04  0.24998810286E+04 0.  0.
        4    1    3    3  502    0  0.30125727458E+03  0.27803256508E+03  0.81002676067E+03  0.90785627641E+03  0.12699999809E+01 0.  1.
       -4    1    3    3    0  502 -0.30125727458E+03 -0.27803256508E+03 -0.16952739735E+04  0.17441368957E+04  0.12699999809E+01 0. -1.
</event>
<event>
 5   0  0.3214375E-07  0.2499831E+04  0.7818609E-02  0.8403046E-01
       -3   -1    0    0    0  501  0.00000000000E+00  0.00000000000E+00  0.11127882251E+04  0.11127882297E+04  0.10100000352E+00 0. -1.
        3   -1    0    0  501    0  0.00000000000E+00  0.00000000000E+00 -0.14039405565E+04  0.14039405601E+04  0.10100000352E+00 0.  1.
    10030    2    1    2    0    0  0.00000000000E+00  0.00000000000E+00 -0.29115233136E+03  0.25167287898E+04  0.24998308185E+04 0.  0.
        5    1    3    3  502    0  0.51525135116E+03  0.87816602906E+02 -0.12886233889E+04  0.13905998845E+04  0.46999998093E+01 0.  1.
       -5    1    3    3    0  502 -0.51525135116E+03 -0.87816602906E+02  0.99747105749E+03  0.11261289052E+04  0.46999998093E+01 0. -1.
</event>
<event>
 5   0  0.9508784E-07  0.2498339E+04  0.7818609E-02  0.8403577E-01
        2   -1    0    0  501    0  0.00000000000E+00  0.00000000000E+00  0.10070823053E+04  0.10070823053E+04  0.25500000920E-02 0.  1.
       -2   -1    0    0    0  501  0.00000000000E+00  0.00000000000E+00 -0.15494511439E+04  0.15494511439E+04  0.25500000920E-02 0. -1.
    10030    2    1    2    0    0  0.00000000000E+00  0.00000000000E+00 -0.54236883857E+03  0.25565334492E+04  0.24983393124E+04 0.  0.
        2    1    3    3  502    0  0.60797003055E+03  0.80843441374E+03  0.47884900657E+03  0.11191470549E+04  0.25500000920E-02 0.  1.
       -2    1    3    3    0  502 -0.60797003055E+03 -0.80843441374E+03 -0.10212178451E+04  0.14373863943E+04  0.25500000920E-02 0. -1.
</event>
<event>
 5   0  0.3805418E-07  0.2491841E+04  0.7818609E-02  0.8405898E-01
        1   -1    0    0  501    0  0.00000000000E+00  0.00000000000E+00  0.15965873511E+04  0.15965873511E+04  0.50400001928E-02 0.  1.
       -1   -1    0    0    0  501  0.00000000000E+00  0.00000000000E+00 -0.97227259435E+03  0.97227259436E+03  0.50400001928E-02 0. -1.
    10030    2    1    2    0    0  0.00000000000E+00  0.00000000000E+00  0.62431475671E+03  0.25688599454E+04  0.24918411875E+04 0.  0.
        4    1    3    3  502    0 -0.56283791409E+03 -0.98589766577E+03 -0.21706703173E+03  0.11558115911E+04  0.12699999809E+01 0. -1.
       -4    1    3    3    0  502  0.56283791409E+03  0.98589766577E+03  0.84138178844E+03  0.14130483544E+04  0.12699999809E+01 0.  1.
</event>
<event>
 5   0  0.9261602E-07  0.2499852E+04  0.7818609E-02  0.8403038E-01
        2   -1    0    0  501    0  0.00000000000E+00  0.00000000000E+00  0.26467837946E+04  0.26467837946E+04  0.25500000920E-02 0. -1.
       -2   -1    0    0    0  501  0.00000000000E+00  0.00000000000E+00 -0.59026920087E+03  0.59026920087E+03  0.25500000920E-02 0.  1.
    10030    2    1    2    0    0  0.00000000000E+00  0.00000000000E+00  0.20565145938E+04  0.32370529955E+04  0.24998519599E+04 0.  0.
        4    1    3    3  502    0 -0.75799790638E+03  0.49557062970E+03 -0.87282206298E+02  0.90981914221E+03  0.12699999809E+01 0.  1.
       -4    1    3    3    0  502  0.75799790638E+03 -0.49557062970E+03  0.21437968001E+04  0.23272338533E+04  0.12699999809E+01 0. -1.
</event>
<event>
 5   0  0.3972587E-07  0.2501283E+04  0.7818609E-02  0.8402528E-01
        1   -1    0    0  501    0  0.00000000000E+00  0.00000000000E+00  0.14883272108E+04  0.14883272108E+04  0.50400001928E-02 0. -1.
       -1   -1    0    0    0  501  0.00000000000E+00  0.00000000000E+00 -0.10509145562E+04  0.10509145562E+04  0.50400001928E-02 0.  1.
    10030    2    1    2    0    0  0.00000000000E+00  0.00000000000E+00  0.43741265460E+03  0.25392417670E+04  0.25012834547E+04 0.  0.
        3    1    3    3  502    0  0.39000034891E+03  0.94011058252E+03 -0.51909412788E+03  0.11425265438E+04  0.10100000352E+00 0.  1.
       -3    1    3    3    0  502 -0.39000034891E+03 -0.94011058252E+03  0.95650678248E+03  0.13967152232E+04  0.10100000352E+00 0. -1.
</event>
<event>
 5   0  0.9251138E-07  0.2501075E+04  0.7818609E-02  0.8402603E-01
        2   -1    0    0  501    0  0.00000000000E+00  0.00000000000E+00  0.86467052459E+03  0.86467052459E+03  0.25500000920E-02 0.  1.
       -2   -1    0    0    0  501  0.00000000000E+00  0.00000000000E+00 -0.18086009237E+04  0.18086009237E+04  0.25500000920E-02 0. -1.
    10030    2    1    2    0    0  0.00000000000E+00  0.00000000000E+00 -0.94393039911E+03  0.26732714483E+04  0.25010748965E+04 0.  0.
        5    1    3    3  502    0  0.35497584160E+03 -0.21689335936E+03  0.78853875847E+03  0.89155260139E+03  0.46999998093E+01 0.  1.
       -5    1    3    3    0  502 -0.35497584160E+03  0.21689335936E+03 -0.17324691576E+04  0.17817188469E+04  0.46999998093E+01 0. -1.
</event>
<event>
 5   0  0.9251138E-07  0.2499391E+04  0.7818609E-02  0.8403203E-01
        2   -1    0    0  501    0  0.00000000000E+00  0.00000000000E+00  0.11444331743E+04  0.11444331743E+04  0.25500000920E-02 0. -1.
       -2   -1    0    0    0  501  0.00000000000E+00  0.00000000000E+00 -0.13646390887E+04  0.13646390887E+04  0.25500000920E-02 0.  1.
    10030    2    1    2    0    0  0.00000000000E+00  0.00000000000E+00 -0.22020591442E+03  0.25090722630E+04  0.24993905210E+04 0.  0.
        5    1    3    3  502    0 -0.36647763910E+03  0.11945543928E+04 -0.88805293459E+02  0.12526669659E+04  0.46999998093E+01 0. -1.
       -5    1    3    3    0  502  0.36647763910E+03 -0.11945543928E+04 -0.13140062096E+03  0.12564052971E+04  0.46999998093E+01 0.  1.
</event>
<event>
 5   0  0.8997210E-07  0.2499838E+04  0.7818609E-02  0.8403043E-01
       -2   -1    0    0    0  501  0.00000000000E+00  0.00000000000E+00  0.28254906522E+04  0.28254906522E+04  0.25500000920E-02 0.  1.
        2   -1    0    0  501    0  0.00000000000E+00  0.00000000000E+00 -0.55292979098E+03  0.55292979099E+03  0.25500000920E-02 0. -1.
    10030    2    1    2    0    0  0.00000000000E+00  0.00000000000E+00  0.22725608613E+04  0.33784204432E+04  0.24998383594E+04 0.  0.
        1    1    3    3  502    0 -0.86941033982E+03  0.86974086785E+03  0.83416303337E+03  0.14859850209E+04  0.50400001928E-02 0.  1.
       -1    1    3    3    0  502  0.86941033982E+03 -0.86974086785E+03  0.14383978279E+04  0.18924354223E+04  0.50400001928E-02 0. -1.
</event>
<event>
 5   0  0.3873231E-07  0.2495660E+04  0.7818609E-02  0.8404533E-01
       -1   -1    0    0    0  501  0.00000000000E+00  0.00000000000E+00  0.77110874142E+03  0.77110874144E+03  0.50400001928E-02 0.  1.
        1   -1    0    0  501    0  0.00000000000E+00  0.00000000000E+00 -0.20192741669E+04  0.20192741669E+04  0.50400001928E-02 0. -1.
    10030    2    1    2    0    0  0.00000000000E+00  0.00000000000E+00 -0.12481654254E+04  0.27903829083E+04  0.24956602024E+04 0.  0.
        2    1    3    3  502    0 -0.32829007419E+03  0.11709502815E+04 -0.93671154941E+03  0.15350333747E+04  0.25500000920E-02 0. -1.
       -2    1    3    3    0  502  0.32829007419E+03 -0.11709502815E+04 -0.31145387604E+03  0.12553495336E+04  0.25500000920E-02 0.  1.
</event>
<event>
 5   0  0.3972587E-07  0.2501531E+04  0.7818609E-02  0.8402440E-01
        1   -1    0    0  501    0  0.00000000000E+00  0.00000000000E+00  0.20004883642E+04  0.20004883643E+04  0.50400001928E-02 0.  1.
       -1   -1    0    0    0  501  0.00000000000E+00  0.00000000000E+00 -0.78201643583E+03  0.78201643584E+03  0.50400001928E-02 0. -1.
    10030    2    1    2    0    0  0.00000000000E+00  0.00000000000E+00  0.12184719284E+04  0.27825048001E+04  0.25015313554E+04 0.  0.
        3    1    3    3  502    0 -0.11937893861E+04  0.36204841582E+03  0.50849498298E+03  0.13471374509E+04  0.10100000352E+00 0. -1.
       -3    1    3    3    0  502  0.11937893861E+04 -0.36204841582E+03  0.70997694544E+03  0.14353673492E+04  0.10100000352E+00 0.  1.
</event>
<event>
 5   0  0.3972587E-07  0.2501328E+04  0.7818609E-02  0.8402513E-01
        1   -1    0    0  501    0  0.00000000000E+00  0.00000000000E+00  0.15976268122E+04  0.15976268122E+04  0.50400001928E-02 0. -1.
       -1   -1    0    0    0  501  0.00000000000E+00  0.00000000000E+00 -0.97905258846E+03  0.97905258848E+03  0.50400001928E-02 0.  1.
    10030    2    1    2    0    0  0.00000000000E+00  0.00000000000E+00  0.61857422369E+03  0.25766794006E+04  0.25013281799E+04 0.  0.
        3    1    3    3  502    0 -0.38133647023E+03 -0.11482266197E+04  0.63555988544E+03  0.13666668401E+04  0.10100000352E+00 0. -1.
       -3    1    3    3    0  502  0.38133647023E+03  0.11482266197E+04 -0.16985661743E+02  0.12100125605E+04  0.10100000352E+00 0.  1.
</event>
<event>
 5   0  0.9261602E-07  0.2500486E+04  0.7818609E-02  0.8402812E-01
       -2   -1    0    0    0  501  0.00000000000E+00  0.00000000000E+00  0.98391167664E+03  0.98391167665E+03  0.25500000920E-02 0. -1.
        2   -1    0    0  501    0  0.00000000000E+00  0.00000000000E+00 -0.15886668714E+04  0.15886668714E+04  0.25500000920E-02 0.  1.
    10030    2    1    2    0    0  0.00000000000E+00  0.00000000000E+00 -0.60475519472E+03  0.25725785480E+04  0.25004862607E+04 0.  0.
        4    1    3    3  502    0  0.34479382821E+03 -0.72385324074E+02 -0.15365394874E+04  0.15764128991E+04  0.12699999809E+01 0.  1.
       -4    1    3    3    0  502 -0.34479382821E+03  0.72385324074E+02  0.93178429269E+03  0.99616564893E+03  0.12699999809E+01 0. -1.
</event>
<event>
 5   0  0.3837524E-07  0.2490895E+04  0.7818609E-02  0.8406236E-01
       -1   -1    0    0    0  501  0.00000000000E+00  0.00000000000E+00  0.99442287392E+03  0.99442287393E+03  0.50400001928E-02 0.  1.
        1   -1    0    0  501    0  0.00000000000E+00  0.00000000000E+00 -0.15598388431E+04  0.15598388431E+04  0.50400001928E-02 0. -1.
    10030    2    1    2    0    0  0.00000000000E+00  0.00000000000E+00 -0.56541596919E+03  0.25542617170E+04  0.24908949598E+04 0.  0.
        5    1    3    3  502    0  0.77523579648E+03 -0.96168850623E+03 -0.44575610534E+03  0.13132234839E+04  0.46999998093E+01 0. -1.
       -5    1    3    3    0  502 -0.77523579648E+03  0.96168850623E+03 -0.11965986385E+03  0.12410382332E+04  0.46999998093E+01 0.  1.
</event>
<event>
 5   0  0.3805418E-07  0.2500827E+04  0.7818609E-02  0.8402691E-01
       -1   -1    0    0    0  501  0.00000000000E+00  0.00000000000E+00  0.10174458742E+04  0.10174458742E+04  0.50400001928E-02 0. -1.
        1   -1    0    0  501    0  0.00000000000E+00  0.00000000000E+00 -0.15367243501E+04  0.15367243502E+04  0.50400001928E-02 0.  1.
    10030    2    1    2    0    0  0.00000000000E+00  0.00000000000E+00 -0.51927847593E+03  0.25541702244E+04  0.25008269432E+04 0.  0.
        4    1    3    3  502    0 -0.77486870796E+03 -0.64738769910E+03 -0.10129351382E+04  0.14302347900E+04  0.12699999809E+01 0.  1.
       -4    1    3    3    0  502  0.77486870796E+03  0.64738769910E+03  0.49365666226E+03  0.11239354344E+04  0.12699999809E+01 0. -1.
</event>
<event>
 5   0  0.3873231E-07  0.2491881E+04  0.7818609E-02  0.8405884E-01
       -1   -1    0    0    0  501  0.00000000000E+00  0.00000000000E+00  0.78479438592E+03  0.78479438594E+03  0.50400001928E-02 0. -1.
        1   -1    0    0  501    0  0.00000000000E+00  0.00000000000E+00 -0.19780568293E+04  0.19780568293E+04  0.50400001928E-02 0.  1.
    10030    2    1    2    0    0  0.00000000000E+00  0.00000000000E+00 -0.11932624433E+04  0.27628512152E+04  0.24918811325E+04 0.  0.
        2    1    3    3  502    0  0.91706243984E+03 -0.15033904756E+03  0.32353214193E+03  0.98401137933E+03  0.25500000920E-02 0. -1.
       -2    1    3    3    0  502 -0.91706243984E+03  0.15033904756E+03 -0.15167945853E+04  0.17788398359E+04  0.25500000920E-02 0.  1.
</event>
<event>
 5   0  0.9768582E-07  0.2501905E+04  0.7818609E-02  0.8402307E-01
        2   -1    0    0  501    0  0.00000000000E+00  0.00000000000E+00  0.86897347286E+03  0.86897347286E+03  0.25500000920E-02 0. -1.
       -2   -1    0    0    0  501  0.00000000000E+00  0.00000000000E+00 -0.18008396353E+04  0.18008396353E+04  0.25500000920E-02 0.  1.
    10030    2    1    2    0    0  0.00000000000E+00  0.00000000000E+00 -0.93186616239E+03  0.26698131081E+04  0.25019047719E+04 0.  0.
        3    1    3    3  502    0  0.67825831831E+03 -0.48756968982E+03  0.52775599788E+03  0.98807132956E+03  0.10100000352E+00 0. -1.
       -3    1    3    3    0  502 -0.67825831831E+03  0.48756968982E+03 -0.14596221603E+04  0.16817417786E+04  0.10100000352E+00 0.  1.
</event>
<event>
 5   0  0.9261602E-07  0.2500047E+04  0.7818609E-02  0.8402969E-01
       -2   -1    0    0    0  501  0.00000000000E+00  0.00000000000E+00  0.56492151628E+03  0.56492151629E+03  0.25500000920E-02 0.  1.
        2   -1    0    0  501    0  0.00000000000E+00  0.00000000000E+00 -0.27659754921E+04  0.27659754921E+04  0.25500000920E-02 0. -1.
    10030    2    1    2    0    0  0.00000000000E+00  0.00000000000E+00 -0.22010539758E+04  0.33308970084E+04  0.25000472548E+04 0.  0.
        4    1    3    3  502    0  0.60067422264E+03  0.61093958514E+03 -0.23132439216E+04  0.24668108465E+04  0.12699999809E+01 0. -1.
       -4    1    3    3    0  502 -0.60067422264E+03 -0.61093958514E+03  0.11218994577E+03  0.86408616195E+03  0.12699999809E+01 0.  1.
</event>
<event>
 5   0  0.8997210E-07  0.2498768E+04  0.7818609E-02  0.8403424E-01
       -2   -1    0    0    0  501  0.00000000000E+00  0.00000000000E+00  0.24249375170E+04  0.24249375170E+04  0.25500000920E-02 0.  1.
        2   -1    0    0  501    0  0.00000000000E+00  0.00000000000E+00 -0.64371174467E+03  0.64371174468E+03  0.25500000920E-02 0. -1.
    10030    2    1    2    0    0  0.00000000000E+00  0.00000000000E+00  0.17812257723E+04  0.30686492617E+04  0.24987683044E+04 0.  0.
        1    1    3    3  502    0 -0.10382312952E+04  0.12186164762E+03  0.50320160968E+02  0.10465689668E+04  0.50400001928E-02 0. -1.
       -1    1    3    3    0  502  0.10382312952E+04 -0.12186164762E+03  0.17309056114E+04  0.20220802949E+04  0.50400001928E-02 0.  1.
</event>
<event>
 5   0  0.9768582E-07  0.2499630E+04  0.7818609E-02  0.8403118E-01
        2   -1    0    0  501    0  0.00000000000E+00  0.00000000000E+00  0.15569508906E+04  0.15569508906E+04  0.25500000920E-02 0. -1.
       -2   -1    0    0    0  501  0.00000000000E+00  0.00000000000E+00 -0.10032667194E+04  0.10032667195E+04  0.25500000920E-02 0.  1.
    10030    2    1    2    0    0  0.00000000000E+00  0.00000000000E+00  0.55368417119E+03  0.25602176101E+04  0.24996295825E+04 0.  0.
        3    1    3    3  502    0 -0.64758596226E+03  0.68717303875E+03 -0.56182290787E+03  0.10987353429E+04  0.10100000352E+00 0.  1.
       -3    1    3    3    0  502  0.64758596226E+03 -0.68717303875E+03  0.11155070791E+04  0.14614822672E+04  0.10100000352E+00 0. -1.
</event>
<event>
 5   0  0.3837524E-07  0.2502056E+04  0.7818609E-02  0.8402253E-01
        1   -1    0    0  501    0  0.00000000000E+00  0.00000000000E+00  0.17380718062E+04  0.17380718062E+04  0.50400001928E-02 0. -1.
       -1   -1    0    0    0  501  0.00000000000E+00  0.00000000000E+00 -0.90046420627E+03  0.90046420628E+03  0.50400001928E-02 0.  1.
    10030    2    1    2    0    0  0.00000000000E+00  0.00000000000E+00  0.83760759990E+03  0.26385360125E+04  0.25020563138E+04 0.  0.
        5    1    3    3  502    0 -0.35780340594E+03 -0.24221061160E+03  0.16568797650E+04  0.17122972591E+04  0.46999998093E+01 0. -1.
       -5    1    3    3    0  502  0.35780340594E+03  0.24221061160E+03 -0.81927216514E+03  0.92623875337E+03  0.46999998093E+01 0.  1.
</event>
<event>
 5   0  0.3805418E-07  0.2499575E+04  0.7818609E-02  0.8403137E-01
        1   -1    0    0  501    0  0.00000000000E+00  0.00000000000E+00  0.85842372905E+03  0.85842372906E+03  0.50400001928E-02 0.  1.
       -1   -1    0    0    0  501  0.00000000000E+00  0.00000000000E+00 -0.18195775661E+04  0.18195775661E+04  0.50400001928E-02 0. -1.
    10030    2    1    2    0    0  0.00000000000E+00  0.00000000000E+00 -0.96115383705E+03  0.26780012952E+04  0.24995748115E+04 0.  0.
        4    1    3    3  502    0 -0.11184005409E+03 -0.82097882466E+03 -0.14830228126E+04  0.16987856556E+04  0.12699999809E+01 0. -1.
       -4    1    3    3    0  502  0.11184005409E+03  0.82097882466E+03  0.52186897551E+03  0.97921563955E+03  0.12699999809E+01 0.  1.
</event>
<event>
 5   0  0.3837524E-07  0.2499953E+04  0.7818609E-02  0.8403002E-01
       -1   -1    0    0    0  501  0.00000000000E+00  0.00000000000E+00  0.10250999346E+04  0.10250999346E+04  0.50400001928E-02 0.  1.
        1   -1    0    0  501    0  0.00000000000E+00  0.00000000000E+00 -0.15241846827E+04  0.15241846827E+04  0.50400001928E-02 0. -1.
    10030    2    1    2    0    0  0.00000000000E+00  0.00000000000E+00 -0.49908474808E+03  0.25492846173E+04  0.24999532945E+04 0.  0.
        5    1    3    3  502    0 -0.30718748969E+03  0.46587100633E+03  0.89101853815E+03  0.10513496439E+04  0.46999998093E+01 0.  1.
       -5    1    3    3    0  502  0.30718748969E+03 -0.46587100633E+03 -0.13901032862E+04  0.14979349735E+04  0.46999998093E+01 0. -1.
</event>
<event>
 5   0  0.3991066E-07  0.2499626E+04  0.7818609E-02  0.8403119E-01
       -1   -1    0    0    0  501  0.00000000000E+00  0.00000000000E+00  0.12539350467E+04  0.12539350467E+04  0.50400001928E-02 0. -1.
        1   -1    0    0  501    0  0.00000000000E+00  0.00000000000E+00 -0.12457042140E+04  0.12457042140E+04  0.50400001928E-02 0.  1.
    10030    2    1    2    0    0  0.00000000000E+00  0.00000000000E+00  0.82308327552E+01  0.24996392607E+04  0.24996257094E+04 0.  0.
        1    1    3    3  502    0  0.84310402024E+03  0.85041364063E+03 -0.35366358037E+03  0.12486415327E+04  0.50400001928E-02 0.  1.
       -1    1    3    3    0  502 -0.84310402024E+03 -0.85041364063E+03  0.36189441313E+03  0.12509977280E+04  0.50400001928E-02 0. -1.
</event>
<event>
 5   0  0.9261602E-07  0.2498932E+04  0.7818609E-02  0.8403366E-01
        2   -1    0    0  501    0  0.00000000000E+00  0.00000000000E+00  0.23776970165E+04  0.23776970165E+04  0.25500000920E-02 0. -1.
       -2   -1    0    0    0  501  0.00000000000E+00  0.00000000000E+00 -0.65658722438E+03  0.65658722439E+03  0.25500000920E-02 0.  1.
    10030    2    1    2    0    0  0.00000000000E+00  0.00000000000E+00  0.17211097921E+04  0.30342842409E+04  0.24989321595E+04 0.  0.
        4    1    3    3  502    0 -0.98450945357E+03  0.32308210750E+03  0.17083664520E+04  0.19980386532E+04  0.12699999809E+01 0. -1.
       -4    1    3    3    0  502  0.98450945357E+03 -0.32308210750E+03  0.12743340067E+02  0.10362455877E+04  0.12699999809E+01 0.  1.
</event>
<event>
 5   0  0.8997210E-07  0.2499323E+04  0.7818609E-02  0.8403227E-01
       -2   -1    0    0    0  501  0.00000000000E+00  0.00000000000E+00  0.11874437875E+04  0.11874437875E+04  0.25500000920E-02 0.  1.
        2   -1    0    0  501    0  0.00000000000E+00  0.00000000000E+00 -0.13151391205E+04  0.13151391205E+04  0.25500000920E-02 0. -1.
    10030    2    1    2    0    0  0.00000000000E+00  0.00000000000E+00 -0.12769533294E+03  0.25025829080E+04  0.24993229310E+04 0.  0.
        1    1    3    3  502    0 -0.13505200864E+02 -0.58510857627E+03 -0.11694252160E+04  0.13077040079E+04  0.50400001928E-02 0. -1.
       -1    1    3    3    0  502  0.13505200864E+02  0.58510857627E+03  0.10417298831E+04  0.11948789001E+04  0.50400001928E-02 0.  1.
</event>
<event>
 5   0  0.9508784E-07  0.2498455E+04  0.7818609E-02  0.8403536E-01
        2   -1    0    0  501    0  0.00000000000E+00  0.00000000000E+00  0.11592603395E+04  0.11592603395E+04  0.25500000920E-02 0.  1.
       -2   -1    0    0    0  501  0.00000000000E+00  0.00000000000E+00 -0.13461765014E+04  0.13461765014E+04  0.25500000920E-02 0. -1.
    10030    2    1    2    0    0  0.00000000000E+00  0.00000000000E+00 -0.18691616194E+03  0.25054368409E+04  0.24984547448E+04 0.  0.
        2    1    3    3  502    0  0.10953757837E+04 -0.27206071837E+03 -0.63040179386E+03  0.12927766875E+04  0.25500000920E-02 0. -1.
       -2    1    3    3    0  502 -0.10953757837E+04  0.27206071837E+03  0.44348563192E+03  0.12126601534E+04  0.25500000920E-02 0.  1.
</event>
<event>
 5   0  0.3972587E-07  0.2500833E+04  0.7818609E-02  0.8402689E-01
        1   -1    0    0  501    0  0.00000000000E+00  0.00000000000E+00  0.14409100388E+04  0.14409100389E+04  0.50400001928E-02 0.  1.
       -1   -1    0    0    0  501  0.00000000000E+00  0.00000000000E+00 -0.10851065332E+04  0.10851065332E+04  0.50400001928E-02 0. -1.
    10030    2    1    2    0    0  0.00000000000E+00  0.00000000000E+00  0.35580350567E+03  0.25260165720E+04  0.25008325789E+04 0.  0.
        3    1    3    3  502    0  0.26456401041E+03 -0.10321720931E+04  0.83883629160E+03  0.13561045976E+04  0.10100000352E+00 0.  1.
       -3    1    3    3    0  502 -0.26456401041E+03  0.10321720931E+04 -0.48303278593E+03  0.11699119744E+04  0.10100000352E+00 0. -1.
</event>
<event>
 5   0  0.9768582E-07  0.2498871E+04  0.7818609E-02  0.8403388E-01
        2   -1    0    0  501    0  0.00000000000E+00  0.00000000000E+00  0.27251020911E+04  0.27251020911E+04  0.25500000920E-02 0.  1.
       -2   -1    0    0    0  501  0.00000000000E+00  0.00000000000E+00 -0.57285508484E+03  0.57285508484E+03  0.25500000920E-02 0. -1.
    10030    2    1    2    0    0  0.00000000000E+00  0.00000000000E+00  0.21522470063E+04  0.32979571760E+04  0.24988706166E+04 0.  0.
        3    1    3    3  502    0 -0.65263785637E+03  0.59185366285E+03 -0.93100698234E+02  0.88594281983E+03  0.10100000352E+00 0. -1.
       -3    1    3    3    0  502  0.65263785637E+03 -0.59185366285E+03  0.22453477045E+04  0.24120143561E+04  0.10100000352E+00 0.  1.
</event>
<event>
 5   0  0.9251138E-07  0.2500261E+04  0.7818609E-02  0.8402893E-01
        2   -1    0    0  501    0  0.00000000000E+00  0.00000000000E+00  0.12293138911E+04  0.12293138911E+04  0.25500000920E-02 0. -1.
       -2   -1    0    0    0  501  0.00000000000E+00  0.00000000000E+00 -0.12712992555E+04  0.12712992555E+04  0.25500000920E-02 0.  1.
    10030    2    1    2    0    0  0.00000000000E+00  0.00000000000E+00 -0.41985364451E+02  0.25006131466E+04  0.25002606541E+04 0.  0.
        5    1    3    3  502    0  0.42550710197E+03 -0.77173804804E+03 -0.90777874611E+03  0.12651957360E+04  0.46999998093E+01 0.  1.
       -5    1    3    3    0  502 -0.42550710197E+03  0.77173804804E+03  0.86579338166E+03  0.12354174106E+04  0.46999998093E+01 0. -1.
</event>
<event>
 5   0  0.8997210E-07  0.2500887E+04  0.7818609E-02  0.8402670E-01
        2   -1    0    0  501    0  0.00000000000E+00  0.00000000000E+00  0.81727185830E+03  0.81727185830E+03  0.25500000920E-02 0. -1.
       -2   -1    0    0    0  501  0.00000000000E+00  0.00000000000E+00 -0.19132055317E+04  0.19132055317E+04  0.25500000920E-02 0.  1.
    10030    2    1    2    0    0  0.00000000000E+00  0.00000000000E+00 -0.10959336734E+04  0.27304773900E+04  0.25008870748E+04 0.  0.
        1    1    3    3  502    0  0.16767501882E+03  0.81778305388E+03 -0.15644148368E+04  0.17732111597E+04  0.50400001928E-02 0.  1.
       -1    1    3    3    0  502 -0.16767501882E+03 -0.81778305388E+03  0.46848116344E+03  0.95726623030E+03  0.50400001928E-02 0. -1.
</event>
<event>
 5   0  0.3972587E-07  0.2499921E+04  0.7818609E-02  0.8403014E-01
        1   -1    0    0  501    0  0.00000000000E+00  0.00000000000E+00  0.13715813925E+04  0.13715813925E+04  0.50400001928E-02 0. -1.
       -1   -1    0    0    0  501  0.00000000000E+00  0.00000000000E+00 -0.11391242830E+04  0.11391242830E+04  0.50400001928E-02 0.  1.
    10030    2    1    2    0    0  0.00000000000E+00  0.00000000000E+00  0.23245710955E+03  0.25107056755E+04  0.24999213350E+04 0.  0.
        3    1    3    3  502    0 -0.11746404837E+04  0.37294987824E+03  0.32576651411E+03  0.12747531955E+04  0.10100000352E+00 0. -1.
       -3    1    3    3    0  502  0.11746404837E+04 -0.37294987824E+03 -0.93309404567E+02  0.12359524800E+04  0.10100000352E+00 0.  1.
</event>
<event>
 5   0  0.3805418E-07  0.2499894E+04  0.7818609E-02  0.8403023E-01
        1   -1    0    0  501    0  0.00000000000E+00  0.00000000000E+00  0.22663844198E+04  0.22663844198E+04  0.50400001928E-02 0. -1.
       -1   -1    0    0    0  501  0.00000000000E+00  0.00000000000E+00 -0.68936540861E+03  0.68936540863E+03  0.50400001928E-02 0.  1.
    10030    2    1    2    0    0  0.00000000000E+00  0.00000000000E+00  0.15770190112E+04  0.29557498284E+04  0.24998936151E+04 0.  0.
        4    1    3    3  502    0  0.37250923949E+03 -0.72435580461E+03 -0.33248756983E+03  0.87977500656E+03  0.12699999809E+01 0.  1.
       -4    1    3    3    0  502 -0.37250923949E+03  0.72435580461E+03  0.19095065810E+04  0.20759748219E+04  0.12699999809E+01 0. -1.
</event>
<event>
 5   0  0.3972587E-07  0.2499419E+04  0.7818609E-02  0.8403193E-01
       -1   -1    0    0    0  501  0.00000000000E+00  0.00000000000E+00  0.95653894062E+03  0.95653894063E+03  0.50400001928E-02 0. -1.
        1   -1    0    0  501    0  0.00000000000E+00  0.00000000000E+00 -0.16327337440E+04  0.16327337440E+04  0.50400001928E-02 0.  1.
    10030    2    1    2    0    0  0.00000000000E+00  0.00000000000E+00 -0.67619480340E+03  0.25892726847E+04  0.24994186571E+04 0.  0.
        3    1    3    3  502    0 -0.10228217431E+02  0.98727046516E+03 -0.11317769402E+04  0.15019076671E+04  0.10100000352E+00 0.  1.
       -3    1    3    3    0  502  0.10228217431E+02 -0.98727046516E+03  0.45558213684E+03  0.10873650176E+04  0.10100000352E+00 0. -1.
</event>
<event>
 5   0  0.9261602E-07  0.2499151E+04  0.7818609E-02  0.8403288E-01
       -2   -1    0    0    0  501  0.00000000000E+00  0.00000000000E+00  0.11573165423E+04  0.11573165423E+04  0.25500000920E-02 0.  1.
        2   -1    0    0  501    0  0.00000000000E+00  0.00000000000E+00 -0.13491895164E+04  0.13491895164E+04  0.25500000920E-02 0. -1.
    10030    2    1    2    0    0  0.00000000000E+00  0.00000000000E+00 -0.19187297408E+03  0.25065060586E+04  0.24991513327E+04 0.  0.
        4    1    3    3  502    0 -0.12023906995E+04 -0.29338318134E+03  0.76676504224E+02  0.12400395093E+04  0.12699999809E+01 0.  1.
       -4    1    3    3    0  502  0.12023906995E+04  0.29338318134E+03 -0.26854947830E+03  0.12664665493E+04  0.12699999809E+01 0. -1.
</event>
<event>
 5   0  0.9251138E-07  0.2498628E+04  0.7818609E-02  0.8403474E-01
        2   -1    0    0  501    0  0.00000000000E+00  0.00000000000E+00  0.13625408284E+04  0.13625408284E+04  0.25500000920E-02 0.  1.
       -2   -1    0    0    0  501  0.00000000000E+00  0.00000000000E+00 -0.11454967162E+04  0.11454967162E+04  0.25500000920E-02 0. -1.
    10030    2    1    2    0    0  0.00000000000E+00  0.00000000000E+00  0.21704411225E+03  0.25080375446E+04  0.24986284595E+04 0.  0.
        5    1    3    3  502    0  0.93704699148E+03 -0.38519601457E+03  0.84225413101E+03  0.13175155199E+04  0.46999998093E+01 0.  1.
       -5    1    3    3    0  502 -0.93704699148E+03  0.38519601457E+03 -0.62521001876E+03  0.11905220248E+04  0.46999998093E+01 0. -1.
</event>
<event>
 5   0  0.9508784E-07  0.2500548E+04  0.7818609E-02  0.8402790E-01
        2   -1    0    0  501    0  0.00000000000E+00  0.00000000000E+00  0.99895796655E+03  0.99895796655E+03  0.25500000920E-02 0.  1.
       -2   -1    0    0    0  501  0.00000000000E+00  0.00000000000E+00 -0.15648160321E+04  0.15648160321E+04  0.25500000920E-02 0. -1.
    10030    2    1    2    0    0  0.00000000000E+00  0.00000000000E+00 -0.56585806551E+03  0.25637739986E+04  0.25005482930E+04 0.  0.
        2    1    3    3  502    0  0.14151450738E+03 -0.66574865626E+03  0.79236827430E+03  0.10445549824E+04  0.25500000920E-02 0.  1.
       -2    1    3    3    0  502 -0.14151450738E+03  0.66574865626E+03 -0.13582263398E+04  0.15192190162E+04  0.25500000920E-02 0. -1.
</event>
<event>
 5   0  0.9768582E-07  0.2499720E+04  0.7818609E-02  0.8403085E-01
       -2   -1    0    0    0  501  0.00000000000E+00  0.00000000000E+00  0.13259044846E+04  0.13259044846E+04  0.25500000920E-02 0. -1.
        2   -1    0    0  501    0  0.00000000000E+00  0.00000000000E+00 -0.11781766829E+04  0.11781766829E+04  0.25500000920E-02 0.  1.
    10030    2    1    2    0    0  0.00000000000E+00  0.00000000000E+00  0.14772780174E+03  0.25040811675E+04  0.24997197823E+04 0.  0.
        3    1    3    3  502    0  0.78431079140E+03  0.72736418980E+03 -0.57375277243E+03  0.12138345588E+04  0.10100000352E+00 0.  1.
       -3    1    3    3    0  502 -0.78431079140E+03 -0.72736418980E+03  0.72148057417E+03  0.12902466087E+04  0.10100000352E+00 0. -1.
</event>
<event>
 5   0  0.9508784E-07  0.2500137E+04  0.7818609E-02  0.8402937E-01
        2   -1    0    0  501    0  0.00000000000E+00  0.00000000000E+00  0.13270297843E+04  0.13270297843E+04  0.25500000920E-02 0.  1.
       -2   -1    0    0    0  501  0.00000000000E+00  0.00000000000E+00 -0.11775706271E+04  0.11775706271E+04  0.25500000920E-02 0. -1.
    10030    2    1    2    0    0  0.00000000000E+00  0.00000000000E+00  0.14945915722E+03  0.25046004114E+04  0.25001370325E+04 0.  0.
        2    1    3    3  502    0  0.35910412589E+03 -0.96717739062E+03  0.78188170503E+03  0.12944986979E+04  0.25500000920E-02 0.  1.
       -2    1    3    3    0  502 -0.35910412589E+03  0.96717739062E+03 -0.63242254780E+03  0.12101017136E+04  0.25500000920E-02 0. -1.
</event>
<event>
 5   0  0.9768582E-07  0.2499796E+04  0.7818609E-02  0.8403058E-01
       -2   -1    0    0    0  501  0.00000000000E+00  0.00000000000E+00  0.13496598701E+04  0.13496598701E+04  0.25500000920E-02 0.  1.
        2   -1    0    0  501    0  0.00000000000E+00  0.00000000000E+00 -0.11575097183E+04  0.11575097183E+04  0.25500000920E-02 0. -1.
    10030    2    1    2    0    0  0.00000000000E+00  0.00000000000E+00  0.19215015182E+03  0.25071695884E+04  0.24997955244E+04 0.  0.
        3    1    3    3  502    0  0.40514879067E+03 -0.84373490548E+03 -0.73474662672E+03  0.11899103954E+04  0.10100000352E+00 0. -1.
       -3    1    3    3    0  502 -0.40514879067E+03  0.84373490548E+03  0.92689677853E+03  0.13172591930E+04  0.10100000352E+00 0.  1.
</event>
<event>
 5   0  0.9768582E-07  0.2498969E+04  0.7818609E-02  0.8403353E-01
       -2   -1    0    0    0  501  0.00000000000E+00  0.00000000000E+00  0.10282618645E+04  0.10282618646E+04  0.25500000920E-02 0. -1.
        2   -1    0    0  501    0  0.00000000000E+00  0.00000000000E+00 -0.15183018772E+04  0.15183018772E+04  0.25500000920E-02 0.  1.
    10030    2    1    2    0    0  0.00000000000E+00  0.00000000000E+00 -0.49004001266E+03  0.25465637418E+04  0.24989693229E+04 0.  0.
        3    1    3    3  502    0  0.84118079112E+03 -0.68644827178E+03  0.38515532951E+03  0.11520160551E+04  0.10100000352E+00 0. -1.
       -3    1    3    3    0  502 -0.84118079112E+03  0.68644827178E+03 -0.87519534217E+03  0.13945476866E+04  0.10100000352E+00 0.  1.
</event>
<event>
 5   0  0.9261602E-07  0.2498705E+04  0.7818609E-02  0.8403447E-01
       -2   -1    0    0    0  501  0.00000000000E+00  0.00000000000E+00  0.12440895960E+04  0.12440895960E+04  0.25500000920E-02 0. -1.
        2   -1    0    0  501    0  0.00000000000E+00  0.00000000000E+00 -0.12546377626E+04  0.12546377626E+04  0.25500000920E-02 0.  1.
    10030    2    1    2    0    0  0.00000000000E+00  0.00000000000E+00 -0.10548166533E+02  0.24987273586E+04  0.24987050944E+04 0.  0.
        4    1    3    3  502    0  0.10070238901E+04 -0.57239739546E+03 -0.47340674191E+03  0.12513398618E+04  0.12699999809E+01 0.  1.
       -4    1    3    3    0  502 -0.10070238901E+04  0.57239739546E+03  0.46285857537E+03  0.12473874968E+04  0.12699999809E+01 0. -1.
</event>
<event>
 5   0  0.3837524E-07  0.2503332E+04  0.7818609E-02  0.8401799E-01
        1   -1    0    0  501    0  0.00000000000E+00  0.00000000000E+00  0.18317602831E+04  0.18317602831E+04  0.50400001928E-02 0. -1.
       -1   -1    0    0    0  501  0.00000000000E+00  0.00000000000E+00 -0.85528005693E+03  0.85528005694E+03  0.50400001928E-02 0.  1.
    10030    2    1    2    0    0  0.00000000000E+00  0.00000000000E+00  0.97648022622E+03  0.26870403401E+04  0.25033322107E+04 0.  0.
        5    1    3    3  502    0  0.44397762844E+03  0.66487245942E+03 -0.54548881760E+03  0.96785931931E+03  0.46999998093E+01 0.  1.
       -5    1    3    3    0  502 -0.44397762844E+03 -0.66487245942E+03  0.15219690438E+04  0.17191810208E+04  0.46999998093E+01 0. -1.
</event>
<event>
 5   0  0.3873231E-07  0.2501244E+04  0.7818609E-02  0.8402542E-01
        1   -1    0    0  501    0  0.00000000000E+00  0.00000000000E+00  0.16549121322E+04  0.16549121322E+04  0.50400001928E-02 0.  1.
       -1   -1    0    0    0  501  0.00000000000E+00  0.00000000000E+00 -0.94509881929E+03  0.94509881930E+03  0.50400001928E-02 0. -1.
    10030    2    1    2    0    0  0.00000000000E+00  0.00000000000E+00  0.70981331293E+03  0.26000109515E+04  0.25012440922E+04 0.  0.
        2    1    3    3  502    0  0.11576150163E+04  0.46222686027E+03  0.24926026392E+03  0.12711635911E+04  0.25500000920E-02 0.  1.
       -2    1    3    3    0  502 -0.11576150163E+04 -0.46222686027E+03  0.46055304901E+03  0.13288473604E+04  0.25500000920E-02 0. -1.
</event>
<event>
 5   0  0.3873231E-07  0.2499774E+04  0.7818609E-02  0.8403066E-01
       -1   -1    0    0    0  501  0.00000000000E+00  0.00000000000E+00  0.11905362379E+04  0.11905362379E+04  0.50400001928E-02 0. -1.
        1   -1    0    0  501    0  0.00000000000E+00  0.00000000000E+00 -0.13121968076E+04  0.13121968076E+04  0.50400001928E-02 0.  1.
    10030    2    1    2    0    0  0.00000000000E+00  0.00000000000E+00 -0.12166056973E+03  0.25027330456E+04  0.24997742704E+04 0.  0.
        2    1    3    3  502    0 -0.84074253578E+03 -0.32258694850E+03  0.80697561108E+03  0.12091815363E+04  0.25500000920E-02 0. -1.
       -2    1    3    3    0  502  0.84074253578E+03  0.32258694850E+03 -0.92863618081E+03  0.12935515093E+04  0.25500000920E-02 0.  1.
</event>
<event>
 5   0  0.3972587E-07  0.2493252E+04  0.7818609E-02  0.8405393E-01
        1   -1    0    0  501    0  0.00000000000E+00  0.00000000000E+00  0.18960334431E+04  0.18960334431E+04  0.50400001928E-02 0.  1.
       -1   -1    0    0    0  501  0.00000000000E+00  0.00000000000E+00 -0.81964629853E+03  0.81964629854E+03  0.50400001928E-02 0. -1.
    10030    2    1    2    0    0  0.00000000000E+00  0.00000000000E+00  0.10763871446E+04  0.27156797417E+04  0.24932523286E+04 0.  0.
        3    1    3    3  502    0 -0.86203185733E+03 -0.57805718161E+03 -0.21393672389E+03  0.10597254174E+04  0.10100000352E+00 0. -1.
       -3    1    3    3    0  502  0.86203185733E+03  0.57805718161E+03  0.12903238685E+04  0.16559543243E+04  0.10100000352E+00 0.  1.
</event>
<event>
 5   0  0.8997210E-07  0.2500542E+04  0.7818609E-02  0.8402793E-01
       -2   -1    0    0    0  501  0.00000000000E+00  0.00000000000E+00  0.92842387828E+03  0.92842387828E+03  0.25500000920E-02 0. -1.
        2   -1    0    0  501    0  0.00000000000E+00  0.00000000000E+00 -0.16836891238E+04  0.16836891238E+04  0.25500000920E-02 0.  1.
    10030    2    1    2    0    0  0.00000000000E+00  0.00000000000E+00 -0.75526524548E+03  0.26121130020E+04  0.25005416902E+04 0.  0.
        1    1    3    3  502    0  0.40113109532E+02  0.14383778901E+03  0.91907511785E+03  0.93112697490E+03  0.50400001928E-02 0. -1.
       -1    1    3    3    0  502 -0.40113109532E+02 -0.14383778901E+03 -0.16743403633E+04  0.16809860271E+04  0.50400001928E-02 0.  1.
</event>
<event>
 5   0  0.3972587E-07  0.2497977E+04  0.7818609E-02  0.8403706E-01
        1   -1    0    0  501    0  0.00000000000E+00  0.00000000000E+00  0.13319520923E+04  0.13319520923E+04  0.50400001928E-02 0.  1.
       -1   -1    0    0    0  501  0.00000000000E+00  0.00000000000E+00 -0.11711928880E+04  0.11711928880E+04  0.50400001928E-02 0. -1.
    10030    2    1    2    0    0  0.00000000000E+00  0.00000000000E+00  0.16075920429E+03  0.25031449803E+04  0.24979774360E+04 0.  0.
        3    1    3    3  502    0  0.62751545719E+03 -0.19391948547E+02  0.11623451968E+04  0.13210594473E+04  0.10100000352E+00 0.  1.
       -3    1    3    3    0  502 -0.62751545719E+03  0.19391948547E+02 -0.10015859925E+04  0.11820855330E+04  0.10100000352E+00 0. -1.
</event>
<event>
 5   0  0.9768582E-07  0.2507071E+04  0.7818609E-02  0.8400471E-01
       -2   -1    0    0    0  501  0.00000000000E+00  0.00000000000E+00  0.10253155303E+04  0.10253155303E+04  0.25500000920E-02 0.  1.
        2   -1    0    0  501    0  0.00000000000E+00  0.00000000000E+00 -0.15325534588E+04  0.15325534588E+04  0.25500000920E-02 0. -1.
    10030    2    1    2    0    0  0.00000000000E+00  0.00000000000E+00 -0.50723792851E+03  0.25578689892E+04  0.25070706910E+04 0.  0.
        3    1    3    3  502    0  0.69674286487E+03 -0.66361489803E+03  0.56610013513E+03  0.11163801887E+04  0.10100000352E+00 0.  1.
       -3    1    3    3    0  502 -0.69674286487E+03  0.66361489803E+03 -0.10733380636E+04  0.14414888004E+04  0.10100000352E+00 0. -1.
</event>
<event>
 5   0  0.3991066E-07  0.2501027E+04  0.7818609E-02  0.8402620E-01
        1   -1    0    0  501    0  0.00000000000E+00  0.00000000000E+00  0.20606307873E+04  0.20606307873E+04  0.50400001928E-02 0.  1.
       -1   -1    0    0    0  501  0.00000000000E+00  0.00000000000E+00 -0.75888616262E+03  0.75888616264E+03  0.50400001928E-02 0. -1.
    10030    2    1    2    0    0  0.00000000000E+00  0.00000000000E+00  0.13017446247E+04  0.28195169499E+04  0.25010271416E+04 0.  0.
        1    1    3    3  502    0  0.95155119120E+03 -0.60758885556E+03  0.44648277665E+02  0.11298705039E+04  0.50400001928E-02 0. -1.
       -1    1    3    3    0  502 -0.95155119120E+03  0.60758885556E+03  0.12570963470E+04  0.16896464460E+04  0.50400001928E-02 0.  1.
</event>
<event>
 5   0  0.9261602E-07  0.2501139E+04  0.7818609E-02  0.8402580E-01
        2   -1    0    0  501    0  0.00000000000E+00  0.00000000000E+00  0.19316150336E+04  0.19316150336E+04  0.25500000920E-02 0.  1.
       -2   -1    0    0    0  501  0.00000000000E+00  0.00000000000E+00 -0.80964574485E+03  0.80964574486E+03  0.25500000920E-02 0. -1.
    10030    2    1    2    0    0  0.00000000000E+00  0.00000000000E+00  0.11219692887E+04  0.27412607784E+04  0.25011388547E+04 0.  0.
        4    1    3    3  502    0 -0.43593462948E+03  0.11568036292E+04  0.76803575315E+03  0.14553742367E+04  0.12699999809E+01 0.  1.
       -4    1    3    3    0  502  0.43593462948E+03 -0.11568036292E+04  0.35393353559E+03  0.12858865418E+04  0.12699999809E+01 0. -1.
</event>
<event>
 5   0  0.9261602E-07  0.2502803E+04  0.7818609E-02  0.8401988E-01
        2   -1    0    0  501    0  0.00000000000E+00  0.00000000000E+00  0.18754356451E+04  0.18754356451E+04  0.25500000920E-02 0.  1.
       -2   -1    0    0    0  501  0.00000000000E+00  0.00000000000E+00 -0.83500917545E+03  0.83500917546E+03  0.25500000920E-02 0. -1.
    10030    2    1    2    0    0  0.00000000000E+00  0.00000000000E+00  0.10404264696E+04  0.27104448205E+04  0.25028032057E+04 0.  0.
        4    1    3    3  502    0  0.39525140420E+03  0.37946391846E+03 -0.69819920394E+03  0.88752480484E+03  0.12699999809E+01 0. -1.
       -4    1    3    3    0  502 -0.39525140420E+03 -0.37946391846E+03  0.17386256736E+04  0.18229200157E+04  0.12699999809E+01 0.  1.
</event>
<event>
 5   0  0.3837524E-07  0.2499739E+04  0.7818609E-02  0.8403079E-01
        1   -1    0    0  501    0  0.00000000000E+00  0.00000000000E+00  0.13659907020E+04  0.13659907020E+04  0.50400001928E-02 0. -1.
       -1   -1    0    0    0  501  0.00000000000E+00  0.00000000000E+00 -0.11436193835E+04  0.11436193835E+04  0.50400001928E-02 0.  1.
    10030    2    1    2    0    0  0.00000000000E+00  0.00000000000E+00  0.22237131855E+03  0.25096100855E+04  0.24997387419E+04 0.  0.
        5    1    3    3  502    0  0.28621697863E+03  0.10997048999E+04  0.63370258610E+03  0.13011041785E+04  0.46999998093E+01 0. -1.
       -5    1    3    3    0  502 -0.28621697863E+03 -0.10997048999E+04 -0.41133126755E+03  0.12085059070E+04  0.46999998093E+01 0.  1.
</event>
<event>
 5   0  0.3972587E-07  0.2497402E+04  0.7818609E-02  0.8403912E-01
        1   -1    0    0  501    0  0.00000000000E+00  0.00000000000E+00  0.14543503095E+04  0.14543503095E+04  0.50400001928E-02 0.  1.
       -1   -1    0    0    0  501  0.00000000000E+00  0.00000000000E+00 -0.10721311800E+04  0.10721311801E+04  0.50400001928E-02 0. -1.
    10030    2    1    2    0    0  0.00000000000E+00  0.00000000000E+00  0.38221912942E+03  0.25264814895E+04  0.24974021010E+04 0.  0.
        3    1    3    3  502    0  0.11542973825E+04  0.15351398395E+03 -0.26501204577E+03  0.11942363188E+04  0.10100000352E+00 0. -1.
       -3    1    3    3    0  502 -0.11542973825E+04 -0.15351398395E+03  0.64723117519E+03  0.13322451707E+04  0.10100000352E+00 0.  1.
</event>
<event>
 5   0  0.3873231E-07  0.2500471E+04  0.7818609E-02  0.8402818E-01
        1   -1    0    0  501    0  0.00000000000E+00  0.00000000000E+00  0.11038334315E+04  0.11038334315E+04  0.50400001928E-02 0. -1.
       -1   -1    0    0    0  501  0.00000000000E+00  0.00000000000E+00 -0.14160546196E+04  0.14160546196E+04  0.50400001928E-02 0.  1.
    10030    2    1    2    0    0  0.00000000000E+00  0.00000000000E+00 -0.31222118814E+03  0.25198880511E+04  0.25004706997E+04 0.  0.
        2    1    3    3  502    0  0.93097912494E+03 -0.83294140121E+03 -0.10497286522E+03  0.12536079177E+04  0.25500000920E-02 0. -1.
       -2    1    3    3    0  502 -0.93097912494E+03  0.83294140121E+03 -0.20724832293E+03  0.12662801334E+04  0.25500000920E-02 0.  1.
</event>
<event>
 5   0  0.9261602E-07  0.2500709E+04  0.7818609E-02  0.8402733E-01
       -2   -1    0    0    0  501  0.00000000000E+00  0.00000000000E+00  0.90234496565E+03  0.90234496565E+03  0.25500000920E-02 0.  1.
        2   -1    0    0  501    0  0.00000000000E+00  0.00000000000E+00 -0.17325818594E+04  0.17325818594E+04  0.25500000920E-02 0. -1.
    10030    2    1    2    0    0  0.00000000000E+00  0.00000000000E+00 -0.83023689376E+03  0.26349268251E+04  0.25007091142E+04 0.  0.
        4    1    3    3  502    0 -0.39059105886E+03  0.78776015005E+03 -0.13517950850E+04  0.16126000725E+04  0.12699999809E+01 0. -1.
       -4    1    3    3    0  502  0.39059105886E+03 -0.78776015005E+03  0.52155819120E+03  0.10223267525E+04  0.12699999809E+01 0.  1.
</event>
<event>
 5   0  0.3972587E-07  0.2499844E+04  0.7818609E-02  0.8403041E-01
       -1   -1    0    0    0  501  0.00000000000E+00  0.00000000000E+00  0.11404496461E+04  0.11404496461E+04  0.50400001928E-02 0. -1.
        1   -1    0    0  501    0  0.00000000000E+00  0.00000000000E+00 -0.13699029172E+04  0.13699029172E+04  0.50400001928E-02 0.  1.
    10030    2    1    2    0    0  0.00000000000E+00  0.00000000000E+00 -0.22945327113E+03  0.25103525634E+04  0.24998442329E+04 0.  0.
        3    1    3    3  502    0  0.56713742124E+02 -0.90272421645E+03 -0.98101031906E+03  0.13343570421E+04  0.10100000352E+00 0. -1.
       -3    1    3    3    0  502 -0.56713742124E+02  0.90272421645E+03  0.75155704793E+03  0.11759955213E+04  0.10100000352E+00 0.  1.
</event>
<event>
 5   0  0.9508784E-07  0.2498885E+04  0.7818609E-02  0.8403383E-01
       -2   -1    0    0    0  501  0.00000000000E+00  0.00000000000E+00  0.14637815881E+04  0.14637815881E+04  0.25500000920E-02 0. -1.
        2   -1    0    0  501    0  0.00000000000E+00  0.00000000000E+00 -0.10664883231E+04  0.10664883231E+04  0.25500000920E-02 0.  1.
    10030    2    1    2    0    0  0.00000000000E+00  0.00000000000E+00  0.39729326500E+03  0.25302699111E+04  0.24988845281E+04 0.  0.
        2    1    3    3  502    0  0.10725888606E+04  0.32446243691E+03  0.75820224755E+03  0.13529942295E+04  0.25500000920E-02 0. -1.
       -2    1    3    3    0  502 -0.10725888606E+04 -0.32446243691E+03 -0.36090898255E+03  0.11772756816E+04  0.25500000920E-02 0.  1.
</event>
<event>
 5   0  0.9261602E-07  0.2500531E+04  0.7818609E-02  0.8402796E-01
       -2   -1    0    0    0  501  0.00000000000E+00  0.00000000000E+00  0.92531458959E+03  0.92531458959E+03  0.25500000920E-02 0. -1.
        2   -1    0    0  501    0  0.00000000000E+00  0.00000000000E+00 -0.16893320392E+04  0.16893320392E+04  0.25500000920E-02 0.  1.
    10030    2    1    2    0    0  0.00000000000E+00  0.00000000000E+00 -0.76401744965E+03  0.26146466288E+04  0.25005308097E+04 0.  0.
        4    1    3    3  502    0  0.50619514923E+03  0.11168555312E+04 -0.63720011750E+03  0.13818919673E+04  0.12699999809E+01 0.  1.
       -4    1    3    3    0  502 -0.50619514923E+03 -0.11168555312E+04 -0.12681733214E+03  0.12327546615E+04  0.12699999809E+01 0. -1.
</event>
<event>
 5   0  0.3837524E-07  0.2500036E+04  0.7818609E-02  0.8402973E-01
       -1   -1    0    0    0  501  0.00000000000E+00  0.00000000000E+00  0.12421167826E+04  0.12421167826E+04  0.50400001928E-02 0.  1.
        1   -1    0    0  501    0  0.00000000000E+00  0.00000000000E+00 -0.12579694057E+04  0.12579694057E+04  0.50400001928E-02 0. -1.
    10030    2    1    2    0    0  0.00000000000E+00  0.00000000000E+00 -0.15852623073E+02  0.25000861883E+04  0.25000359284E+04 0.  0.
        5    1    3    3  502    0  0.67016791422E+03 -0.64150772000E+03 -0.84571736738E+03  0.12553553854E+04  0.46999998093E+01 0. -1.
       -5    1    3    3    0  502 -0.67016791422E+03  0.64150772000E+03  0.82986474430E+03  0.12447308030E+04  0.46999998093E+01 0.  1.
</event>
<event>
 5   0  0.3873231E-07  0.2498711E+04  0.7818609E-02  0.8403445E-01
       -1   -1    0    0    0  501  0.00000000000E+00  0.00000000000E+00  0.16452321911E+04  0.16452321911E+04  0.50400001928E-02 0. -1.
        1   -1    0    0  501    0  0.00000000000E+00  0.00000000000E+00 -0.94873500020E+03  0.94873500021E+03  0.50400001928E-02 0.  1.
    10030    2    1    2    0    0  0.00000000000E+00  0.00000000000E+00  0.69649719092E+03  0.25939671913E+04  0.24987111583E+04 0.  0.
        2    1    3    3  502    0  0.24300740913E+03 -0.11778510153E+04  0.69953251813E+03  0.13913056311E+04  0.25500000920E-02 0.  1.
       -2    1    3    3    0  502 -0.24300740913E+03  0.11778510153E+04 -0.30353272153E+01  0.12026615602E+04  0.25500000920E-02 0. -1.
</event>
<event>
 5   0  0.9508784E-07  0.2503881E+04  0.7818609E-02  0.8401604E-01
        2   -1    0    0  501    0  0.00000000000E+00  0.00000000000E+00  0.10650116845E+04  0.10650116845E+04  0.25500000920E-02 0. -1.
       -2   -1    0    0    0  501  0.00000000000E+00  0.00000000000E+00 -0.14716785105E+04  0.14716785105E+04  0.25500000920E-02 0.  1.
    10030    2    1    2    0    0  0.00000000000E+00  0.00000000000E+00 -0.40666682596E+03  0.25366901950E+04  0.25038808354E+04 0.  0.
        2    1    3    3  502    0  0.10715026194E+04 -0.39787959608E+03  0.31417183737E+03  0.11853817865E+04  0.25500000920E-02 0. -1.
       -2    1    3    3    0  502 -0.10715026194E+04  0.39787959608E+03 -0.72083866333E+03  0.13513084085E+04  0.25500000920E-02 0.  1.
</event>
<event>
 5   0  0.9768582E-07  0.2500404E+04  0.7818609E-02  0.8402842E-01
       -2   -1    0    0    0  501  0.00000000000E+00  0.00000000000E+00  0.15155763512E+04  0.15155763512E+04  0.25500000920E-02 0.  1.
        2   -1    0    0  501    0  0.00000000000E+00  0.00000000000E+00 -0.10312937798E+04  0.10312937798E+04  0.25500000920E-02 0. -1.
    10030    2    1    2    0    0  0.00000000000E+00  0.00000000000E+00  0.48428257141E+03  0.25468701310E+04  0.25004035385E+04 0.  0.
        3    1    3    3  502    0  0.20731681084E+03 -0.34364792139E+03  0.14481762715E+04  0.15027603527E+04  0.10100000352E+00 0.  1.
       -3    1    3    3    0  502 -0.20731681084E+03  0.34364792139E+03 -0.96389370011E+03  0.10441097783E+04  0.10100000352E+00 0. -1.
</event>
<event>
 5   0  0.9251138E-07  0.2502685E+04  0.7818609E-02  0.8402030E-01
        2   -1    0    0  501    0  0.00000000000E+00  0.00000000000E+00  0.10997401096E+04  0.10997401096E+04  0.25500000920E-02 0.  1.
       -2   -1    0    0    0  501  0.00000000000E+00  0.00000000000E+00 -0.14238437092E+04  0.14238437092E+04  0.25500000920E-02 0. -1.
    10030    2    1    2    0    0  0.00000000000E+00  0.00000000000E+00 -0.32410359964E+03  0.25235838188E+04  0.25026849876E+04 0.  0.
        5    1    3    3  502    0 -0.78395209210E+03  0.96752873796E+03 -0.37966466813E+02  0.12458556434E+04  0.46999998093E+01 0. -1.
       -5    1    3    3    0  502  0.78395209210E+03 -0.96752873796E+03 -0.28613713282E+03  0.12777281754E+04  0.46999998093E+01 0.  1.
</event>
<event>
 5   0  0.3873231E-07  0.2500245E+04  0.7818609E-02  0.8402898E-01
       -1   -1    0    0    0  501  0.00000000000E+00  0.00000000000E+00  0.14068714236E+04  0.14068714237E+04  0.50400001928E-02 0.  1.
        1   -1    0    0  501    0  0.00000000000E+00  0.00000000000E+00 -0.11108381905E+04  0.11108381905E+04  0.50400001928E-02 0. -1.
    10030    2    1    2    0    0  0.00000000000E+00  0.00000000000E+00  0.29603323318E+03  0.25177096141E+04  0.25002451932E+04 0.  0.
        2    1    3    3  502    0  0.32559873616E+02  0.11948710528E+04 -0.22064106017E+03  0.12155079003E+04  0.25500000920E-02 0. -1.
       -2    1    3    3    0  502 -0.32559873616E+02 -0.11948710528E+04  0.51667429335E+03  0.13022017139E+04  0.25500000920E-02 0.  1.
</event>
<event>
 5   0  0.9508784E-07  0.2501372E+04  0.7818609E-02  0.8402497E-01
       -2   -1    0    0    0  501  0.00000000000E+00  0.00000000000E+00  0.11771291890E+04  0.11771291890E+04  0.25500000920E-02 0. -1.
        2   -1    0    0  501    0  0.00000000000E+00  0.00000000000E+00 -0.13288392860E+04  0.13288392860E+04  0.25500000920E-02 0.  1.
    10030    2    1    2    0    0  0.00000000000E+00  0.00000000000E+00 -0.15171009708E+03  0.25059684750E+04  0.25013720323E+04 0.  0.
        2    1    3    3  502    0 -0.14678087768E+03 -0.96684931375E+03 -0.85695002341E+03  0.13002713425E+04  0.25500000920E-02 0.  1.
       -2    1    3    3    0  502  0.14678087768E+03  0.96684931375E+03  0.70523992633E+03  0.12056971325E+04  0.25500000920E-02 0. -1.
</event>
<event>
 5   0  0.3873231E-07  0.2500157E+04  0.7818609E-02  0.8402930E-01
        1   -1    0    0  501    0  0.00000000000E+00  0.00000000000E+00  0.19827085690E+04  0.19827085690E+04  0.50400001928E-02 0. -1.
       -1   -1    0    0    0  501  0.00000000000E+00  0.00000000000E+00 -0.78816234200E+03  0.78816234202E+03  0.50400001928E-02 0.  1.
    10030    2    1    2    0    0  0.00000000000E+00  0.00000000000E+00  0.11945462270E+04  0.27708709111E+04  0.25001569785E+04 0.  0.
        2    1    3    3  502    0 -0.84938955220E+02  0.49778571910E+03 -0.67009150870E+03  0.83906369144E+03  0.25500000920E-02 0.  1.
       -2    1    3    3    0  502  0.84938955220E+02 -0.49778571910E+03  0.18646377357E+04  0.19318072196E+04  0.25500000920E-02 0. -1.
</event>
<event>
 5   0  0.9251138E-07  0.2500865E+04  0.7818609E-02  0.8402677E-01
       -2   -1    0    0    0  501  0.00000000000E+00  0.00000000000E+00  0.11799201756E+04  0.11799201756E+04  0.25500000920E-02 0.  1.
        2   -1    0    0  501    0  0.00000000000E+00  0.00000000000E+00 -0.13251590072E+04  0.13251590072E+04  0.25500000920E-02 0. -1.
    10030    2    1    2    0    0  0.00000000000E+00  0.00000000000E+00 -0.14523883168E+03  0.25050791828E+04  0.25008653290E+04 0.  0.
        5    1    3    3  502    0  0.72654260042E+03 -0.56362617599E+03 -0.92140846612E+03  0.13017504630E+04  0.46999998093E+01 0. -1.
       -5    1    3    3    0  502 -0.72654260042E+03  0.56362617599E+03  0.77616963444E+03  0.12033287198E+04  0.46999998093E+01 0.  1.
</event>
<event>
 5   0  0.3991066E-07  0.2504576E+04  0.7818609E-02  0.8401357E-01
       -1   -1    0    0    0  501  0.00000000000E+00  0.00000000000E+00  0.19340080495E+04  0.19340080495E+04  0.50400001928E-02 0. -1.
        1   -1    0    0  501    0  0.00000000000E+00  0.00000000000E+00 -0.81086773885E+03  0.81086773887E+03  0.50400001928E-02 0.  1.
    10030    2    1    2    0    0  0.00000000000E+00  0.00000000000E+00  0.11231403106E+04  0.27448757884E+04  0.25045756000E+04 0.  0.
        1    1    3    3  502    0 -0.79273282980E+03 -0.66759207130E+02 -0.49835185097E+03  0.93874208309E+03  0.50400001928E-02 0.  1.
       -1    1    3    3    0  502  0.79273282980E+03  0.66759207130E+02  0.16214921616E+04  0.18061337053E+04  0.50400001928E-02 0. -1.
</event>
<event>
 5   0  0.3873231E-07  0.2501660E+04  0.7818609E-02  0.8402395E-01
       -1   -1    0    0    0  501  0.00000000000E+00  0.00000000000E+00  0.17157112486E+04  0.17157112487E+04  0.50400001928E-02 0.  1.
        1   -1    0    0  501    0  0.00000000000E+00  0.00000000000E+00 -0.91191061067E+03  0.91191061068E+03  0.50400001928E-02 0. -1.
    10030    2    1    2    0    0  0.00000000000E+00  0.00000000000E+00  0.80380063798E+03  0.26276218593E+04  0.25016596831E+04 0.  0.
        2    1    3    3  502    0  0.79071871819E+01 -0.49260920199E+03  0.16095071213E+04  0.16832229570E+04  0.25500000920E-02 0.  1.
       -2    1    3    3    0  502 -0.79071871819E+01  0.49260920199E+03 -0.80570648330E+03  0.94439890234E+03  0.25500000920E-02 0. -1.
</event>
<event>
 5   0  0.3991066E-07  0.2499174E+04  0.7818609E-02  0.8403280E-01
        1   -1    0    0  501    0  0.00000000000E+00  0.00000000000E+00  0.12658961752E+04  0.12658961752E+04  0.50400001928E-02 0.  1.
       -1   -1    0    0    0  501  0.00000000000E+00  0.00000000000E+00 -0.12334884259E+04  0.12334884259E+04  0.50400001928E-02 0. -1.
    10030    2    1    2    0    0  0.00000000000E+00  0.00000000000E+00  0.32407749240E+02  0.24993846011E+04  0.24991744881E+04 0.  0.
        1    1    3    3  502    0  0.39316537772E+03  0.76945809520E+02  0.11999285832E+04  0.12650408201E+04  0.50400001928E-02 0.  1.
       -1    1    3    3    0  502 -0.39316537772E+03 -0.76945809520E+02 -0.11675208339E+04  0.12343437809E+04  0.50400001928E-02 0. -1.
</event>
<event>
 5   0  0.9251138E-07  0.2500521E+04  0.7818609E-02  0.8402800E-01
        2   -1    0    0  501    0  0.00000000000E+00  0.00000000000E+00  0.13351141532E+04  0.13351141532E+04  0.25500000920E-02 0. -1.
       -2   -1    0    0    0  501  0.00000000000E+00  0.00000000000E+00 -0.11707994145E+04  0.11707994145E+04  0.25500000920E-02 0.  1.
    10030    2    1    2    0    0  0.00000000000E+00  0.00000000000E+00  0.16431473869E+03  0.25059135676E+04  0.25005206408E+04 0.  0.
        5    1    3    3  502    0 -0.65930533075E+03 -0.17144509193E+03  0.11327751162E+04  0.13218466221E+04  0.46999998093E+01 0. -1.
       -5    1    3    3    0  502  0.65930533075E+03  0.17144509193E+03 -0.96846037746E+03  0.11840669455E+04  0.46999998093E+01 0.  1.
</event>
<event>
 5   0  0.3837524E-07  0.2498950E+04  0.7818609E-02  0.8403360E-01
       -1   -1    0    0    0  501  0.00000000000E+00  0.00000000000E+00  0.95167622669E+03  0.95167622671E+03  0.50400001928E-02 0.  1.
        1   -1    0    0  501    0  0.00000000000E+00  0.00000000000E+00 -0.16404607336E+04  0.16404607336E+04  0.50400001928E-02 0. -1.
    10030    2    1    2    0    0  0.00000000000E+00  0.00000000000E+00 -0.68878450695E+03  0.25921369604E+04  0.24989497642E+04 0.  0.
        5    1    3    3  502    0 -0.23082275599E+03 -0.46920182720E+03  0.83270899168E+03  0.98328828640E+03  0.46999998093E+01 0.  1.
       -5    1    3    3    0  502  0.23082275599E+03  0.46920182720E+03 -0.15214934986E+04  0.16088486740E+04  0.46999998093E+01 0. -1.
</event>
<event>
 5   0  0.3972587E-07  0.2499402E+04  0.7818609E-02  0.8403198E-01
        1   -1    0    0  501    0  0.00000000000E+00  0.00000000000E+00  0.17341960783E+04  0.17341960784E+04  0.50400001928E-02 0. -1.
       -1   -1    0    0    0  501  0.00000000000E+00  0.00000000000E+00 -0.90056318895E+03  0.90056318897E+03  0.50400001928E-02 0.  1.
    10030    2    1    2    0    0  0.00000000000E+00  0.00000000000E+00  0.83363288940E+03  0.26347592673E+04  0.24994024491E+04 0.  0.
        3    1    3    3  502    0  0.32927535607E+02 -0.13979455066E+03  0.17254675610E+04  0.17314343918E+04  0.10100000352E+00 0. -1.
       -3    1    3    3    0  502 -0.32927535607E+02  0.13979455066E+03 -0.89183467160E+03  0.90332487548E+03  0.10100000352E+00 0.  1.
</event>
<event>
 5   0  0.8997210E-07  0.2499912E+04  0.7818609E-02  0.8403017E-01
       -2   -1    0    0    0  501  0.00000000000E+00  0.00000000000E+00  0.12508986894E+04  0.12508986894E+04  0.25500000920E-02 0.  1.
        2   -1    0    0  501    0  0.00000000000E+00  0.00000000000E+00 -0.12490141658E+04  0.12490141658E+04  0.25500000920E-02 0. -1.
    10030    2    1    2    0    0  0.00000000000E+00  0.00000000000E+00  0.18845235651E+01  0.24999128552E+04  0.24999121449E+04 0.  0.
        1    1    3    3  502    0  0.11416618182E+04 -0.25904849545E+03 -0.43711305661E+03  0.12496262059E+04  0.50400001928E-02 0. -1.
       -1    1    3    3    0  502 -0.11416618182E+04  0.25904849545E+03  0.43899758017E+03  0.12502866493E+04  0.50400001928E-02 0.  1.
</event>
<event>
 5   0  0.3991066E-07  0.2500001E+04  0.7818609E-02  0.8402985E-01
       -1   -1    0    0    0  501  0.00000000000E+00  0.00000000000E+00  0.11001807376E+04  0.11001807377E+04  0.50400001928E-02 0.  1.
        1   -1    0    0  501    0  0.00000000000E+00  0.00000000000E+00 -0.14202225135E+04  0.14202225135E+04  0.50400001928E-02 0. -1.
    10030    2    1    2    0    0  0.00000000000E+00  0.00000000000E+00 -0.32004177585E+03  0.25204032512E+04  0.25000011620E+04 0.  0.
        1    1    3    3  502    0  0.60011191698E+02 -0.34289449981E+03 -0.13703697051E+04  0.14138921847E+04  0.50400001928E-02 0. -1.
       -1    1    3    3    0  502 -0.60011191698E+02  0.34289449981E+03  0.10503279293E+04  0.11065110665E+04  0.50400001928E-02 0.  1.
</event>
<event>
 5   0  0.9768582E-07  0.2500463E+04  0.7818609E-02  0.8402821E-01
        2   -1    0    0  501    0  0.00000000000E+00  0.00000000000E+00  0.17038774403E+04  0.17038774403E+04  0.25500000920E-02 0.  1.
       -2   -1    0    0    0  501  0.00000000000E+00  0.00000000000E+00 -0.91736584926E+03  0.91736584927E+03  0.25500000920E-02 0. -1.
    10030    2    1    2    0    0  0.00000000000E+00  0.00000000000E+00  0.78651159103E+03  0.26212432896E+04  0.25004631372E+04 0.  0.
        3    1    3    3  502    0 -0.90774367572E+03 -0.83879271843E+03  0.59079115232E+03  0.13698926969E+04  0.10100000352E+00 0.  1.
       -3    1    3    3    0  502  0.90774367572E+03  0.83879271843E+03  0.19572043871E+03  0.12513505926E+04  0.10100000352E+00 0. -1.
</event>
<event>
 5   0  0.3991066E-07  0.2500227E+04  0.7818609E-02  0.8402905E-01
        1   -1    0    0  501    0  0.00000000000E+00  0.00000000000E+00  0.22535253170E+04  0.22535253170E+04  0.50400001928E-02 0.  1.
       -1   -1    0    0    0  501  0.00000000000E+00  0.00000000000E+00 -0.69348389774E+03  0.69348389776E+03  0.50400001928E-02 0. -1.
    10030    2    1    2    0    0  0.00000000000E+00  0.00000000000E+00  0.15600414193E+04  0.29470092148E+04  0.25002268061E+04 0.  0.
        1    1    3    3  502    0  0.27755416488E+03 -0.11084860270E+04  0.18247151959E+03  0.11571834090E+04  0.50400001928E-02 0. -1.
       -1    1    3    3    0  502 -0.27755416488E+03  0.11084860270E+04  0.13775698997E+04  0.17898258058E+04  0.50400001928E-02 0.  1.
</event>
<event>
 5   0  0.3991066E-07  0.2500436E+04  0.7818609E-02  0.8402830E-01
       -1   -1    0    0    0  501  0.00000000000E+00  0.00000000000E+00  0.76191875635E+03  0.76191875637E+03  0.50400001928E-02 0. -1.
        1   -1    0    0  501    0  0.00000000000E+00  0.00000000000E+00 -0.20514595467E+04  0.20514595467E+04  0.50400001928E-02 0.  1.
    10030    2    1    2    0    0  0.00000000000E+00  0.00000000000E+00 -0.12895407904E+04  0.28133783031E+04  0.25004363672E+04 0.  0.
        1    1    3    3  502    0 -0.96881779588E+02 -0.10699549083E+04  0.74674396828E+02  0.10769242548E+04  0.50400001928E-02 0.  1.
       -1    1    3    3    0  502  0.96881779588E+02  0.10699549083E+04 -0.13642151872E+04  0.17364540483E+04  0.50400001928E-02 0. -1.
</event>
<event>
 5   0  0.8997210E-07  0.2500084E+04  0.7818609E-02  0.8402956E-01
       -2   -1    0    0    0  501  0.00000000000E+00  0.00000000000E+00  0.79644166467E+03  0.79644166468E+03  0.25500000920E-02 0. -1.
        2   -1    0    0  501    0  0.00000000000E+00  0.00000000000E+00 -0.19619824311E+04  0.19619824311E+04  0.25500000920E-02 0.  1.
    10030    2    1    2    0    0  0.00000000000E+00  0.00000000000E+00 -0.11655407664E+04  0.27584240958E+04  0.25000836414E+04 0.  0.
        1    1    3    3  502    0 -0.83384592553E+03 -0.59368616391E+03 -0.13744393034E+04  0.17137227569E+04  0.50400001928E-02 0.  1.
       -1    1    3    3    0  502  0.83384592553E+03  0.59368616391E+03  0.20889853695E+03  0.10447013389E+04  0.50400001928E-02 0. -1.
</event>
<event>
 5   0  0.3991066E-07  0.2499850E+04  0.7818609E-02  0.8403039E-01
        1   -1    0    0  501    0  0.00000000000E+00  0.00000000000E+00  0.13031166520E+04  0.13031166520E+04  0.50400001928E-02 0.  1.
       -1   -1    0    0    0  501  0.00000000000E+00  0.00000000000E+00 -0.11989046911E+04  0.11989046911E+04  0.50400001928E-02 0. -1.
    10030    2    1    2    0    0  0.00000000000E+00  0.00000000000E+00  0.10421196095E+03  0.25020213431E+04  0.24998501292E+04 0.  0.
        1    1    3    3  502    0 -0.33771521439E+03  0.32956473099E+03 -0.11063310137E+04  0.12027604873E+04  0.50400001928E-02 0. -1.
       -1    1    3    3    0  502  0.33771521439E+03 -0.32956473099E+03  0.12105429746E+04  0.12992608558E+04  0.50400001928E-02 0.  1.
</event>
<event>
 5   0  0.3991066E-07  0.2499053E+04  0.7818609E-02  0.8403323E-01
       -1   -1    0    0    0  501  0.00000000000E+00  0.00000000000E+00  0.12484427406E+04  0.12484427406E+04  0.50400001928E-02 0.  1.
        1   -1    0    0  501    0  0.00000000000E+00  0.00000000000E+00 -0.12506115578E+04  0.12506115578E+04  0.50400001928E-02 0. -1.
    10030    2    1    2    0    0  0.00000000000E+00  0.00000000000E+00 -0.21688171837E+01  0.24990542984E+04  0.24990533573E+04 0.  0.
        1    1    3    3  502    0  0.24432624002E+03  0.12120685399E+04 -0.18139383148E+03  0.12496836316E+04  0.50400001928E-02 0. -1.
       -1    1    3    3    0  502 -0.24432624002E+03 -0.12120685399E+04  0.17922501430E+03  0.12493706667E+04  0.50400001928E-02 0.  1.
</event>
<event>
 5   0  0.9768582E-07  0.2487153E+04  0.7818609E-02  0.8407577E-01
        2   -1    0    0  501    0  0.00000000000E+00  0.00000000000E+00  0.23574420196E+04  0.23574420196E+04  0.25500000920E-02 0.  1.
       -2   -1    0    0    0  501  0.00000000000E+00  0.00000000000E+00 -0.65600017221E+03  0.65600017221E+03  0.25500000920E-02 0. -1.
    10030    2    1    2    0    0  0.00000000000E+00  0.00000000000E+00  0.17014418474E+04  0.30134421918E+04  0.24871528870E+04 0.  0.
        3    1    3    3  502    0  0.41691316755E+03 -0.95682063649E+03  0.31512303378E+02  0.10441816677E+04  0.10100000352E+00 0.  1.
       -3    1    3    3    0  502 -0.41691316755E+03  0.95682063649E+03  0.16699295440E+04  0.19692605241E+04  0.10100000352E+00 0. -1.
</event>
<event>
 5   0  0.9251138E-07  0.2500071E+04  0.7818609E-02  0.8402960E-01
       -2   -1    0    0    0  501  0.00000000000E+00  0.00000000000E+00  0.12627014087E+04  0.12627014087E+04  0.25500000920E-02 0. -1.
        2   -1    0    0  501    0  0.00000000000E+00  0.00000000000E+00 -0.12374970532E+04  0.12374970532E+04  0.25500000920E-02 0.  1.
    10030    2    1    2    0    0  0.00000000000E+00  0.00000000000E+00  0.25204355480E+02  0.25001984620E+04  0.25000714169E+04 0.  0.
        5    1    3    3  502    0  0.92864273844E+01 -0.75084432542E+03 -0.98680527104E+03  0.12400242625E+04  0.46999998093E+01 0.  1.
       -5    1    3    3    0  502 -0.92864273844E+01  0.75084432542E+03  0.10120096265E+04  0.12601741994E+04  0.46999998093E+01 0. -1.
</event>
<event>
 5   0  0.9508784E-07  0.2501086E+04  0.7818609E-02  0.8402599E-01
        2   -1    0    0  501    0  0.00000000000E+00  0.00000000000E+00  0.95255020920E+03  0.95255020920E+03  0.25500000920E-02 0.  1.
       -2   -1    0    0    0  501  0.00000000000E+00  0.00000000000E+00 -0.16417593955E+04  0.16417593955E+04  0.25500000920E-02 0. -1.
    10030    2    1    2    0    0  0.00000000000E+00  0.00000000000E+00 -0.68920918633E+03  0.25943096047E+04  0.25010863685E+04 0.  0.
        2    1    3    3  502    0  0.53301979068E+03 -0.48739933166E+02 -0.15169400724E+04  0.16085996585E+04  0.25500000920E-02 0. -1.
       -2    1    3    3    0  502 -0.53301979068E+03  0.48739933166E+02  0.82773088602E+03  0.98570994619E+03  0.25500000920E-02 0.  1.
</event>
<event>
 5   0  0.9508784E-07  0.2505479E+04  0.7818609E-02  0.8401036E-01
        2   -1    0    0  501    0  0.00000000000E+00  0.00000000000E+00  0.13248760129E+04  0.13248760129E+04  0.25500000920E-02 0.  1.
       -2   -1    0    0    0  501  0.00000000000E+00  0.00000000000E+00 -0.11845305025E+04  0.11845305025E+04  0.25500000920E-02 0. -1.
    10030    2    1    2    0    0  0.00000000000E+00  0.00000000000E+00  0.14034551046E+03  0.25094065154E+04  0.25054788359E+04 0.  0.
        2    1    3    3  502    0  0.11233150904E+04  0.53787714765E+03 -0.64973688013E+02  0.12471448185E+04  0.25500000920E-02 0.  1.
       -2    1    3    3    0  502 -0.11233150904E+04 -0.53787714765E+03  0.20531919848E+03  0.12622616969E+04  0.25500000920E-02 0. -1.
</event>
<event>
 5   0  0.9768582E-07  0.2499403E+04  0.7818609E-02  0.8403198E-01
        2   -1    0    0  501    0  0.00000000000E+00  0.00000000000E+00  0.12829931148E+04  0.12829931148E+04  0.25500000920E-02 0. -1.
       -2   -1    0    0    0  501  0.00000000000E+00  0.00000000000E+00 -0.12172740990E+04  0.12172740990E+04  0.25500000920E-02 0.  1.
    10030    2    1    2    0    0  0.00000000000E+00  0.00000000000E+00  0.65719015725E+02  0.25002672138E+04  0.24994033591E+04 0.  0.
        3    1    3    3  502    0  0.51840881624E+03 -0.51375497865E+03 -0.98191823126E+03  0.12234603802E+04  0.10100000352E+00 0.  1.
       -3    1    3    3    0  502 -0.51840881624E+03  0.51375497865E+03  0.10476372470E+04  0.12768068336E+04  0.10100000352E+00 0. -1.
</event>
<event>
 5   0  0.3873231E-07  0.2500006E+04  0.7818609E-02  0.8402983E-01
        1   -1    0    0  501    0  0.00000000000E+00  0.00000000000E+00  0.13773897442E+04  0.13773897442E+04  0.50400001928E-02 0.  1.
       -1   -1    0    0    0  501  0.00000000000E+00  0.00000000000E+00 -0.11343974970E+04  0.11343974970E+04  0.50400001928E-02 0. -1.
    10030    2    1    2    0    0  0.00000000000E+00  0.00000000000E+00  0.24299224718E+03  0.25117872412E+04  0.25000059825E+04 0.  0.
        2    1    3    3  502    0  0.85242798192E+03  0.31175638271E+03  0.98501244770E+03  0.13394308600E+04  0.25500000920E-02 0.  1.
       -2    1    3    3    0  502 -0.85242798192E+03 -0.31175638271E+03 -0.74202020051E+03  0.11723563812E+04  0.25500000920E-02 0. -1.
</event>
<event>
 5   0  0.8997210E-07  0.2498429E+04  0.7818609E-02  0.8403545E-01
       -2   -1    0    0    0  501  0.00000000000E+00  0.00000000000E+00  0.75311104252E+03  0.75311104253E+03  0.25500000920E-02 0. -1.
        2   -1    0    0  501    0  0.00000000000E+00  0.00000000000E+00 -0.20721208690E+04  0.20721208690E+04  0.25500000920E-02 0.  1.
    10030    2    1    2    0    0  0.00000000000E+00  0.00000000000E+00 -0.13190098265E+04  0.28252319115E+04  0.24984291928E+04 0.  0.
        1    1    3    3  502    0 -0.88596639537E+02 -0.11933685481E+04 -0.10649562395E+04  0.16019081272E+04  0.50400001928E-02 0.  1.
       -1    1    3    3    0  502  0.88596639537E+02  0.11933685481E+04 -0.25405358701E+03  0.12233237843E+04  0.50400001928E-02 0. -1.
</event>
<event>
 5   0  0.3972587E-07  0.2499913E+04  0.7818609E-02  0.8403017E-01
        1   -1    0    0  501    0  0.00000000000E+00  0.00000000000E+00  0.16633933951E+04  0.16633933951E+04  0.50400001928E-02 0.  1.
       -1   -1    0    0    0  501  0.00000000000E+00  0.00000000000E+00 -0.93927926019E+03  0.93927926020E+03  0.50400001928E-02 0. -1.
    10030    2    1    2    0    0  0.00000000000E+00  0.00000000000E+00  0.72411413495E+03  0.26026726553E+04  0.24999127326E+04 0.  0.
        3    1    3    3  502    0 -0.11270098248E+04 -0.54058681122E+03  0.36453430681E+03  0.13020255438E+04  0.10100000352E+00 0.  1.
       -3    1    3    3    0  502  0.11270098248E+04  0.54058681122E+03  0.35957982814E+03  0.13006471115E+04  0.10100000352E+00 0. -1.
</event>
<event>
 5   0  0.3972587E-07  0.2499757E+04  0.7818609E-02  0.8403072E-01
       -1   -1    0    0    0  501  0.00000000000E+00  0.00000000000E+00  0.80773031106E+03  0.80773031107E+03  0.50400001928E-02 0. -1.
        1   -1    0    0  501    0  0.00000000000E+00  0.00000000000E+00 -0.19340565690E+04  0.19340565690E+04  0.50400001928E-02 0.  1.
    10030    2    1    2    0    0  0.00000000000E+00  0.00000000000E+00 -0.11263262579E+04  0.27417868801E+04  0.24997568795E+04 0.  0.
        3    1    3    3  502    0 -0.18067284715E+03 -0.87533634583E+03 -0.15214484790E+04  0.17645571344E+04  0.10100000352E+00 0.  1.
       -3    1    3    3    0  502  0.18067284715E+03  0.87533634583E+03  0.39512222109E+03  0.97722974567E+03  0.10100000352E+00 0. -1.
</event>
<event>
 5   0  0.3805418E-07  0.2499798E+04  0.7818609E-02  0.8403057E-01
        1   -1    0    0  501    0  0.00000000000E+00  0.00000000000E+00  0.94881293463E+03  0.94881293465E+03  0.50400001928E-02 0.  1.
       -1   -1    0    0    0  501  0.00000000000E+00  0.00000000000E+00 -0.16465287542E+04  0.16465287542E+04  0.50400001928E-02 0. -1.
    10030    2    1    2    0    0  0.00000000000E+00  0.00000000000E+00 -0.69771581954E+03  0.25953416888E+04  0.24997982152E+04 0.  0.
        4    1    3    3  502    0  0.99006542773E+03  0.67958400359E+03 -0.70878095863E+03  0.13944303602E+04  0.12699999809E+01 0. -1.
       -4    1    3    3    0  502 -0.99006542773E+03 -0.67958400359E+03  0.11065139085E+02  0.12009113287E+04  0.12699999809E+01 0.  1.
</event>
<event>
 5   0  0.9261602E-07  0.2500580E+04  0.7818609E-02  0.8402779E-01
       -2   -1    0    0    0  501  0.00000000000E+00  0.00000000000E+00  0.17533177546E+04  0.17533177546E+04  0.25500000920E-02 0. -1.
        2   -1    0    0  501    0  0.00000000000E+00  0.00000000000E+00 -0.89158135533E+03  0.89158135533E+03  0.25500000920E-02 0.  1.
    10030    2    1    2    0    0  0.00000000000E+00  0.00000000000E+00  0.86173639929E+03  0.26448991100E+04  0.25005802687E+04 0.  0.
        4    1    3    3  502    0 -0.22409872337E+03  0.40973686492E+03 -0.79586101406E+03  0.92276806560E+03  0.12699999809E+01 0.  1.
       -4    1    3    3    0  502  0.22409872337E+03 -0.40973686492E+03  0.16575974133E+04  0.17221310444E+04  0.12699999809E+01 0. -1.
</event>
<event>
 5   0  0.3972587E-07  0.2498982E+04  0.7818609E-02  0.8403348E-01
       -1   -1    0    0    0  501  0.00000000000E+00  0.00000000000E+00  0.13244935649E+04  0.13244935649E+04  0.50400001928E-02 0. -1.
        1   -1    0    0  501    0  0.00000000000E+00  0.00000000000E+00 -0.11787353995E+04  0.11787353995E+04  0.50400001928E-02 0.  1.
    10030    2    1    2    0    0  0.00000000000E+00  0.00000000000E+00  0.14575816539E+03  0.25032289644E+04  0.24989817537E+04 0.  0.
        3    1    3    3  502    0  0.10041609119E+04  0.71737806336E+03  0.26880552360E+03  0.12630228987E+04  0.10100000352E+00 0.  1.
       -3    1    3    3    0  502 -0.10041609119E+04 -0.71737806336E+03 -0.12304735820E+03  0.12402060657E+04  0.10100000352E+00 0. -1.
</event>
<event>
 5   0  0.9251138E-07  0.2499582E+04  0.7818609E-02  0.8403134E-01
        2   -1    0    0  501    0  0.00000000000E+00  0.00000000000E+00  0.12945339466E+04  0.12945339466E+04  0.25500000920E-02 0.  1.
       -2   -1    0    0    0  501  0.00000000000E+00  0.00000000000E+00 -0.12065948452E+04  0.12065948452E+04  0.25500000920E-02 0. -1.
    10030    2    1    2    0    0  0.00000000000E+00  0.00000000000E+00  0.87939101426E+02  0.25011287918E+04  0.24995823546E+04 0.  0.
        5    1    3    3  502    0 -0.99593705847E+03 -0.22189024978E+03 -0.67816246023E+03  0.12251744038E+04  0.46999998093E+01 0. -1.
       -5    1    3    3    0  502  0.99593705847E+03  0.22189024978E+03  0.76610156165E+03  0.12759543880E+04  0.46999998093E+01 0.  1.
</event>
<event>
 5   0  0.3972587E-07  0.2499425E+04  0.7818609E-02  0.8403190E-01
       -1   -1    0    0    0  501  0.00000000000E+00  0.00000000000E+00  0.96363109591E+03  0.96363109592E+03  0.50400001928E-02 0. -1.
        1   -1    0    0  501    0  0.00000000000E+00  0.00000000000E+00 -0.16207256828E+04  0.16207256828E+04  0.50400001928E-02 0.  1.
    10030    2    1    2    0    0  0.00000000000E+00  0.00000000000E+00 -0.65709458686E+03  0.25843567787E+04  0.24994252666E+04 0.  0.
        3    1    3    3  502    0  0.89997428458E+03  0.43950436111E+03 -0.11013837525E+04  0.14886786009E+04  0.10100000352E+00 0.  1.
       -3    1    3    3    0  502 -0.89997428458E+03 -0.43950436111E+03  0.44428916565E+03  0.10956781778E+04  0.10100000352E+00 0. -1.
</event>
<event>
 5   0  0.8997210E-07  0.2499605E+04  0.7818609E-02  0.8403126E-01
        2   -1    0    0  501    0  0.00000000000E+00  0.00000000000E+00  0.22460640152E+04  0.22460640152E+04  0.25500000920E-02 0. -1.
       -2   -1    0    0    0  501  0.00000000000E+00  0.00000000000E+00 -0.69544159443E+03  0.69544159444E+03  0.25500000920E-02 0.  1.
    10030    2    1    2    0    0  0.00000000000E+00  0.00000000000E+00  0.15506224208E+04  0.29415056097E+04  0.24996050408E+04 0.  0.
        1    1    3    3  502    0  0.15977658788E+02  0.10525856498E+04 -0.17441024781E+02  0.10528513784E+04  0.50400001928E-02 0.  1.
       -1    1    3    3    0  502 -0.15977658788E+02 -0.10525856498E+04  0.15680634456E+04  0.18886542312E+04  0.50400001928E-02 0. -1.
</event>
<event>
 5   0  0.3972587E-07  0.2499464E+04  0.7818609E-02  0.8403176E-01
       -1   -1    0    0    0  501  0.00000000000E+00  0.00000000000E+00  0.97056918908E+03  0.97056918909E+03  0.50400001928E-02 0. -1.
        1   -1    0    0  501    0  0.00000000000E+00  0.00000000000E+00 -0.16091903282E+04  0.16091903282E+04  0.50400001928E-02 0.  1.
    10030    2    1    2    0    0  0.00000000000E+00  0.00000000000E+00 -0.63862113909E+03  0.25797595173E+04  0.24994643841E+04 0.  0.
        3    1    3    3  502    0  0.79319662353E+03 -0.75586937040E+03  0.30110826574E+03  0.11362946742E+04  0.10100000352E+00 0. -1.
       -3    1    3    3    0  502 -0.79319662353E+03  0.75586937040E+03 -0.93972940483E+03  0.14434648431E+04  0.10100000352E+00 0.  1.
</event>
<event>
 5   0  0.9251138E-07  0.2500191E+04  0.7818609E-02  0.8402918E-01
       -2   -1    0    0    0  501  0.00000000000E+00  0.00000000000E+00  0.12631143097E+04  0.12631143097E+04  0.25500000920E-02 0.  1.
        2   -1    0    0  501    0  0.00000000000E+00  0.00000000000E+00 -0.12372106751E+04  0.12372106751E+04  0.25500000920E-02 0. -1.
    10030    2    1    2    0    0  0.00000000000E+00  0.00000000000E+00  0.25903634651E+02  0.25003249848E+04  0.25001907990E+04 0.  0.
        5    1    3    3  502    0  0.24660574621E+03  0.33031453684E+03 -0.11672785999E+04  0.12379351789E+04  0.46999998093E+01 0. -1.
       -5    1    3    3    0  502 -0.24660574621E+03 -0.33031453684E+03  0.11931822346E+04  0.12623898059E+04  0.46999998093E+01 0.  1.
</event>
<event>
 5   0  0.9768582E-07  0.2500903E+04  0.7818609E-02  0.8402664E-01
       -2   -1    0    0    0  501  0.00000000000E+00  0.00000000000E+00  0.10462298687E+04  0.10462298687E+04  0.25500000920E-02 0. -1.
        2   -1    0    0  501    0  0.00000000000E+00  0.00000000000E+00 -0.14945365685E+04  0.14945365685E+04  0.25500000920E-02 0.  1.
    10030    2    1    2    0    0  0.00000000000E+00  0.00000000000E+00 -0.44830669983E+03  0.25407664372E+04  0.25009028752E+04 0.  0.
        3    1    3    3  502    0 -0.10614531048E+04 -0.18482479711E+03  0.42061697524E+03  0.11566164227E+04  0.10100000352E+00 0. -1.
       -3    1    3    3    0  502  0.10614531048E+04  0.18482479711E+03 -0.86892367507E+03  0.13841500145E+04  0.10100000352E+00 0.  1.
</event>
<event>
 5   0  0.9768582E-07  0.2499532E+04  0.7818609E-02  0.8403152E-01
       -2   -1    0    0    0  501  0.00000000000E+00  0.00000000000E+00  0.81770143117E+03  0.81770143118E+03  0.25500000920E-02 0.  1.
        2   -1    0    0  501    0  0.00000000000E+00  0.00000000000E+00 -0.19101287937E+04  0.19101287937E+04  0.25500000920E-02 0. -1.
    10030    2    1    2    0    0  0.00000000000E+00  0.00000000000E+00 -0.10924273625E+04  0.27278302249E+04  0.24995319949E+04 0.  0.
        3    1    3    3  502    0  0.23366925882E+03  0.86051534495E+03 -0.15018823564E+04  0.17466363686E+04  0.10100000352E+00 0. -1.
       -3    1    3    3    0  502 -0.23366925882E+03 -0.86051534495E+03  0.40945499387E+03  0.98119385629E+03  0.10100000352E+00 0.  1.
</event>
<event>
 5   0  0.3991066E-07  0.2504142E+04  0.7818609E-02  0.8401511E-01
        1   -1    0    0  501    0  0.00000000000E+00  0.00000000000E+00  0.17848008055E+04  0.17848008055E+04  0.50400001928E-02 0.  1.
       -1   -1    0    0    0  501  0.00000000000E+00  0.00000000000E+00 -0.87835120923E+03  0.87835120924E+03  0.50400001928E-02 0. -1.
    10030    2    1    2    0    0  0.00000000000E+00  0.00000000000E+00  0.90644959629E+03  0.26631520148E+04  0.25041421252E+04 0.  0.
        1    1    3    3  502    0  0.12414972415E+04  0.19903375460E+02  0.62461117963E+03  0.13899103103E+04  0.50400001928E-02 0.  1.
       -1    1    3    3    0  502 -0.12414972415E+04 -0.19903375460E+02  0.28183841666E+03  0.12732417045E+04  0.50400001928E-02 0. -1.
</event>
<event>
 5   0  0.3805418E-07  0.2500473E+04  0.7818609E-02  0.8402817E-01
       -1   -1    0    0    0  501  0.00000000000E+00  0.00000000000E+00  0.67853120784E+03  0.67853120786E+03  0.50400001928E-02 0. -1.
        1   -1    0    0  501    0  0.00000000000E+00  0.00000000000E+00 -0.23036388613E+04  0.23036388613E+04  0.50400001928E-02 0.  1.
    10030    2    1    2    0    0  0.00000000000E+00  0.00000000000E+00 -0.16251076535E+04  0.29821700692E+04  0.25004726426E+04 0.  0.
        4    1    3    3  502    0  0.46742581770E+03 -0.94922670912E+03 -0.18240452575E+02  0.10582308668E+04  0.12699999809E+01 0. -1.
       -4    1    3    3    0  502 -0.46742581770E+03  0.94922670912E+03 -0.16068672009E+04  0.19239392024E+04  0.12699999809E+01 0.  1.
</event>
<event>
 5   0  0.3991066E-07  0.2502460E+04  0.7818609E-02  0.8402110E-01
       -1   -1    0    0    0  501  0.00000000000E+00  0.00000000000E+00  0.62282556932E+03  0.62282556934E+03  0.50400001928E-02 0. -1.
        1   -1    0    0  501    0  0.00000000000E+00  0.00000000000E+00 -0.25136668698E+04  0.25136668698E+04  0.50400001928E-02 0.  1.
    10030    2    1    2    0    0  0.00000000000E+00  0.00000000000E+00 -0.18908413005E+04  0.31364924392E+04  0.25024595895E+04 0.  0.
        1    1    3    3  502    0 -0.42992771180E+03 -0.78679037512E+03  0.14845733947E+03  0.90879949022E+03  0.50400001928E-02 0. -1.
       -1    1    3    3    0  502  0.42992771180E+03  0.78679037512E+03 -0.20392986400E+04  0.22276929490E+04  0.50400001928E-02 0.  1.
</event>
<event>
 5   0  0.3214375E-07  0.2500835E+04  0.7818609E-02  0.8402688E-01
        3   -1    0    0  501    0  0.00000000000E+00  0.00000000000E+00  0.11434364048E+04  0.11434364092E+04  0.10100000352E+00 0. -1.
       -3   -1    0    0    0  501  0.00000000000E+00  0.00000000000E+00 -0.13674081605E+04  0.13674081643E+04  0.10100000352E+00 0.  1.
    10030    2    1    2    0    0  0.00000000000E+00  0.00000000000E+00 -0.22397175575E+03  0.25108445735E+04  0.25008352854E+04 0.  0.
        2    1    3    3  502    0 -0.91912037532E+03 -0.78221030803E+03  0.21629227298E+03  0.12261392978E+04  0.25500000920E-02 0.  1.
       -2    1    3    3    0  502  0.91912037532E+03  0.78221030803E+03 -0.44026402873E+03  0.12847052757E+04  0.25500000920E-02 0. -1.
</event>
<event>
 5   0  0.3972587E-07  0.2500138E+04  0.7818609E-02  0.8402936E-01
       -1   -1    0    0    0  501  0.00000000000E+00  0.00000000000E+00  0.75143362162E+03  0.75143362164E+03  0.50400001928E-02 0.  1.
        1   -1    0    0  501    0  0.00000000000E+00  0.00000000000E+00 -0.20795887196E+04  0.20795887196E+04  0.50400001928E-02 0. -1.
    10030    2    1    2    0    0  0.00000000000E+00  0.00000000000E+00 -0.13281550980E+04  0.28310223412E+04  0.25001383026E+04 0.  0.
        3    1    3    3  502    0  0.22815703336E+03 -0.19060312185E+03  0.71082014258E+03  0.77048716228E+03  0.10100000352E+00 0.  1.
       -3    1    3    3    0  502 -0.22815703336E+03  0.19060312185E+03 -0.20389752406E+04  0.20605351790E+04  0.10100000352E+00 0. -1.
</event>
<event>
 5   0  0.3805418E-07  0.2499762E+04  0.7818609E-02  0.8403070E-01
        1   -1    0    0  501    0  0.00000000000E+00  0.00000000000E+00  0.10103956457E+04  0.10103956457E+04  0.50400001928E-02 0.  1.
       -1   -1    0    0    0  501  0.00000000000E+00  0.00000000000E+00 -0.15461293768E+04  0.15461293768E+04  0.50400001928E-02 0. -1.
    10030    2    1    2    0    0  0.00000000000E+00  0.00000000000E+00 -0.53573373116E+03  0.25565250225E+04  0.24997619006E+04 0.  0.
        4    1    3    3  502    0 -0.64500802597E+03 -0.51505753407E+03  0.69199793092E+03  0.10771176195E+04  0.12699999809E+01 0.  1.
       -4    1    3    3    0  502  0.64500802597E+03  0.51505753407E+03 -0.12277316621E+04  0.14794074030E+04  0.12699999809E+01 0. -1.
</event>
<event>
 5   0  0.3873231E-07  0.2499463E+04  0.7818609E-02  0.8403177E-01
       -1   -1    0    0    0  501  0.00000000000E+00  0.00000000000E+00  0.81024029681E+03  0.81024029682E+03  0.50400001928E-02 0. -1.
        1   -1    0    0  501    0  0.00000000000E+00  0.00000000000E+00 -0.19276125006E+04  0.19276125006E+04  0.50400001928E-02 0.  1.
    10030    2    1    2    0    0  0.00000000000E+00  0.00000000000E+00 -0.11173722038E+04  0.27378527974E+04  0.24994634021E+04 0.  0.
        2    1    3    3  502    0 -0.58844985340E+02 -0.84565404958E+03 -0.15645467918E+04  0.17794381606E+04  0.25500000920E-02 0.  1.
       -2    1    3    3    0  502  0.58844985340E+02  0.84565404958E+03  0.44717458799E+03  0.95841463679E+03  0.25500000920E-02 0. -1.
</event>
<event>
 5   0  0.9508784E-07  0.2500948E+04  0.7818609E-02  0.8402648E-01
       -2   -1    0    0    0  501  0.00000000000E+00  0.00000000000E+00  0.81481163489E+03  0.81481163489E+03  0.25500000920E-02 0.  1.
        2   -1    0    0  501    0  0.00000000000E+00  0.00000000000E+00 -0.19190752452E+04  0.19190752452E+04  0.25500000920E-02 0. -1.
    10030    2    1    2    0    0  0.00000000000E+00  0.00000000000E+00 -0.11042636103E+04  0.27338868801E+04  0.25009476908E+04 0.  0.
        2    1    3    3  502    0  0.54391034551E+03  0.11128291766E+04 -0.73974984635E+03  0.14427255717E+04  0.25500000920E-02 0. -1.
       -2    1    3    3    0  502 -0.54391034551E+03 -0.11128291766E+04 -0.36451376399E+03  0.12911613084E+04  0.25500000920E-02 0.  1.
</event>
<event>
 5   0  0.3837524E-07  0.2499441E+04  0.7818609E-02  0.8403185E-01
       -1   -1    0    0    0  501  0.00000000000E+00  0.00000000000E+00  0.12121061607E+04  0.12121061607E+04  0.50400001928E-02 0. -1.
        1   -1    0    0  501    0  0.00000000000E+00  0.00000000000E+00 -0.12885024451E+04  0.12885024452E+04  0.50400001928E-02 0.  1.
    10030    2    1    2    0    0  0.00000000000E+00  0.00000000000E+00 -0.76396284431E+02  0.25006086059E+04  0.24994413391E+04 0.  0.
        5    1    3    3  502    0 -0.11899697588E+04 -0.83133067693E+02 -0.41098526431E+03  0.12616933508E+04  0.46999998093E+01 0.  1.
       -5    1    3    3    0  502  0.11899697588E+04  0.83133067693E+02  0.33458897988E+03  0.12389152551E+04  0.46999998093E+01 0. -1.
</event>
<event>
 5   0  0.3972587E-07  0.2498612E+04  0.7818609E-02  0.8403480E-01
        1   -1    0    0  501    0  0.00000000000E+00  0.00000000000E+00  0.19185786233E+04  0.19185786233E+04  0.50400001928E-02 0.  1.
       -1   -1    0    0    0  501  0.00000000000E+00  0.00000000000E+00 -0.81350087116E+03  0.81350087118E+03  0.50400001928E-02 0. -1.
    10030    2    1    2    0    0  0.00000000000E+00  0.00000000000E+00  0.11050777522E+04  0.27320794945E+04  0.24986119198E+04 0.  0.
        3    1    3    3  502    0  0.77596765976E+03 -0.88557630459E+03  0.10091647398E+04  0.15507368192E+04  0.10100000352E+00 0.  1.
       -3    1    3    3    0  502 -0.77596765976E+03  0.88557630459E+03  0.95913012316E+02  0.11813426753E+04  0.10100000352E+00 0. -1.
</event>
<event>
 5   0  0.9508784E-07  0.2501043E+04  0.7818609E-02  0.8402614E-01
       -2   -1    0    0    0  501  0.00000000000E+00  0.00000000000E+00  0.76200707870E+03  0.76200707870E+03  0.25500000920E-02 0.  1.
        2   -1    0    0  501    0  0.00000000000E+00  0.00000000000E+00 -0.20522171276E+04  0.20522171276E+04  0.25500000920E-02 0. -1.
    10030    2    1    2    0    0  0.00000000000E+00  0.00000000000E+00 -0.12902100489E+04  0.28142242063E+04  0.25010429651E+04 0.  0.
        2    1    3    3  502    0  0.82147224142E+03  0.89174870188E+03 -0.30053842562E+03  0.12491419999E+04  0.25500000920E-02 0.  1.
       -2    1    3    3    0  502 -0.82147224142E+03 -0.89174870188E+03 -0.98967162327E+03  0.15650822064E+04  0.25500000920E-02 0. -1.
</event>
<event>
 5   0  0.3873231E-07  0.2501974E+04  0.7818609E-02  0.8402282E-01
        1   -1    0    0  501    0  0.00000000000E+00  0.00000000000E+00  0.18007045372E+04  0.18007045372E+04  0.50400001928E-02 0.  1.
       -1   -1    0    0    0  501  0.00000000000E+00  0.00000000000E+00 -0.86908710369E+03  0.86908710371E+03  0.50400001928E-02 0. -1.
    10030    2    1    2    0    0  0.00000000000E+00  0.00000000000E+00  0.93161743349E+03  0.26697916409E+04  0.25019744930E+04 0.  0.
        2    1    3    3  502    0  0.98755457676E+03  0.32051530880E+03 -0.27883378006E+03  0.10750545950E+04  0.25500000920E-02 0. -1.
       -2    1    3    3    0  502 -0.98755457676E+03 -0.32051530880E+03  0.12104512136E+04  0.15947370459E+04  0.25500000920E-02 0.  1.
</event>
<event>
 5   0  0.3837524E-07  0.2500629E+04  0.7818609E-02  0.8402761E-01
       -1   -1    0    0    0  501  0.00000000000E+00  0.00000000000E+00  0.98889454071E+03  0.98889454073E+03  0.50400001928E-02 0.  1.
        1   -1    0    0  501    0  0.00000000000E+00  0.00000000000E+00 -0.15808425804E+04  0.15808425804E+04  0.50400001928E-02 0. -1.
    10030    2    1    2    0    0  0.00000000000E+00  0.00000000000E+00 -0.59194803970E+03  0.25697371211E+04  0.25006291988E+04 0.  0.
        5    1    3    3  502    0  0.10748776457E+03  0.52729503847E+03 -0.14557336878E+04  0.15520233043E+04  0.46999998093E+01 0. -1.
       -5    1    3    3    0  502 -0.10748776457E+03 -0.52729503847E+03  0.86378564813E+03  0.10177138169E+04  0.46999998093E+01 0.  1.
</event>
<event>
 5   0  0.8997210E-07  0.2500103E+04  0.7818609E-02  0.8402949E-01
       -2   -1    0    0    0  501  0.00000000000E+00  0.00000000000E+00  0.91367066206E+03  0.91367066207E+03  0.25500000920E-02 0. -1.
        2   -1    0    0  501    0  0.00000000000E+00  0.00000000000E+00 -0.17102758008E+04  0.17102758008E+04  0.25500000920E-02 0.  1.
    10030    2    1    2    0    0  0.00000000000E+00  0.00000000000E+00 -0.79660513872E+03  0.26239464628E+04  0.25001030564E+04 0.  0.
        1    1    3    3  502    0 -0.39599862486E+03 -0.75241561476E+03 -0.13600370060E+04  0.16039466406E+04  0.50400001928E-02 0.  1.
       -1    1    3    3    0  502  0.39599862486E+03  0.75241561476E+03  0.56343186729E+03  0.10199998222E+04  0.50400001928E-02 0. -1.
</event>
<event>
 5   0  0.9508784E-07  0.2499351E+04  0.7818609E-02  0.8403217E-01
        2   -1    0    0  501    0  0.00000000000E+00  0.00000000000E+00  0.11370455429E+04  0.11370455429E+04  0.25500000920E-02 0. -1.
       -2   -1    0    0    0  501  0.00000000000E+00  0.00000000000E+00 -0.13734624316E+04  0.13734624316E+04  0.25500000920E-02 0.  1.
    10030    2    1    2    0    0  0.00000000000E+00  0.00000000000E+00 -0.23641688874E+03  0.25105079745E+04  0.24993513848E+04 0.  0.
        2    1    3    3  502    0 -0.62903072192E+03 -0.87110016848E+03  0.52275766932E+03  0.11948936076E+04  0.25500000920E-02 0. -1.
       -2    1    3    3    0  502  0.62903072192E+03  0.87110016848E+03 -0.75917455806E+03  0.13156143668E+04  0.25500000920E-02 0.  1.
</event>
<event>
 5   0  0.9261602E-07  0.2501337E+04  0.7818609E-02  0.8402509E-01
        2   -1    0    0  501    0  0.00000000000E+00  0.00000000000E+00  0.92522464363E+03  0.92522464364E+03  0.25500000920E-02 0.  1.
       -2   -1    0    0    0  501  0.00000000000E+00  0.00000000000E+00 -0.16905863520E+04  0.16905863520E+04  0.25500000920E-02 0. -1.
    10030    2    1    2    0    0  0.00000000000E+00  0.00000000000E+00 -0.76536170835E+03  0.26158109956E+04  0.25013373663E+04 0.  0.
        4    1    3    3  502    0  0.73981027257E+03  0.62594002050E+03 -0.12094639843E+04  0.15498144698E+04  0.12699999809E+01 0. -1.
       -4    1    3    3    0  502 -0.73981027257E+03 -0.62594002050E+03  0.44410227593E+03  0.10659965258E+04  0.12699999809E+01 0.  1.
</event>
<event>
 5   0  0.9251138E-07  0.2501185E+04  0.7818609E-02  0.8402564E-01
        2   -1    0    0  501    0  0.00000000000E+00  0.00000000000E+00  0.23461949903E+04  0.23461949903E+04  0.25500000920E-02 0. -1.
       -2   -1    0    0    0  501  0.00000000000E+00  0.00000000000E+00 -0.66660333825E+03  0.66660333826E+03  0.25500000920E-02 0.  1.
    10030    2    1    2    0    0  0.00000000000E+00  0.00000000000E+00  0.16795916520E+04  0.30127983286E+04  0.25011848494E+04 0.  0.
        5    1    3    3  502    0 -0.11407868641E+04  0.49316504410E+03  0.67222546064E+03  0.14129811004E+04  0.46999998093E+01 0. -1.
       -5    1    3    3    0  502  0.11407868641E+04 -0.49316504410E+03  0.10073661914E+04  0.15998172282E+04  0.46999998093E+01 0.  1.
</event>
<event>
 5   0  0.9261602E-07  0.2498366E+04  0.7818609E-02  0.8403568E-01
        2   -1    0    0  501    0  0.00000000000E+00  0.00000000000E+00  0.23548917000E+04  0.23548917000E+04  0.25500000920E-02 0. -1.
       -2   -1    0    0    0  501  0.00000000000E+00  0.00000000000E+00 -0.66264520849E+03  0.66264520849E+03  0.25500000920E-02 0.  1.
    10030    2    1    2    0    0  0.00000000000E+00  0.00000000000E+00  0.16922464915E+04  0.30175369085E+04  0.24983656270E+04 0.  0.
        4    1    3    3  502    0  0.53787726227E+03 -0.89222285527E+03  0.16786172580E+04  0.19756343499E+04  0.12699999809E+01 0. -1.
       -4    1    3    3    0  502 -0.53787726227E+03  0.89222285527E+03  0.13629233521E+02  0.10419025586E+04  0.12699999809E+01 0.  1.
</event>
<event>
 5   0  0.8997210E-07  0.2499420E+04  0.7818609E-02  0.8403192E-01
       -2   -1    0    0    0  501  0.00000000000E+00  0.00000000000E+00  0.12768065002E+04  0.12768065002E+04  0.25500000920E-02 0.  1.
        2   -1    0    0  501    0  0.00000000000E+00  0.00000000000E+00 -0.12231880968E+04  0.12231880968E+04  0.25500000920E-02 0. -1.
    10030    2    1    2    0    0  0.00000000000E+00  0.00000000000E+00  0.53618403371E+02  0.24999945971E+04  0.24994195430E+04 0.  0.
        1    1    3    3  502    0 -0.99031604993E+03  0.26748799178E+02 -0.73516206223E+03  0.12336549902E+04  0.50400001928E-02 0. -1.
       -1    1    3    3    0  502  0.99031604993E+03 -0.26748799178E+02  0.78878046560E+03  0.12663396069E+04  0.50400001928E-02 0.  1.
</event>
<event>
 5   0  0.3873231E-07  0.2495421E+04  0.7818609E-02  0.8404619E-01
       -1   -1    0    0    0  501  0.00000000000E+00  0.00000000000E+00  0.72263943520E+03  0.72263943522E+03  0.50400001928E-02 0.  1.
        1   -1    0    0  501    0  0.00000000000E+00  0.00000000000E+00 -0.21542988413E+04  0.21542988413E+04  0.50400001928E-02 0. -1.
    10030    2    1    2    0    0  0.00000000000E+00  0.00000000000E+00 -0.14316594061E+04  0.28769382765E+04  0.24954208446E+04 0.  0.
        2    1    3    3  502    0  0.69296956018E+03 -0.99892002444E+03 -0.10393234531E+04  0.15994503014E+04  0.25500000920E-02 0.  1.
       -2    1    3    3    0  502 -0.69296956018E+03  0.99892002444E+03 -0.39233595304E+03  0.12774879751E+04  0.25500000920E-02 0. -1.
</event>
<event>
 5   0  0.9508784E-07  0.2507639E+04  0.7818609E-02  0.8400269E-01
       -2   -1    0    0    0  501  0.00000000000E+00  0.00000000000E+00  0.10588907364E+04  0.10588907364E+04  0.25500000920E-02 0.  1.
        2   -1    0    0  501    0  0.00000000000E+00  0.00000000000E+00 -0.14846320949E+04  0.14846320949E+04  0.25500000920E-02 0. -1.
    10030    2    1    2    0    0  0.00000000000E+00  0.00000000000E+00 -0.42574135844E+03  0.25435228313E+04  0.25076388674E+04 0.  0.
        2    1    3    3  502    0 -0.11166482986E+04  0.47332279363E+03 -0.53542326060E+03  0.13257510919E+04  0.25500000920E-02 0. -1.
       -2    1    3    3    0  502  0.11166482986E+04 -0.47332279363E+03  0.10968190216E+03  0.12177717394E+04  0.25500000920E-02 0.  1.
</event>
<event>
 5   0  0.9768582E-07  0.2500445E+04  0.7818609E-02  0.8402827E-01
       -2   -1    0    0    0  501  0.00000000000E+00  0.00000000000E+00  0.82285143591E+03  0.82285143591E+03  0.25500000920E-02 0. -1.
        2   -1    0    0  501    0  0.00000000000E+00  0.00000000000E+00 -0.18995606845E+04  0.18995606845E+04  0.25500000920E-02 0.  1.
    10030    2    1    2    0    0  0.00000000000E+00  0.00000000000E+00 -0.10767092486E+04  0.27224121204E+04  0.25004449499E+04 0.  0.
        3    1    3    3  502    0  0.11742361651E+03 -0.61192647610E+03 -0.17184608782E+04  0.18279360268E+04  0.10100000352E+00 0.  1.
       -3    1    3    3    0  502 -0.11742361651E+03  0.61192647610E+03  0.64175162959E+03  0.89447609367E+03  0.10100000352E+00 0. -1.
</event>
<event>
 5   0  0.9251138E-07  0.2500094E+04  0.7818609E-02  0.8402952E-01
        2   -1    0    0  501    0  0.00000000000E+00  0.00000000000E+00  0.19841578640E+04  0.19841578640E+04  0.25500000920E-02 0.  1.
       -2   -1    0    0    0  501  0.00000000000E+00  0.00000000000E+00 -0.78754709635E+03  0.78754709635E+03  0.25500000920E-02 0. -1.
    10030    2    1    2    0    0  0.00000000000E+00  0.00000000000E+00  0.11966107677E+04  0.27717049604E+04  0.25000942098E+04 0.  0.
        5    1    3    3  502    0 -0.42748755967E+03  0.96738843621E+03  0.13370372635E+04  0.17047805531E+04  0.46999998093E+01 0.  1.
       -5    1    3    3    0  502  0.42748755967E+03 -0.96738843621E+03 -0.14042649581E+03  0.10669244073E+04  0.46999998093E+01 0. -1.
</event>
<event>
 5   0  0.8997210E-07  0.2500826E+04  0.7818609E-02  0.8402691E-01
        2   -1    0    0  501    0  0.00000000000E+00  0.00000000000E+00  0.27620406457E+04  0.27620406457E+04  0.25500000920E-02 0. -1.
       -2   -1    0    0    0  501  0.00000000000E+00  0.00000000000E+00 -0.56607889786E+03  0.56607889786E+03  0.25500000920E-02 0.  1.
    10030    2    1    2    0    0  0.00000000000E+00  0.00000000000E+00  0.21959617478E+04  0.33281195436E+04  0.25008262031E+04 0.  0.
        1    1    3    3  502    0  0.86573994626E+03  0.50040463434E+03  0.20970822484E+04  0.23232874143E+04  0.50400001928E-02 0. -1.
       -1    1    3    3    0  502 -0.86573994626E+03 -0.50040463434E+03  0.98879499415E+02  0.10048321293E+04  0.50400001928E-02 0.  1.
</event>
<event>
 5   0  0.3991066E-07  0.2502754E+04  0.7818609E-02  0.8402005E-01
       -1   -1    0    0    0  501  0.00000000000E+00  0.00000000000E+00  0.10739903695E+04  0.10739903695E+04  0.50400001928E-02 0. -1.
        1   -1    0    0  501    0  0.00000000000E+00  0.00000000000E+00 -0.14580623902E+04  0.14580623903E+04  0.50400001928E-02 0.  1.
    10030    2    1    2    0    0  0.00000000000E+00  0.00000000000E+00 -0.38407202076E+03  0.25320527598E+04  0.25027544548E+04 0.  0.
        1    1    3    3  502    0  0.11459465309E+04  0.19873978448E+03 -0.65923630980E+03  0.13368932141E+04  0.50400001928E-02 0.  1.
       -1    1    3    3    0  502 -0.11459465309E+04 -0.19873978448E+03  0.27516428904E+03  0.11951595457E+04  0.50400001928E-02 0. -1.
</event>
<event>
 5   0  0.9508784E-07  0.2500280E+04  0.7818609E-02  0.8402886E-01
       -2   -1    0    0    0  501  0.00000000000E+00  0.00000000000E+00  0.14087195191E+04  0.14087195191E+04  0.25500000920E-02 0.  1.
        2   -1    0    0  501    0  0.00000000000E+00  0.00000000000E+00 -0.11094115761E+04  0.11094115761E+04  0.25500000920E-02 0. -1.
    10030    2    1    2    0    0  0.00000000000E+00  0.00000000000E+00  0.29930794303E+03  0.25181310952E+04  0.25002797779E+04 0.  0.
        2    1    3    3  502    0 -0.23381655699E+03 -0.24544615701E+03 -0.10622392943E+04  0.11150185275E+04  0.25500000920E-02 0. -1.
       -2    1    3    3    0  502  0.23381655699E+03  0.24544615701E+03  0.13615472373E+04  0.14031125677E+04  0.25500000920E-02 0.  1.
</event>
<event>
 5   0  0.3837524E-07  0.2500580E+04  0.7818609E-02  0.8402779E-01
       -1   -1    0    0    0  501  0.00000000000E+00  0.00000000000E+00  0.89974454681E+03  0.89974454682E+03  0.50400001928E-02 0.  1.
        1   -1    0    0  501    0  0.00000000000E+00  0.00000000000E+00 -0.17374096199E+04  0.17374096199E+04  0.50400001928E-02 0. -1.
    10030    2    1    2    0    0  0.00000000000E+00  0.00000000000E+00 -0.83766507307E+03  0.26371541667E+04  0.25005797976E+04 0.  0.
        5    1    3    3  502    0  0.11968783349E+04  0.26806714443E+03 -0.16304712929E+03  0.12373294625E+04  0.46999998093E+01 0.  1.
       -5    1    3    3    0  502 -0.11968783349E+04 -0.26806714443E+03 -0.67461794378E+03  0.13998247042E+04  0.46999998093E+01 0. -1.
</event>
<event>
 5   0  0.9251138E-07  0.2500215E+04  0.7818609E-02  0.8402909E-01
        2   -1    0    0  501    0  0.00000000000E+00  0.00000000000E+00  0.11505407166E+04  0.11505407166E+04  0.25500000920E-02 0. -1.
       -2   -1    0    0    0  501  0.00000000000E+00  0.00000000000E+00 -0.13582908108E+04  0.13582908108E+04  0.25500000920E-02 0.  1.
    10030    2    1    2    0    0  0.00000000000E+00  0.00000000000E+00 -0.20775009426E+03  0.25088315274E+04  0.25002150970E+04 0.  0.
        5    1    3    3  502    0  0.60702236350E+03  0.38815741213E+03 -0.11289652668E+04  0.13393009333E+04  0.46999998093E+01 0.  1.
       -5    1    3    3    0  502 -0.60702236350E+03 -0.38815741213E+03  0.92121517252E+03  0.11695305941E+04  0.46999998093E+01 0. -1.
</event>
<event>
 5   0  0.3805418E-07  0.2499302E+04  0.7818609E-02  0.8403234E-01
        1   -1    0    0  501    0  0.00000000000E+00  0.00000000000E+00  0.98493744453E+03  0.98493744454E+03  0.50400001928E-02 0. -1.
       -1   -1    0    0    0  501  0.00000000000E+00  0.00000000000E+00 -0.15855098031E+04  0.15855098032E+04  0.50400001928E-02 0.  1.
    10030    2    1    2    0    0  0.00000000000E+00  0.00000000000E+00 -0.60057235862E+03  0.25704472477E+04  0.24993022817E+04 0.  0.
        4    1    3    3  502    0 -0.83893297500E+03 -0.89625879646E+03 -0.54046764470E+03  0.13413408421E+04  0.12699999809E+01 0.  1.
       -4    1    3    3    0  502  0.83893297500E+03  0.89625879646E+03 -0.60104713913E+02  0.12291064056E+04  0.12699999809E+01 0. -1.
</event>
<event>
 5   0  0.9261602E-07  0.2500102E+04  0.7818609E-02  0.8402949E-01
        2   -1    0    0  501    0  0.00000000000E+00  0.00000000000E+00  0.18213286385E+04  0.18213286385E+04  0.25500000920E-02 0.  1.
       -2   -1    0    0    0  501  0.00000000000E+00  0.00000000000E+00 -0.85795994595E+03  0.85795994595E+03  0.25500000920E-02 0. -1.
    10030    2    1    2    0    0  0.00000000000E+00  0.00000000000E+00  0.96336869257E+03  0.26792885845E+04  0.25001016141E+04 0.  0.
        4    1    3    3  502    0  0.58512709828E+03  0.11004376571E+04  0.58496954945E+03  0.13767816621E+04  0.12699999809E+01 0.  1.
       -4    1    3    3    0  502 -0.58512709828E+03 -0.11004376571E+04  0.37839914312E+03  0.13025069224E+04  0.12699999809E+01 0. -1.
</event>
<event>
 5   0  0.3991066E-07  0.2496531E+04  0.7818609E-02  0.8404222E-01
       -1   -1    0    0    0  501  0.00000000000E+00  0.00000000000E+00  0.13078820669E+04  0.13078820669E+04  0.50400001928E-02 0. -1.
        1   -1    0    0  501    0  0.00000000000E+00  0.00000000000E+00 -0.11913663638E+04  0.11913663638E+04  0.50400001928E-02 0.  1.
    10030    2    1    2    0    0  0.00000000000E+00  0.00000000000E+00  0.11651570311E+03  0.24992484308E+04  0.24965309551E+04 0.  0.
        1    1    3    3  502    0 -0.51366290681E+03  0.55709037936E+03  0.10512889156E+04  0.12959196181E+04  0.50400001928E-02 0. -1.
       -1    1    3    3    0  502  0.51366290681E+03 -0.55709037936E+03 -0.93477321246E+03  0.12033288127E+04  0.50400001928E-02 0.  1.
</event>
<event>
 5   0  0.8997210E-07  0.2500134E+04  0.7818609E-02  0.8402938E-01
        2   -1    0    0  501    0  0.00000000000E+00  0.00000000000E+00  0.12871922084E+04  0.12871922084E+04  0.25500000920E-02 0.  1.
       -2   -1    0    0    0  501  0.00000000000E+00  0.00000000000E+00 -0.12140129391E+04  0.12140129391E+04  0.25500000920E-02 0. -1.
    10030    2    1    2    0    0  0.00000000000E+00  0.00000000000E+00  0.73179269235E+02  0.25012051475E+04  0.25001343933E+04 0.  0.
        1    1    3    3  502    0 -0.73422417034E+03 -0.26301426879E+03  0.10139452695E+04  0.12791976577E+04  0.50400001928E-02 0.  1.
       -1    1    3    3    0  502  0.73422417034E+03  0.26301426879E+03 -0.94076600024E+03  0.12220074898E+04  0.50400001928E-02 0. -1.
</event>
<event>
 5   0  0.3805418E-07  0.2497101E+04  0.7818609E-02  0.8404019E-01
       -1   -1    0    0    0  501  0.00000000000E+00  0.00000000000E+00  0.13753150086E+04  0.13753150086E+04  0.50400001928E-02 0. -1.
        1   -1    0    0  501    0  0.00000000000E+00  0.00000000000E+00 -0.11334696504E+04  0.11334696504E+04  0.50400001928E-02 0.  1.
    10030    2    1    2    0    0  0.00000000000E+00  0.00000000000E+00  0.24184535813E+03  0.25087846590E+04  0.24971005763E+04 0.  0.
        4    1    3    3  502    0  0.11731737980E+04  0.13567443157E+03 -0.28610490801E+03  0.12151551107E+04  0.12699999809E+01 0.  1.
       -4    1    3    3    0  502 -0.11731737980E+04 -0.13567443157E+03  0.52795026615E+03  0.12936295483E+04  0.12699999809E+01 0. -1.
</event>
<event>
 5   0  0.9768582E-07  0.2499775E+04  0.7818609E-02  0.8403066E-01
        2   -1    0    0  501    0  0.00000000000E+00  0.00000000000E+00  0.21543418484E+04  0.21543418484E+04  0.25500000920E-02 0. -1.
       -2   -1    0    0    0  501  0.00000000000E+00  0.00000000000E+00 -0.72514923814E+03  0.72514923814E+03  0.25500000920E-02 0.  1.
    10030    2    1    2    0    0  0.00000000000E+00  0.00000000000E+00  0.14291926103E+04  0.28794910866E+04  0.24997754700E+04 0.  0.
        3    1    3    3  502    0 -0.17444767672E+03 -0.65696061337E+03 -0.49363087925E+03  0.84005993511E+03  0.10100000352E+00 0.  1.
       -3    1    3    3    0  502  0.17444767672E+03  0.65696061337E+03  0.19228234895E+04  0.20394311515E+04  0.10100000352E+00 0. -1.
</event>
<event>
 5   0  0.3972587E-07  0.2490871E+04  0.7818609E-02  0.8406245E-01
        1   -1    0    0  501    0  0.00000000000E+00  0.00000000000E+00  0.11576058012E+04  0.11576058012E+04  0.50400001928E-02 0. -1.
       -1   -1    0    0    0  501  0.00000000000E+00  0.00000000000E+00 -0.13399284929E+04  0.13399284929E+04  0.50400001928E-02 0.  1.
    10030    2    1    2    0    0  0.00000000000E+00  0.00000000000E+00 -0.18232269171E+03  0.24975342942E+04  0.24908705279E+04 0.  0.
        3    1    3    3  502    0  0.10172565011E+04  0.10569519849E+03 -0.80378540142E+03  0.13007894702E+04  0.10100000352E+00 0.  1.
       -3    1    3    3    0  502 -0.10172565011E+04 -0.10569519849E+03  0.62146270971E+03  0.11967448240E+04  0.10100000352E+00 0. -1.
</event>
<event>
 5   0  0.8997210E-07  0.2499577E+04  0.7818609E-02  0.8403136E-01
        2   -1    0    0  501    0  0.00000000000E+00  0.00000000000E+00  0.14818252131E+04  0.14818252131E+04  0.25500000920E-02 0.  1.
       -2   -1    0    0    0  501  0.00000000000E+00  0.00000000000E+00 -0.10540861471E+04  0.10540861471E+04  0.25500000920E-02 0. -1.
    10030    2    1    2    0    0  0.00000000000E+00  0.00000000000E+00  0.42773906596E+03  0.25359113602E+04  0.24995771078E+04 0.  0.
        1    1    3    3  502    0 -0.99662012133E+03  0.75365908510E+03  0.18668930278E+03  0.12633711167E+04  0.50400001928E-02 0. -1.
       -1    1    3    3    0  502  0.99662012133E+03 -0.75365908510E+03  0.24104976318E+03  0.12725402434E+04  0.50400001928E-02 0.  1.
</event>
<event>
 5   0  0.3805418E-07  0.2499959E+04  0.7818609E-02  0.8403000E-01
        1   -1    0    0  501    0  0.00000000000E+00  0.00000000000E+00  0.15056213282E+04  0.15056213282E+04  0.50400001928E-02 0. -1.
       -1   -1    0    0    0  501  0.00000000000E+00  0.00000000000E+00 -0.10377436476E+04  0.10377436476E+04  0.50400001928E-02 0.  1.
    10030    2    1    2    0    0  0.00000000000E+00  0.00000000000E+00  0.46787768064E+03  0.25433649758E+04  0.24999591749E+04 0.  0.
        4    1    3    3  502    0 -0.25024948475E+03  0.39200579128E+03 -0.94644469923E+03  0.10545390114E+04  0.12699999809E+01 0.  1.
       -4    1    3    3    0  502  0.25024948475E+03 -0.39200579128E+03  0.14143223799E+04  0.14888259643E+04  0.12699999809E+01 0. -1.
</event>
<event>
 5   0  0.9768582E-07  0.2499843E+04  0.7818609E-02  0.8403042E-01
        2   -1    0    0  501    0  0.00000000000E+00  0.00000000000E+00  0.15365924178E+04  0.15365924178E+04  0.25500000920E-02 0. -1.
       -2   -1    0    0    0  501  0.00000000000E+00  0.00000000000E+00 -0.10167325121E+04  0.10167325121E+04  0.25500000920E-02 0.  1.
    10030    2    1    2    0    0  0.00000000000E+00  0.00000000000E+00  0.51985990570E+03  0.25533249299E+04  0.24998427703E+04 0.  0.
        3    1    3    3  502    0  0.31406674543E+03  0.26840080474E+02  0.14953294291E+04  0.15281912256E+04  0.10100000352E+00 0. -1.
       -3    1    3    3    0  502 -0.31406674543E+03 -0.26840080474E+02 -0.97546952335E+03  0.10251337043E+04  0.10100000352E+00 0.  1.
</event>
<event>
 5   0  0.3805418E-07  0.2500331E+04  0.7818609E-02  0.8402868E-01
        1   -1    0    0  501    0  0.00000000000E+00  0.00000000000E+00  0.15059435867E+04  0.15059435867E+04  0.50400001928E-02 0.  1.
       -1   -1    0    0    0  501  0.00000000000E+00  0.00000000000E+00 -0.10378304082E+04  0.10378304082E+04  0.50400001928E-02 0. -1.
    10030    2    1    2    0    0  0.00000000000E+00  0.00000000000E+00  0.46811317854E+03  0.25437739949E+04  0.25003312159E+04 0.  0.
        4    1    3    3  502    0  0.10046402053E+04  0.45920164983E+01  0.99101996132E+03  0.14111857445E+04  0.12699999809E+01 0.  1.
       -4    1    3    3    0  502 -0.10046402053E+04 -0.45920164983E+01 -0.52290678278E+03  0.11325882505E+04  0.12699999809E+01 0. -1.
</event>
<event>
 5   0  0.3214375E-07  0.2500228E+04  0.7818609E-02  0.8402904E-01
        3   -1    0    0  501    0  0.00000000000E+00  0.00000000000E+00  0.11609881245E+04  0.11609881289E+04  0.10100000352E+00 0.  1.
       -3   -1    0    0    0  501  0.00000000000E+00  0.00000000000E+00 -0.13460813582E+04  0.13460813620E+04  0.10100000352E+00 0. -1.
    10030    2    1    2    0    0  0.00000000000E+00  0.00000000000E+00 -0.18509323371E+03  0.25070694909E+04  0.25002275750E+04 0.  0.
        2    1    3    3  502    0  0.29242377160E+03  0.60500683144E+02  0.11246997238E+04  0.11636672478E+04  0.25500000920E-02 0.  1.
       -2    1    3    3    0  502 -0.29242377160E+03 -0.60500683144E+02 -0.13097929576E+04  0.13434022430E+04  0.25500000920E-02 0. -1.
</event>
<event>
 5   0  0.3805418E-07  0.2500892E+04  0.7818609E-02  0.8402668E-01
       -1   -1    0    0    0  501  0.00000000000E+00  0.00000000000E+00  0.14983844516E+04  0.14983844516E+04  0.50400001928E-02 0.  1.
        1   -1    0    0  501    0  0.00000000000E+00  0.00000000000E+00 -0.10435343006E+04  0.10435343006E+04  0.50400001928E-02 0. -1.
    10030    2    1    2    0    0  0.00000000000E+00  0.00000000000E+00  0.45485015107E+03  0.25419187522E+04  0.25008922973E+04 0.  0.
        4    1    3    3  502    0  0.12166995737E+04 -0.20039483995E+03  0.43843131704E+03  0.13087167673E+04  0.12699999809E+01 0.  1.
       -4    1    3    3    0  502 -0.12166995737E+04  0.20039483995E+03  0.16418834024E+02  0.12332019849E+04  0.12699999809E+01 0. -1.
</event>
<event>
 5   0  0.3837524E-07  0.2500553E+04  0.7818609E-02  0.8402789E-01
       -1   -1    0    0    0  501  0.00000000000E+00  0.00000000000E+00  0.11950740437E+04  0.11950740437E+04  0.50400001928E-02 0. -1.
        1   -1    0    0  501    0  0.00000000000E+00  0.00000000000E+00 -0.13080286362E+04  0.13080286362E+04  0.50400001928E-02 0.  1.
    10030    2    1    2    0    0  0.00000000000E+00  0.00000000000E+00 -0.11295459257E+03  0.25031026799E+04  0.25005527961E+04 0.  0.
        5    1    3    3  502    0 -0.46053819556E+02 -0.87063123704E+03 -0.95352127243E+03  0.12920311963E+04  0.46999998093E+01 0.  1.
       -5    1    3    3    0  502  0.46053819556E+02  0.87063123704E+03  0.84056667986E+03  0.12110714836E+04  0.46999998093E+01 0. -1.
</event>
<event>
 5   0  0.9508784E-07  0.2501426E+04  0.7818609E-02  0.8402478E-01
       -2   -1    0    0    0  501  0.00000000000E+00  0.00000000000E+00  0.78917227808E+03  0.78917227809E+03  0.25500000920E-02 0. -1.
        2   -1    0    0  501    0  0.00000000000E+00  0.00000000000E+00 -0.19821822499E+04  0.19821822499E+04  0.25500000920E-02 0.  1.
    10030    2    1    2    0    0  0.00000000000E+00  0.00000000000E+00 -0.11930099718E+04  0.27713545280E+04  0.25014262185E+04 0.  0.
        2    1    3    3  502    0 -0.69116974872E+03  0.61226198621E+03 -0.15311652148E+04  0.17880288801E+04  0.25500000920E-02 0.  1.
       -2    1    3    3    0  502  0.69116974872E+03 -0.61226198621E+03  0.33815524297E+03  0.98332564782E+03  0.25500000920E-02 0. -1.
</event>
<event>
 5   0  0.9261602E-07  0.2500333E+04  0.7818609E-02  0.8402867E-01
       -2   -1    0    0    0  501  0.00000000000E+00  0.00000000000E+00  0.93579096883E+03  0.93579096883E+03  0.25500000920E-02 0. -1.
        2   -1    0    0  501    0  0.00000000000E+00  0.00000000000E+00 -0.16701551920E+04  0.16701551920E+04  0.25500000920E-02 0.  1.
    10030    2    1    2    0    0  0.00000000000E+00  0.00000000000E+00 -0.73436422322E+03  0.26059461609E+04  0.25003328940E+04 0.  0.
        4    1    3    3  502    0  0.87073809827E+03 -0.84893531578E+03 -0.66932113302E+03  0.13881168532E+04  0.12699999809E+01 0.  1.
       -4    1    3    3    0  502 -0.87073809827E+03  0.84893531578E+03 -0.65043090201E+02  0.12178293077E+04  0.12699999809E+01 0. -1.
</event>
<event>
 5   0  0.9251138E-07  0.2501756E+04  0.7818609E-02  0.8402360E-01
        2   -1    0    0  501    0  0.00000000000E+00  0.00000000000E+00  0.17408250445E+04  0.17408250445E+04  0.25500000920E-02 0.  1.
       -2   -1    0    0    0  501  0.00000000000E+00  0.00000000000E+00 -0.89882456461E+03  0.89882456461E+03  0.25500000920E-02 0. -1.
    10030    2    1    2    0    0  0.00000000000E+00  0.00000000000E+00  0.84200047985E+03  0.26396496091E+04  0.25017564331E+04 0.  0.
        5    1    3    3  502    0 -0.60240841174E+03  0.10509721318E+04  0.91986079642E+02  0.12148752385E+04  0.46999998093E+01 0. -1.
       -5    1    3    3    0  502  0.60240841174E+03 -0.10509721318E+04  0.75001440021E+03  0.14247743705E+04  0.46999998093E+01 0.  1.
</event>
<event>
 5   0  0.9251138E-07  0.2500817E+04  0.7818609E-02  0.8402694E-01
        2   -1    0    0  501    0  0.00000000000E+00  0.00000000000E+00  0.90854130632E+03  0.90854130633E+03  0.25500000920E-02 0. -1.
       -2   -1    0    0    0  501  0.00000000000E+00  0.00000000000E+00 -0.17209140919E+04  0.17209140919E+04  0.25500000920E-02 0.  1.
    10030    2    1    2    0    0  0.00000000000E+00  0.00000000000E+00 -0.81237278557E+03  0.26294553982E+04  0.25008170962E+04 0.  0.
        5    1    3    3  502    0 -0.41616053526E+03  0.90403401032E+02  0.82993020614E+03  0.93282828167E+03  0.46999998093E+01 0. -1.
       -5    1    3    3    0  502  0.41616053526E+03 -0.90403401032E+02 -0.16423029917E+04  0.16966271165E+04  0.46999998093E+01 0.  1.
</event>
<event>
 5   0  0.3805418E-07  0.2499792E+04  0.7818609E-02  0.8403060E-01
       -1   -1    0    0    0  501  0.00000000000E+00  0.00000000000E+00  0.13828165642E+04  0.13828165642E+04  0.50400001928E-02 0. -1.
        1   -1    0    0  501    0  0.00000000000E+00  0.00000000000E+00 -0.11297524579E+04  0.11297524579E+04  0.50400001928E-02 0.  1.
    10030    2    1    2    0    0  0.00000000000E+00  0.00000000000E+00  0.25306410630E+03  0.25125690222E+04  0.24997923212E+04 0.  0.
        4    1    3    3  502    0 -0.52245495694E+03  0.85709416057E+03  0.87509978710E+03  0.13316797034E+04  0.12699999809E+01 0. -1.
       -4    1    3    3    0  502  0.52245495694E+03 -0.85709416057E+03 -0.62203568081E+03  0.11808893188E+04  0.12699999809E+01 0.  1.
</event>
<event>
 5   0  0.3991066E-07  0.2500247E+04  0.7818609E-02  0.8402898E-01
        1   -1    0    0  501    0  0.00000000000E+00  0.00000000000E+00  0.15402381587E+04  0.15402381587E+04  0.50400001928E-02 0. -1.
       -1   -1    0    0    0  501  0.00000000000E+00  0.00000000000E+00 -0.10146536571E+04  0.10146536571E+04  0.50400001928E-02 0.  1.
    10030    2    1    2    0    0  0.00000000000E+00  0.00000000000E+00  0.52558450165E+03  0.25548918158E+04  0.25002466123E+04 0.  0.
        1    1    3    3  502    0  0.30845368991E+03  0.73596476845E+03  0.12461237679E+04  0.14797338491E+04  0.50400001928E-02 0. -1.
       -1    1    3    3    0  502 -0.30845368991E+03 -0.73596476845E+03 -0.72053926624E+03  0.10751579667E+04  0.50400001928E-02 0.  1.
</event>
<event>
 5   0  0.9768582E-07  0.2503374E+04  0.7818609E-02  0.8401784E-01
        2   -1    0    0  501    0  0.00000000000E+00  0.00000000000E+00  0.12117551675E+04  0.12117551675E+04  0.25500000920E-02 0.  1.
       -2   -1    0    0    0  501  0.00000000000E+00  0.00000000000E+00 -0.12929350143E+04  0.12929350143E+04  0.25500000920E-02 0. -1.
    10030    2    1    2    0    0  0.00000000000E+00  0.00000000000E+00 -0.81179846792E+02  0.25046901819E+04  0.25033742708E+04 0.  0.
        3    1    3    3  502    0  0.72007044956E+03 -0.35268430667E+03 -0.10022574815E+04  0.12835138261E+04  0.10100000352E+00 0. -1.
       -3    1    3    3    0  502 -0.72007044956E+03  0.35268430667E+03  0.92107763468E+03  0.12211763557E+04  0.10100000352E+00 0.  1.
</event>
<event>
 5   0  0.8997210E-07  0.2500532E+04  0.7818609E-02  0.8402796E-01
       -2   -1    0    0    0  501  0.00000000000E+00  0.00000000000E+00  0.11597573116E+04  0.11597573116E+04  0.25500000920E-02 0. -1.
        2   -1    0    0  501    0  0.00000000000E+00  0.00000000000E+00 -0.13478380464E+04  0.13478380464E+04  0.25500000920E-02 0.  1.
    10030    2    1    2    0    0  0.00000000000E+00  0.00000000000E+00 -0.18808073479E+03  0.25075953580E+04  0.25005319668E+04 0.  0.
        1    1    3    3  502    0  0.35808696930E+03  0.47495812100E+03  0.10087721464E+04  0.11710818663E+04  0.50400001928E-02 0. -1.
       -1    1    3    3    0  502 -0.35808696930E+03 -0.47495812100E+03 -0.11968528812E+04  0.13365134917E+04  0.50400001928E-02 0.  1.
</event>
<event>
 5   0  0.9251138E-07  0.2487388E+04  0.7818609E-02  0.8407493E-01
       -2   -1    0    0    0  501  0.00000000000E+00  0.00000000000E+00  0.57065432794E+03  0.57065432794E+03  0.25500000920E-02 0.  1.
        2   -1    0    0  501    0  0.00000000000E+00  0.00000000000E+00 -0.27105273867E+04  0.27105273867E+04  0.25500000920E-02 0. -1.
    10030    2    1    2    0    0  0.00000000000E+00  0.00000000000E+00 -0.21398730587E+04  0.32811817146E+04  0.24873875325E+04 0.  0.
        5    1    3    3  502    0 -0.11347944914E+04 -0.14916452880E+03 -0.42809788582E+03  0.12220059264E+04  0.46999998093E+01 0.  1.
       -5    1    3    3    0  502  0.11347944914E+04  0.14916452880E+03 -0.17117751729E+04  0.20591757882E+04  0.46999998093E+01 0. -1.
</event>
<event>
 5   0  0.3972587E-07  0.2499868E+04  0.7818609E-02  0.8403033E-01
       -1   -1    0    0    0  501  0.00000000000E+00  0.00000000000E+00  0.91221330665E+03  0.91221330667E+03  0.50400001928E-02 0.  1.
        1   -1    0    0  501    0  0.00000000000E+00  0.00000000000E+00 -0.17126860732E+04  0.17126860732E+04  0.50400001928E-02 0. -1.
    10030    2    1    2    0    0  0.00000000000E+00  0.00000000000E+00 -0.80047276653E+03  0.26248993799E+04  0.24998680174E+04 0.  0.
        3    1    3    3  502    0  0.87272991671E+02  0.41828933250E+03  0.83314154084E+03  0.93632653387E+03  0.10100000352E+00 0.  1.
       -3    1    3    3    0  502 -0.87272991671E+02 -0.41828933250E+03 -0.16336143074E+04  0.16885728460E+04  0.10100000352E+00 0. -1.
</event>
<event>
 5   0  0.9508784E-07  0.2503312E+04  0.7818609E-02  0.8401807E-01
       -2   -1    0    0    0  501  0.00000000000E+00  0.00000000000E+00  0.80352586201E+03  0.80352586202E+03  0.25500000920E-02 0. -1.
        2   -1    0    0  501    0  0.00000000000E+00  0.00000000000E+00 -0.19497098923E+04  0.19497098923E+04  0.25500000920E-02 0.  1.
    10030    2    1    2    0    0  0.00000000000E+00  0.00000000000E+00 -0.11461840303E+04  0.27532357543E+04  0.25033116641E+04 0.  0.
        2    1    3    3  502    0  0.84387090841E+03 -0.29207310313E+03 -0.15377049026E+04  0.17781904215E+04  0.25500000920E-02 0.  1.
       -2    1    3    3    0  502 -0.84387090841E+03  0.29207310313E+03  0.39152087229E+03  0.97504533283E+03  0.25500000920E-02 0. -1.
</event>
<event>
 5   0  0.3991066E-07  0.2500037E+04  0.7818609E-02  0.8402972E-01
       -1   -1    0    0    0  501  0.00000000000E+00  0.00000000000E+00  0.11126536145E+04  0.11126536145E+04  0.50400001928E-02 0. -1.
        1   -1    0    0  501    0  0.00000000000E+00  0.00000000000E+00 -0.14043419360E+04  0.14043419360E+04  0.50400001928E-02 0.  1.
    10030    2    1    2    0    0  0.00000000000E+00  0.00000000000E+00 -0.29168832150E+03  0.25169955505E+04  0.25000369046E+04 0.  0.
        1    1    3    3  502    0 -0.74695526527E+03 -0.50399148399E+03  0.72640248746E+03  0.11574152920E+04  0.50400001928E-02 0. -1.
       -1    1    3    3    0  502  0.74695526527E+03  0.50399148399E+03 -0.10180908090E+04  0.13595802586E+04  0.50400001928E-02 0.  1.
</event>
<event>
 5   0  0.9768582E-07  0.2499964E+04  0.7818609E-02  0.8402998E-01
        2   -1    0    0  501    0  0.00000000000E+00  0.00000000000E+00  0.22701424191E+04  0.22701424191E+04  0.25500000920E-02 0.  1.
       -2   -1    0    0    0  501  0.00000000000E+00  0.00000000000E+00 -0.68826281492E+03  0.68826281493E+03  0.25500000920E-02 0. -1.
    10030    2    1    2    0    0  0.00000000000E+00  0.00000000000E+00  0.15818796041E+04  0.29584052340E+04  0.24999636890E+04 0.  0.
        3    1    3    3  502    0 -0.33715440612E+02 -0.11917747710E+04  0.34659582703E+03  0.12416088407E+04  0.10100000352E+00 0. -1.
       -3    1    3    3    0  502  0.33715440612E+02  0.11917747710E+04  0.12352837771E+04  0.17167963933E+04  0.10100000352E+00 0.  1.
</event>
<event>
 5   0  0.9508784E-07  0.2499872E+04  0.7818609E-02  0.8403031E-01
        2   -1    0    0  501    0  0.00000000000E+00  0.00000000000E+00  0.15165267378E+04  0.15165267378E+04  0.25500000920E-02 0.  1.
       -2   -1    0    0    0  501  0.00000000000E+00  0.00000000000E+00 -0.10302093275E+04  0.10302093275E+04  0.25500000920E-02 0. -1.
    10030    2    1    2    0    0  0.00000000000E+00  0.00000000000E+00  0.48631741025E+03  0.25467360653E+04  0.24998719892E+04 0.  0.
        2    1    3    3  502    0 -0.19491056570E+03 -0.12302694795E+04  0.13735183044E+03  0.12531634555E+04  0.25500000920E-02 0. -1.
       -2    1    3    3    0  502  0.19491056570E+03  0.12302694795E+04  0.34896557981E+03  0.12935726098E+04  0.25500000920E-02 0.  1.
</event>
<event>
 5   0  0.3991066E-07  0.2499007E+04  0.7818609E-02  0.8403339E-01
       -1   -1    0    0    0  501  0.00000000000E+00  0.00000000000E+00  0.84888929293E+03  0.84888929294E+03  0.50400001928E-02 0.  1.
        1   -1    0    0  501    0  0.00000000000E+00  0.00000000000E+00 -0.18391789377E+04  0.18391789377E+04  0.50400001928E-02 0. -1.
    10030    2    1    2    0    0  0.00000000000E+00  0.00000000000E+00 -0.99028964474E+03  0.26880682306E+04  0.24990072493E+04 0.  0.
        1    1    3    3  502    0 -0.82948822284E+03 -0.93444166402E+03 -0.48951711547E+03  0.13419608570E+04  0.50400001928E-02 0.  1.
       -1    1    3    3    0  502  0.82948822284E+03  0.93444166402E+03 -0.50077252927E+03  0.13461073736E+04  0.50400001928E-02 0. -1.
</event>
<event>
 5   0  0.9251138E-07  0.2501640E+04  0.7818609E-02  0.8402401E-01
       -2   -1    0    0    0  501  0.00000000000E+00  0.00000000000E+00  0.11487697358E+04  0.11487697358E+04  0.25500000920E-02 0.  1.
        2   -1    0    0  501    0  0.00000000000E+00  0.00000000000E+00 -0.13619363487E+04  0.13619363487E+04  0.25500000920E-02 0. -1.
    10030    2    1    2    0    0  0.00000000000E+00  0.00000000000E+00 -0.21316661289E+03  0.25107060845E+04  0.25016404694E+04 0.  0.
        5    1    3    3  502    0  0.10878842306E+03  0.41043612590E+03 -0.12873826942E+04  0.13556065158E+04  0.46999998093E+01 0. -1.
       -5    1    3    3    0  502 -0.10878842306E+03 -0.41043612590E+03  0.10742160813E+04  0.11550995687E+04  0.46999998093E+01 0.  1.
</event>
<event>
 5   0  0.9508784E-07  0.2501141E+04  0.7818609E-02  0.8402579E-01
       -2   -1    0    0    0  501  0.00000000000E+00  0.00000000000E+00  0.11333731590E+04  0.11333731590E+04  0.25500000920E-02 0.  1.
        2   -1    0    0  501    0  0.00000000000E+00  0.00000000000E+00 -0.13798863902E+04  0.13798863902E+04  0.25500000920E-02 0. -1.
    10030    2    1    2    0    0  0.00000000000E+00  0.00000000000E+00 -0.24651323129E+03  0.25132595492E+04  0.25011406975E+04 0.  0.
        2    1    3    3  502    0  0.53994399536E+03  0.54319666856E+01  0.10101969673E+04  0.11454549040E+04  0.25500000920E-02 0.  1.
       -2    1    3    3    0  502 -0.53994399536E+03 -0.54319666856E+01 -0.12567101985E+04  0.13678046452E+04  0.25500000920E-02 0. -1.
</event>
<event>
 5   0  0.9251138E-07  0.2499228E+04  0.7818609E-02  0.8403261E-01
       -2   -1    0    0    0  501  0.00000000000E+00  0.00000000000E+00  0.74904252536E+03  0.74904252537E+03  0.25500000920E-02 0.  1.
        2   -1    0    0  501    0  0.00000000000E+00  0.00000000000E+00 -0.20847077665E+04  0.20847077665E+04  0.25500000920E-02 0. -1.
    10030    2    1    2    0    0  0.00000000000E+00  0.00000000000E+00 -0.13356652411E+04  0.28337502919E+04  0.24992276968E+04 0.  0.
        5    1    3    3  502    0 -0.10524511646E+04  0.38378168969E+03 -0.12956324238E+04  0.17127834968E+04  0.46999998093E+01 0. -1.
       -5    1    3    3    0  502  0.10524511646E+04 -0.38378168969E+03 -0.40032817361E+02  0.11209667951E+04  0.46999998093E+01 0.  1.
</event>
<event>
 5   0  0.3991066E-07  0.2498320E+04  0.7818609E-02  0.8403584E-01
       -1   -1    0    0    0  501  0.00000000000E+00  0.00000000000E+00  0.15939777409E+04  0.15939777409E+04  0.50400001928E-02 0.  1.
        1   -1    0    0  501    0  0.00000000000E+00  0.00000000000E+00 -0.97893471998E+03  0.97893472000E+03  0.50400001928E-02 0. -1.
    10030    2    1    2    0    0  0.00000000000E+00  0.00000000000E+00  0.61504302092E+03  0.25729124609E+04  0.24983195580E+04 0.  0.
        1    1    3    3  502    0 -0.18973505155E+03 -0.10833001056E+04 -0.30249974820E+03  0.11406334232E+04  0.50400001928E-02 0. -1.
       -1    1    3    3    0  502  0.18973505155E+03  0.10833001056E+04  0.91754276912E+03  0.14322790377E+04  0.50400001928E-02 0.  1.
</event>
<event>
 5   0  0.9261602E-07  0.2498546E+04  0.7818609E-02  0.8403504E-01
       -2   -1    0    0    0  501  0.00000000000E+00  0.00000000000E+00  0.14572982409E+04  0.14572982409E+04  0.25500000920E-02 0. -1.
        2   -1    0    0  501    0  0.00000000000E+00  0.00000000000E+00 -0.10709423626E+04  0.10709423626E+04  0.25500000920E-02 0.  1.
    10030    2    1    2    0    0  0.00000000000E+00  0.00000000000E+00  0.38635587834E+03  0.25282406035E+04  0.24985455138E+04 0.  0.
        4    1    3    3  502    0  0.31205408285E+03  0.10669994774E+04  0.76987706186E+03  0.13522492147E+04  0.12699999809E+01 0. -1.
       -4    1    3    3    0  502 -0.31205408285E+03 -0.10669994774E+04 -0.38352118352E+03  0.11759913888E+04  0.12699999809E+01 0.  1.
</event>
<event>
 5   0  0.9768582E-07  0.2505897E+04  0.7818609E-02  0.8400888E-01
        2   -1    0    0  501    0  0.00000000000E+00  0.00000000000E+00  0.18533443791E+04  0.18533443791E+04  0.25500000920E-02 0. -1.
       -2   -1    0    0    0  501  0.00000000000E+00  0.00000000000E+00 -0.84705221887E+03  0.84705221888E+03  0.25500000920E-02 0.  1.
    10030    2    1    2    0    0  0.00000000000E+00  0.00000000000E+00  0.10062921602E+04  0.27003965980E+04  0.25058966209E+04 0.  0.
        3    1    3    3  502    0 -0.11637487959E+04 -0.30294553547E+03  0.88229606591E+03  0.14914870484E+04  0.10100000352E+00 0. -1.
       -3    1    3    3    0  502  0.11637487959E+04  0.30294553547E+03  0.12399609432E+03  0.12089095496E+04  0.10100000352E+00 0.  1.
</event>
<event>
 5   0  0.9251138E-07  0.2498093E+04  0.7818609E-02  0.8403665E-01
        2   -1    0    0  501    0  0.00000000000E+00  0.00000000000E+00  0.14656739243E+04  0.14656739243E+04  0.25500000920E-02 0.  1.
       -2   -1    0    0    0  501  0.00000000000E+00  0.00000000000E+00 -0.10644365517E+04  0.10644365517E+04  0.25500000920E-02 0. -1.
    10030    2    1    2    0    0  0.00000000000E+00  0.00000000000E+00  0.40123737268E+03  0.25301104760E+04  0.24980927908E+04 0.  0.
        5    1    3    3  502    0  0.58546281071E+03 -0.94064521312E+03  0.78465027275E+03  0.13576738416E+04  0.46999998093E+01 0.  1.
       -5    1    3    3    0  502 -0.58546281071E+03  0.94064521312E+03 -0.38341290007E+03  0.11724366344E+04  0.46999998093E+01 0. -1.
</event>
<event>
 5   0  0.9768582E-07  0.2497712E+04  0.7818609E-02  0.8403801E-01
        2   -1    0    0  501    0  0.00000000000E+00  0.00000000000E+00  0.83850572349E+03  0.83850572349E+03  0.25500000920E-02 0. -1.
       -2   -1    0    0    0  501  0.00000000000E+00  0.00000000000E+00 -0.18600245244E+04  0.18600245244E+04  0.25500000920E-02 0.  1.
    10030    2    1    2    0    0  0.00000000000E+00  0.00000000000E+00 -0.10215188009E+04  0.26985302479E+04  0.24977119206E+04 0.  0.
        3    1    3    3  502    0 -0.40548448094E+03 -0.76905604804E+02 -0.17842166740E+04  0.18313277386E+04  0.10100000352E+00 0.  1.
       -3    1    3    3    0  502  0.40548448094E+03  0.76905604804E+02  0.76269787306E+03  0.86720250928E+03  0.10100000352E+00 0. -1.
</event>
<event>
 5   0  0.3972587E-07  0.2499222E+04  0.7818609E-02  0.8403263E-01
       -1   -1    0    0    0  501  0.00000000000E+00  0.00000000000E+00  0.12564242939E+04  0.12564242939E+04  0.50400001928E-02 0.  1.
        1   -1    0    0  501    0  0.00000000000E+00  0.00000000000E+00 -0.12428350218E+04  0.12428350218E+04  0.50400001928E-02 0. -1.
    10030    2    1    2    0    0  0.00000000000E+00  0.00000000000E+00  0.13589272072E+02  0.24992593158E+04  0.24992223709E+04 0.  0.
        3    1    3    3  502    0 -0.45558917389E+03 -0.10480375520E+04 -0.49876589958E+03  0.12468807636E+04  0.10100000352E+00 0. -1.
       -3    1    3    3    0  502  0.45558917389E+03  0.10480375520E+04  0.51235517165E+03  0.12523785522E+04  0.10100000352E+00 0.  1.
</event>
<event>
 5   0  0.3972587E-07  0.2499439E+04  0.7818609E-02  0.8403185E-01
       -1   -1    0    0    0  501  0.00000000000E+00  0.00000000000E+00  0.11893430567E+04  0.11893430567E+04  0.50400001928E-02 0. -1.
        1   -1    0    0  501    0  0.00000000000E+00  0.00000000000E+00 -0.13131607870E+04  0.13131607870E+04  0.50400001928E-02 0.  1.
    10030    2    1    2    0    0  0.00000000000E+00  0.00000000000E+00 -0.12381773029E+03  0.25025038438E+04  0.24994388686E+04 0.  0.
        3    1    3    3  502    0  0.28468840554E+03 -0.10489052356E+04 -0.67955184691E+03  0.12818113763E+04  0.10100000352E+00 0.  1.
       -3    1    3    3    0  502 -0.28468840554E+03  0.10489052356E+04  0.55573411662E+03  0.12206924675E+04  0.10100000352E+00 0. -1.
</event>
<event>
 5   0  0.9261602E-07  0.2500118E+04  0.7818609E-02  0.8402944E-01
       -2   -1    0    0    0  501  0.00000000000E+00  0.00000000000E+00  0.61158393768E+03  0.61158393769E+03  0.25500000920E-02 0. -1.
        2   -1    0    0  501    0  0.00000000000E+00  0.00000000000E+00 -0.25550820675E+04  0.25550820675E+04  0.25500000920E-02 0.  1.
    10030    2    1    2    0    0  0.00000000000E+00  0.00000000000E+00 -0.19434981298E+04  0.31666660052E+04  0.25001177188E+04 0.  0.
        4    1    3    3  502    0 -0.38174977469E+03  0.78059780667E+03 -0.21099907909E+04  0.22819133587E+04  0.12699999809E+01 0.  1.
       -4    1    3    3    0  502  0.38174977469E+03 -0.78059780667E+03  0.16649266110E+03  0.88475264642E+03  0.12699999809E+01 0. -1.
</event>
<event>
 5   0  0.3837524E-07  0.2499983E+04  0.7818609E-02  0.8402992E-01
       -1   -1    0    0    0  501  0.00000000000E+00  0.00000000000E+00  0.11291894831E+04  0.11291894831E+04  0.50400001928E-02 0.  1.
        1   -1    0    0  501    0  0.00000000000E+00  0.00000000000E+00 -0.13837166512E+04  0.13837166512E+04  0.50400001928E-02 0. -1.
    10030    2    1    2    0    0  0.00000000000E+00  0.00000000000E+00 -0.25452716812E+03  0.25129061344E+04  0.24999826321E+04 0.  0.
        5    1    3    3  502    0 -0.11322151424E+04 -0.11148064245E+03 -0.64774060747E+03  0.13091711298E+04  0.46999998093E+01 0. -1.
       -5    1    3    3    0  502  0.11322151424E+04  0.11148064245E+03  0.39321343935E+03  0.12037350046E+04  0.46999998093E+01 0.  1.
</event>
<event>
 5   0  0.3214375E-07  0.2498404E+04  0.7818609E-02  0.8403554E-01
        3   -1    0    0  501    0  0.00000000000E+00  0.00000000000E+00  0.11349798856E+04  0.11349798901E+04  0.10100000352E+00 0.  1.
       -3   -1    0    0    0  501  0.00000000000E+00  0.00000000000E+00 -0.13749192598E+04  0.13749192635E+04  0.10100000352E+00 0. -1.
    10030    2    1    2    0    0  0.00000000000E+00  0.00000000000E+00 -0.23993937417E+03  0.25098991536E+04  0.24984040622E+04 0.  0.
        5    1    3    3  502    0  0.23761214538E+02  0.18900548886E+03 -0.13602332845E+04  0.13735153251E+04  0.46999998093E+01 0. -1.
       -5    1    3    3    0  502 -0.23761214538E+02 -0.18900548886E+03  0.11202939103E+04  0.11363838285E+04  0.46999998093E+01 0.  1.
</event>
<event>
 5   0  0.3972587E-07  0.2499895E+04  0.7818609E-02  0.8403023E-01
       -1   -1    0    0    0  501  0.00000000000E+00  0.00000000000E+00  0.14120309230E+04  0.14120309230E+04  0.50400001928E-02 0.  1.
        1   -1    0    0  501    0  0.00000000000E+00  0.00000000000E+00 -0.11064687814E+04  0.11064687814E+04  0.50400001928E-02 0. -1.
    10030    2    1    2    0    0  0.00000000000E+00  0.00000000000E+00  0.30556214160E+03  0.25184997044E+04  0.24998945056E+04 0.  0.
        3    1    3    3  502    0  0.81854538325E+03 -0.57197074046E+03 -0.60461265480E+03  0.11673575052E+04  0.10100000352E+00 0. -1.
       -3    1    3    3    0  502 -0.81854538325E+03  0.57197074046E+03  0.91017479640E+03  0.13511421992E+04  0.10100000352E+00 0.  1.
</event>
<event>
 5   0  0.3214375E-07  0.2484712E+04  0.7818609E-02  0.8408452E-01
        3   -1    0    0  501    0  0.00000000000E+00  0.00000000000E+00  0.10892616829E+04  0.10892616876E+04  0.10100000352E+00 0.  1.
       -3   -1    0    0    0  501  0.00000000000E+00  0.00000000000E+00 -0.14169675320E+04  0.14169675356E+04  0.10100000352E+00 0. -1.
    10030    2    1    2    0    0  0.00000000000E+00  0.00000000000E+00 -0.32770584909E+03  0.25062292233E+04  0.24847120147E+04 0.  0.
        4    1    3    3  502    0  0.41046264254E+03  0.82818931894E+03  0.67343785489E+03  0.11436333705E+04  0.12699999809E+01 0.  1.
       -4    1    3    3    0  502 -0.41046264254E+03 -0.82818931894E+03 -0.10011437040E+04  0.13625958527E+04  0.12699999809E+01 0. -1.
</event>
<event>
 5   0  0.3972587E-07  0.2499259E+04  0.7818609E-02  0.8403249E-01
        1   -1    0    0  501    0  0.00000000000E+00  0.00000000000E+00  0.17386437156E+04  0.17386437156E+04  0.50400001928E-02 0.  1.
       -1   -1    0    0    0  501  0.00000000000E+00  0.00000000000E+00 -0.89815659285E+03  0.89815659287E+03  0.50400001928E-02 0. -1.
    10030    2    1    2    0    0  0.00000000000E+00  0.00000000000E+00  0.84048712274E+03  0.26368003085E+04  0.24992593429E+04 0.  0.
        3    1    3    3  502    0  0.99066456371E+03 -0.46275048926E+03  0.10585339903E+04  0.15218569289E+04  0.10100000352E+00 0.  1.
       -3    1    3    3    0  502 -0.99066456371E+03  0.46275048926E+03 -0.21804686755E+03  0.11149433796E+04  0.10100000352E+00 0. -1.
</event>
<event>
 5   0  0.8997210E-07  0.2501667E+04  0.7818609E-02  0.8402392E-01
       -2   -1    0    0    0  501  0.00000000000E+00  0.00000000000E+00  0.12909144294E+04  0.12909144294E+04  0.25500000920E-02 0. -1.
        2   -1    0    0  501    0  0.00000000000E+00  0.00000000000E+00 -0.12119970786E+04  0.12119970786E+04  0.25500000920E-02 0.  1.
    10030    2    1    2    0    0  0.00000000000E+00  0.00000000000E+00  0.78917350838E+02  0.25029115080E+04  0.25016670579E+04 0.  0.
        1    1    3    3  502    0  0.33390803024E+03 -0.86716163550E+03  0.87720467419E+03  0.12778700698E+04  0.50400001928E-02 0. -1.
       -1    1    3    3    0  502 -0.33390803024E+03  0.86716163550E+03 -0.79828732335E+03  0.12250414382E+04  0.50400001928E-02 0.  1.
</event>
<event>
 5   0  0.3873231E-07  0.2500882E+04  0.7818609E-02  0.8402671E-01
       -1   -1    0    0    0  501  0.00000000000E+00  0.00000000000E+00  0.57199373073E+03  0.57199373075E+03  0.50400001928E-02 0.  1.
        1   -1    0    0  501    0  0.00000000000E+00  0.00000000000E+00 -0.27336020079E+04  0.27336020079E+04  0.50400001928E-02 0. -1.
    10030    2    1    2    0    0  0.00000000000E+00  0.00000000000E+00 -0.21616082772E+04  0.33055957387E+04  0.25008824130E+04 0.  0.
        2    1    3    3  502    0 -0.10230092996E+03  0.81347658013E+03  0.16712871846E+03  0.83674466549E+03  0.25500000920E-02 0.  1.
       -2    1    3    3    0  502  0.10230092996E+03 -0.81347658013E+03 -0.23287369957E+04  0.24688510732E+04  0.25500000920E-02 0. -1.
</event>
<event>
 5   0  0.3972587E-07  0.2499601E+04  0.7818609E-02  0.8403128E-01
       -1   -1    0    0    0  501  0.00000000000E+00  0.00000000000E+00  0.86636278747E+03  0.86636278748E+03  0.50400001928E-02 0. -1.
        1   -1    0    0  501    0  0.00000000000E+00  0.00000000000E+00 -0.18029412495E+04  0.18029412495E+04  0.50400001928E-02 0.  1.
    10030    2    1    2    0    0  0.00000000000E+00  0.00000000000E+00 -0.93657846203E+03  0.26693040370E+04  0.24996009334E+04 0.  0.
        3    1    3    3  502    0 -0.32642023188E+03 -0.11471367926E+04 -0.69394432784E+02  0.11946918373E+04  0.10100000352E+00 0. -1.
       -3    1    3    3    0  502  0.32642023188E+03  0.11471367926E+04 -0.86718402924E+03  0.14746121997E+04  0.10100000352E+00 0.  1.
</event>
<event>
 5   0  0.3873231E-07  0.2499704E+04  0.7818609E-02  0.8403091E-01
       -1   -1    0    0    0  501  0.00000000000E+00  0.00000000000E+00  0.19907682302E+04  0.19907682302E+04  0.50400001928E-02 0. -1.
        1   -1    0    0  501    0  0.00000000000E+00  0.00000000000E+00 -0.78468676270E+03  0.78468676272E+03  0.50400001928E-02 0.  1.
    10030    2    1    2    0    0  0.00000000000E+00  0.00000000000E+00  0.12060814675E+04  0.27754549929E+04  0.24997035647E+04 0.  0.
        2    1    3    3  502    0 -0.15623265717E+03 -0.33935768193E+03  0.19273229545E+04  0.19631979142E+04  0.25500000920E-02 0. -1.
       -2    1    3    3    0  502  0.15623265717E+03  0.33935768193E+03 -0.72124148696E+03  0.81225707875E+03  0.25500000920E-02 0.  1.
</event>
<event>
 5   0  0.3972587E-07  0.2499841E+04  0.7818609E-02  0.8403042E-01
       -1   -1    0    0    0  501  0.00000000000E+00  0.00000000000E+00  0.14126699421E+04  0.14126699422E+04  0.50400001928E-02 0. -1.
        1   -1    0    0  501    0  0.00000000000E+00  0.00000000000E+00 -0.11059207240E+04  0.11059207240E+04  0.50400001928E-02 0.  1.
    10030    2    1    2    0    0  0.00000000000E+00  0.00000000000E+00  0.30674921817E+03  0.25185906661E+04  0.24998407671E+04 0.  0.
        3    1    3    3  502    0  0.39215563744E+03  0.12415351914E+03 -0.10357750520E+04  0.11144640456E+04  0.10100000352E+00 0.  1.
       -3    1    3    3    0  502 -0.39215563744E+03 -0.12415351914E+03  0.13425242702E+04  0.14041266206E+04  0.10100000352E+00 0. -1.
</event>
<event>
 5   0  0.9251138E-07  0.2499504E+04  0.7818609E-02  0.8403162E-01
        2   -1    0    0  501    0  0.00000000000E+00  0.00000000000E+00  0.17683023672E+04  0.17683023672E+04  0.25500000920E-02 0. -1.
       -2   -1    0    0    0  501  0.00000000000E+00  0.00000000000E+00 -0.88326500364E+03  0.88326500364E+03  0.25500000920E-02 0.  1.
    10030    2    1    2    0    0  0.00000000000E+00  0.00000000000E+00  0.88503736357E+03  0.26515673709E+04  0.24995036282E+04 0.  0.
        5    1    3    3  502    0 -0.36236916163E+03  0.74523573530E+03 -0.54990028350E+03  0.99453512872E+03  0.46999998093E+01 0.  1.
       -5    1    3    3    0  502  0.36236916163E+03 -0.74523573530E+03  0.14349376471E+04  0.16570322421E+04  0.46999998093E+01 0. -1.
</event>
<event>
 5   0  0.8997210E-07  0.2506124E+04  0.7818609E-02  0.8400807E-01
       -2   -1    0    0    0  501  0.00000000000E+00  0.00000000000E+00  0.52099392354E+03  0.52099392355E+03  0.25500000920E-02 0. -1.
        2   -1    0    0  501    0  0.00000000000E+00  0.00000000000E+00 -0.30137856102E+04  0.30137856103E+04  0.25500000920E-02 0.  1.
    10030    2    1    2    0    0  0.00000000000E+00  0.00000000000E+00 -0.24927916867E+04  0.35347795338E+04  0.25061236919E+04 0.  0.
        1    1    3    3  502    0 -0.64850380662E+03  0.67046626078E+03 -0.66253964803E+02  0.93513195963E+03  0.50400001928E-02 0. -1.
       -1    1    3    3    0  502  0.64850380662E+03 -0.67046626078E+03 -0.24265377219E+04  0.25996475742E+04  0.50400001928E-02 0.  1.
</event>
<event>
 5   0  0.3991066E-07  0.2500804E+04  0.7818609E-02  0.8402699E-01
       -1   -1    0    0    0  501  0.00000000000E+00  0.00000000000E+00  0.60390420249E+03  0.60390420251E+03  0.50400001928E-02 0.  1.
        1   -1    0    0  501    0  0.00000000000E+00  0.00000000000E+00 -0.25889943657E+04  0.25889943657E+04  0.50400001928E-02 0. -1.
    10030    2    1    2    0    0  0.00000000000E+00  0.00000000000E+00 -0.19850901632E+04  0.31928985682E+04  0.25008035330E+04 0.  0.
        1    1    3    3  502    0 -0.11142055126E+04  0.13407756844E+03 -0.16965814447E+04  0.20341630508E+04  0.50400001928E-02 0. -1.
       -1    1    3    3    0  502  0.11142055126E+04 -0.13407756844E+03 -0.28850871854E+03  0.11587355174E+04  0.50400001928E-02 0.  1.
</event>
<event>
 5   0  0.9508784E-07  0.2500306E+04  0.7818609E-02  0.8402877E-01
       -2   -1    0    0    0  501  0.00000000000E+00  0.00000000000E+00  0.25080295128E+04  0.25080295128E+04  0.25500000920E-02 0. -1.
        2   -1    0    0  501    0  0.00000000000E+00  0.00000000000E+00 -0.62315134946E+03  0.62315134947E+03  0.25500000920E-02 0.  1.
    10030    2    1    2    0    0  0.00000000000E+00  0.00000000000E+00  0.18848781633E+04  0.31311808622E+04  0.25003055616E+04 0.  0.
        2    1    3    3  502    0 -0.11007011099E+04  0.12468314241E+02  0.16845728102E+04  0.20123329608E+04  0.25500000920E-02 0. -1.
       -2    1    3    3    0  502  0.11007011099E+04 -0.12468314241E+02  0.20030535308E+03  0.11188479015E+04  0.25500000920E-02 0.  1.
</event>
<event>
 5   0  0.9251138E-07  0.2514011E+04  0.7818609E-02  0.8398011E-01
        2   -1    0    0  501    0  0.00000000000E+00  0.00000000000E+00  0.22065412896E+04  0.22065412896E+04  0.25500000920E-02 0. -1.
       -2   -1    0    0    0  501  0.00000000000E+00  0.00000000000E+00 -0.71608096275E+03  0.71608096276E+03  0.25500000920E-02 0.  1.
    10030    2    1    2    0    0  0.00000000000E+00  0.00000000000E+00  0.14904603269E+04  0.29226222524E+04  0.25140105099E+04 0.  0.
        5    1    3    3  502    0 -0.11015499714E+04 -0.16471688587E+03  0.14225955668E+04  0.18067496308E+04  0.46999998093E+01 0. -1.
       -5    1    3    3    0  502  0.11015499714E+04  0.16471688587E+03  0.67864760102E+02  0.11158726216E+04  0.46999998093E+01 0.  1.
</event>
<event>
 5   0  0.3873231E-07  0.2497739E+04  0.7818609E-02  0.8403791E-01
        1   -1    0    0  501    0  0.00000000000E+00  0.00000000000E+00  0.10283625287E+04  0.10283625287E+04  0.50400001928E-02 0. -1.
       -1   -1    0    0    0  501  0.00000000000E+00  0.00000000000E+00 -0.15166588799E+04  0.15166588799E+04  0.50400001928E-02 0.  1.
    10030    2    1    2    0    0  0.00000000000E+00  0.00000000000E+00 -0.48829635119E+03  0.25450214086E+04  0.24977391064E+04 0.  0.
        2    1    3    3  502    0  0.76670046814E+03 -0.20505533970E+02  0.76011842981E+03  0.10798287420E+04  0.25500000920E-02 0. -1.
       -2    1    3    3    0  502 -0.76670046814E+03  0.20505533970E+02 -0.12484147810E+04  0.14651926666E+04  0.25500000920E-02 0.  1.
</event>
<event>
 5   0  0.9508784E-07  0.2500148E+04  0.7818609E-02  0.8402933E-01
       -2   -1    0    0    0  501  0.00000000000E+00  0.00000000000E+00  0.58817391585E+03  0.58817391585E+03  0.25500000920E-02 0.  1.
        2   -1    0    0  501    0  0.00000000000E+00  0.00000000000E+00 -0.26568410984E+04  0.26568410984E+04  0.25500000920E-02 0. -1.
    10030    2    1    2    0    0  0.00000000000E+00  0.00000000000E+00 -0.20686671826E+04  0.32450150143E+04  0.25001477018E+04 0.  0.
        2    1    3    3  502    0 -0.50417468736E+03 -0.21143634656E+03  0.42477635686E+03  0.69233835469E+03  0.25500000920E-02 0.  1.
       -2    1    3    3    0  502  0.50417468736E+03  0.21143634656E+03 -0.24934435395E+04  0.25526766596E+04  0.25500000920E-02 0. -1.
</event>
<event>
 5   0  0.9768582E-07  0.2500152E+04  0.7818609E-02  0.8402931E-01
        2   -1    0    0  501    0  0.00000000000E+00  0.00000000000E+00  0.16372478617E+04  0.16372478617E+04  0.25500000920E-02 0. -1.
       -2   -1    0    0    0  501  0.00000000000E+00  0.00000000000E+00 -0.95446150611E+03  0.95446150612E+03  0.25500000920E-02 0.  1.
    10030    2    1    2    0    0  0.00000000000E+00  0.00000000000E+00  0.68278635562E+03  0.25917093678E+04  0.25001520434E+04 0.  0.
        3    1    3    3  502    0 -0.50944799251E+03  0.62681715734E+03  0.13304037816E+04  0.15564097269E+04  0.10100000352E+00 0. -1.
       -3    1    3    3    0  502  0.50944799251E+03 -0.62681715734E+03 -0.64761742599E+03  0.10352996409E+04  0.10100000352E+00 0.  1.
</event>
<event>
 5   0  0.3214375E-07  0.2499300E+04  0.7818609E-02  0.8403235E-01
       -3   -1    0    0    0  501  0.00000000000E+00  0.00000000000E+00  0.11347898863E+04  0.11347898908E+04  0.10100000352E+00 0.  1.
        3   -1    0    0  501    0  0.00000000000E+00  0.00000000000E+00 -0.13761362067E+04  0.13761362104E+04  0.10100000352E+00 0. -1.
    10030    2    1    2    0    0  0.00000000000E+00  0.00000000000E+00 -0.24134632035E+03  0.25109261012E+04  0.24993002700E+04 0.  0.
        2    1    3    3  502    0 -0.10142892380E+04  0.16065502040E+03  0.59470142647E+03  0.11867023555E+04  0.25500000920E-02 0.  1.
       -2    1    3    3    0  502  0.10142892380E+04 -0.16065502040E+03 -0.83604774683E+03  0.13242237458E+04  0.25500000920E-02 0. -1.
</event>
<event>
 5   0  0.3837524E-07  0.2497660E+04  0.7818609E-02  0.8403820E-01
       -1   -1    0    0    0  501  0.00000000000E+00  0.00000000000E+00  0.96888435800E+03  0.96888435801E+03  0.50400001928E-02 0.  1.
        1   -1    0    0  501    0  0.00000000000E+00  0.00000000000E+00 -0.16096617608E+04  0.16096617608E+04  0.50400001928E-02 0. -1.
    10030    2    1    2    0    0  0.00000000000E+00  0.00000000000E+00 -0.64077740277E+03  0.25785461188E+04  0.24976597860E+04 0.  0.
        5    1    3    3  502    0 -0.22482981020E+03  0.64772822047E+03 -0.13979599995E+04  0.15570531595E+04  0.46999998093E+01 0. -1.
       -5    1    3    3    0  502  0.22482981020E+03 -0.64772822047E+03  0.75718259674E+03  0.10214929593E+04  0.46999998093E+01 0.  1.
</event>
<event>
 5   0  0.8997210E-07  0.2500895E+04  0.7818609E-02  0.8402667E-01
        2   -1    0    0  501    0  0.00000000000E+00  0.00000000000E+00  0.24565983487E+04  0.24565983487E+04  0.25500000920E-02 0. -1.
       -2   -1    0    0    0  501  0.00000000000E+00  0.00000000000E+00 -0.63649755523E+03  0.63649755524E+03  0.25500000920E-02 0.  1.
    10030    2    1    2    0    0  0.00000000000E+00  0.00000000000E+00  0.18201007934E+04  0.30930959039E+04  0.25008949143E+04 0.  0.
        1    1    3    3  502    0  0.93430483887E+03 -0.74603384623E+03  0.13630061107E+04  0.18130851303E+04  0.50400001928E-02 0.  1.
       -1    1    3    3    0  502 -0.93430483887E+03  0.74603384623E+03  0.45709468270E+03  0.12800107736E+04  0.50400001928E-02 0. -1.
</event>
<event>
 5   0  0.3805418E-07  0.2501040E+04  0.7818609E-02  0.8402615E-01
       -1   -1    0    0    0  501  0.00000000000E+00  0.00000000000E+00  0.15901364837E+04  0.15901364838E+04  0.50400001928E-02 0.  1.
        1   -1    0    0  501    0  0.00000000000E+00  0.00000000000E+00 -0.98343790505E+03  0.98343790507E+03  0.50400001928E-02 0. -1.
    10030    2    1    2    0    0  0.00000000000E+00  0.00000000000E+00  0.60669857869E+03  0.25735743888E+04  0.25010401775E+04 0.  0.
        4    1    3    3  502    0  0.43436906539E+03 -0.59299389079E+03  0.13443616197E+04  0.15321971208E+04  0.12699999809E+01 0.  1.
       -4    1    3    3    0  502 -0.43436906539E+03  0.59299389079E+03 -0.73766304099E+03  0.10413772681E+04  0.12699999809E+01 0. -1.
</event>
<event>
 5   0  0.3873231E-07  0.2500024E+04  0.7818609E-02  0.8402977E-01
       -1   -1    0    0    0  501  0.00000000000E+00  0.00000000000E+00  0.11920597163E+04  0.11920597163E+04  0.50400001928E-02 0. -1.
        1   -1    0    0  501    0  0.00000000000E+00  0.00000000000E+00 -0.13107820721E+04  0.13107820721E+04  0.50400001928E-02 0.  1.
    10030    2    1    2    0    0  0.00000000000E+00  0.00000000000E+00 -0.11872235576E+03  0.25028417884E+04  0.25000244039E+04 0.  0.
        2    1    3    3  502    0 -0.98952244869E+03  0.33867434978E+02 -0.82326028248E+03  0.12876564652E+04  0.25500000920E-02 0.  1.
       -2    1    3    3    0  502  0.98952244869E+03 -0.33867434978E+02  0.70453792673E+03  0.12151853232E+04  0.25500000920E-02 0. -1.
</event>
<event>
 5   0  0.9261602E-07  0.2499875E+04  0.7818609E-02  0.8403030E-01
       -2   -1    0    0    0  501  0.00000000000E+00  0.00000000000E+00  0.11319365877E+04  0.11319365877E+04  0.25500000920E-02 0. -1.
        2   -1    0    0  501    0  0.00000000000E+00  0.00000000000E+00 -0.13802398943E+04  0.13802398943E+04  0.25500000920E-02 0.  1.
    10030    2    1    2    0    0  0.00000000000E+00  0.00000000000E+00 -0.24830330666E+03  0.25121764820E+04  0.24998752258E+04 0.  0.
        4    1    3    3  502    0 -0.18915710740E+02 -0.47968275287E+03  0.10356022460E+04  0.11414582657E+04  0.12699999809E+01 0. -1.
       -4    1    3    3    0  502  0.18915710740E+02  0.47968275287E+03 -0.12839055527E+04  0.13707182163E+04  0.12699999809E+01 0.  1.
</event>
<event>
 5   0  0.9508784E-07  0.2499239E+04  0.7818609E-02  0.8403257E-01
       -2   -1    0    0    0  501  0.00000000000E+00  0.00000000000E+00  0.90512051485E+03  0.90512051486E+03  0.25500000920E-02 0. -1.
        2   -1    0    0  501    0  0.00000000000E+00  0.00000000000E+00 -0.17252388151E+04  0.17252388151E+04  0.25500000920E-02 0.  1.
    10030    2    1    2    0    0  0.00000000000E+00  0.00000000000E+00 -0.82011830026E+03  0.26303593300E+04  0.24992391199E+04 0.  0.
        2    1    3    3  502    0  0.10428179803E+04 -0.49412882250E+03 -0.91471145003E+03  0.14725249302E+04  0.25500000920E-02 0.  1.
       -2    1    3    3    0  502 -0.10428179803E+04  0.49412882250E+03  0.94593149769E+02  0.11578343998E+04  0.25500000920E-02 0. -1.
</event>
<event>
 5   0  0.9768582E-07  0.2499656E+04  0.7818609E-02  0.8403108E-01
        2   -1    0    0  501    0  0.00000000000E+00  0.00000000000E+00  0.20721887044E+04  0.20721887044E+04  0.25500000920E-02 0. -1.
       -2   -1    0    0    0  501  0.00000000000E+00  0.00000000000E+00 -0.75382629580E+03  0.75382629580E+03  0.25500000920E-02 0.  1.
    10030    2    1    2    0    0  0.00000000000E+00  0.00000000000E+00  0.13183624086E+04  0.28260150002E+04  0.24996562446E+04 0.  0.
        3    1    3    3  502    0  0.85367671523E+03 -0.57999409415E+02 -0.37077359657E+03  0.93252395988E+03  0.10100000352E+00 0.  1.
       -3    1    3    3    0  502 -0.85367671523E+03  0.57999409415E+02  0.16891360052E+04  0.18934910404E+04  0.10100000352E+00 0. -1.
</event>
<event>
 5   0  0.3214375E-07  0.2499169E+04  0.7818609E-02  0.8403282E-01
       -4   -1    0    0    0  501  0.00000000000E+00  0.00000000000E+00  0.11019490191E+04  0.11019497510E+04  0.12699999809E+01 0.  1.
        4   -1    0    0  501    0  0.00000000000E+00  0.00000000000E+00 -0.14169983097E+04  0.14169988788E+04  0.12699999809E+01 0. -1.
    10030    2    1    2    0    0  0.00000000000E+00  0.00000000000E+00 -0.31504929053E+03  0.25189486298E+04  0.24991690907E+04 0.  0.
        5    1    3    3  502    0  0.13842308083E+03 -0.88515844716E+03 -0.10354945108E+04  0.13692835345E+04  0.46999998093E+01 0. -1.
       -5    1    3    3    0  502 -0.13842308083E+03  0.88515844716E+03  0.72044522028E+03  0.11496650953E+04  0.46999998093E+01 0.  1.
</event>
<event>
 5   0  0.9261602E-07  0.2500599E+04  0.7818609E-02  0.8402772E-01
        2   -1    0    0  501    0  0.00000000000E+00  0.00000000000E+00  0.13642414699E+04  0.13642414700E+04  0.25500000920E-02 0. -1.
       -2   -1    0    0    0  501  0.00000000000E+00  0.00000000000E+00 -0.11458743637E+04  0.11458743637E+04  0.25500000920E-02 0.  1.
    10030    2    1    2    0    0  0.00000000000E+00  0.00000000000E+00  0.21836710629E+03  0.25101158336E+04  0.25005993892E+04 0.  0.
        4    1    3    3  502    0  0.37507805081E+03  0.56024113183E+03 -0.94776901803E+03  0.11631085050E+04  0.12699999809E+01 0.  1.
       -4    1    3    3    0  502 -0.37507805081E+03 -0.56024113183E+03  0.11661361243E+04  0.13470073286E+04  0.12699999809E+01 0. -1.
</event>
<event>
 5   0  0.9768582E-07  0.2499463E+04  0.7818609E-02  0.8403177E-01
       -2   -1    0    0    0  501  0.00000000000E+00  0.00000000000E+00  0.48661235606E+03  0.48661235607E+03  0.25500000920E-02 0. -1.
        2   -1    0    0  501    0  0.00000000000E+00  0.00000000000E+00 -0.32095966139E+04  0.32095966139E+04  0.25500000920E-02 0.  1.
    10030    2    1    2    0    0  0.00000000000E+00  0.00000000000E+00 -0.27229842579E+04  0.36962089700E+04  0.24994634387E+04 0.  0.
        3    1    3    3  502    0 -0.28613904218E+02  0.12491643762E+04 -0.13976839784E+04  0.18747668943E+04  0.10100000352E+00 0. -1.
       -3    1    3    3    0  502  0.28613904218E+02 -0.12491643762E+04 -0.13253002795E+04  0.18214420757E+04  0.10100000352E+00 0.  1.
</event>
<event>
 5   0  0.3972587E-07  0.2500763E+04  0.7818609E-02  0.8402714E-01
       -1   -1    0    0    0  501  0.00000000000E+00  0.00000000000E+00  0.88669856695E+03  0.88669856697E+03  0.50400001928E-02 0.  1.
        1   -1    0    0  501    0  0.00000000000E+00  0.00000000000E+00 -0.17632305682E+04  0.17632305682E+04  0.50400001928E-02 0. -1.
    10030    2    1    2    0    0  0.00000000000E+00  0.00000000000E+00 -0.87653200126E+03  0.26499291352E+04  0.25007630980E+04 0.  0.
        3    1    3    3  502    0 -0.19965276608E+03  0.55558255845E+03 -0.16062467693E+04  0.17113041519E+04  0.10100000352E+00 0. -1.
       -3    1    3    3    0  502  0.19965276608E+03 -0.55558255845E+03  0.72971476806E+03  0.93862498326E+03  0.10100000352E+00 0.  1.
</event>
<event>
 5   0  0.8997210E-07  0.2500513E+04  0.7818609E-02  0.8402803E-01
        2   -1    0    0  501    0  0.00000000000E+00  0.00000000000E+00  0.17574452642E+04  0.17574452642E+04  0.25500000920E-02 0. -1.
       -2   -1    0    0    0  501  0.00000000000E+00  0.00000000000E+00 -0.88943983119E+03  0.88943983119E+03  0.25500000920E-02 0.  1.
    10030    2    1    2    0    0  0.00000000000E+00  0.00000000000E+00  0.86800543302E+03  0.26468850954E+04  0.25005134026E+04 0.  0.
        1    1    3    3  502    0  0.93032563540E+03  0.54189882302E+03 -0.23879846626E+03  0.11028077030E+04  0.50400001928E-02 0.  1.
       -1    1    3    3    0  502 -0.93032563540E+03 -0.54189882302E+03  0.11068038993E+04  0.15440773924E+04  0.50400001928E-02 0. -1.
</event>
<event>
 5   0  0.3873231E-07  0.2500096E+04  0.7818609E-02  0.8402951E-01
        1   -1    0    0  501    0  0.00000000000E+00  0.00000000000E+00  0.14775838199E+04  0.14775838199E+04  0.50400001928E-02 0.  1.
       -1   -1    0    0    0  501  0.00000000000E+00  0.00000000000E+00 -0.10575508558E+04  0.10575508558E+04  0.50400001928E-02 0. -1.
    10030    2    1    2    0    0  0.00000000000E+00  0.00000000000E+00  0.42003296414E+03  0.25351346757E+04  0.25000960247E+04 0.  0.
        2    1    3    3  502    0 -0.53708931192E+02 -0.11162618620E+04  0.77795069673E+03  0.13616653335E+04  0.25500000920E-02 0.  1.
       -2    1    3    3    0  502  0.53708931192E+02  0.11162618620E+04 -0.35791773259E+03  0.11734693422E+04  0.25500000920E-02 0. -1.
</event>
<event>
 5   0  0.3991066E-07  0.2500161E+04  0.7818609E-02  0.8402928E-01
       -1   -1    0    0    0  501  0.00000000000E+00  0.00000000000E+00  0.59168923639E+03  0.59168923641E+03  0.50400001928E-02 0.  1.
        1   -1    0    0  501    0  0.00000000000E+00  0.00000000000E+00 -0.26410836294E+04  0.26410836294E+04  0.50400001928E-02 0. -1.
    10030    2    1    2    0    0  0.00000000000E+00  0.00000000000E+00 -0.20493943930E+04  0.32327728658E+04  0.25001605996E+04 0.  0.
        1    1    3    3  502    0  0.18395601252E+03 -0.24721511306E+03  0.54181104227E+03  0.62330917867E+03  0.50400001928E-02 0.  1.
       -1    1    3    3    0  502 -0.18395601252E+03  0.24721511306E+03 -0.25912054353E+04  0.26094636872E+04  0.50400001928E-02 0. -1.
</event>
<event>
 5   0  0.9261602E-07  0.2500231E+04  0.7818609E-02  0.8402903E-01
       -2   -1    0    0    0  501  0.00000000000E+00  0.00000000000E+00  0.14739369262E+04  0.14739369262E+04  0.25500000920E-02 0.  1.
        2   -1    0    0  501    0  0.00000000000E+00  0.00000000000E+00 -0.10602817782E+04  0.10602817782E+04  0.25500000920E-02 0. -1.
    10030    2    1    2    0    0  0.00000000000E+00  0.00000000000E+00  0.41365514792E+03  0.25342187044E+04  0.25002307614E+04 0.  0.
        4    1    3    3  502    0 -0.61761438074E+03 -0.10718176465E+04  0.23969326785E+02  0.12372617881E+04  0.12699999809E+01 0. -1.
       -4    1    3    3    0  502  0.61761438074E+03  0.10718176465E+04  0.38968582113E+03  0.12969569163E+04  0.12699999809E+01 0.  1.
</event>
<event>
 5   0  0.9261602E-07  0.2501257E+04  0.7818609E-02  0.8402538E-01
       -2   -1    0    0    0  501  0.00000000000E+00  0.00000000000E+00  0.18049591853E+04  0.18049591853E+04  0.25500000920E-02 0.  1.
        2   -1    0    0  501    0  0.00000000000E+00  0.00000000000E+00 -0.86654129393E+03  0.86654129393E+03  0.25500000920E-02 0. -1.
    10030    2    1    2    0    0  0.00000000000E+00  0.00000000000E+00  0.93841789133E+03  0.26715004792E+04  0.25012570183E+04 0.  0.
        4    1    3    3  502    0 -0.70625152224E+03  0.47799026123E+03 -0.50782319253E+03  0.99254819040E+03  0.12699999809E+01 0. -1.
       -4    1    3    3    0  502  0.70625152224E+03 -0.47799026123E+03  0.14462410839E+04  0.16789522888E+04  0.12699999809E+01 0.  1.
</event>
<event>
 5   0  0.9261602E-07  0.2500002E+04  0.7818609E-02  0.8402985E-01
        2   -1    0    0  501    0  0.00000000000E+00  0.00000000000E+00  0.17804795674E+04  0.17804795674E+04  0.25500000920E-02 0.  1.
       -2   -1    0    0    0  501  0.00000000000E+00  0.00000000000E+00 -0.87757365317E+03  0.87757365317E+03  0.25500000920E-02 0. -1.
    10030    2    1    2    0    0  0.00000000000E+00  0.00000000000E+00  0.90290591424E+03  0.26580532206E+04  0.25000015667E+04 0.  0.
        4    1    3    3  502    0  0.93854573873E+01  0.10752468173E+04 -0.22622533543E+03  0.10988281577E+04  0.12699999809E+01 0. -1.
       -4    1    3    3    0  502 -0.93854573873E+01 -0.10752468173E+04  0.11291312497E+04  0.15592250629E+04  0.12699999809E+01 0.  1.
</event>
<event>
 5   0  0.3991066E-07  0.2502465E+04  0.7818609E-02  0.8402108E-01
        1   -1    0    0  501    0  0.00000000000E+00  0.00000000000E+00  0.12022296235E+04  0.12022296235E+04  0.50400001928E-02 0. -1.
       -1   -1    0    0    0  501  0.00000000000E+00  0.00000000000E+00 -0.13022326785E+04  0.13022326785E+04  0.50400001928E-02 0.  1.
    10030    2    1    2    0    0  0.00000000000E+00  0.00000000000E+00 -0.10000305498E+03  0.25044623020E+04  0.25024649470E+04 0.  0.
        1    1    3    3  502    0 -0.61487506306E+03  0.97262795141E+03  0.44182354339E+03  0.12325926004E+04  0.50400001928E-02 0. -1.
       -1    1    3    3    0  502  0.61487506306E+03 -0.97262795141E+03 -0.54182659837E+03  0.12718697016E+04  0.50400001928E-02 0.  1.
</event>
<event>
 5   0  0.9768582E-07  0.2499867E+04  0.7818609E-02  0.8403033E-01
       -2   -1    0    0    0  501  0.00000000000E+00  0.00000000000E+00  0.88559531550E+03  0.88559531550E+03  0.25500000920E-02 0. -1.
        2   -1    0    0  501    0  0.00000000000E+00  0.00000000000E+00 -0.17641623287E+04  0.17641623287E+04  0.25500000920E-02 0.  1.
    10030    2    1    2    0    0  0.00000000000E+00  0.00000000000E+00 -0.87856701320E+03  0.26497576442E+04  0.24998671117E+04 0.  0.
        3    1    3    3  502    0  0.10285393375E+04  0.69553288363E+02  0.30992340210E+03  0.10764679995E+04  0.10100000352E+00 0. -1.
       -3    1    3    3    0  502 -0.10285393375E+04 -0.69553288363E+02 -0.11884904153E+04  0.15732896447E+04  0.10100000352E+00 0.  1.
</event>
<event>
 5   0  0.8997210E-07  0.2498531E+04  0.7818609E-02  0.8403509E-01
       -2   -1    0    0    0  501  0.00000000000E+00  0.00000000000E+00  0.71182364773E+03  0.71182364773E+03  0.25500000920E-02 0.  1.
        2   -1    0    0  501    0  0.00000000000E+00  0.00000000000E+00 -0.21924875448E+04  0.21924875448E+04  0.25500000920E-02 0. -1.
    10030    2    1    2    0    0  0.00000000000E+00  0.00000000000E+00 -0.14806638970E+04  0.29043111925E+04  0.24985311539E+04 0.  0.
        1    1    3    3  502    0 -0.10635796286E+04 -0.30432003153E+01 -0.15020890304E+04  0.18405114351E+04  0.50400001928E-02 0. -1.
       -1    1    3    3    0  502  0.10635796286E+04  0.30432003153E+01  0.21425133334E+02  0.10637997574E+04  0.50400001928E-02 0.  1.
</event>
<event>
 5   0  0.3873231E-07  0.2499862E+04  0.7818609E-02  0.8403035E-01
        1   -1    0    0  501    0  0.00000000000E+00  0.00000000000E+00  0.10322042347E+04  0.10322042347E+04  0.50400001928E-02 0. -1.
       -1   -1    0    0    0  501  0.00000000000E+00  0.00000000000E+00 -0.15135840340E+04  0.15135840340E+04  0.50400001928E-02 0.  1.
    10030    2    1    2    0    0  0.00000000000E+00  0.00000000000E+00 -0.48137979928E+03  0.25457882687E+04  0.24998622758E+04 0.  0.
        2    1    3    3  502    0 -0.80466317375E+03  0.94334001936E+03 -0.79817403044E+02  0.12424749628E+04  0.25500000920E-02 0. -1.
       -2    1    3    3    0  502  0.80466317375E+03 -0.94334001936E+03 -0.40156239623E+03  0.13033133059E+04  0.25500000920E-02 0.  1.
</event>
<event>
 5   0  0.3991066E-07  0.2513710E+04  0.7818609E-02  0.8398118E-01
       -1   -1    0    0    0  501  0.00000000000E+00  0.00000000000E+00  0.10635910614E+04  0.10635910614E+04  0.50400001928E-02 0. -1.
        1   -1    0    0  501    0  0.00000000000E+00  0.00000000000E+00 -0.14852361558E+04  0.14852361558E+04  0.50400001928E-02 0.  1.
    10030    2    1    2    0    0  0.00000000000E+00  0.00000000000E+00 -0.42164509440E+03  0.25488272172E+04  0.25137095293E+04 0.  0.
        1    1    3    3  502    0 -0.10141256803E+04 -0.50061898823E+03  0.34511965138E+03  0.11824457030E+04  0.50400001928E-02 0. -1.
       -1    1    3    3    0  502  0.10141256803E+04  0.50061898823E+03 -0.76676474579E+03  0.13663815142E+04  0.50400001928E-02 0.  1.
</event>
<event>
 5   0  0.3873231E-07  0.2500488E+04  0.7818609E-02  0.8402812E-01
       -1   -1    0    0    0  501  0.00000000000E+00  0.00000000000E+00  0.14947983498E+04  0.14947983498E+04  0.50400001928E-02 0. -1.
        1   -1    0    0  501    0  0.00000000000E+00  0.00000000000E+00 -0.10456999028E+04  0.10456999028E+04  0.50400001928E-02 0.  1.
    10030    2    1    2    0    0  0.00000000000E+00  0.00000000000E+00  0.44909844700E+03  0.25404982527E+04  0.25004883436E+04 0.  0.
        2    1    3    3  502    0  0.52385399085E+03  0.42728621045E+02  0.13770998534E+04  0.14739921116E+04  0.25500000920E-02 0. -1.
       -2    1    3    3    0  502 -0.52385399085E+03 -0.42728621045E+02 -0.92800140636E+03  0.10665061411E+04  0.25500000920E-02 0.  1.
</event>
<event>
 5   0  0.9768582E-07  0.2499211E+04  0.7818609E-02  0.8403267E-01
       -2   -1    0    0    0  501  0.00000000000E+00  0.00000000000E+00  0.11165219336E+04  0.11165219336E+04  0.25500000920E-02 0. -1.
        2   -1    0    0  501    0  0.00000000000E+00  0.00000000000E+00 -0.13985514069E+04  0.13985514069E+04  0.25500000920E-02 0.  1.
    10030    2    1    2    0    0  0.00000000000E+00  0.00000000000E+00 -0.28202947334E+03  0.25150733405E+04  0.24992105322E+04 0.  0.
        3    1    3    3  502    0  0.62373264445E+03  0.32898038561E+03  0.89715454098E+03  0.11411208466E+04  0.10100000352E+00 0. -1.
       -3    1    3    3    0  502 -0.62373264445E+03 -0.32898038561E+03 -0.11791840143E+04  0.13739524940E+04  0.10100000352E+00 0.  1.
</event>
<event>
 5   0  0.3873231E-07  0.2500404E+04  0.7818609E-02  0.8402842E-01
        1   -1    0    0  501    0  0.00000000000E+00  0.00000000000E+00  0.26527412043E+04  0.26527412043E+04  0.50400001928E-02 0. -1.
       -1   -1    0    0    0  501  0.00000000000E+00  0.00000000000E+00 -0.58920363279E+03  0.58920363282E+03  0.50400001928E-02 0.  1.
    10030    2    1    2    0    0  0.00000000000E+00  0.00000000000E+00  0.20635375715E+04  0.32419448371E+04  0.25004037710E+04 0.  0.
        2    1    3    3  502    0 -0.24439207409E+02  0.98161961680E+03  0.28430468554E+02  0.98233529841E+03  0.25500000920E-02 0.  1.
       -2    1    3    3    0  502  0.24439207409E+02 -0.98161961680E+03  0.20351071029E+04  0.22596095387E+04  0.25500000920E-02 0. -1.
</event>
<event>
 5   0  0.9261602E-07  0.2500040E+04  0.7818609E-02  0.8402971E-01
       -2   -1    0    0    0  501  0.00000000000E+00  0.00000000000E+00  0.12660199229E+04  0.12660199229E+04  0.25500000920E-02 0.  1.
        2   -1    0    0  501    0  0.00000000000E+00  0.00000000000E+00 -0.12342218968E+04  0.12342218968E+04  0.25500000920E-02 0. -1.
    10030    2    1    2    0    0  0.00000000000E+00  0.00000000000E+00  0.31798026114E+02  0.25002418196E+04  0.25000396081E+04 0.  0.
        4    1    3    3  502    0 -0.30119265770E+03 -0.28785719647E+03  0.11945396763E+04  0.12651108385E+04  0.12699999809E+01 0.  1.
       -4    1    3    3    0  502  0.30119265770E+03  0.28785719647E+03 -0.11627416502E+04  0.12351309811E+04  0.12699999809E+01 0. -1.
</event>
<event>
 5   0  0.3972587E-07  0.2499779E+04  0.7818609E-02  0.8403064E-01
       -1   -1    0    0    0  501  0.00000000000E+00  0.00000000000E+00  0.63401198399E+03  0.63401198401E+03  0.50400001928E-02 0.  1.
        1   -1    0    0  501    0  0.00000000000E+00  0.00000000000E+00 -0.24640285944E+04  0.24640285944E+04  0.50400001928E-02 0. -1.
    10030    2    1    2    0    0  0.00000000000E+00  0.00000000000E+00 -0.18300166104E+04  0.30980405784E+04  0.24997789165E+04 0.  0.
        3    1    3    3  502    0  0.10637771693E+04 -0.48759022175E+03 -0.14592650654E+04  0.18705134673E+04  0.10100000352E+00 0. -1.
       -3    1    3    3    0  502 -0.10637771693E+04  0.48759022175E+03 -0.37075154506E+03  0.12275271111E+04  0.10100000352E+00 0.  1.
</event>
<event>
 5   0  0.3991066E-07  0.2502127E+04  0.7818609E-02  0.8402228E-01
       -1   -1    0    0    0  501  0.00000000000E+00  0.00000000000E+00  0.10028345409E+04  0.10028345409E+04  0.50400001928E-02 0. -1.
        1   -1    0    0  501    0  0.00000000000E+00  0.00000000000E+00 -0.15607363674E+04  0.15607363674E+04  0.50400001928E-02 0.  1.
    10030    2    1    2    0    0  0.00000000000E+00  0.00000000000E+00 -0.55790182648E+03  0.25635709083E+04  0.25021273656E+04 0.  0.
        1    1    3    3  502    0  0.94151685595E+03  0.68065672755E+03  0.19657221194E+03  0.11782988608E+04  0.50400001928E-02 0.  1.
       -1    1    3    3    0  502 -0.94151685595E+03 -0.68065672755E+03 -0.75447403843E+03  0.13852720475E+04  0.50400001928E-02 0. -1.
</event>
<event>
 5   0  0.9261602E-07  0.2501685E+04  0.7818609E-02  0.8402385E-01
        2   -1    0    0  501    0  0.00000000000E+00  0.00000000000E+00  0.33873628975E+04  0.33873628975E+04  0.25500000920E-02 0. -1.
       -2   -1    0    0    0  501  0.00000000000E+00  0.00000000000E+00 -0.46189530983E+03  0.46189530984E+03  0.25500000920E-02 0.  1.
    10030    2    1    2    0    0  0.00000000000E+00  0.00000000000E+00  0.29254675876E+04  0.38492582073E+04  0.25016850602E+04 0.  0.
        4    1    3    3  502    0 -0.10735452965E+04 -0.63910364238E+03  0.15557238950E+04  0.19953023379E+04  0.12699999809E+01 0. -1.
       -4    1    3    3    0  502  0.10735452965E+04  0.63910364238E+03  0.13697436926E+04  0.18539558694E+04  0.12699999809E+01 0.  1.
</event>
<event>
 5   0  0.9251138E-07  0.2500141E+04  0.7818609E-02  0.8402935E-01
        2   -1    0    0  501    0  0.00000000000E+00  0.00000000000E+00  0.15265022121E+04  0.15265022121E+04  0.25500000920E-02 0. -1.
       -2   -1    0    0    0  501  0.00000000000E+00  0.00000000000E+00 -0.10236976180E+04  0.10236976180E+04  0.25500000920E-02 0.  1.
    10030    2    1    2    0    0  0.00000000000E+00  0.00000000000E+00  0.50280459407E+03  0.25501998301E+04  0.25001413387E+04 0.  0.
        5    1    3    3  502    0 -0.96218466985E+03  0.71117638800E+03  0.62070585457E+03  0.13479128465E+04  0.46999998093E+01 0. -1.
       -5    1    3    3    0  502  0.96218466985E+03 -0.71117638800E+03 -0.11790126050E+03  0.12022869836E+04  0.46999998093E+01 0.  1.
</event>
<event>
 5   0  0.3873231E-07  0.2500259E+04  0.7818609E-02  0.8402893E-01
       -1   -1    0    0    0  501  0.00000000000E+00  0.00000000000E+00  0.54130960086E+03  0.54130960088E+03  0.50400001928E-02 0. -1.
        1   -1    0    0  501    0  0.00000000000E+00  0.00000000000E+00 -0.28871164287E+04  0.28871164287E+04  0.50400001928E-02 0.  1.
    10030    2    1    2    0    0  0.00000000000E+00  0.00000000000E+00 -0.23458068279E+04  0.34284260296E+04  0.25002590600E+04 0.  0.
        2    1    3    3  502    0  0.12458461026E+03  0.10206330898E+04 -0.21479331584E+04  0.23813504745E+04  0.25500000920E-02 0.  1.
       -2    1    3    3    0  502 -0.12458461026E+03 -0.10206330898E+04 -0.19787366948E+03  0.10470755552E+04  0.25500000920E-02 0. -1.
</event>
<event>
 5   0  0.3873231E-07  0.2494770E+04  0.7818609E-02  0.8404851E-01
        1   -1    0    0  501    0  0.00000000000E+00  0.00000000000E+00  0.21577215848E+04  0.21577215848E+04  0.50400001928E-02 0. -1.
       -1   -1    0    0    0  501  0.00000000000E+00  0.00000000000E+00 -0.72111677149E+03  0.72111677151E+03  0.50400001928E-02 0.  1.
    10030    2    1    2    0    0  0.00000000000E+00  0.00000000000E+00  0.14366048133E+04  0.28788383563E+04  0.24947699077E+04 0.  0.
        2    1    3    3  502    0 -0.12172933250E+04  0.20599014133E+03  0.51273660183E+03  0.13368372378E+04  0.25500000920E-02 0. -1.
       -2    1    3    3    0  502  0.12172933250E+04 -0.20599014133E+03  0.92386821148E+03  0.15420011186E+04  0.25500000920E-02 0.  1.
</event>
<event>
 5   0  0.3991066E-07  0.2500464E+04  0.7818609E-02  0.8402820E-01
        1   -1    0    0  501    0  0.00000000000E+00  0.00000000000E+00  0.14394389744E+04  0.14394389744E+04  0.50400001928E-02 0.  1.
       -1   -1    0    0    0  501  0.00000000000E+00  0.00000000000E+00 -0.10858953663E+04  0.10858953663E+04  0.50400001928E-02 0. -1.
    10030    2    1    2    0    0  0.00000000000E+00  0.00000000000E+00  0.35354360815E+03  0.25253343407E+04  0.25004640468E+04 0.  0.
        1    1    3    3  502    0 -0.43000734090E+03  0.20503187842E+03  0.13441822060E+04  0.14261031476E+04  0.50400001928E-02 0.  1.
       -1    1    3    3    0  502  0.43000734090E+03 -0.20503187842E+03 -0.99063859789E+03  0.10992311932E+04  0.50400001928E-02 0. -1.
</event>
<event>
 5   0  0.3837524E-07  0.2500216E+04  0.7818609E-02  0.8402908E-01
        1   -1    0    0  501    0  0.00000000000E+00  0.00000000000E+00  0.19444037245E+04  0.19444037245E+04  0.50400001928E-02 0.  1.
       -1   -1    0    0    0  501  0.00000000000E+00  0.00000000000E+00 -0.80372728248E+03  0.80372728250E+03  0.50400001928E-02 0. -1.
    10030    2    1    2    0    0  0.00000000000E+00  0.00000000000E+00  0.11406764420E+04  0.27481310070E+04  0.25002162479E+04 0.  0.
        5    1    3    3  502    0 -0.11106975411E+04 -0.22087611279E+03 -0.11606103922E+02  0.11325158174E+04  0.46999998093E+01 0. -1.
       -5    1    3    3    0  502  0.11106975411E+04  0.22087611279E+03  0.11522825459E+04  0.16156151895E+04  0.46999998093E+01 0.  1.
</event>
<event>
 5   0  0.3972587E-07  0.2499892E+04  0.7818609E-02  0.8403024E-01
        1   -1    0    0  501    0  0.00000000000E+00  0.00000000000E+00  0.19311716559E+04  0.19311716559E+04  0.50400001928E-02 0. -1.
       -1   -1    0    0    0  501  0.00000000000E+00  0.00000000000E+00 -0.80902428704E+03  0.80902428706E+03  0.50400001928E-02 0.  1.
    10030    2    1    2    0    0  0.00000000000E+00  0.00000000000E+00  0.11221473688E+04  0.27401959429E+04  0.24998918153E+04 0.  0.
        3    1    3    3  502    0 -0.12108315591E+03  0.79073324063E+03 -0.49168914951E+03  0.93897732583E+03  0.10100000352E+00 0.  1.
       -3    1    3    3    0  502  0.12108315591E+03 -0.79073324063E+03  0.16138365183E+04  0.18012186171E+04  0.10100000352E+00 0. -1.
</event>
<event>
 5   0  0.8997210E-07  0.2494443E+04  0.7818609E-02  0.8404968E-01
       -2   -1    0    0    0  501  0.00000000000E+00  0.00000000000E+00  0.84880524177E+03  0.84880524178E+03  0.25500000920E-02 0.  1.
        2   -1    0    0  501    0  0.00000000000E+00  0.00000000000E+00 -0.18326489475E+04  0.18326489475E+04  0.25500000920E-02 0. -1.
    10030    2    1    2    0    0  0.00000000000E+00  0.00000000000E+00 -0.98384370569E+03  0.26814541892E+04  0.24944434513E+04 0.  0.
        1    1    3    3  502    0 -0.82870563128E+03 -0.27531704123E+03 -0.14491951041E+04  0.16919571349E+04  0.50400001928E-02 0. -1.
       -1    1    3    3    0  502  0.82870563128E+03  0.27531704123E+03  0.46535139843E+03  0.98949705434E+03  0.50400001928E-02 0.  1.
</event>
<event>
 5   0  0.3837524E-07  0.2502409E+04  0.7818609E-02  0.8402128E-01
        1   -1    0    0  501    0  0.00000000000E+00  0.00000000000E+00  0.14262226717E+04  0.14262226717E+04  0.50400001928E-02 0. -1.
       -1   -1    0    0    0  501  0.00000000000E+00  0.00000000000E+00 -0.10976635413E+04  0.10976635414E+04  0.50400001928E-02 0.  1.
    10030    2    1    2    0    0  0.00000000000E+00  0.00000000000E+00  0.32855913032E+03  0.25238862130E+04  0.25024089422E+04 0.  0.
        5    1    3    3  502    0 -0.65146642938E+03 -0.73931862027E+03 -0.61336970295E+03  0.11607088409E+04  0.46999998093E+01 0.  1.
       -5    1    3    3    0  502  0.65146642938E+03  0.73931862027E+03  0.94192883327E+03  0.13631773721E+04  0.46999998093E+01 0. -1.
</event>
<event>
 5   0  0.3991066E-07  0.2502632E+04  0.7818609E-02  0.8402049E-01
       -1   -1    0    0    0  501  0.00000000000E+00  0.00000000000E+00  0.10484356169E+04  0.10484356169E+04  0.50400001928E-02 0.  1.
        1   -1    0    0  501    0  0.00000000000E+00  0.00000000000E+00 -0.14934548479E+04  0.14934548480E+04  0.50400001928E-02 0. -1.
    10030    2    1    2    0    0  0.00000000000E+00  0.00000000000E+00 -0.44501923106E+03  0.25418904648E+04  0.25026316188E+04 0.  0.
        1    1    3    3  502    0 -0.20781237892E+03 -0.74326852980E+03  0.77790712857E+03  0.10957981534E+04  0.50400001928E-02 0.  1.
       -1    1    3    3    0  502  0.20781237892E+03  0.74326852980E+03 -0.12229263596E+04  0.14460923115E+04  0.50400001928E-02 0. -1.
</event>
<event>
 5   0  0.3991066E-07  0.2499564E+04  0.7818609E-02  0.8403141E-01
        1   -1    0    0  501    0  0.00000000000E+00  0.00000000000E+00  0.12158833136E+04  0.12158833136E+04  0.50400001928E-02 0. -1.
       -1   -1    0    0    0  501  0.00000000000E+00  0.00000000000E+00 -0.12846255603E+04  0.12846255603E+04  0.50400001928E-02 0.  1.
    10030    2    1    2    0    0  0.00000000000E+00  0.00000000000E+00 -0.68742246667E+02  0.25005088739E+04  0.24995637883E+04 0.  0.
        1    1    3    3  502    0 -0.11605380414E+03 -0.10885689437E+04  0.56876972760E+03  0.12336733092E+04  0.50400001928E-02 0.  1.
       -1    1    3    3    0  502  0.11605380414E+03  0.10885689437E+04 -0.63751197427E+03  0.12668355647E+04  0.50400001928E-02 0. -1.
</event>
<event>
 5   0  0.3805418E-07  0.2499746E+04  0.7818609E-02  0.8403076E-01
        1   -1    0    0  501    0  0.00000000000E+00  0.00000000000E+00  0.33802037731E+04  0.33802037731E+04  0.50400001928E-02 0.  1.
       -1   -1    0    0    0  501  0.00000000000E+00  0.00000000000E+00 -0.46215634986E+03  0.46215634989E+03  0.50400001928E-02 0. -1.
    10030    2    1    2    0    0  0.00000000000E+00  0.00000000000E+00  0.29180474233E+04  0.38423601230E+04  0.24997460972E+04 0.  0.
        4    1    3    3  502    0  0.72114059549E+03  0.88222518227E+03  0.66952263216E+03  0.13216002416E+04  0.12699999809E+01 0. -1.
       -4    1    3    3    0  502 -0.72114059549E+03 -0.88222518227E+03  0.22485247911E+04  0.25207598814E+04  0.12699999809E+01 0.  1.
</event>
<event>
 5   0  0.3972587E-07  0.2511454E+04  0.7818609E-02  0.8398916E-01
        1   -1    0    0  501    0  0.00000000000E+00  0.00000000000E+00  0.17518582642E+04  0.17518582642E+04  0.50400001928E-02 0. -1.
       -1   -1    0    0    0  501  0.00000000000E+00  0.00000000000E+00 -0.90010161469E+03  0.90010161470E+03  0.50400001928E-02 0.  1.
    10030    2    1    2    0    0  0.00000000000E+00  0.00000000000E+00  0.85175664954E+03  0.26519598789E+04  0.25114541225E+04 0.  0.
        3    1    3    3  502    0  0.71429889284E+03  0.10086235248E+04  0.19140571864E+03  0.12506720123E+04  0.10100000352E+00 0. -1.
       -3    1    3    3    0  502 -0.71429889284E+03 -0.10086235248E+04  0.66035093089E+03  0.14012878666E+04  0.10100000352E+00 0.  1.
</event>
<event>
 5   0  0.8997210E-07  0.2499530E+04  0.7818609E-02  0.8403153E-01
        2   -1    0    0  501    0  0.00000000000E+00  0.00000000000E+00  0.18367479723E+04  0.18367479723E+04  0.25500000920E-02 0.  1.
       -2   -1    0    0    0  501  0.00000000000E+00  0.00000000000E+00 -0.85036815295E+03  0.85036815296E+03  0.25500000920E-02 0. -1.
    10030    2    1    2    0    0  0.00000000000E+00  0.00000000000E+00  0.98637981930E+03  0.26871161252E+04  0.24995295402E+04 0.  0.
        1    1    3    3  502    0  0.85536661440E+03 -0.87703221113E+03  0.22751050179E+03  0.12460331347E+04  0.50400001928E-02 0. -1.
       -1    1    3    3    0  502 -0.85536661440E+03  0.87703221113E+03  0.75886931752E+03  0.14410829905E+04  0.50400001928E-02 0.  1.
</event>
<event>
 5   0  0.9768582E-07  0.2499703E+04  0.7818609E-02  0.8403091E-01
       -2   -1    0    0    0  501  0.00000000000E+00  0.00000000000E+00  0.12098391911E+04  0.12098391912E+04  0.25500000920E-02 0.  1.
        2   -1    0    0  501    0  0.00000000000E+00  0.00000000000E+00 -0.12911871602E+04  0.12911871602E+04  0.25500000920E-02 0. -1.
    10030    2    1    2    0    0  0.00000000000E+00  0.00000000000E+00 -0.81347969049E+02  0.25010263513E+04  0.24997030460E+04 0.  0.
        3    1    3    3  502    0 -0.15248947749E+01  0.11976119533E+04  0.31707942940E+03  0.12388769474E+04  0.10100000352E+00 0.  1.
       -3    1    3    3    0  502  0.15248947749E+01 -0.11976119533E+04 -0.39842739845E+03  0.12621494040E+04  0.10100000352E+00 0. -1.
</event>
<event>
 5   0  0.3972587E-07  0.2500279E+04  0.7818609E-02  0.8402886E-01
       -1   -1    0    0    0  501  0.00000000000E+00  0.00000000000E+00  0.90698219997E+03  0.90698219999E+03  0.50400001928E-02 0.  1.
        1   -1    0    0  501    0  0.00000000000E+00  0.00000000000E+00 -0.17231305496E+04  0.17231305496E+04  0.50400001928E-02 0. -1.
    10030    2    1    2    0    0  0.00000000000E+00  0.00000000000E+00 -0.81614834960E+03  0.26301127496E+04  0.25002789738E+04 0.  0.
        3    1    3    3  502    0 -0.82634068897E+03 -0.93284248453E+03 -0.30386061758E+03  0.12827179426E+04  0.10100000352E+00 0.  1.
       -3    1    3    3    0  502  0.82634068897E+03  0.93284248453E+03 -0.51228773201E+03  0.13473948069E+04  0.10100000352E+00 0. -1.
</event>
<event>
 5   0  0.9251138E-07  0.2501882E+04  0.7818609E-02  0.8402315E-01
        2   -1    0    0  501    0  0.00000000000E+00  0.00000000000E+00  0.13292679903E+04  0.13292679903E+04  0.25500000920E-02 0.  1.
       -2   -1    0    0    0  501  0.00000000000E+00  0.00000000000E+00 -0.11772296259E+04  0.11772296259E+04  0.25500000920E-02 0. -1.
    10030    2    1    2    0    0  0.00000000000E+00  0.00000000000E+00  0.15203836442E+03  0.25064976162E+04  0.25018822186E+04 0.  0.
        5    1    3    3  502    0 -0.11611213880E+02  0.57285047151E+03 -0.10380299885E+04  0.11856731548E+04  0.46999998093E+01 0. -1.
       -5    1    3    3    0  502  0.11611213880E+02 -0.57285047151E+03  0.11900683530E+04  0.13208244614E+04  0.46999998093E+01 0.  1.
</event>
<event>
 5   0  0.3805418E-07  0.2497949E+04  0.7818609E-02  0.8403717E-01
        1   -1    0    0  501    0  0.00000000000E+00  0.00000000000E+00  0.18281535692E+04  0.18281535692E+04  0.50400001928E-02 0.  1.
       -1   -1    0    0    0  501  0.00000000000E+00  0.00000000000E+00 -0.85328554713E+03  0.85328554714E+03  0.50400001928E-02 0. -1.
    10030    2    1    2    0    0  0.00000000000E+00  0.00000000000E+00  0.97486802204E+03  0.26814391163E+04  0.24979487733E+04 0.  0.
        4    1    3    3  502    0  0.81175798358E+03 -0.92356609187E+03  0.25222686216E+03  0.12552072948E+04  0.12699999809E+01 0. -1.
       -4    1    3    3    0  502 -0.81175798358E+03  0.92356609187E+03  0.72264115988E+03  0.14262318215E+04  0.12699999809E+01 0.  1.
</event>
<event>
 5   0  0.3873231E-07  0.2501137E+04  0.7818609E-02  0.8402581E-01
        1   -1    0    0  501    0  0.00000000000E+00  0.00000000000E+00  0.97174487449E+03  0.97174487450E+03  0.50400001928E-02 0. -1.
       -1   -1    0    0    0  501  0.00000000000E+00  0.00000000000E+00 -0.16093954692E+04  0.16093954692E+04  0.50400001928E-02 0.  1.
    10030    2    1    2    0    0  0.00000000000E+00  0.00000000000E+00 -0.63765059470E+03  0.25811403437E+04  0.25011371800E+04 0.  0.
        2    1    3    3  502    0  0.50548958022E+03  0.69920139867E+03  0.61540457346E+03  0.10597759672E+04  0.25500000920E-02 0. -1.
       -2    1    3    3    0  502 -0.50548958022E+03 -0.69920139867E+03 -0.12530551682E+04  0.15213643765E+04  0.25500000920E-02 0.  1.
</event>
<event>
 5   0  0.3991066E-07  0.2500047E+04  0.7818609E-02  0.8402969E-01
        1   -1    0    0  501    0  0.00000000000E+00  0.00000000000E+00  0.24927407032E+04  0.24927407033E+04  0.50400001928E-02 0.  1.
       -1   -1    0    0    0  501  0.00000000000E+00  0.00000000000E+00 -0.62684362076E+03  0.62684362078E+03  0.50400001928E-02 0. -1.
    10030    2    1    2    0    0  0.00000000000E+00  0.00000000000E+00  0.18658970825E+04  0.31195843240E+04  0.25000468860E+04 0.  0.
        1    1    3    3  502    0 -0.23746613775E+03 -0.48012459123E+03  0.23422832292E+04  0.24027485336E+04  0.50400001928E-02 0.  1.
       -1    1    3    3    0  502  0.23746613775E+03  0.48012459123E+03 -0.47638614672E+03  0.71683579047E+03  0.50400001928E-02 0. -1.
</event>
<event>
 5   0  0.3837524E-07  0.2500607E+04  0.7818609E-02  0.8402769E-01
       -1   -1    0    0    0  501  0.00000000000E+00  0.00000000000E+00  0.10423398257E+04  0.10423398257E+04  0.50400001928E-02 0.  1.
        1   -1    0    0  501    0  0.00000000000E+00  0.00000000000E+00 -0.14997591925E+04  0.14997591925E+04  0.50400001928E-02 0. -1.
    10030    2    1    2    0    0  0.00000000000E+00  0.00000000000E+00 -0.45741936685E+03  0.25420990182E+04  0.25006069146E+04 0.  0.
        5    1    3    3  502    0 -0.70646407046E+03 -0.82020878676E+03 -0.86471236763E+03  0.13854903484E+04  0.46999998093E+01 0. -1.
       -5    1    3    3    0  502  0.70646407046E+03  0.82020878676E+03  0.40729300078E+03  0.11566086699E+04  0.46999998093E+01 0.  1.
</event>
<event>
 5   0  0.9251138E-07  0.2500147E+04  0.7818609E-02  0.8402933E-01
       -2   -1    0    0    0  501  0.00000000000E+00  0.00000000000E+00  0.82891134347E+03  0.82891134347E+03  0.25500000920E-02 0. -1.
        2   -1    0    0  501    0  0.00000000000E+00  0.00000000000E+00 -0.18852249386E+04  0.18852249386E+04  0.25500000920E-02 0.  1.
    10030    2    1    2    0    0  0.00000000000E+00  0.00000000000E+00 -0.10563135951E+04  0.27141362821E+04  0.25001474649E+04 0.  0.
        5    1    3    3  502    0 -0.10535567684E+04 -0.61957519479E+03 -0.24339468152E+03  0.12462416890E+04  0.46999998093E+01 0. -1.
       -5    1    3    3    0  502  0.10535567684E+04  0.61957519479E+03 -0.81291891361E+03  0.14678945931E+04  0.46999998093E+01 0.  1.
</event>
<event>
 5   0  0.9261602E-07  0.2500272E+04  0.7818609E-02  0.8402889E-01
        2   -1    0    0  501    0  0.00000000000E+00  0.00000000000E+00  0.71140802936E+03  0.71140802936E+03  0.25500000920E-02 0.  1.
       -2   -1    0    0    0  501  0.00000000000E+00  0.00000000000E+00 -0.21968264374E+04  0.21968264374E+04  0.25500000920E-02 0. -1.
    10030    2    1    2    0    0  0.00000000000E+00  0.00000000000E+00 -0.14854184080E+04  0.29082344667E+04  0.25002719585E+04 0.  0.
        4    1    3    3  502    0  0.29547121698E+03  0.19397762303E+02 -0.21554469865E+04  0.21756913471E+04  0.12699999809E+01 0. -1.
       -4    1    3    3    0  502 -0.29547121698E+03 -0.19397762303E+02  0.67002857850E+03  0.73254311965E+03  0.12699999809E+01 0.  1.
</event>
<event>
 5   0  0.3837524E-07  0.2501016E+04  0.7818609E-02  0.8402624E-01
       -1   -1    0    0    0  501  0.00000000000E+00  0.00000000000E+00  0.85154838154E+03  0.85154838155E+03  0.50400001928E-02 0.  1.
        1   -1    0    0  501    0  0.00000000000E+00  0.00000000000E+00 -0.18363851967E+04  0.18363851967E+04  0.50400001928E-02 0. -1.
    10030    2    1    2    0    0  0.00000000000E+00  0.00000000000E+00 -0.98483681516E+03  0.26879335783E+04  0.25010164671E+04 0.  0.
        5    1    3    3  502    0 -0.10076194045E+04  0.71996244204E+03 -0.30594011097E+03  0.12756426708E+04  0.46999998093E+01 0.  1.
       -5    1    3    3    0  502  0.10076194045E+04 -0.71996244204E+03 -0.67889670419E+03  0.14122909074E+04  0.46999998093E+01 0. -1.
</event>
<event>
 5   0  0.3214375E-07  0.2504662E+04  0.7818609E-02  0.8401327E-01
       -3   -1    0    0    0  501  0.00000000000E+00  0.00000000000E+00  0.11721440424E+04  0.11721440467E+04  0.10100000352E+00 0. -1.
        3   -1    0    0  501    0  0.00000000000E+00  0.00000000000E+00 -0.13380032689E+04  0.13380032727E+04  0.10100000352E+00 0.  1.
    10030    2    1    2    0    0  0.00000000000E+00  0.00000000000E+00 -0.16585922652E+03  0.25101473195E+04  0.25046617102E+04 0.  0.
        4    1    3    3  502    0 -0.70077020775E+03 -0.21170813992E+03  0.93538225959E+03  0.11877881987E+04  0.12699999809E+01 0. -1.
       -4    1    3    3    0  502  0.70077020775E+03  0.21170813992E+03 -0.11012414861E+04  0.13223591207E+04  0.12699999809E+01 0.  1.
</event>
<event>
 5   0  0.8997210E-07  0.2499590E+04  0.7818609E-02  0.8403132E-01
       -2   -1    0    0    0  501  0.00000000000E+00  0.00000000000E+00  0.14143022607E+04  0.14143022607E+04  0.25500000920E-02 0. -1.
        2   -1    0    0  501    0  0.00000000000E+00  0.00000000000E+00 -0.11044223216E+04  0.11044223216E+04  0.25500000920E-02 0.  1.
    10030    2    1    2    0    0  0.00000000000E+00  0.00000000000E+00  0.30987993910E+03  0.25187245823E+04  0.24995895552E+04 0.  0.
        1    1    3    3  502    0 -0.18168477195E+02 -0.46324705272E+03 -0.10145736891E+04  0.11154764436E+04  0.50400001928E-02 0.  1.
       -1    1    3    3    0  502  0.18168477195E+02  0.46324705272E+03  0.13244536282E+04  0.14032481387E+04  0.50400001928E-02 0. -1.
</event>
<event>
 5   0  0.9261602E-07  0.2500069E+04  0.7818609E-02  0.8402961E-01
       -2   -1    0    0    0  501  0.00000000000E+00  0.00000000000E+00  0.89926136993E+03  0.89926136994E+03  0.25500000920E-02 0.  1.
        2   -1    0    0  501    0  0.00000000000E+00  0.00000000000E+00 -0.17376335043E+04  0.17376335043E+04  0.25500000920E-02 0. -1.
    10030    2    1    2    0    0  0.00000000000E+00  0.00000000000E+00 -0.83837213435E+03  0.26368948742E+04  0.25000693474E+04 0.  0.
        4    1    3    3  502    0 -0.58387778777E+03 -0.29645441739E+03 -0.15422550079E+04  0.16755150298E+04  0.12699999809E+01 0. -1.
       -4    1    3    3    0  502  0.58387778777E+03  0.29645441739E+03  0.70388287359E+03  0.96137984443E+03  0.12699999809E+01 0.  1.
</event>
<event>
 5   0  0.9261602E-07  0.2498783E+04  0.7818609E-02  0.8403419E-01
       -2   -1    0    0    0  501  0.00000000000E+00  0.00000000000E+00  0.78877119446E+03  0.78877119447E+03  0.25500000920E-02 0. -1.
        2   -1    0    0  501    0  0.00000000000E+00  0.00000000000E+00 -0.19790005809E+04  0.19790005809E+04  0.25500000920E-02 0.  1.
    10030    2    1    2    0    0  0.00000000000E+00  0.00000000000E+00 -0.11902293865E+04  0.27677717754E+04  0.24987826252E+04 0.  0.
        4    1    3    3  502    0  0.33247240657E+02 -0.53332702156E+03  0.65580890370E+03  0.84594918406E+03  0.12699999809E+01 0. -1.
       -4    1    3    3    0  502 -0.33247240657E+02  0.53332702156E+03 -0.18460382902E+04  0.19218225913E+04  0.12699999809E+01 0.  1.
</event>
<event>
 5   0  0.3805418E-07  0.2500376E+04  0.7818609E-02  0.8402851E-01
        1   -1    0    0  501    0  0.00000000000E+00  0.00000000000E+00  0.19093071458E+04  0.19093071459E+04  0.50400001928E-02 0.  1.
       -1   -1    0    0    0  501  0.00000000000E+00  0.00000000000E+00 -0.81860605992E+03  0.81860605994E+03  0.50400001928E-02 0. -1.
    10030    2    1    2    0    0  0.00000000000E+00  0.00000000000E+00  0.10907010859E+04  0.27279132058E+04  0.25003762916E+04 0.  0.
        4    1    3    3  502    0  0.20750555958E+03 -0.11371549129E+04  0.10649110183E+04  0.15716923818E+04  0.12699999809E+01 0.  1.
       -4    1    3    3    0  502 -0.20750555958E+03  0.11371549129E+04  0.25790067587E+02  0.11562208240E+04  0.12699999809E+01 0. -1.
</event>
<event>
 5   0  0.3972587E-07  0.2498665E+04  0.7818609E-02  0.8403461E-01
       -1   -1    0    0    0  501  0.00000000000E+00  0.00000000000E+00  0.83637826841E+03  0.83637826842E+03  0.50400001928E-02 0. -1.
        1   -1    0    0  501    0  0.00000000000E+00  0.00000000000E+00 -0.18661788780E+04  0.18661788780E+04  0.50400001928E-02 0.  1.
    10030    2    1    2    0    0  0.00000000000E+00  0.00000000000E+00 -0.10298006096E+04  0.27025571465E+04  0.24986648103E+04 0.  0.
        3    1    3    3  502    0 -0.10788746957E+04 -0.18623280863E+03 -0.11658209207E+04  0.15993097566E+04  0.10100000352E+00 0.  1.
       -3    1    3    3    0  502  0.10788746957E+04  0.18623280863E+03  0.13602031105E+03  0.11032473899E+04  0.10100000352E+00 0. -1.
</event>
<event>
 5   0  0.3972587E-07  0.2499831E+04  0.7818609E-02  0.8403046E-01
       -1   -1    0    0    0  501  0.00000000000E+00  0.00000000000E+00  0.86431212371E+03  0.86431212373E+03  0.50400001928E-02 0.  1.
        1   -1    0    0  501    0  0.00000000000E+00  0.00000000000E+00 -0.18075512484E+04  0.18075512484E+04  0.50400001928E-02 0. -1.
    10030    2    1    2    0    0  0.00000000000E+00  0.00000000000E+00 -0.94323912470E+03  0.26718633721E+04  0.24998307609E+04 0.  0.
        3    1    3    3  502    0 -0.35439217848E+03 -0.10378314580E+04  0.16931513064E+03  0.11096646228E+04  0.10100000352E+00 0.  1.
       -3    1    3    3    0  502  0.35439217848E+03  0.10378314580E+04 -0.11125542553E+04  0.15621987494E+04  0.10100000352E+00 0. -1.
</event>
<event>
 5   0  0.9261602E-07  0.2500917E+04  0.7818609E-02  0.8402659E-01
       -2   -1    0    0    0  501  0.00000000000E+00  0.00000000000E+00  0.17072669885E+04  0.17072669885E+04  0.25500000920E-02 0.  1.
        2   -1    0    0  501    0  0.00000000000E+00  0.00000000000E+00 -0.91587669138E+03  0.91587669138E+03  0.25500000920E-02 0. -1.
    10030    2    1    2    0    0  0.00000000000E+00  0.00000000000E+00  0.79139029716E+03  0.26231436799E+04  0.25009166646E+04 0.  0.
        4    1    3    3  502    0 -0.84625108492E+03  0.57373786815E+02  0.13594100232E+04  0.16023201535E+04  0.12699999809E+01 0.  1.
       -4    1    3    3    0  502  0.84625108492E+03 -0.57373786815E+02 -0.56801972603E+03  0.10208235265E+04  0.12699999809E+01 0. -1.
</event>
<event>
 5   0  0.3805418E-07  0.2502102E+04  0.7818609E-02  0.8402237E-01
        1   -1    0    0  501    0  0.00000000000E+00  0.00000000000E+00  0.18005946978E+04  0.18005946978E+04  0.50400001928E-02 0. -1.
       -1   -1    0    0    0  501  0.00000000000E+00  0.00000000000E+00 -0.86922876938E+03  0.86922876940E+03  0.50400001928E-02 0.  1.
    10030    2    1    2    0    0  0.00000000000E+00  0.00000000000E+00  0.93136592844E+03  0.26698234672E+04  0.25021020870E+04 0.  0.
        4    1    3    3  502    0 -0.88981469695E+03  0.69805494657E+03  0.10363967760E+04  0.15340048219E+04  0.12699999809E+01 0. -1.
       -4    1    3    3    0  502  0.88981469695E+03 -0.69805494657E+03 -0.10503084754E+03  0.11358186454E+04  0.12699999809E+01 0.  1.
</event>
<event>
 5   0  0.8997210E-07  0.2500531E+04  0.7818609E-02  0.8402796E-01
        2   -1    0    0  501    0  0.00000000000E+00  0.00000000000E+00  0.72463803450E+03  0.72463803451E+03  0.25500000920E-02 0.  1.
       -2   -1    0    0    0  501  0.00000000000E+00  0.00000000000E+00 -0.21571645068E+04  0.21571645068E+04  0.25500000920E-02 0. -1.
    10030    2    1    2    0    0  0.00000000000E+00  0.00000000000E+00 -0.14325264723E+04  0.28818025413E+04  0.25005307023E+04 0.  0.
        1    1    3    3  502    0 -0.93201827869E+03  0.60493247647E+03 -0.55659926438E+02  0.11125193932E+04  0.50400001928E-02 0.  1.
       -1    1    3    3    0  502  0.93201827869E+03 -0.60493247647E+03 -0.13768665459E+04  0.17692831481E+04  0.50400001928E-02 0. -1.
</event>
<event>
 5   0  0.3837524E-07  0.2499655E+04  0.7818609E-02  0.8403109E-01
       -1   -1    0    0    0  501  0.00000000000E+00  0.00000000000E+00  0.19628632162E+04  0.19628632162E+04  0.50400001928E-02 0. -1.
        1   -1    0    0  501    0  0.00000000000E+00  0.00000000000E+00 -0.79581110339E+03  0.79581110341E+03  0.50400001928E-02 0.  1.
    10030    2    1    2    0    0  0.00000000000E+00  0.00000000000E+00  0.11670521128E+04  0.27586743196E+04  0.24996546497E+04 0.  0.
        5    1    3    3  502    0  0.83868820259E+03 -0.73730495614E+03 -0.35909608656E+02  0.11172860375E+04  0.46999998093E+01 0.  1.
       -5    1    3    3    0  502 -0.83868820259E+03  0.73730495614E+03  0.12029617215E+04  0.16413882822E+04  0.46999998093E+01 0. -1.
</event>
<event>
 5   0  0.9768582E-07  0.2500386E+04  0.7818609E-02  0.8402848E-01
       -2   -1    0    0    0  501  0.00000000000E+00  0.00000000000E+00  0.87112000539E+03  0.87112000539E+03  0.25500000920E-02 0. -1.
        2   -1    0    0  501    0  0.00000000000E+00  0.00000000000E+00 -0.17942222671E+04  0.17942222671E+04  0.25500000920E-02 0.  1.
    10030    2    1    2    0    0  0.00000000000E+00  0.00000000000E+00 -0.92310226168E+03  0.26653422725E+04  0.25003862989E+04 0.  0.
        3    1    3    3  502    0  0.24918421412E+03 -0.67033224173E+02 -0.17655260676E+04  0.17842837587E+04  0.10100000352E+00 0.  1.
       -3    1    3    3    0  502 -0.24918421412E+03  0.67033224173E+02  0.84242380595E+03  0.88105851381E+03  0.10100000352E+00 0. -1.
</event>
<event>
 5   0  0.8997210E-07  0.2502572E+04  0.7818609E-02  0.8402070E-01
        2   -1    0    0  501    0  0.00000000000E+00  0.00000000000E+00  0.95359933030E+03  0.95359933030E+03  0.25500000920E-02 0.  1.
       -2   -1    0    0    0  501  0.00000000000E+00  0.00000000000E+00 -0.16419015021E+04  0.16419015021E+04  0.25500000920E-02 0. -1.
    10030    2    1    2    0    0  0.00000000000E+00  0.00000000000E+00 -0.68830217176E+03  0.25955008324E+04  0.25025716156E+04 0.  0.
        1    1    3    3  502    0  0.73263098735E+03  0.10135457978E+04 -0.30147805276E+03  0.12864339331E+04  0.50400001928E-02 0.  1.
       -1    1    3    3    0  502 -0.73263098735E+03 -0.10135457978E+04 -0.38682411900E+03  0.13090668993E+04  0.50400001928E-02 0. -1.
</event>
<event>
 5   0  0.3837524E-07  0.2500304E+04  0.7818609E-02  0.8402877E-01
       -1   -1    0    0    0  501  0.00000000000E+00  0.00000000000E+00  0.11518808202E+04  0.11518808202E+04  0.50400001928E-02 0. -1.
        1   -1    0    0  501    0  0.00000000000E+00  0.00000000000E+00 -0.13568072804E+04  0.13568072804E+04  0.50400001928E-02 0.  1.
    10030    2    1    2    0    0  0.00000000000E+00  0.00000000000E+00 -0.20492646021E+03  0.25086881006E+04  0.25003042079E+04 0.  0.
        5    1    3    3  502    0  0.27480296226E+02  0.32431488340E+03  0.11086147290E+04  0.11554150845E+04  0.46999998093E+01 0. -1.
       -5    1    3    3    0  502 -0.27480296226E+02 -0.32431488340E+03 -0.13135411892E+04  0.13532730160E+04  0.46999998093E+01 0.  1.
</event>
<event>
 5   0  0.3873231E-07  0.2500297E+04  0.7818609E-02  0.8402880E-01
       -1   -1    0    0    0  501  0.00000000000E+00  0.00000000000E+00  0.12235661686E+04  0.12235661686E+04  0.50400001928E-02 0.  1.
        1   -1    0    0  501    0  0.00000000000E+00  0.00000000000E+00 -0.12773085642E+04  0.12773085643E+04  0.50400001928E-02 0. -1.
    10030    2    1    2    0    0  0.00000000000E+00  0.00000000000E+00 -0.53742395665E+02  0.25008747328E+04  0.25002972192E+04 0.  0.
        2    1    3    3  502    0 -0.83569042363E+03 -0.83447851680E+03 -0.43701306176E+03  0.12592510851E+04  0.25500000920E-02 0. -1.
       -2    1    3    3    0  502  0.83569042363E+03  0.83447851680E+03  0.38327066610E+03  0.12416236477E+04  0.25500000920E-02 0.  1.
</event>
<event>
 5   0  0.9508784E-07  0.2499265E+04  0.7818609E-02  0.8403248E-01
       -2   -1    0    0    0  501  0.00000000000E+00  0.00000000000E+00  0.66062052749E+03  0.66062052749E+03  0.25500000920E-02 0.  1.
        2   -1    0    0  501    0  0.00000000000E+00  0.00000000000E+00 -0.23638093040E+04  0.23638093040E+04  0.25500000920E-02 0. -1.
    10030    2    1    2    0    0  0.00000000000E+00  0.00000000000E+00 -0.17031887765E+04  0.30244298314E+04  0.24992646513E+04 0.  0.
        2    1    3    3  502    0 -0.50208660897E+03 -0.33014049716E+03  0.47430890422E+03  0.76554075489E+03  0.25500000920E-02 0.  1.
       -2    1    3    3    0  502  0.50208660897E+03  0.33014049716E+03 -0.21774976807E+04  0.22588890766E+04  0.25500000920E-02 0. -1.
</event>
<event>
 5   0  0.9508784E-07  0.2499272E+04  0.7818609E-02  0.8403245E-01
       -2   -1    0    0    0  501  0.00000000000E+00  0.00000000000E+00  0.67490478183E+03  0.67490478184E+03  0.25500000920E-02 0.  1.
        2   -1    0    0  501    0  0.00000000000E+00  0.00000000000E+00 -0.23137937100E+04  0.23137937100E+04  0.25500000920E-02 0. -1.
    10030    2    1    2    0    0  0.00000000000E+00  0.00000000000E+00 -0.16388889281E+04  0.29886984918E+04  0.24992722453E+04 0.  0.
        2    1    3    3  502    0 -0.10793021045E+04 -0.33695603779E+03 -0.18311360819E+03  0.11454095328E+04  0.25500000920E-02 0.  1.
       -2    1    3    3    0  502  0.10793021045E+04  0.33695603779E+03 -0.14557753199E+04  0.18432889590E+04  0.25500000920E-02 0. -1.
</event>
<event>
 5   0  0.3972587E-07  0.2501867E+04  0.7818609E-02  0.8402321E-01
       -1   -1    0    0    0  501  0.00000000000E+00  0.00000000000E+00  0.86029658524E+03  0.86029658526E+03  0.50400001928E-02 0.  1.
        1   -1    0    0  501    0  0.00000000000E+00  0.00000000000E+00 -0.18189477574E+04  0.18189477574E+04  0.50400001928E-02 0. -1.
    10030    2    1    2    0    0  0.00000000000E+00  0.00000000000E+00 -0.95865117216E+03  0.26792443427E+04  0.25018669385E+04 0.  0.
        3    1    3    3  502    0  0.76220785035E+03 -0.83590767249E+03  0.92509979688E+02  0.11350156610E+04  0.10100000352E+00 0.  1.
       -3    1    3    3    0  502 -0.76220785035E+03  0.83590767249E+03 -0.10511611518E+04  0.15442286817E+04  0.10100000352E+00 0. -1.
</event>
<event>
 5   0  0.3873231E-07  0.2500084E+04  0.7818609E-02  0.8402956E-01
        1   -1    0    0  501    0  0.00000000000E+00  0.00000000000E+00  0.12786240261E+04  0.12786240261E+04  0.50400001928E-02 0. -1.
       -1   -1    0    0    0  501  0.00000000000E+00  0.00000000000E+00 -0.12220990337E+04  0.12220990338E+04  0.50400001928E-02 0.  1.
    10030    2    1    2    0    0  0.00000000000E+00  0.00000000000E+00  0.56524992313E+02  0.25007230598E+04  0.25000841480E+04 0.  0.
        2    1    3    3  502    0  0.80357409682E+03 -0.27023073184E+03 -0.89058491558E+03  0.12295923997E+04  0.25500000920E-02 0.  1.
       -2    1    3    3    0  502 -0.80357409682E+03  0.27023073184E+03  0.94710990789E+03  0.12711306601E+04  0.25500000920E-02 0. -1.
</event>
<event>
 5   0  0.8997210E-07  0.2499704E+04  0.7818609E-02  0.8403091E-01
       -2   -1    0    0    0  501  0.00000000000E+00  0.00000000000E+00  0.86668577552E+03  0.86668577553E+03  0.25500000920E-02 0.  1.
        2   -1    0    0  501    0  0.00000000000E+00  0.00000000000E+00 -0.18024182501E+04  0.18024182501E+04  0.25500000920E-02 0. -1.
    10030    2    1    2    0    0  0.00000000000E+00  0.00000000000E+00 -0.93573247457E+03  0.26691040256E+04  0.24997041896E+04 0.  0.
        1    1    3    3  502    0 -0.46358444436E+03 -0.11273596892E+04 -0.17296146140E+03  0.12311645191E+04  0.50400001928E-02 0.  1.
       -1    1    3    3    0  502  0.46358444436E+03  0.11273596892E+04 -0.76277101317E+03  0.14379395065E+04  0.50400001928E-02 0. -1.
</event>
<event>
 5   0  0.3805418E-07  0.2491279E+04  0.7818609E-02  0.8406099E-01
       -1   -1    0    0    0  501  0.00000000000E+00  0.00000000000E+00  0.89040038265E+03  0.89040038267E+03  0.50400001928E-02 0. -1.
        1   -1    0    0  501    0  0.00000000000E+00  0.00000000000E+00 -0.17426067490E+04  0.17426067490E+04  0.50400001928E-02 0.  1.
    10030    2    1    2    0    0  0.00000000000E+00  0.00000000000E+00 -0.85220636638E+03  0.26330071317E+04  0.24912789616E+04 0.  0.
        4    1    3    3  502    0 -0.76583644382E+03 -0.41543871342E+03 -0.13669851656E+04  0.16210320291E+04  0.12699999809E+01 0.  1.
       -4    1    3    3    0  502  0.76583644382E+03  0.41543871342E+03  0.51477879926E+03  0.10119751026E+04  0.12699999809E+01 0. -1.
</event>
<event>
 5   0  0.8997210E-07  0.2500555E+04  0.7818609E-02  0.8402788E-01
        2   -1    0    0  501    0  0.00000000000E+00  0.00000000000E+00  0.18775729702E+04  0.18775729702E+04  0.25500000920E-02 0. -1.
       -2   -1    0    0    0  501  0.00000000000E+00  0.00000000000E+00 -0.83256099940E+03  0.83256099941E+03  0.25500000920E-02 0.  1.
    10030    2    1    2    0    0  0.00000000000E+00  0.00000000000E+00  0.10450119708E+04  0.27101339696E+04  0.25005551612E+04 0.  0.
        1    1    3    3  502    0  0.10696904676E+04 -0.46891564650E+03  0.38932944387E+02  0.11686040194E+04  0.50400001928E-02 0.  1.
       -1    1    3    3    0  502 -0.10696904676E+04  0.46891564650E+03  0.10060790264E+04  0.15415299502E+04  0.50400001928E-02 0. -1.
</event>
<event>
 5   0  0.3991066E-07  0.2498595E+04  0.7818609E-02  0.8403486E-01
        1   -1    0    0  501    0  0.00000000000E+00  0.00000000000E+00  0.11798269035E+04  0.11798269035E+04  0.50400001928E-02 0. -1.
       -1   -1    0    0    0  501  0.00000000000E+00  0.00000000000E+00 -0.13228584166E+04  0.13228584167E+04  0.50400001928E-02 0.  1.
    10030    2    1    2    0    0  0.00000000000E+00  0.00000000000E+00 -0.14303151312E+03  0.25026853202E+04  0.24985947647E+04 0.  0.
        1    1    3    3  502    0 -0.55509838867E+03  0.96493937769E+03 -0.63945525662E+03  0.12838010940E+04  0.50400001928E-02 0.  1.
       -1    1    3    3    0  502  0.55509838867E+03 -0.96493937769E+03  0.49642374350E+03  0.12188842262E+04  0.50400001928E-02 0. -1.
</event>
<event>
 5   0  0.9261602E-07  0.2498936E+04  0.7818609E-02  0.8403365E-01
       -2   -1    0    0    0  501  0.00000000000E+00  0.00000000000E+00  0.73877451485E+03  0.73877451485E+03  0.25500000920E-02 0.  1.
        2   -1    0    0  501    0  0.00000000000E+00  0.00000000000E+00 -0.21131884451E+04  0.21131884451E+04  0.25500000920E-02 0. -1.
    10030    2    1    2    0    0  0.00000000000E+00  0.00000000000E+00 -0.13744139303E+04  0.28519629600E+04  0.24989355881E+04 0.  0.
        4    1    3    3  502    0 -0.62372415510E+02 -0.15457512606E+03 -0.21004418022E+04  0.21070456011E+04  0.12699999809E+01 0. -1.
       -4    1    3    3    0  502  0.62372415510E+02  0.15457512606E+03  0.72602787193E+03  0.74491735886E+03  0.12699999809E+01 0.  1.
</event>
<event>
 5   0  0.3214375E-07  0.2499993E+04  0.7818609E-02  0.8402988E-01
        3   -1    0    0  501    0  0.00000000000E+00  0.00000000000E+00  0.74567314741E+03  0.74567315425E+03  0.10100000352E+00 0.  1.
       -3   -1    0    0    0  501  0.00000000000E+00  0.00000000000E+00 -0.20954108850E+04  0.20954108874E+04  0.10100000352E+00 0. -1.
    10030    2    1    2    0    0  0.00000000000E+00  0.00000000000E+00 -0.13497377376E+04  0.28410840416E+04  0.24999933143E+04 0.  0.
        2    1    3    3  502    0 -0.11676682987E+04 -0.38869127092E+03 -0.42598798782E+03  0.13023040834E+04  0.25500000920E-02 0. -1.
       -2    1    3    3    0  502  0.11676682987E+04  0.38869127092E+03 -0.92374974973E+03  0.15387799583E+04  0.25500000920E-02 0.  1.
</event>
<event>
 5   0  0.9768582E-07  0.2501249E+04  0.7818609E-02  0.8402541E-01
        2   -1    0    0  501    0  0.00000000000E+00  0.00000000000E+00  0.26891763756E+04  0.26891763756E+04  0.25500000920E-02 0. -1.
       -2   -1    0    0    0  501  0.00000000000E+00  0.00000000000E+00 -0.58161370718E+03  0.58161370719E+03  0.25500000920E-02 0.  1.
    10030    2    1    2    0    0  0.00000000000E+00  0.00000000000E+00  0.21075626684E+04  0.32707900828E+04  0.25012491608E+04 0.  0.
        3    1    3    3  502    0 -0.63018521838E+03  0.94647268509E+03  0.17346679456E+04  0.20741303828E+04  0.10100000352E+00 0. -1.
       -3    1    3    3    0  502  0.63018521838E+03 -0.94647268509E+03  0.37289472281E+03  0.11966597000E+04  0.10100000352E+00 0.  1.
</event>
<event>
 5   0  0.9508784E-07  0.2499887E+04  0.7818609E-02  0.8403026E-01
       -2   -1    0    0    0  501  0.00000000000E+00  0.00000000000E+00  0.10914729515E+04  0.10914729515E+04  0.25500000920E-02 0.  1.
        2   -1    0    0  501    0  0.00000000000E+00  0.00000000000E+00 -0.14314218298E+04  0.14314218298E+04  0.25500000920E-02 0. -1.
    10030    2    1    2    0    0  0.00000000000E+00  0.00000000000E+00 -0.33994887829E+03  0.25228947814E+04  0.24998865650E+04 0.  0.
        2    1    3    3  502    0 -0.27829019106E+03  0.12050704490E+04 -0.35252037021E+03  0.12860446450E+04  0.25500000920E-02 0.  1.
       -2    1    3    3    0  502  0.27829019106E+03 -0.12050704490E+04  0.12571491922E+02  0.12368501364E+04  0.25500000920E-02 0. -1.
</event>
<event>
 5   0  0.8997210E-07  0.2498034E+04  0.7818609E-02  0.8403686E-01
        2   -1    0    0  501    0  0.00000000000E+00  0.00000000000E+00  0.12935044810E+04  0.12935044810E+04  0.25500000920E-02 0.  1.
       -2   -1    0    0    0  501  0.00000000000E+00  0.00000000000E+00 -0.12060597179E+04  0.12060597179E+04  0.25500000920E-02 0. -1.
    10030    2    1    2    0    0  0.00000000000E+00  0.00000000000E+00  0.87444763100E+02  0.24995641989E+04  0.24980341466E+04 0.  0.
        1    1    3    3  502    0  0.29141473935E+03  0.52049583839E+03 -0.10543125863E+04  0.12113684401E+04  0.50400001928E-02 0. -1.
       -1    1    3    3    0  502 -0.29141473935E+03 -0.52049583839E+03  0.11417573494E+04  0.12881957588E+04  0.50400001928E-02 0.  1.
</event>
<event>
 5   0  0.3873231E-07  0.2500209E+04  0.7818609E-02  0.8402911E-01
       -1   -1    0    0    0  501  0.00000000000E+00  0.00000000000E+00  0.14216726601E+04  0.14216726602E+04  0.50400001928E-02 0.  1.
        1   -1    0    0  501    0  0.00000000000E+00  0.00000000000E+00 -0.10992414204E+04  0.10992414205E+04  0.50400001928E-02 0. -1.
    10030    2    1    2    0    0  0.00000000000E+00  0.00000000000E+00  0.32243123970E+03  0.25209140806E+04  0.25002091707E+04 0.  0.
        2    1    3    3  502    0  0.48217360283E+03 -0.28484756399E+03 -0.96568562774E+03  0.11163235416E+04  0.25500000920E-02 0. -1.
       -2    1    3    3    0  502 -0.48217360283E+03  0.28484756399E+03  0.12881168674E+04  0.14045905390E+04  0.25500000920E-02 0.  1.
</event>
<event>
 5   0  0.9508784E-07  0.2503098E+04  0.7818609E-02  0.8401883E-01
        2   -1    0    0  501    0  0.00000000000E+00  0.00000000000E+00  0.22433106631E+04  0.22433106631E+04  0.25500000920E-02 0. -1.
       -2   -1    0    0    0  501  0.00000000000E+00  0.00000000000E+00 -0.69824234030E+03  0.69824234031E+03  0.25500000920E-02 0.  1.
    10030    2    1    2    0    0  0.00000000000E+00  0.00000000000E+00  0.15450683228E+04  0.29415530035E+04  0.25030976709E+04 0.  0.
        2    1    3    3  502    0  0.58899611644E+03  0.98595831522E+03  0.13569874450E+04  0.17777640874E+04  0.25500000920E-02 0. -1.
       -2    1    3    3    0  502 -0.58899611644E+03 -0.98595831522E+03  0.18808087785E+03  0.11637889161E+04  0.25500000920E-02 0.  1.
</event>
<event>
 5   0  0.3972587E-07  0.2498610E+04  0.7818609E-02  0.8403481E-01
        1   -1    0    0  501    0  0.00000000000E+00  0.00000000000E+00  0.12086738128E+04  0.12086738129E+04  0.50400001928E-02 0.  1.
       -1   -1    0    0    0  501  0.00000000000E+00  0.00000000000E+00 -0.12913023246E+04  0.12913023246E+04  0.50400001928E-02 0. -1.
    10030    2    1    2    0    0  0.00000000000E+00  0.00000000000E+00 -0.82628511767E+02  0.24999761375E+04  0.24986102571E+04 0.  0.
        3    1    3    3  502    0  0.10599779398E+04 -0.38064167372E+03 -0.58227789972E+03  0.12678678477E+04  0.10100000352E+00 0.  1.
       -3    1    3    3    0  502 -0.10599779398E+04  0.38064167372E+03  0.49964938795E+03  0.12321082898E+04  0.10100000352E+00 0. -1.
</event>
<event>
 5   0  0.3805418E-07  0.2500624E+04  0.7818609E-02  0.8402763E-01
       -1   -1    0    0    0  501  0.00000000000E+00  0.00000000000E+00  0.12456662556E+04  0.12456662556E+04  0.50400001928E-02 0. -1.
        1   -1    0    0  501    0  0.00000000000E+00  0.00000000000E+00 -0.12549752966E+04  0.12549752967E+04  0.50400001928E-02 0.  1.
    10030    2    1    2    0    0  0.00000000000E+00  0.00000000000E+00 -0.93090410860E+01  0.25006415522E+04  0.25006242250E+04 0.  0.
        4    1    3    3  502    0  0.27059569839E+03  0.12206574291E+04 -0.11877762537E+02  0.12503476658E+04  0.12699999809E+01 0.  1.
       -4    1    3    3    0  502 -0.27059569839E+03 -0.12206574291E+04  0.25687214508E+01  0.12502938864E+04  0.12699999809E+01 0. -1.
</event>
<event>
 5   0  0.3873231E-07  0.2499681E+04  0.7818609E-02  0.8403099E-01
       -1   -1    0    0    0  501  0.00000000000E+00  0.00000000000E+00  0.26428560765E+04  0.26428560765E+04  0.50400001928E-02 0. -1.
        1   -1    0    0  501    0  0.00000000000E+00  0.00000000000E+00 -0.59106565550E+03  0.59106565552E+03  0.50400001928E-02 0.  1.
    10030    2    1    2    0    0  0.00000000000E+00  0.00000000000E+00  0.20517904210E+04  0.32339217321E+04  0.24996811471E+04 0.  0.
        2    1    3    3  502    0 -0.32165402093E+03 -0.85112338140E+03  0.21344590252E+04  0.23202990432E+04  0.25500000920E-02 0. -1.
       -2    1    3    3    0  502  0.32165402093E+03  0.85112338140E+03 -0.82668604148E+02  0.91362268889E+03  0.25500000920E-02 0.  1.
</event>
<event>
 5   0  0.3837524E-07  0.2510820E+04  0.7818609E-02  0.8399141E-01
       -1   -1    0    0    0  501  0.00000000000E+00  0.00000000000E+00  0.79499111432E+03  0.79499111433E+03  0.50400001928E-02 0.  1.
        1   -1    0    0  501    0  0.00000000000E+00  0.00000000000E+00 -0.19824808198E+04  0.19824808198E+04  0.50400001928E-02 0. -1.
    10030    2    1    2    0    0  0.00000000000E+00  0.00000000000E+00 -0.11874897055E+04  0.27774719341E+04  0.25108202931E+04 0.  0.
        5    1    3    3  502    0 -0.45616663987E+03  0.63333706113E+03  0.49395437000E+03  0.92369737791E+03  0.46999998093E+01 0.  1.
       -5    1    3    3    0  502  0.45616663987E+03 -0.63333706113E+03 -0.16814440755E+04  0.18537745562E+04  0.46999998093E+01 0. -1.
</event>
<event>
 5   0  0.8997210E-07  0.2498895E+04  0.7818609E-02  0.8403379E-01
        2   -1    0    0  501    0  0.00000000000E+00  0.00000000000E+00  0.17720962763E+04  0.17720962763E+04  0.25500000920E-02 0. -1.
       -2   -1    0    0    0  501  0.00000000000E+00  0.00000000000E+00 -0.88094505987E+03  0.88094505987E+03  0.25500000920E-02 0.  1.
    10030    2    1    2    0    0  0.00000000000E+00  0.00000000000E+00  0.89115121644E+03  0.26530413362E+04  0.24988953241E+04 0.  0.
        1    1    3    3  502    0  0.23344957974E+03  0.53636766711E+03  0.16177316235E+04  0.17202455018E+04  0.50400001928E-02 0. -1.
       -1    1    3    3    0  502 -0.23344957974E+03 -0.53636766711E+03 -0.72658040711E+03  0.93279583438E+03  0.50400001928E-02 0.  1.
</event>
<event>
 5   0  0.9261602E-07  0.2500737E+04  0.7818609E-02  0.8402723E-01
       -2   -1    0    0    0  501  0.00000000000E+00  0.00000000000E+00  0.11039794181E+04  0.11039794181E+04  0.25500000920E-02 0.  1.
        2   -1    0    0  501    0  0.00000000000E+00  0.00000000000E+00 -0.14161691575E+04  0.14161691575E+04  0.25500000920E-02 0. -1.
    10030    2    1    2    0    0  0.00000000000E+00  0.00000000000E+00 -0.31218973936E+03  0.25201485756E+04  0.25007371732E+04 0.  0.
        4    1    3    3  502    0 -0.79695050464E+03 -0.48715426890E+03 -0.99379364461E+03  0.13638463291E+04  0.12699999809E+01 0. -1.
       -4    1    3    3    0  502  0.79695050464E+03  0.48715426890E+03  0.68160390524E+03  0.11563022464E+04  0.12699999809E+01 0.  1.
</event>
<event>
 5   0  0.9768582E-07  0.2499989E+04  0.7818609E-02  0.8402989E-01
       -2   -1    0    0    0  501  0.00000000000E+00  0.00000000000E+00  0.86077914064E+03  0.86077914065E+03  0.25500000920E-02 0.  1.
        2   -1    0    0  501    0  0.00000000000E+00  0.00000000000E+00 -0.18151999375E+04  0.18151999375E+04  0.25500000920E-02 0. -1.
    10030    2    1    2    0    0  0.00000000000E+00  0.00000000000E+00 -0.95442079683E+03  0.26759790781E+04  0.24999889938E+04 0.  0.
        3    1    3    3  502    0 -0.11770773411E+04 -0.27822283174E+01 -0.92749934036E+03  0.14985906193E+04  0.10100000352E+00 0. -1.
       -3    1    3    3    0  502  0.11770773411E+04  0.27822283174E+01 -0.26921456474E+02  0.11773884588E+04  0.10100000352E+00 0.  1.
</event>
<event>
 5   0  0.3873231E-07  0.2500586E+04  0.7818609E-02  0.8402777E-01
       -1   -1    0    0    0  501  0.00000000000E+00  0.00000000000E+00  0.14911857252E+04  0.14911857252E+04  0.50400001928E-02 0.  1.
        1   -1    0    0  501    0  0.00000000000E+00  0.00000000000E+00 -0.10483153811E+04  0.10483153811E+04  0.50400001928E-02 0. -1.
    10030    2    1    2    0    0  0.00000000000E+00  0.00000000000E+00  0.44287034408E+03  0.25395011063E+04  0.25005862767E+04 0.  0.
        2    1    3    3  502    0 -0.55513361310E+03 -0.83205541290E+03  0.98327165332E+03  0.14026092409E+04  0.25500000920E-02 0.  1.
       -2    1    3    3    0  502  0.55513361310E+03  0.83205541290E+03 -0.54040130924E+03  0.11368918654E+04  0.25500000920E-02 0. -1.
</event>
<event>
 5   0  0.3873231E-07  0.2500586E+04  0.7818609E-02  0.8402777E-01
       -1   -1    0    0    0  501  0.00000000000E+00  0.00000000000E+00  0.89057737151E+03  0.89057737153E+03  0.50400001928E-02 0.  1.
        1   -1    0    0  501    0  0.00000000000E+00  0.00000000000E+00 -0.17553020320E+04  0.17553020320E+04  0.50400001928E-02 0. -1.
    10030    2    1    2    0    0  0.00000000000E+00  0.00000000000E+00 -0.86472466051E+03  0.26458794036E+04  0.25005857473E+04 0.  0.
        2    1    3    3  502    0  0.37832255518E+02  0.80319814788E+03 -0.14454235385E+04  0.16540277356E+04  0.25500000920E-02 0. -1.
       -2    1    3    3    0  502 -0.37832255518E+02 -0.80319814788E+03  0.58069887802E+03  0.99185166797E+03  0.25500000920E-02 0.  1.
</event>
<event>
 5   0  0.3214375E-07  0.2497145E+04  0.7818609E-02  0.8404003E-01
       -3   -1    0    0    0  501  0.00000000000E+00  0.00000000000E+00  0.20395258038E+04  0.20395258063E+04  0.10100000352E+00 0. -1.
        3   -1    0    0  501    0  0.00000000000E+00  0.00000000000E+00 -0.76436053068E+03  0.76436053735E+03  0.10100000352E+00 0.  1.
    10030    2    1    2    0    0  0.00000000000E+00  0.00000000000E+00  0.12751652731E+04  0.28038863436E+04  0.24971448004E+04 0.  0.
        1    1    3    3  502    0  0.33525148731E+03 -0.88616894674E+02  0.19843722768E+04  0.20144428130E+04  0.50400001928E-02 0. -1.
       -1    1    3    3    0  502 -0.33525148731E+03  0.88616894674E+02 -0.70920700377E+03  0.78944353059E+03  0.50400001928E-02 0.  1.
</event>
<event>
 5   0  0.3214375E-07  0.2499242E+04  0.7818609E-02  0.8403256E-01
       -3   -1    0    0    0  501  0.00000000000E+00  0.00000000000E+00  0.11585423856E+04  0.11585423900E+04  0.10100000352E+00 0.  1.
        3   -1    0    0  501    0  0.00000000000E+00  0.00000000000E+00 -0.13478592261E+04  0.13478592299E+04  0.10100000352E+00 0. -1.
    10030    2    1    2    0    0  0.00000000000E+00  0.00000000000E+00 -0.18931684055E+03  0.25064016199E+04  0.24992415278E+04 0.  0.
        4    1    3    3  502    0  0.63439805602E+03  0.35989678310E+03  0.92292278553E+03  0.11763395211E+04  0.12699999809E+01 0.  1.
       -4    1    3    3    0  502 -0.63439805602E+03 -0.35989678310E+03 -0.11122396261E+04  0.13300620988E+04  0.12699999809E+01 0. -1.
</event>
<event>
 5   0  0.3805418E-07  0.2500438E+04  0.7818609E-02  0.8402830E-01
        1   -1    0    0  501    0  0.00000000000E+00  0.00000000000E+00  0.10161241308E+04  0.10161241308E+04  0.50400001928E-02 0.  1.
       -1   -1    0    0    0  501  0.00000000000E+00  0.00000000000E+00 -0.15382442593E+04  0.15382442593E+04  0.50400001928E-02 0. -1.
    10030    2    1    2    0    0  0.00000000000E+00  0.00000000000E+00 -0.52212012854E+03  0.25543683901E+04  0.25004376504E+04 0.  0.
        4    1    3    3  502    0 -0.11239358971E+04  0.49081906275E+03 -0.13110747786E+02  0.12265026530E+04  0.12699999809E+01 0.  1.
       -4    1    3    3    0  502  0.11239358971E+04 -0.49081906275E+03 -0.50900938076E+03  0.13278657371E+04  0.12699999809E+01 0. -1.
</event>
<event>
 5   0  0.3991066E-07  0.2499261E+04  0.7818609E-02  0.8403249E-01
       -1   -1    0    0    0  501  0.00000000000E+00  0.00000000000E+00  0.14799116661E+04  0.14799116661E+04  0.50400001928E-02 0. -1.
        1   -1    0    0  501    0  0.00000000000E+00  0.00000000000E+00 -0.10551822000E+04  0.10551822000E+04  0.50400001928E-02 0.  1.
    10030    2    1    2    0    0  0.00000000000E+00  0.00000000000E+00  0.42472946617E+03  0.25350938661E+04  0.24992610489E+04 0.  0.
        1    1    3    3  502    0  0.75004475455E+02  0.76021797966E+02  0.14752744144E+04  0.14791347413E+04  0.50400001928E-02 0. -1.
       -1    1    3    3    0  502 -0.75004475455E+02 -0.76021797966E+02 -0.10505449482E+04  0.10559591248E+04  0.50400001928E-02 0.  1.
</event>
<event>
 5   0  0.9261602E-07  0.2499796E+04  0.7818609E-02  0.8403058E-01
       -2   -1    0    0    0  501  0.00000000000E+00  0.00000000000E+00  0.11229793586E+04  0.11229793586E+04  0.25500000920E-02 0.  1.
        2   -1    0    0  501    0  0.00000000000E+00  0.00000000000E+00 -0.13911613432E+04  0.13911613432E+04  0.25500000920E-02 0. -1.
    10030    2    1    2    0    0  0.00000000000E+00  0.00000000000E+00 -0.26818198456E+03  0.25141407018E+04  0.24997963701E+04 0.  0.
        4    1    3    3  502    0 -0.49215962335E+03  0.43703333641E+03 -0.12027438554E+04  0.13710629550E+04  0.12699999809E+01 0. -1.
       -4    1    3    3    0  502  0.49215962335E+03 -0.43703333641E+03  0.93456187084E+03  0.11430777468E+04  0.12699999809E+01 0.  1.
</event>
<event>
 5   0  0.9251138E-07  0.2500174E+04  0.7818609E-02  0.8402924E-01
        2   -1    0    0  501    0  0.00000000000E+00  0.00000000000E+00  0.93806545059E+03  0.93806545059E+03  0.25500000920E-02 0.  1.
       -2   -1    0    0    0  501  0.00000000000E+00  0.00000000000E+00 -0.16658938073E+04  0.16658938073E+04  0.25500000920E-02 0. -1.
    10030    2    1    2    0    0  0.00000000000E+00  0.00000000000E+00 -0.72782835672E+03  0.26039592579E+04  0.25001739339E+04 0.  0.
        5    1    3    3  502    0  0.18369809756E+03 -0.11022964293E+04 -0.94743280798E+03  0.14650779586E+04  0.46999998093E+01 0. -1.
       -5    1    3    3    0  502 -0.18369809756E+03  0.11022964293E+04  0.21960445127E+03  0.11388812993E+04  0.46999998093E+01 0.  1.
</event>
<event>
 5   0  0.3837524E-07  0.2497398E+04  0.7818609E-02  0.8403913E-01
       -1   -1    0    0    0  501  0.00000000000E+00  0.00000000000E+00  0.11537460000E+04  0.11537460000E+04  0.50400001928E-02 0. -1.
        1   -1    0    0  501    0  0.00000000000E+00  0.00000000000E+00 -0.13514665549E+04  0.13514665549E+04  0.50400001928E-02 0.  1.
    10030    2    1    2    0    0  0.00000000000E+00  0.00000000000E+00 -0.19772055488E+03  0.25052125549E+04  0.24973979514E+04 0.  0.
        5    1    3    3  502    0 -0.83591412973E+03 -0.39180624078E+03 -0.94230186487E+03  0.13191737782E+04  0.46999998093E+01 0.  1.
       -5    1    3    3    0  502  0.83591412973E+03  0.39180624078E+03  0.74458130999E+03  0.11860387767E+04  0.46999998093E+01 0. -1.
</event>
<event>
 5   0  0.8997210E-07  0.2499819E+04  0.7818609E-02  0.8403050E-01
       -2   -1    0    0    0  501  0.00000000000E+00  0.00000000000E+00  0.53086802301E+03  0.53086802302E+03  0.25500000920E-02 0.  1.
        2   -1    0    0  501    0  0.00000000000E+00  0.00000000000E+00 -0.29428657232E+04  0.29428657232E+04  0.25500000920E-02 0. -1.
    10030    2    1    2    0    0  0.00000000000E+00  0.00000000000E+00 -0.24119977001E+04  0.34737337462E+04  0.24998186402E+04 0.  0.
        1    1    3    3  502    0 -0.23072648835E+03  0.78858635362E+03  0.10285600485E+03  0.82805948295E+03  0.50400001928E-02 0.  1.
       -1    1    3    3    0  502  0.23072648835E+03 -0.78858635362E+03 -0.25148537050E+04  0.26456742632E+04  0.50400001928E-02 0. -1.
</event>
<event>
 5   0  0.9508784E-07  0.2499100E+04  0.7818609E-02  0.8403306E-01
       -2   -1    0    0    0  501  0.00000000000E+00  0.00000000000E+00  0.93478817440E+03  0.93478817440E+03  0.25500000920E-02 0. -1.
        2   -1    0    0  501    0  0.00000000000E+00  0.00000000000E+00 -0.16702981523E+04  0.16702981523E+04  0.25500000920E-02 0.  1.
    10030    2    1    2    0    0  0.00000000000E+00  0.00000000000E+00 -0.73550997786E+03  0.26050863267E+04  0.24990998063E+04 0.  0.
        2    1    3    3  502    0 -0.21443511671E+03 -0.23378117903E+03  0.89211234672E+03  0.94683710221E+03  0.25500000920E-02 0. -1.
       -2    1    3    3    0  502  0.21443511671E+03  0.23378117903E+03 -0.16276223246E+04  0.16582492245E+04  0.25500000920E-02 0.  1.
</event>
<event>
 5   0  0.9508784E-07  0.2500381E+04  0.7818609E-02  0.8402850E-01
        2   -1    0    0  501    0  0.00000000000E+00  0.00000000000E+00  0.18953589678E+04  0.18953589678E+04  0.25500000920E-02 0.  1.
       -2   -1    0    0    0  501  0.00000000000E+00  0.00000000000E+00 -0.82463359552E+03  0.82463359552E+03  0.25500000920E-02 0. -1.
    10030    2    1    2    0    0  0.00000000000E+00  0.00000000000E+00  0.10707253723E+04  0.27199925633E+04  0.25003813153E+04 0.  0.
        2    1    3    3  502    0  0.36795591587E+03  0.11359051247E+04  0.13227073209E+03  0.12013190895E+04  0.25500000920E-02 0. -1.
       -2    1    3    3    0  502 -0.36795591587E+03 -0.11359051247E+04  0.93845464022E+03  0.15186734738E+04  0.25500000920E-02 0.  1.
</event>
<event>
 5   0  0.3805418E-07  0.2500539E+04  0.7818609E-02  0.8402794E-01
       -1   -1    0    0    0  501  0.00000000000E+00  0.00000000000E+00  0.81174812414E+03  0.81174812416E+03  0.50400001928E-02 0. -1.
        1   -1    0    0  501    0  0.00000000000E+00  0.00000000000E+00 -0.19256876451E+04  0.19256876451E+04  0.50400001928E-02 0.  1.
    10030    2    1    2    0    0  0.00000000000E+00  0.00000000000E+00 -0.11139395210E+04  0.27374357693E+04  0.25005386089E+04 0.  0.
        4    1    3    3  502    0  0.15194742274E+03 -0.54965594944E+03  0.66107721292E+03  0.87306035093E+03  0.12699999809E+01 0. -1.
       -4    1    3    3    0  502 -0.15194742274E+03  0.54965594944E+03 -0.17750167339E+04  0.18643754184E+04  0.12699999809E+01 0.  1.
</event>
<event>
 5   0  0.3991066E-07  0.2499924E+04  0.7818609E-02  0.8403012E-01
       -1   -1    0    0    0  501  0.00000000000E+00  0.00000000000E+00  0.13118086034E+04  0.13118086034E+04  0.50400001928E-02 0.  1.
        1   -1    0    0  501    0  0.00000000000E+00  0.00000000000E+00 -0.11910316040E+04  0.11910316041E+04  0.50400001928E-02 0. -1.
    10030    2    1    2    0    0  0.00000000000E+00  0.00000000000E+00  0.12077699939E+03  0.25028402075E+04  0.24999244030E+04 0.  0.
        1    1    3    3  502    0  0.61496604125E+03  0.28631311783E+02 -0.10287233729E+04  0.11988639463E+04  0.50400001928E-02 0. -1.
       -1    1    3    3    0  502 -0.61496604125E+03 -0.28631311783E+02  0.11495003722E+04  0.13039762612E+04  0.50400001928E-02 0.  1.
</event>
<event>
 5   0  0.9251138E-07  0.2500011E+04  0.7818609E-02  0.8402982E-01
        2   -1    0    0  501    0  0.00000000000E+00  0.00000000000E+00  0.14132480111E+04  0.14132480111E+04  0.25500000920E-02 0. -1.
       -2   -1    0    0    0  501  0.00000000000E+00  0.00000000000E+00 -0.11056187663E+04  0.11056187663E+04  0.25500000920E-02 0.  1.
    10030    2    1    2    0    0  0.00000000000E+00  0.00000000000E+00  0.30762924484E+03  0.25188667774E+04  0.25000108179E+04 0.  0.
        5    1    3    3  502    0 -0.12147231194E+04 -0.12039242968E+03 -0.11737123376E+03  0.12263134552E+04  0.46999998093E+01 0. -1.
       -5    1    3    3    0  502  0.12147231194E+04  0.12039242968E+03  0.42500047860E+03  0.12925533222E+04  0.46999998093E+01 0.  1.
</event>
<event>
 5   0  0.3837524E-07  0.2502679E+04  0.7818609E-02  0.8402032E-01
        1   -1    0    0  501    0  0.00000000000E+00  0.00000000000E+00  0.17474792932E+04  0.17474792932E+04  0.50400001928E-02 0. -1.
       -1   -1    0    0    0  501  0.00000000000E+00  0.00000000000E+00 -0.89606275972E+03  0.89606275974E+03  0.50400001928E-02 0.  1.
    10030    2    1    2    0    0  0.00000000000E+00  0.00000000000E+00  0.85141653350E+03  0.26435420530E+04  0.25026794586E+04 0.  0.
        5    1    3    3  502    0 -0.10222448932E+04  0.67105427459E+03  0.14518448698E+03  0.12314215713E+04  0.46999998093E+01 0. -1.
       -5    1    3    3    0  502  0.10222448932E+04 -0.67105427459E+03  0.70623204651E+03  0.14121204816E+04  0.46999998093E+01 0.  1.
</event>
<event>
 5   0  0.9508784E-07  0.2500958E+04  0.7818609E-02  0.8402644E-01
       -2   -1    0    0    0  501  0.00000000000E+00  0.00000000000E+00  0.11545035357E+04  0.11545035357E+04  0.25500000920E-02 0. -1.
        2   -1    0    0  501    0  0.00000000000E+00  0.00000000000E+00 -0.13544332450E+04  0.13544332450E+04  0.25500000920E-02 0.  1.
    10030    2    1    2    0    0  0.00000000000E+00  0.00000000000E+00 -0.19992970930E+03  0.25089367808E+04  0.25009581926E+04 0.  0.
        2    1    3    3  502    0  0.54006317061E+03  0.11213417327E+04 -0.22127399207E+03  0.12641351547E+04  0.25500000920E-02 0.  1.
       -2    1    3    3    0  502 -0.54006317061E+03 -0.11213417327E+04  0.21344282765E+02  0.12448016261E+04  0.25500000920E-02 0. -1.
</event>
<event>
 5   0  0.9261602E-07  0.2500156E+04  0.7818609E-02  0.8402930E-01
        2   -1    0    0  501    0  0.00000000000E+00  0.00000000000E+00  0.20175026108E+04  0.20175026108E+04  0.25500000920E-02 0. -1.
       -2   -1    0    0    0  501  0.00000000000E+00  0.00000000000E+00 -0.77456896492E+03  0.77456896493E+03  0.25500000920E-02 0.  1.
    10030    2    1    2    0    0  0.00000000000E+00  0.00000000000E+00  0.12429336459E+04  0.27920715757E+04  0.25001559223E+04 0.  0.
        4    1    3    3  502    0 -0.76651718550E+03  0.32451608556E+03  0.16630108804E+04  0.18596951596E+04  0.12699999809E+01 0. -1.
       -4    1    3    3    0  502  0.76651718550E+03 -0.32451608556E+03 -0.42007723453E+03  0.93237641611E+03  0.12699999809E+01 0.  1.
</event>
<event>
 5   0  0.3805418E-07  0.2500892E+04  0.7818609E-02  0.8402668E-01
       -1   -1    0    0    0  501  0.00000000000E+00  0.00000000000E+00  0.12305974594E+04  0.12305974594E+04  0.50400001928E-02 0. -1.
        1   -1    0    0  501    0  0.00000000000E+00  0.00000000000E+00 -0.12706146686E+04  0.12706146686E+04  0.50400001928E-02 0.  1.
    10030    2    1    2    0    0  0.00000000000E+00  0.00000000000E+00 -0.40017209196E+02  0.25012121281E+04  0.25008919874E+04 0.  0.
        4    1    3    3  502    0  0.29678863126E+03  0.75501048631E+03  0.93168519251E+03  0.12353797946E+04  0.12699999809E+01 0. -1.
       -4    1    3    3    0  502 -0.29678863126E+03 -0.75501048631E+03 -0.97170240170E+03  0.12658323335E+04  0.12699999809E+01 0.  1.
</event>
<event>
 5   0  0.9251138E-07  0.2501203E+04  0.7818609E-02  0.8402557E-01
        2   -1    0    0  501    0  0.00000000000E+00  0.00000000000E+00  0.19267924205E+04  0.19267924205E+04  0.25500000920E-02 0.  1.
       -2   -1    0    0    0  501  0.00000000000E+00  0.00000000000E+00 -0.81171408548E+03  0.81171408548E+03  0.25500000920E-02 0. -1.
    10030    2    1    2    0    0  0.00000000000E+00  0.00000000000E+00  0.11150783350E+04  0.27385065060E+04  0.25012033484E+04 0.  0.
        5    1    3    3  502    0  0.97059344477E+01 -0.13131269630E+03  0.19191723568E+04  0.19236896460E+04  0.46999998093E+01 0.  1.
       -5    1    3    3    0  502 -0.97059344477E+01  0.13131269630E+03 -0.80409402176E+03  0.81481685992E+03  0.46999998093E+01 0. -1.
</event>
<event>
 5   0  0.9768582E-07  0.2498585E+04  0.7818609E-02  0.8403490E-01
       -2   -1    0    0    0  501  0.00000000000E+00  0.00000000000E+00  0.10104794755E+04  0.10104794755E+04  0.25500000920E-02 0. -1.
        2   -1    0    0  501    0  0.00000000000E+00  0.00000000000E+00 -0.15445456650E+04  0.15445456651E+04  0.25500000920E-02 0.  1.
    10030    2    1    2    0    0  0.00000000000E+00  0.00000000000E+00 -0.53406618955E+03  0.25550251406E+04  0.24985849543E+04 0.  0.
        3    1    3    3  502    0 -0.89709724431E+03  0.59666468201E+03 -0.91372614432E+03  0.14126881062E+04  0.10100000352E+00 0.  1.
       -3    1    3    3    0  502  0.89709724431E+03 -0.59666468201E+03  0.37965995477E+03  0.11423370343E+04  0.10100000352E+00 0. -1.
</event>
<event>
 5   0  0.9261602E-07  0.2500230E+04  0.7818609E-02  0.8402903E-01
        2   -1    0    0  501    0  0.00000000000E+00  0.00000000000E+00  0.16345612732E+04  0.16345612732E+04  0.25500000920E-02 0. -1.
       -2   -1    0    0    0  501  0.00000000000E+00  0.00000000000E+00 -0.95609015228E+03  0.95609015228E+03  0.25500000920E-02 0.  1.
    10030    2    1    2    0    0  0.00000000000E+00  0.00000000000E+00  0.67847112091E+03  0.25906514255E+04  0.25002303387E+04 0.  0.
        4    1    3    3  502    0 -0.70614053672E+03  0.27937898107E+03  0.13681737247E+04  0.15647964809E+04  0.12699999809E+01 0. -1.
       -4    1    3    3    0  502  0.70614053672E+03 -0.27937898107E+03 -0.68970260383E+03  0.10258549446E+04  0.12699999809E+01 0.  1.
</event>
<event>
 5   0  0.3873231E-07  0.2500162E+04  0.7818609E-02  0.8402928E-01
        1   -1    0    0  501    0  0.00000000000E+00  0.00000000000E+00  0.14569533651E+04  0.14569533651E+04  0.50400001928E-02 0.  1.
       -1   -1    0    0    0  501  0.00000000000E+00  0.00000000000E+00 -0.10725824816E+04  0.10725824816E+04  0.50400001928E-02 0. -1.
    10030    2    1    2    0    0  0.00000000000E+00  0.00000000000E+00  0.38437088352E+03  0.25295358467E+04  0.25001621195E+04 0.  0.
        2    1    3    3  502    0 -0.12470056259E+04 -0.18388774756E+02  0.27887452644E+03  0.12779406009E+04  0.25500000920E-02 0. -1.
       -2    1    3    3    0  502  0.12470056259E+04  0.18388774756E+02  0.10549635708E+03  0.12515952458E+04  0.25500000920E-02 0.  1.
</event>
<event>
 5   0  0.9768582E-07  0.2516998E+04  0.7818609E-02  0.8396955E-01
       -2   -1    0    0    0  501  0.00000000000E+00  0.00000000000E+00  0.11403981375E+04  0.11403981375E+04  0.25500000920E-02 0. -1.
        2   -1    0    0  501    0  0.00000000000E+00  0.00000000000E+00 -0.13888303886E+04  0.13888303886E+04  0.25500000920E-02 0.  1.
    10030    2    1    2    0    0  0.00000000000E+00  0.00000000000E+00 -0.24843225105E+03  0.25292285261E+04  0.25169978851E+04 0.  0.
        3    1    3    3  502    0  0.11999729624E+04  0.37335506858E+03 -0.56879605583E+02  0.12580001659E+04  0.10100000352E+00 0. -1.
       -3    1    3    3    0  502 -0.11999729624E+04 -0.37335506858E+03 -0.19155264547E+03  0.12712283602E+04  0.10100000352E+00 0.  1.
</event>
<event>
 5   0  0.3837524E-07  0.2499700E+04  0.7818609E-02  0.8403093E-01
       -1   -1    0    0    0  501  0.00000000000E+00  0.00000000000E+00  0.12532106621E+04  0.12532106621E+04  0.50400001928E-02 0.  1.
        1   -1    0    0  501    0  0.00000000000E+00  0.00000000000E+00 -0.12464981007E+04  0.12464981007E+04  0.50400001928E-02 0. -1.
    10030    2    1    2    0    0  0.00000000000E+00  0.00000000000E+00  0.67125614469E+01  0.24997087628E+04  0.24996997500E+04 0.  0.
        5    1    3    3  502    0 -0.92928693078E+03 -0.14918355027E+03 -0.81900468950E+03  0.12476460647E+04  0.46999998093E+01 0. -1.
       -5    1    3    3    0  502  0.92928693078E+03  0.14918355027E+03  0.82571725095E+03  0.12520626981E+04  0.46999998093E+01 0.  1.
</event>
<event>
 5   0  0.9261602E-07  0.2500382E+04  0.7818609E-02  0.8402849E-01
        2   -1    0    0  501    0  0.00000000000E+00  0.00000000000E+00  0.17921156342E+04  0.17921156342E+04  0.25500000920E-02 0.  1.
       -2   -1    0    0    0  501  0.00000000000E+00  0.00000000000E+00 -0.87214109527E+03  0.87214109528E+03  0.25500000920E-02 0. -1.
    10030    2    1    2    0    0  0.00000000000E+00  0.00000000000E+00  0.91997453892E+03  0.26642567295E+04  0.25003821245E+04 0.  0.
        4    1    3    3  502    0 -0.24760494736E+03  0.26128063101E+03 -0.81572705383E+03  0.89162100545E+03  0.12699999809E+01 0. -1.
       -4    1    3    3    0  502  0.24760494736E+03 -0.26128063101E+03  0.17357015928E+04  0.17726357240E+04  0.12699999809E+01 0.  1.
</event>
<event>
 5   0  0.3991066E-07  0.2499040E+04  0.7818609E-02  0.8403328E-01
        1   -1    0    0  501    0  0.00000000000E+00  0.00000000000E+00  0.15417332228E+04  0.15417332228E+04  0.50400001928E-02 0.  1.
       -1   -1    0    0    0  501  0.00000000000E+00  0.00000000000E+00 -0.10126912473E+04  0.10126912473E+04  0.50400001928E-02 0. -1.
    10030    2    1    2    0    0  0.00000000000E+00  0.00000000000E+00  0.52904197548E+03  0.25544244701E+04  0.24990396079E+04 0.  0.
        1    1    3    3  502    0  0.59027247753E+03 -0.12810365361E+03  0.13825945983E+04  0.15087743261E+04  0.50400001928E-02 0.  1.
       -1    1    3    3    0  502 -0.59027247753E+03  0.12810365361E+03 -0.85355262282E+03  0.10456501441E+04  0.50400001928E-02 0. -1.
</event>
<event>
 5   0  0.9251138E-07  0.2503191E+04  0.7818609E-02  0.8401850E-01
       -2   -1    0    0    0  501  0.00000000000E+00  0.00000000000E+00  0.86573708056E+03  0.86573708057E+03  0.25500000920E-02 0. -1.
        2   -1    0    0  501    0  0.00000000000E+00  0.00000000000E+00 -0.18094306847E+04  0.18094306847E+04  0.25500000920E-02 0.  1.
    10030    2    1    2    0    0  0.00000000000E+00  0.00000000000E+00 -0.94369360412E+03  0.26751677653E+04  0.25031909543E+04 0.  0.
        5    1    3    3  502    0  0.39629233356E+03  0.45870242543E+03  0.69837746566E+03  0.92477494736E+03  0.46999998093E+01 0. -1.
       -5    1    3    3    0  502 -0.39629233356E+03 -0.45870242543E+03 -0.16420710698E+04  0.17503928179E+04  0.46999998093E+01 0.  1.
</event>
<event>
 5   0  0.3837524E-07  0.2499848E+04  0.7818609E-02  0.8403040E-01
       -1   -1    0    0    0  501  0.00000000000E+00  0.00000000000E+00  0.13530367724E+04  0.13530367725E+04  0.50400001928E-02 0. -1.
        1   -1    0    0  501    0  0.00000000000E+00  0.00000000000E+00 -0.11546694264E+04  0.11546694264E+04  0.50400001928E-02 0.  1.
    10030    2    1    2    0    0  0.00000000000E+00  0.00000000000E+00  0.19836734606E+03  0.25077061988E+04  0.24998481505E+04 0.  0.
        5    1    3    3  502    0  0.16794154918E+03 -0.33912707348E+03 -0.10958109168E+04  0.11593253172E+04  0.46999998093E+01 0.  1.
       -5    1    3    3    0  502 -0.16794154918E+03  0.33912707348E+03  0.12941782628E+04  0.13483808816E+04  0.46999998093E+01 0. -1.
</event>
<event>
 5   0  0.3837524E-07  0.2499699E+04  0.7818609E-02  0.8403093E-01
       -1   -1    0    0    0  501  0.00000000000E+00  0.00000000000E+00  0.96854849417E+03  0.96854849418E+03  0.50400001928E-02 0. -1.
        1   -1    0    0  501    0  0.00000000000E+00  0.00000000000E+00 -0.16128504738E+04  0.16128504738E+04  0.50400001928E-02 0.  1.
    10030    2    1    2    0    0  0.00000000000E+00  0.00000000000E+00 -0.64430197961E+03  0.25813989680E+04  0.24996991001E+04 0.  0.
        5    1    3    3  502    0 -0.78484557775E+02  0.81767516495E+03 -0.12949311517E+04  0.15334996833E+04  0.46999998093E+01 0.  1.
       -5    1    3    3    0  502  0.78484557775E+02 -0.81767516495E+03  0.65062917207E+03  0.10478992846E+04  0.46999998093E+01 0. -1.
</event>
<event>
 5   0  0.9251138E-07  0.2494826E+04  0.7818609E-02  0.8404831E-01
       -2   -1    0    0    0  501  0.00000000000E+00  0.00000000000E+00  0.81844714561E+03  0.81844714561E+03  0.25500000920E-02 0.  1.
        2   -1    0    0  501    0  0.00000000000E+00  0.00000000000E+00 -0.19012096637E+04  0.19012096637E+04  0.25500000920E-02 0. -1.
    10030    2    1    2    0    0  0.00000000000E+00  0.00000000000E+00 -0.10827625181E+04  0.27196568093E+04  0.24948263446E+04 0.  0.
        5    1    3    3  502    0 -0.65117925941E+03 -0.63308626227E+02 -0.16991545956E+04  0.18207665528E+04  0.46999998093E+01 0. -1.
       -5    1    3    3    0  502  0.65117925941E+03  0.63308626227E+02  0.61639207751E+03  0.89889025651E+03  0.46999998093E+01 0.  1.
</event>
<event>
 5   0  0.3805418E-07  0.2504199E+04  0.7818609E-02  0.8401491E-01
       -1   -1    0    0    0  501  0.00000000000E+00  0.00000000000E+00  0.10232305555E+04  0.10232305555E+04  0.50400001928E-02 0. -1.
        1   -1    0    0  501    0  0.00000000000E+00  0.00000000000E+00 -0.15321605463E+04  0.15321605463E+04  0.50400001928E-02 0.  1.
    10030    2    1    2    0    0  0.00000000000E+00  0.00000000000E+00 -0.50892999083E+03  0.25553911018E+04  0.25041992627E+04 0.  0.
        4    1    3    3  502    0  0.52175515995E+03  0.16423114055E+01 -0.14159421665E+04  0.15090145711E+04  0.12699999809E+01 0.  1.
       -4    1    3    3    0  502 -0.52175515995E+03 -0.16423114055E+01  0.90701217567E+03  0.10463765306E+04  0.12699999809E+01 0. -1.
</event>
<event>
 5   0  0.3805418E-07  0.2499024E+04  0.7818609E-02  0.8403333E-01
       -1   -1    0    0    0  501  0.00000000000E+00  0.00000000000E+00  0.12707830246E+04  0.12707830247E+04  0.50400001928E-02 0.  1.
        1   -1    0    0  501    0  0.00000000000E+00  0.00000000000E+00 -0.12285969113E+04  0.12285969113E+04  0.50400001928E-02 0. -1.
    10030    2    1    2    0    0  0.00000000000E+00  0.00000000000E+00  0.42186113340E+02  0.24993799360E+04  0.24990238887E+04 0.  0.
        4    1    3    3  502    0  0.43335544462E+03 -0.11708419122E+04 -0.30009833555E+02  0.12488274211E+04  0.12699999809E+01 0.  1.
       -4    1    3    3    0  502 -0.43335544462E+03  0.11708419122E+04  0.72195946895E+02  0.12505525148E+04  0.12699999809E+01 0. -1.
</event>
<event>
 5   0  0.3837524E-07  0.2498553E+04  0.7818609E-02  0.8403501E-01
       -1   -1    0    0    0  501  0.00000000000E+00  0.00000000000E+00  0.12067115965E+04  0.12067115966E+04  0.50400001928E-02 0. -1.
        1   -1    0    0  501    0  0.00000000000E+00  0.00000000000E+00 -0.12933431141E+04  0.12933431141E+04  0.50400001928E-02 0.  1.
    10030    2    1    2    0    0  0.00000000000E+00  0.00000000000E+00 -0.86631517556E+02  0.25000547107E+04  0.24985532887E+04 0.  0.
        5    1    3    3  502    0 -0.82175837471E+03 -0.13935748538E+03 -0.97444612789E+03  0.12822927440E+04  0.46999998093E+01 0.  1.
       -5    1    3    3    0  502  0.82175837471E+03  0.13935748538E+03  0.88781461034E+03  0.12177619667E+04  0.46999998093E+01 0. -1.
</event>
<event>
 5   0  0.3805418E-07  0.2498678E+04  0.7818609E-02  0.8403457E-01
        1   -1    0    0  501    0  0.00000000000E+00  0.00000000000E+00  0.16439857443E+04  0.16439857443E+04  0.50400001928E-02 0. -1.
       -1   -1    0    0    0  501  0.00000000000E+00  0.00000000000E+00 -0.94942937822E+03  0.94942937823E+03  0.50400001928E-02 0.  1.
    10030    2    1    2    0    0  0.00000000000E+00  0.00000000000E+00  0.69455636603E+03  0.25934151225E+04  0.24986783410E+04 0.  0.
        4    1    3    3  502    0  0.48477892320E+03  0.11224887703E+04  0.61363046034E+03  0.13680407883E+04  0.12699999809E+01 0. -1.
       -4    1    3    3    0  502 -0.48477892320E+03 -0.11224887703E+04  0.80925905688E+02  0.12253743342E+04  0.12699999809E+01 0.  1.
</event>
<event>
 5   0  0.3805418E-07  0.2500636E+04  0.7818609E-02  0.8402759E-01
        1   -1    0    0  501    0  0.00000000000E+00  0.00000000000E+00  0.11052657373E+04  0.11052657373E+04  0.50400001928E-02 0. -1.
       -1   -1    0    0    0  501  0.00000000000E+00  0.00000000000E+00 -0.14144067454E+04  0.14144067454E+04  0.50400001928E-02 0.  1.
    10030    2    1    2    0    0  0.00000000000E+00  0.00000000000E+00 -0.30914100805E+03  0.25196724827E+04  0.25006361705E+04 0.  0.
        4    1    3    3  502    0  0.22693691323E+02 -0.12106900037E+04  0.15926226144E+03  0.12213318015E+04  0.12699999809E+01 0.  1.
       -4    1    3    3    0  502 -0.22693691323E+02  0.12106900037E+04 -0.46840326949E+03  0.12983406812E+04  0.12699999809E+01 0. -1.
</event>
<event>
 5   0  0.3805418E-07  0.2486581E+04  0.7818609E-02  0.8407782E-01
        1   -1    0    0  501    0  0.00000000000E+00  0.00000000000E+00  0.16653760805E+04  0.16653760805E+04  0.50400001928E-02 0.  1.
       -1   -1    0    0    0  501  0.00000000000E+00  0.00000000000E+00 -0.92818137827E+03  0.92818137828E+03  0.50400001928E-02 0. -1.
    10030    2    1    2    0    0  0.00000000000E+00  0.00000000000E+00  0.73719470219E+03  0.25935574587E+04  0.24865808378E+04 0.  0.
        4    1    3    3  502    0 -0.92295438326E+03  0.60078405940E+03  0.97046976063E+03  0.14678553910E+04  0.12699999809E+01 0.  1.
       -4    1    3    3    0  502  0.92295438326E+03 -0.60078405940E+03 -0.23327505844E+03  0.11257020678E+04  0.12699999809E+01 0. -1.
</event>
<event>
 5   0  0.3991066E-07  0.2499823E+04  0.7818609E-02  0.8403049E-01
        1   -1    0    0  501    0  0.00000000000E+00  0.00000000000E+00  0.16854502345E+04  0.16854502345E+04  0.50400001928E-02 0. -1.
       -1   -1    0    0    0  501  0.00000000000E+00  0.00000000000E+00 -0.92692076169E+03  0.92692076170E+03  0.50400001928E-02 0.  1.
    10030    2    1    2    0    0  0.00000000000E+00  0.00000000000E+00  0.75852947283E+03  0.26123709962E+04  0.24998230459E+04 0.  0.
        1    1    3    3  502    0  0.54489605191E+03  0.14333653963E+03 -0.78668322865E+03  0.96764020858E+03  0.50400001928E-02 0.  1.
       -1    1    3    3    0  502 -0.54489605191E+03 -0.14333653963E+03  0.15452127015E+04  0.16447307877E+04  0.50400001928E-02 0. -1.
</event>
<event>
 5   0  0.9508784E-07  0.2500275E+04  0.7818609E-02  0.8402888E-01
        2   -1    0    0  501    0  0.00000000000E+00  0.00000000000E+00  0.19920215251E+04  0.19920215251E+04  0.25500000920E-02 0. -1.
       -2   -1    0    0    0  501  0.00000000000E+00  0.00000000000E+00 -0.78455149873E+03  0.78455149874E+03  0.25500000920E-02 0.  1.
    10030    2    1    2    0    0  0.00000000000E+00  0.00000000000E+00  0.12074700263E+04  0.27765730238E+04  0.25002747633E+04 0.  0.
        2    1    3    3  502    0  0.11078909738E+04  0.51417880782E+03  0.30774534070E+03  0.12595671681E+04  0.25500000920E-02 0.  1.
       -2    1    3    3    0  502 -0.11078909738E+04 -0.51417880782E+03  0.89972468564E+03  0.15170058557E+04  0.25500000920E-02 0. -1.
</event>
<event>
 5   0  0.3991066E-07  0.2498788E+04  0.7818609E-02  0.8403417E-01
       -1   -1    0    0    0  501  0.00000000000E+00  0.00000000000E+00  0.77716876890E+03  0.77716876892E+03  0.50400001928E-02 0. -1.
        1   -1    0    0  501    0  0.00000000000E+00  0.00000000000E+00 -0.20085545672E+04  0.20085545672E+04  0.50400001928E-02 0.  1.
    10030    2    1    2    0    0  0.00000000000E+00  0.00000000000E+00 -0.12313857983E+04  0.27857233361E+04  0.24987884107E+04 0.  0.
        1    1    3    3  502    0  0.18343550002E+03 -0.75483563668E+03 -0.17066096277E+04  0.18750844894E+04  0.50400001928E-02 0.  1.
       -1    1    3    3    0  502 -0.18343550002E+03  0.75483563668E+03  0.47522382940E+03  0.91063884670E+03  0.50400001928E-02 0. -1.
</event>
<event>
 5   0  0.3805418E-07  0.2500388E+04  0.7818609E-02  0.8402847E-01
        1   -1    0    0  501    0  0.00000000000E+00  0.00000000000E+00  0.11137681781E+04  0.11137681781E+04  0.50400001928E-02 0.  1.
       -1   -1    0    0    0  501  0.00000000000E+00  0.00000000000E+00 -0.14033303736E+04  0.14033303736E+04  0.50400001928E-02 0. -1.
    10030    2    1    2    0    0  0.00000000000E+00  0.00000000000E+00 -0.28956219547E+03  0.25170985517E+04  0.25003877407E+04 0.  0.
        4    1    3    3  502    0  0.87310984418E+03  0.78296616867E+03  0.29127231728E+03  0.12083865263E+04  0.12699999809E+01 0. -1.
       -4    1    3    3    0  502 -0.87310984418E+03 -0.78296616867E+03 -0.58083451275E+03  0.13087120254E+04  0.12699999809E+01 0.  1.
</event>
<event>
 5   0  0.9251138E-07  0.2501036E+04  0.7818609E-02  0.8402617E-01
       -2   -1    0    0    0  501  0.00000000000E+00  0.00000000000E+00  0.12595396541E+04  0.12595396541E+04  0.25500000920E-02 0. -1.
        2   -1    0    0  501    0  0.00000000000E+00  0.00000000000E+00 -0.12415607676E+04  0.12415607676E+04  0.25500000920E-02 0.  1.
    10030    2    1    2    0    0  0.00000000000E+00  0.00000000000E+00  0.17978886429E+02  0.25011004217E+04  0.25010358012E+04 0.  0.
        5    1    3    3  502    0 -0.10545571472E+04  0.59250735957E+03 -0.30822086768E+03  0.12482699793E+04  0.46999998093E+01 0.  1.
       -5    1    3    3    0  502  0.10545571472E+04 -0.59250735957E+03  0.32619975410E+03  0.12528304424E+04  0.46999998093E+01 0. -1.
</event>
<event>
 5   0  0.3214375E-07  0.2500787E+04  0.7818609E-02  0.8402705E-01
        4   -1    0    0  501    0  0.00000000000E+00  0.00000000000E+00  0.13086796389E+04  0.13086802551E+04  0.12699999809E+01 0. -1.
       -4   -1    0    0    0  501  0.00000000000E+00  0.00000000000E+00 -0.11947022192E+04  0.11947028943E+04  0.12699999809E+01 0.  1.
    10030    2    1    2    0    0  0.00000000000E+00  0.00000000000E+00  0.11397741966E+03  0.25033831494E+04  0.25007871442E+04 0.  0.
        2    1    3    3  502    0  0.13074257976E+03  0.55523124745E+03  0.11708471205E+04  0.13024048295E+04  0.25500000920E-02 0. -1.
       -2    1    3    3    0  502 -0.13074257976E+03 -0.55523124745E+03 -0.10568697008E+04  0.12009783199E+04  0.25500000920E-02 0.  1.
</event>
<event>
 5   0  0.3972587E-07  0.2501237E+04  0.7818609E-02  0.8402545E-01
        1   -1    0    0  501    0  0.00000000000E+00  0.00000000000E+00  0.17077512835E+04  0.17077512835E+04  0.50400001928E-02 0.  1.
       -1   -1    0    0    0  501  0.00000000000E+00  0.00000000000E+00 -0.91585188401E+03  0.91585188402E+03  0.50400001928E-02 0. -1.
    10030    2    1    2    0    0  0.00000000000E+00  0.00000000000E+00  0.79189939947E+03  0.26236031675E+04  0.25012374781E+04 0.  0.
        3    1    3    3  502    0  0.36650383669E+03  0.16217309057E+03  0.16385669161E+04  0.16868689109E+04  0.10100000352E+00 0.  1.
       -3    1    3    3    0  502 -0.36650383669E+03 -0.16217309057E+03 -0.84666751666E+03  0.93673425665E+03  0.10100000352E+00 0. -1.
</event>
<event>
 5   0  0.3805418E-07  0.2500412E+04  0.7818609E-02  0.8402839E-01
       -1   -1    0    0    0  501  0.00000000000E+00  0.00000000000E+00  0.74897098320E+03  0.74897098322E+03  0.50400001928E-02 0. -1.
        1   -1    0    0  501    0  0.00000000000E+00  0.00000000000E+00 -0.20868833022E+04  0.20868833022E+04  0.50400001928E-02 0.  1.
    10030    2    1    2    0    0  0.00000000000E+00  0.00000000000E+00 -0.13379123190E+04  0.28358542854E+04  0.25004119970E+04 0.  0.
        4    1    3    3  502    0 -0.11313460497E+04  0.82170695064E+02 -0.72777333218E+02  0.11366591664E+04  0.12699999809E+01 0.  1.
       -4    1    3    3    0  502  0.11313460497E+04 -0.82170695064E+02 -0.12651349858E+04  0.16991951190E+04  0.12699999809E+01 0. -1.
</event>
<event>
 5   0  0.3805418E-07  0.2486735E+04  0.7818609E-02  0.8407726E-01
        1   -1    0    0  501    0  0.00000000000E+00  0.00000000000E+00  0.21290285357E+04  0.21290285357E+04  0.50400001928E-02 0.  1.
       -1   -1    0    0    0  501  0.00000000000E+00  0.00000000000E+00 -0.72613538752E+03  0.72613538753E+03  0.50400001928E-02 0. -1.
    10030    2    1    2    0    0  0.00000000000E+00  0.00000000000E+00  0.14028931481E+04  0.28551639232E+04  0.24867351775E+04 0.  0.
        4    1    3    3  502    0 -0.28566484399E+03 -0.22277351516E+03  0.20670925301E+04  0.20985960981E+04  0.12699999809E+01 0.  1.
       -4    1    3    3    0  502  0.28566484399E+03  0.22277351516E+03 -0.66419938192E+03  0.75656782511E+03  0.12699999809E+01 0. -1.
</event>
<event>
 5   0  0.9261602E-07  0.2499927E+04  0.7818609E-02  0.8403012E-01
       -2   -1    0    0    0  501  0.00000000000E+00  0.00000000000E+00  0.12218217757E+04  0.12218217757E+04  0.25500000920E-02 0. -1.
        2   -1    0    0  501    0  0.00000000000E+00  0.00000000000E+00 -0.12787533814E+04  0.12787533814E+04  0.25500000920E-02 0.  1.
    10030    2    1    2    0    0  0.00000000000E+00  0.00000000000E+00 -0.56931605662E+02  0.25005751571E+04  0.24999269806E+04 0.  0.
        4    1    3    3  502    0  0.69251976761E+03 -0.10165089576E+04 -0.25108366793E+03  0.12553560095E+04  0.12699999809E+01 0. -1.
       -4    1    3    3    0  502 -0.69251976761E+03  0.10165089576E+04  0.19415206227E+03  0.12452191476E+04  0.12699999809E+01 0.  1.
</event>
<event>
 5   0  0.3214375E-07  0.2501012E+04  0.7818609E-02  0.8402625E-01
        3   -1    0    0  501    0  0.00000000000E+00  0.00000000000E+00  0.15237929628E+04  0.15237929662E+04  0.10100000352E+00 0. -1.
       -3   -1    0    0    0  501  0.00000000000E+00  0.00000000000E+00 -0.10262324426E+04  0.10262324476E+04  0.10100000352E+00 0.  1.
    10030    2    1    2    0    0  0.00000000000E+00  0.00000000000E+00  0.49756052021E+03  0.25500254138E+04  0.25010124230E+04 0.  0.
        1    1    3    3  502    0  0.10423687308E+04 -0.40861251823E+03 -0.31915374048E+03  0.11641975224E+04  0.50400001928E-02 0.  1.
       -1    1    3    3    0  502 -0.10423687308E+04  0.40861251823E+03  0.81671426069E+03  0.13858278914E+04  0.50400001928E-02 0. -1.
</event>
<event>
 5   0  0.3972587E-07  0.2500334E+04  0.7818609E-02  0.8402867E-01
        1   -1    0    0  501    0  0.00000000000E+00  0.00000000000E+00  0.16117806912E+04  0.16117806912E+04  0.50400001928E-02 0.  1.
       -1   -1    0    0    0  501  0.00000000000E+00  0.00000000000E+00 -0.96968358876E+03  0.96968358877E+03  0.50400001928E-02 0. -1.
    10030    2    1    2    0    0  0.00000000000E+00  0.00000000000E+00  0.64209710242E+03  0.25814642800E+04  0.25003338057E+04 0.  0.
        3    1    3    3  502    0 -0.83180119132E+03 -0.56861034146E+03  0.10851341394E+04  0.14807859579E+04  0.10100000352E+00 0.  1.
       -3    1    3    3    0  502  0.83180119132E+03  0.56861034146E+03 -0.44303703702E+03  0.11006783221E+04  0.10100000352E+00 0. -1.
</event>
<event>
 5   0  0.9508784E-07  0.2495494E+04  0.7818609E-02  0.8404592E-01
       -2   -1    0    0    0  501  0.00000000000E+00  0.00000000000E+00  0.12078089417E+04  0.12078089417E+04  0.25500000920E-02 0. -1.
        2   -1    0    0  501    0  0.00000000000E+00  0.00000000000E+00 -0.12890061566E+04  0.12890061566E+04  0.25500000920E-02 0.  1.
    10030    2    1    2    0    0  0.00000000000E+00  0.00000000000E+00 -0.81197214857E+02  0.24968150983E+04  0.24954944695E+04 0.  0.
        2    1    3    3  502    0 -0.61066323887E+03  0.84480926385E+03  0.64551999673E+03  0.12260947556E+04  0.25500000920E-02 0. -1.
       -2    1    3    3    0  502  0.61066323887E+03 -0.84480926385E+03 -0.72671721159E+03  0.12707203426E+04  0.25500000920E-02 0.  1.
</event>
<event>
 5   0  0.9251138E-07  0.2500153E+04  0.7818609E-02  0.8402931E-01
        2   -1    0    0  501    0  0.00000000000E+00  0.00000000000E+00  0.14228800442E+04  0.14228800442E+04  0.25500000920E-02 0. -1.
       -2   -1    0    0    0  501  0.00000000000E+00  0.00000000000E+00 -0.10982594930E+04  0.10982594930E+04  0.25500000920E-02 0.  1.
    10030    2    1    2    0    0  0.00000000000E+00  0.00000000000E+00  0.32462055123E+03  0.25211395372E+04  0.25001532081E+04 0.  0.
        5    1    3    3  502    0  0.89857347395E+03 -0.80563510157E+03 -0.16628883826E+03  0.12182595260E+04  0.46999998093E+01 0. -1.
       -5    1    3    3    0  502 -0.89857347395E+03  0.80563510157E+03  0.49090938949E+03  0.13028800112E+04  0.46999998093E+01 0.  1.
</event>
<event>
 5   0  0.9768582E-07  0.2499481E+04  0.7818609E-02  0.8403170E-01
       -2   -1    0    0    0  501  0.00000000000E+00  0.00000000000E+00  0.10535294146E+04  0.10535294146E+04  0.25500000920E-02 0.  1.
        2   -1    0    0  501    0  0.00000000000E+00  0.00000000000E+00 -0.14824944781E+04  0.14824944781E+04  0.25500000920E-02 0. -1.
    10030    2    1    2    0    0  0.00000000000E+00  0.00000000000E+00 -0.42896506355E+03  0.25360238927E+04  0.24994811779E+04 0.  0.
        3    1    3    3  502    0  0.85762882566E+03  0.47778049451E+03 -0.99912581829E+03  0.14007333131E+04  0.10100000352E+00 0. -1.
       -3    1    3    3    0  502 -0.85762882566E+03 -0.47778049451E+03  0.57016075474E+03  0.11352905795E+04  0.10100000352E+00 0.  1.
</event>
<event>
 5   0  0.3873231E-07  0.2500560E+04  0.7818609E-02  0.8402786E-01
       -1   -1    0    0    0  501  0.00000000000E+00  0.00000000000E+00  0.74718358559E+03  0.74718358561E+03  0.50400001928E-02 0. -1.
        1   -1    0    0  501    0  0.00000000000E+00  0.00000000000E+00 -0.20921233539E+04  0.20921233539E+04  0.50400001928E-02 0.  1.
    10030    2    1    2    0    0  0.00000000000E+00  0.00000000000E+00 -0.13449397683E+04  0.28393069395E+04  0.25005601205E+04 0.  0.
        2    1    3    3  502    0 -0.42111836362E+02 -0.83787327305E+03  0.38014984383E+03  0.92104230751E+03  0.25500000920E-02 0. -1.
       -2    1    3    3    0  502  0.42111836362E+02  0.83787327305E+03 -0.17250896122E+04  0.19182646320E+04  0.25500000920E-02 0.  1.
</event>
<event>
 5   0  0.9768582E-07  0.2499450E+04  0.7818609E-02  0.8403181E-01
        2   -1    0    0  501    0  0.00000000000E+00  0.00000000000E+00  0.60789410054E+03  0.60789410055E+03  0.25500000920E-02 0.  1.
       -2   -1    0    0    0  501  0.00000000000E+00  0.00000000000E+00 -0.25692184141E+04  0.25692184141E+04  0.25500000920E-02 0. -1.
    10030    2    1    2    0    0  0.00000000000E+00  0.00000000000E+00 -0.19613243136E+04  0.31771125147E+04  0.24994501131E+04 0.  0.
        3    1    3    3  502    0  0.36835159714E+03  0.10181847699E+03 -0.24931203241E+04  0.25222408414E+04  0.10100000352E+00 0. -1.
       -3    1    3    3    0  502 -0.36835159714E+03 -0.10181847699E+03  0.53179601056E+03  0.65487167324E+03  0.10100000352E+00 0.  1.
</event>
<event>
 5   0  0.3837524E-07  0.2498697E+04  0.7818609E-02  0.8403450E-01
       -1   -1    0    0    0  501  0.00000000000E+00  0.00000000000E+00  0.22224698687E+04  0.22224698687E+04  0.50400001928E-02 0.  1.
        1   -1    0    0  501    0  0.00000000000E+00  0.00000000000E+00 -0.70231408420E+03  0.70231408421E+03  0.50400001928E-02 0. -1.
    10030    2    1    2    0    0  0.00000000000E+00  0.00000000000E+00  0.15201557845E+04  0.29247839529E+04  0.24986971729E+04 0.  0.
        5    1    3    3  502    0 -0.18971110527E+03  0.44783864140E+03 -0.58693999641E+03  0.76227973971E+03  0.46999998093E+01 0. -1.
       -5    1    3    3    0  502  0.18971110527E+03 -0.44783864140E+03  0.21070957809E+04  0.21625042132E+04  0.46999998093E+01 0.  1.
</event>
<event>
 5   0  0.3972587E-07  0.2500494E+04  0.7818609E-02  0.8402810E-01
        1   -1    0    0  501    0  0.00000000000E+00  0.00000000000E+00  0.20410068776E+04  0.20410068777E+04  0.50400001928E-02 0.  1.
       -1   -1    0    0    0  501  0.00000000000E+00  0.00000000000E+00 -0.76585594785E+03  0.76585594787E+03  0.50400001928E-02 0. -1.
    10030    2    1    2    0    0  0.00000000000E+00  0.00000000000E+00  0.12751509298E+04  0.28068628255E+04  0.25004937567E+04 0.  0.
        3    1    3    3  502    0  0.56374130221E+03  0.10762095497E+04  0.30631502393E+03  0.12529406031E+04  0.10100000352E+00 0. -1.
       -3    1    3    3    0  502 -0.56374130221E+03 -0.10762095497E+04  0.96883590587E+03  0.15539222224E+04  0.10100000352E+00 0.  1.
</event>
<event>
 5   0  0.3805418E-07  0.2500008E+04  0.7818609E-02  0.8402983E-01
        1   -1    0    0  501    0  0.00000000000E+00  0.00000000000E+00  0.75703205348E+03  0.75703205350E+03  0.50400001928E-02 0. -1.
       -1   -1    0    0    0  501  0.00000000000E+00  0.00000000000E+00 -0.20639946064E+04  0.20639946064E+04  0.50400001928E-02 0.  1.
    10030    2    1    2    0    0  0.00000000000E+00  0.00000000000E+00 -0.13069625530E+04  0.28210266599E+04  0.25000080602E+04 0.  0.
        4    1    3    3  502    0 -0.10347766599E+04 -0.29322825726E+03 -0.13722711629E+04  0.17435238181E+04  0.12699999809E+01 0. -1.
       -4    1    3    3    0  502  0.10347766599E+04  0.29322825726E+03  0.65308609965E+02  0.10775028419E+04  0.12699999809E+01 0.  1.
</event>
<event>
 5   0  0.9261602E-07  0.2500529E+04  0.7818609E-02  0.8402797E-01
       -2   -1    0    0    0  501  0.00000000000E+00  0.00000000000E+00  0.99353357973E+03  0.99353357973E+03  0.25500000920E-02 0. -1.
        2   -1    0    0  501    0  0.00000000000E+00  0.00000000000E+00 -0.15733354559E+04  0.15733354559E+04  0.25500000920E-02 0.  1.
    10030    2    1    2    0    0  0.00000000000E+00  0.00000000000E+00 -0.57980187614E+03  0.25668690356E+04  0.25005292301E+04 0.  0.
        4    1    3    3  502    0  0.12296494692E+04 -0.18891888465E+03 -0.41742159136E+03  0.13122387587E+04  0.12699999809E+01 0. -1.
       -4    1    3    3    0  502 -0.12296494692E+04  0.18891888465E+03 -0.16238028478E+03  0.12546302769E+04  0.12699999809E+01 0.  1.
</event>
<event>
 5   0  0.3805418E-07  0.2500007E+04  0.7818609E-02  0.8402983E-01
        1   -1    0    0  501    0  0.00000000000E+00  0.00000000000E+00  0.27979393420E+04  0.27979393420E+04  0.50400001928E-02 0.  1.
       -1   -1    0    0    0  501  0.00000000000E+00  0.00000000000E+00 -0.55845003811E+03  0.55845003814E+03  0.50400001928E-02 0. -1.
    10030    2    1    2    0    0  0.00000000000E+00  0.00000000000E+00  0.22394893039E+04  0.33563893802E+04  0.25000074658E+04 0.  0.
        4    1    3    3  502    0  0.20852259661E+02 -0.57214289514E+03  0.26115639663E+04  0.26735837882E+04  0.12699999809E+01 0.  1.
       -4    1    3    3    0  502 -0.20852259661E+02  0.57214289514E+03 -0.37207466240E+03  0.68280559202E+03  0.12699999809E+01 0. -1.
</event>
<event>
 5   0  0.9251138E-07  0.2499915E+04  0.7818609E-02  0.8403016E-01
        2   -1    0    0  501    0  0.00000000000E+00  0.00000000000E+00  0.98498449134E+03  0.98498449135E+03  0.25500000920E-02 0. -1.
       -2   -1    0    0    0  501  0.00000000000E+00  0.00000000000E+00 -0.15862113109E+04  0.15862113109E+04  0.25500000920E-02 0.  1.
    10030    2    1    2    0    0  0.00000000000E+00  0.00000000000E+00 -0.60122681959E+03  0.25711958023E+04  0.24999148316E+04 0.  0.
        5    1    3    3  502    0 -0.47777991440E+03  0.35224587843E+03 -0.14319877574E+04  0.15501489712E+04  0.46999998093E+01 0.  1.
       -5    1    3    3    0  502  0.47777991440E+03 -0.35224587843E+03  0.83076093783E+03  0.10210468311E+04  0.46999998093E+01 0. -1.
</event>
<event>
 5   0  0.3972587E-07  0.2500005E+04  0.7818609E-02  0.8402984E-01
        1   -1    0    0  501    0  0.00000000000E+00  0.00000000000E+00  0.17852246151E+04  0.17852246151E+04  0.50400001928E-02 0.  1.
       -1   -1    0    0    0  501  0.00000000000E+00  0.00000000000E+00 -0.87524343058E+03  0.87524343059E+03  0.50400001928E-02 0. -1.
    10030    2    1    2    0    0  0.00000000000E+00  0.00000000000E+00  0.90998118453E+03  0.26604680457E+04  0.25000048932E+04 0.  0.
        3    1    3    3  502    0  0.82435627416E+03 -0.62884348102E+03 -0.28803526325E+03  0.10760909411E+04  0.10100000352E+00 0. -1.
       -3    1    3    3    0  502 -0.82435627416E+03  0.62884348102E+03  0.11980164478E+04  0.15843771046E+04  0.10100000352E+00 0.  1.
</event>
<event>
 5   0  0.9508784E-07  0.2494055E+04  0.7818609E-02  0.8405106E-01
       -2   -1    0    0    0  501  0.00000000000E+00  0.00000000000E+00  0.10835379208E+04  0.10835379208E+04  0.25500000920E-02 0.  1.
        2   -1    0    0  501    0  0.00000000000E+00  0.00000000000E+00 -0.14351853308E+04  0.14351853308E+04  0.25500000920E-02 0. -1.
    10030    2    1    2    0    0  0.00000000000E+00  0.00000000000E+00 -0.35164741006E+03  0.25187232516E+04  0.24940551151E+04 0.  0.
        2    1    3    3  502    0  0.41758452774E+03 -0.19862747184E+03 -0.13454010616E+04  0.14226502475E+04  0.25500000920E-02 0. -1.
       -2    1    3    3    0  502 -0.41758452774E+03  0.19862747184E+03  0.99375365151E+03  0.10960730041E+04  0.25500000920E-02 0.  1.
</event>
<event>
 5   0  0.9261602E-07  0.2503785E+04  0.7818609E-02  0.8401638E-01
        2   -1    0    0  501    0  0.00000000000E+00  0.00000000000E+00  0.14555501832E+04  0.14555501832E+04  0.25500000920E-02 0. -1.
       -2   -1    0    0    0  501  0.00000000000E+00  0.00000000000E+00 -0.10767298385E+04  0.10767298385E+04  0.25500000920E-02 0.  1.
    10030    2    1    2    0    0  0.00000000000E+00  0.00000000000E+00  0.37882034476E+03  0.25322800217E+04  0.25037845863E+04 0.  0.
        4    1    3    3  502    0  0.10923161151E+04  0.41709604363E+02 -0.42772990108E+03  0.11738179875E+04  0.12699999809E+01 0.  1.
       -4    1    3    3    0  502 -0.10923161151E+04 -0.41709604363E+02  0.80655024583E+03  0.13584620342E+04  0.12699999809E+01 0. -1.
</event>
<event>
 5   0  0.9508784E-07  0.2500953E+04  0.7818609E-02  0.8402646E-01
        2   -1    0    0  501    0  0.00000000000E+00  0.00000000000E+00  0.15377742686E+04  0.15377742686E+04  0.25500000920E-02 0.  1.
       -2   -1    0    0    0  501  0.00000000000E+00  0.00000000000E+00 -0.10168535779E+04  0.10168535779E+04  0.25500000920E-02 0. -1.
    10030    2    1    2    0    0  0.00000000000E+00  0.00000000000E+00  0.52092069067E+03  0.25546278465E+04  0.25009528320E+04 0.  0.
        2    1    3    3  502    0  0.49205422829E+02 -0.22222931155E+03  0.15164365425E+04  0.15334232383E+04  0.25500000920E-02 0.  1.
       -2    1    3    3    0  502 -0.49205422829E+02  0.22222931155E+03 -0.99551585178E+03  0.10212046081E+04  0.25500000920E-02 0. -1.
</event>
<event>
 5   0  0.3805418E-07  0.2499766E+04  0.7818609E-02  0.8403069E-01
        1   -1    0    0  501    0  0.00000000000E+00  0.00000000000E+00  0.16600831207E+04  0.16600831207E+04  0.50400001928E-02 0. -1.
       -1   -1    0    0    0  501  0.00000000000E+00  0.00000000000E+00 -0.94104175155E+03  0.94104175156E+03  0.50400001928E-02 0.  1.
    10030    2    1    2    0    0  0.00000000000E+00  0.00000000000E+00  0.71904136917E+03  0.26011248723E+04  0.24997660112E+04 0.  0.
        4    1    3    3  502    0 -0.89664775889E+02  0.75342994747E+03 -0.67398404779E+03  0.10148657878E+04  0.12699999809E+01 0.  1.
       -4    1    3    3    0  502  0.89664775889E+02 -0.75342994747E+03  0.13930254170E+04  0.15862590844E+04  0.12699999809E+01 0. -1.
</event>
<event>
 5   0  0.9251138E-07  0.2499110E+04  0.7818609E-02  0.8403303E-01
       -2   -1    0    0    0  501  0.00000000000E+00  0.00000000000E+00  0.10409962197E+04  0.10409962197E+04  0.25500000920E-02 0. -1.
        2   -1    0    0  501    0  0.00000000000E+00  0.00000000000E+00 -0.14998978500E+04  0.14998978500E+04  0.25500000920E-02 0.  1.
    10030    2    1    2    0    0  0.00000000000E+00  0.00000000000E+00 -0.45890163028E+03  0.25408940697E+04  0.24991102351E+04 0.  0.
        5    1    3    3  502    0  0.36850439385E+03  0.31728496394E+03 -0.13997389598E+04  0.14818085174E+04  0.46999998093E+01 0.  1.
       -5    1    3    3    0  502 -0.36850439385E+03 -0.31728496394E+03  0.94083732951E+03  0.10590855524E+04  0.46999998093E+01 0. -1.
</event>
<event>
 5   0  0.3873231E-07  0.2500908E+04  0.7818609E-02  0.8402662E-01
       -1   -1    0    0    0  501  0.00000000000E+00  0.00000000000E+00  0.94941690904E+03  0.94941690905E+03  0.50400001928E-02 0.  1.
        1   -1    0    0  501    0  0.00000000000E+00  0.00000000000E+00 -0.16469427710E+04  0.16469427710E+04  0.50400001928E-02 0. -1.
    10030    2    1    2    0    0  0.00000000000E+00  0.00000000000E+00 -0.69752586195E+03  0.25963596800E+04  0.25009080871E+04 0.  0.
        2    1    3    3  502    0  0.12026787970E+04  0.34084889869E+03 -0.31558940853E+03  0.12892675965E+04  0.25500000920E-02 0.  1.
       -2    1    3    3    0  502 -0.12026787970E+04 -0.34084889869E+03 -0.38193645341E+03  0.13070920836E+04  0.25500000920E-02 0. -1.
</event>
<event>
 5   0  0.3991066E-07  0.2504235E+04  0.7818609E-02  0.8401478E-01
       -1   -1    0    0    0  501  0.00000000000E+00  0.00000000000E+00  0.82512015086E+03  0.82512015087E+03  0.50400001928E-02 0. -1.
        1   -1    0    0  501    0  0.00000000000E+00  0.00000000000E+00 -0.19000846154E+04  0.19000846154E+04  0.50400001928E-02 0.  1.
    10030    2    1    2    0    0  0.00000000000E+00  0.00000000000E+00 -0.10749644645E+04  0.27252047663E+04  0.25042348968E+04 0.  0.
        1    1    3    3  502    0  0.99178392405E+02 -0.63819935663E+02  0.81906225310E+03  0.82750970519E+03  0.50400001928E-02 0. -1.
       -1    1    3    3    0  502 -0.99178392405E+02  0.63819935663E+02 -0.18940267176E+04  0.18976950611E+04  0.50400001928E-02 0.  1.
</event>
<event>
 5   0  0.3837524E-07  0.2496196E+04  0.7818609E-02  0.8404342E-01
       -1   -1    0    0    0  501  0.00000000000E+00  0.00000000000E+00  0.15428019009E+04  0.15428019009E+04  0.50400001928E-02 0.  1.
        1   -1    0    0  501    0  0.00000000000E+00  0.00000000000E+00 -0.10096883450E+04  0.10096883450E+04  0.50400001928E-02 0. -1.
    10030    2    1    2    0    0  0.00000000000E+00  0.00000000000E+00  0.53311355589E+03  0.25524902459E+04  0.24961963849E+04 0.  0.
        5    1    3    3  502    0  0.11065542533E+04 -0.73904721235E+02  0.85200927211E+03  0.13985228325E+04  0.46999998093E+01 0. -1.
       -5    1    3    3    0  502 -0.11065542533E+04  0.73904721235E+02 -0.31889571622E+03  0.11539674134E+04  0.46999998093E+01 0.  1.
</event>
<event>
 5   0  0.3805418E-07  0.2501772E+04  0.7818609E-02  0.8402354E-01
       -1   -1    0    0    0  501  0.00000000000E+00  0.00000000000E+00  0.11664748054E+04  0.11664748054E+04  0.50400001928E-02 0.  1.
        1   -1    0    0  501    0  0.00000000000E+00  0.00000000000E+00 -0.13414057821E+04  0.13414057821E+04  0.50400001928E-02 0. -1.
    10030    2    1    2    0    0  0.00000000000E+00  0.00000000000E+00 -0.17493097672E+03  0.25078805875E+04  0.25017722107E+04 0.  0.
        4    1    3    3  502    0 -0.54495943033E+02  0.17497573677E+03 -0.13278743375E+04  0.13404619298E+04  0.12699999809E+01 0. -1.
       -4    1    3    3    0  502  0.54495943033E+02 -0.17497573677E+03  0.11529433608E+04  0.11674186577E+04  0.12699999809E+01 0.  1.
</event>
<event>
 5   0  0.8997210E-07  0.2499668E+04  0.7818609E-02  0.8403104E-01
       -2   -1    0    0    0  501  0.00000000000E+00  0.00000000000E+00  0.75990161382E+03  0.75990161383E+03  0.25500000920E-02 0.  1.
        2   -1    0    0  501    0  0.00000000000E+00  0.00000000000E+00 -0.20556414739E+04  0.20556414739E+04  0.25500000920E-02 0. -1.
    10030    2    1    2    0    0  0.00000000000E+00  0.00000000000E+00 -0.12957398601E+04  0.28155430878E+04  0.24996681968E+04 0.  0.
        1    1    3    3  502    0  0.92727057541E+03 -0.80488719472E+03 -0.38513138264E+03  0.12868567512E+04  0.50400001928E-02 0.  1.
       -1    1    3    3    0  502 -0.92727057541E+03  0.80488719472E+03 -0.91060847747E+03  0.15286863365E+04  0.50400001928E-02 0. -1.
</event>
<event>
 5   0  0.3991066E-07  0.2498435E+04  0.7818609E-02  0.8403543E-01
        1   -1    0    0  501    0  0.00000000000E+00  0.00000000000E+00  0.15171384043E+04  0.15171384043E+04  0.50400001928E-02 0. -1.
       -1   -1    0    0    0  501  0.00000000000E+00  0.00000000000E+00 -0.10286107074E+04  0.10286107074E+04  0.50400001928E-02 0.  1.
    10030    2    1    2    0    0  0.00000000000E+00  0.00000000000E+00  0.48852769694E+03  0.25457491117E+04  0.24984353562E+04 0.  0.
        1    1    3    3  502    0 -0.96856448479E+03 -0.70403749082E+03 -0.11851055947E+03  0.12032583689E+04  0.50400001928E-02 0.  1.
       -1    1    3    3    0  502  0.96856448479E+03  0.70403749082E+03  0.60703825642E+03  0.13424907428E+04  0.50400001928E-02 0. -1.
</event>
<event>
 5   0  0.9768582E-07  0.2499858E+04  0.7818609E-02  0.8403036E-01
        2   -1    0    0  501    0  0.00000000000E+00  0.00000000000E+00  0.89903134419E+03  0.89903134419E+03  0.25500000920E-02 0. -1.
       -2   -1    0    0    0  501  0.00000000000E+00  0.00000000000E+00 -0.17377836018E+04  0.17377836019E+04  0.25500000920E-02 0.  1.
    10030    2    1    2    0    0  0.00000000000E+00  0.00000000000E+00 -0.83875225766E+03  0.26368149460E+04  0.24998575379E+04 0.  0.
        3    1    3    3  502    0 -0.11457322480E+04 -0.14813258085E+03 -0.92267189535E+03  0.14785023106E+04  0.10100000352E+00 0.  1.
       -3    1    3    3    0  502  0.11457322480E+04  0.14813258085E+03  0.83919637693E+02  0.11583126355E+04  0.10100000352E+00 0. -1.
</event>
<event>
 5   0  0.8997210E-07  0.2501750E+04  0.7818609E-02  0.8402362E-01
       -2   -1    0    0    0  501  0.00000000000E+00  0.00000000000E+00  0.10500694817E+04  0.10500694817E+04  0.25500000920E-02 0. -1.
        2   -1    0    0  501    0  0.00000000000E+00  0.00000000000E+00 -0.14900803083E+04  0.14900803083E+04  0.25500000920E-02 0.  1.
    10030    2    1    2    0    0  0.00000000000E+00  0.00000000000E+00 -0.44001082665E+03  0.25401497900E+04  0.25017496733E+04 0.  0.
        1    1    3    3  502    0  0.10829908066E+04 -0.94340935919E+02 -0.84830776134E+03  0.13789109316E+04  0.50400001928E-02 0. -1.
       -1    1    3    3    0  502 -0.10829908066E+04  0.94340935919E+02  0.40829693469E+03  0.11612388584E+04  0.50400001928E-02 0.  1.
</event>
<event>
 5   0  0.8997210E-07  0.2504379E+04  0.7818609E-02  0.8401427E-01
       -2   -1    0    0    0  501  0.00000000000E+00  0.00000000000E+00  0.12477443538E+04  0.12477443538E+04  0.25500000920E-02 0. -1.
        2   -1    0    0  501    0  0.00000000000E+00  0.00000000000E+00 -0.12566504886E+04  0.12566504886E+04  0.25500000920E-02 0.  1.
    10030    2    1    2    0    0  0.00000000000E+00  0.00000000000E+00 -0.89061348876E+01  0.25043948424E+04  0.25043790063E+04 0.  0.
        1    1    3    3  502    0  0.26423239983E+03 -0.88117951285E+03 -0.85397739538E+03  0.12552185016E+04  0.50400001928E-02 0.  1.
       -1    1    3    3    0  502 -0.26423239983E+03  0.88117951285E+03  0.84507126049E+03  0.12491763408E+04  0.50400001928E-02 0. -1.
</event>
<event>
 5   0  0.9251138E-07  0.2500540E+04  0.7818609E-02  0.8402793E-01
       -2   -1    0    0    0  501  0.00000000000E+00  0.00000000000E+00  0.17249798619E+04  0.17249798619E+04  0.25500000920E-02 0.  1.
        2   -1    0    0  501    0  0.00000000000E+00  0.00000000000E+00 -0.90619917001E+03  0.90619917001E+03  0.25500000920E-02 0. -1.
    10030    2    1    2    0    0  0.00000000000E+00  0.00000000000E+00  0.81878069188E+03  0.26311790319E+04  0.25005401969E+04 0.  0.
        5    1    3    3  502    0  0.11753803965E+04  0.38318965663E+03  0.21309717940E+03  0.12545062325E+04  0.46999998093E+01 0.  1.
       -5    1    3    3    0  502 -0.11753803965E+04 -0.38318965663E+03  0.60568351248E+03  0.13766727994E+04  0.46999998093E+01 0. -1.
</event>
<event>
 5   0  0.3837524E-07  0.2497675E+04  0.7818609E-02  0.8403814E-01
       -1   -1    0    0    0  501  0.00000000000E+00  0.00000000000E+00  0.84901296636E+03  0.84901296638E+03  0.50400001928E-02 0. -1.
        1   -1    0    0  501    0  0.00000000000E+00  0.00000000000E+00 -0.18369502161E+04  0.18369502161E+04  0.50400001928E-02 0.  1.
    10030    2    1    2    0    0  0.00000000000E+00  0.00000000000E+00 -0.98793724972E+03  0.26859631825E+04  0.24976745601E+04 0.  0.
        5    1    3    3  502    0 -0.67623479129E+03 -0.65818025908E+03  0.38566634761E+03  0.10194387515E+04  0.46999998093E+01 0. -1.
       -5    1    3    3    0  502  0.67623479129E+03  0.65818025908E+03 -0.13736035973E+04  0.16665244310E+04  0.46999998093E+01 0.  1.
</event>
<event>
 5   0  0.9768582E-07  0.2500345E+04  0.7818609E-02  0.8402863E-01
        2   -1    0    0  501    0  0.00000000000E+00  0.00000000000E+00  0.19147379122E+04  0.19147379122E+04  0.25500000920E-02 0. -1.
       -2   -1    0    0    0  501  0.00000000000E+00  0.00000000000E+00 -0.81626383849E+03  0.81626383850E+03  0.25500000920E-02 0.  1.
    10030    2    1    2    0    0  0.00000000000E+00  0.00000000000E+00  0.10984740737E+04  0.27310017507E+04  0.25003450305E+04 0.  0.
        3    1    3    3  502    0  0.77941029830E+03  0.64584161957E+03  0.13506385503E+04  0.16878436878E+04  0.10100000352E+00 0. -1.
       -3    1    3    3    0  502 -0.77941029830E+03 -0.64584161957E+03 -0.25216447663E+03  0.10431580629E+04  0.10100000352E+00 0.  1.
</event>
<event>
 5   0  0.3873231E-07  0.2497811E+04  0.7818609E-02  0.8403766E-01
       -1   -1    0    0    0  501  0.00000000000E+00  0.00000000000E+00  0.82416524856E+03  0.82416524858E+03  0.50400001928E-02 0.  1.
        1   -1    0    0  501    0  0.00000000000E+00  0.00000000000E+00 -0.18925397625E+04  0.18925397625E+04  0.50400001928E-02 0. -1.
    10030    2    1    2    0    0  0.00000000000E+00  0.00000000000E+00 -0.10683745140E+04  0.27167050111E+04  0.24978114451E+04 0.  0.
        2    1    3    3  502    0 -0.40986441202E+03 -0.39520095532E+03  0.67479667752E+03  0.88290610334E+03  0.25500000920E-02 0.  1.
       -2    1    3    3    0  502  0.40986441202E+03  0.39520095532E+03 -0.17431711915E+04  0.18337989078E+04  0.25500000920E-02 0. -1.
</event>
<event>
 5   0  0.3991066E-07  0.2503437E+04  0.7818609E-02  0.8401762E-01
       -1   -1    0    0    0  501  0.00000000000E+00  0.00000000000E+00  0.81279419398E+03  0.81279419399E+03  0.50400001928E-02 0. -1.
        1   -1    0    0  501    0  0.00000000000E+00  0.00000000000E+00 -0.19276699223E+04  0.19276699223E+04  0.50400001928E-02 0.  1.
    10030    2    1    2    0    0  0.00000000000E+00  0.00000000000E+00 -0.11148757283E+04  0.27404641163E+04  0.25034367744E+04 0.  0.
        1    1    3    3  502    0  0.93731920924E+03  0.41173541755E+03  0.23096455218E+03  0.10494941536E+04  0.50400001928E-02 0. -1.
       -1    1    3    3    0  502 -0.93731920924E+03 -0.41173541755E+03 -0.13458402805E+04  0.16909699627E+04  0.50400001928E-02 0.  1.
</event>
<event>
 5   0  0.3972587E-07  0.2499546E+04  0.7818609E-02  0.8403147E-01
       -1   -1    0    0    0  501  0.00000000000E+00  0.00000000000E+00  0.92329251119E+03  0.92329251120E+03  0.50400001928E-02 0. -1.
        1   -1    0    0  501    0  0.00000000000E+00  0.00000000000E+00 -0.16916979540E+04  0.16916979540E+04  0.50400001928E-02 0.  1.
    10030    2    1    2    0    0  0.00000000000E+00  0.00000000000E+00 -0.76840544281E+03  0.26149904652E+04  0.24995456004E+04 0.  0.
        3    1    3    3  502    0 -0.25202442913E+03 -0.89129934509E+02 -0.16614379707E+04  0.16828061679E+04  0.10100000352E+00 0.  1.
       -3    1    3    3    0  502  0.25202442913E+03  0.89129934509E+02  0.89303252788E+03  0.93218429731E+03  0.10100000352E+00 0. -1.
</event>
<event>
 5   0  0.3972587E-07  0.2497541E+04  0.7818609E-02  0.8403862E-01
        1   -1    0    0  501    0  0.00000000000E+00  0.00000000000E+00  0.17177864054E+04  0.17177864054E+04  0.50400001928E-02 0. -1.
       -1   -1    0    0    0  501  0.00000000000E+00  0.00000000000E+00 -0.90781250558E+03  0.90781250559E+03  0.50400001928E-02 0.  1.
    10030    2    1    2    0    0  0.00000000000E+00  0.00000000000E+00  0.80997389979E+03  0.26255989110E+04  0.24975411754E+04 0.  0.
        3    1    3    3  502    0 -0.30225283994E+03  0.94643513361E+03  0.12003028009E+04  0.15581473183E+04  0.10100000352E+00 0. -1.
       -3    1    3    3    0  502  0.30225283994E+03 -0.94643513361E+03 -0.39032890116E+03  0.10674515927E+04  0.10100000352E+00 0.  1.
</event>
<event>
 5   0  0.9508784E-07  0.2499322E+04  0.7818609E-02  0.8403227E-01
        2   -1    0    0  501    0  0.00000000000E+00  0.00000000000E+00  0.13577360333E+04  0.13577360333E+04  0.25500000920E-02 0.  1.
       -2   -1    0    0    0  501  0.00000000000E+00  0.00000000000E+00 -0.11501890487E+04  0.11501890487E+04  0.25500000920E-02 0. -1.
    10030    2    1    2    0    0  0.00000000000E+00  0.00000000000E+00  0.20754698453E+03  0.25079250820E+04  0.24993224014E+04 0.  0.
        2    1    3    3  502    0  0.90619886091E+03 -0.43987409536E+03 -0.63834464619E+03  0.11925474760E+04  0.25500000920E-02 0. -1.
       -2    1    3    3    0  502 -0.90619886091E+03  0.43987409536E+03  0.84589163072E+03  0.13153776059E+04  0.25500000920E-02 0.  1.
</event>
<event>
 5   0  0.3837524E-07  0.2499483E+04  0.7818609E-02  0.8403170E-01
       -1   -1    0    0    0  501  0.00000000000E+00  0.00000000000E+00  0.96363761819E+03  0.96363761821E+03  0.50400001928E-02 0. -1.
        1   -1    0    0  501    0  0.00000000000E+00  0.00000000000E+00 -0.16207889961E+04  0.16207889961E+04  0.50400001928E-02 0.  1.
    10030    2    1    2    0    0  0.00000000000E+00  0.00000000000E+00 -0.65715137786E+03  0.25844266143E+04  0.24994825447E+04 0.  0.
        5    1    3    3  502    0  0.70827880282E+03 -0.29404586864E+02  0.73562896557E+03  0.10216141920E+04  0.46999998093E+01 0. -1.
       -5    1    3    3    0  502 -0.70827880282E+03  0.29404586864E+02 -0.13927803434E+04  0.15628124223E+04  0.46999998093E+01 0.  1.
</event>
<event>
 5   0  0.9251138E-07  0.2500318E+04  0.7818609E-02  0.8402872E-01
        2   -1    0    0  501    0  0.00000000000E+00  0.00000000000E+00  0.89850393855E+03  0.89850393855E+03  0.25500000920E-02 0. -1.
       -2   -1    0    0    0  501  0.00000000000E+00  0.00000000000E+00 -0.17394437364E+04  0.17394437364E+04  0.25500000920E-02 0.  1.
    10030    2    1    2    0    0  0.00000000000E+00  0.00000000000E+00 -0.84093979788E+03  0.26379476750E+04  0.25003176183E+04 0.  0.
        5    1    3    3  502    0  0.12394324962E+04 -0.14380155401E+03 -0.50221484361E+03  0.13450329508E+04  0.46999998093E+01 0.  1.
       -5    1    3    3    0  502 -0.12394324962E+04  0.14380155401E+03 -0.33872495427E+03  0.12929147242E+04  0.46999998093E+01 0. -1.
</event>
<event>
 5   0  0.3873231E-07  0.2501505E+04  0.7818609E-02  0.8402450E-01
       -1   -1    0    0    0  501  0.00000000000E+00  0.00000000000E+00  0.83763550396E+03  0.83763550397E+03  0.50400001928E-02 0.  1.
        1   -1    0    0  501    0  0.00000000000E+00  0.00000000000E+00 -0.18676158426E+04  0.18676158426E+04  0.50400001928E-02 0. -1.
    10030    2    1    2    0    0  0.00000000000E+00  0.00000000000E+00 -0.10299803387E+04  0.27052513466E+04  0.25015046173E+04 0.  0.
        2    1    3    3  502    0  0.43320986265E+03 -0.10534095038E+02  0.75385938140E+03  0.86953189659E+03  0.25500000920E-02 0.  1.
       -2    1    3    3    0  502 -0.43320986265E+03  0.10534095038E+02 -0.17838397201E+04  0.18357194500E+04  0.25500000920E-02 0. -1.
</event>
<event>
 5   0  0.3214375E-07  0.2500003E+04  0.7818609E-02  0.8402985E-01
        4   -1    0    0  501    0  0.00000000000E+00  0.00000000000E+00  0.17498914332E+04  0.17498918941E+04  0.12699999809E+01 0.  1.
       -4   -1    0    0    0  501  0.00000000000E+00  0.00000000000E+00 -0.89291352582E+03  0.89291442899E+03  0.12699999809E+01 0. -1.
    10030    2    1    2    0    0  0.00000000000E+00  0.00000000000E+00  0.85697790742E+03  0.26428063231E+04  0.25000028255E+04 0.  0.
        1    1    3    3  502    0 -0.12293221789E+04 -0.18785318896E+03  0.29484903185E+03  0.12780679918E+04  0.50400001928E-02 0. -1.
       -1    1    3    3    0  502  0.12293221789E+04  0.18785318896E+03  0.56212887556E+03  0.13647383313E+04  0.50400001928E-02 0.  1.
</event>
<event>
 5   0  0.3991066E-07  0.2499637E+04  0.7818609E-02  0.8403115E-01
       -1   -1    0    0    0  501  0.00000000000E+00  0.00000000000E+00  0.87634341661E+03  0.87634341662E+03  0.50400001928E-02 0.  1.
        1   -1    0    0  501    0  0.00000000000E+00  0.00000000000E+00 -0.17824591985E+04  0.17824591985E+04  0.50400001928E-02 0. -1.
    10030    2    1    2    0    0  0.00000000000E+00  0.00000000000E+00 -0.90611578185E+03  0.26588026151E+04  0.24996370808E+04 0.  0.
        1    1    3    3  502    0  0.58479001569E+02  0.34268893584E+03  0.82388034613E+03  0.89422274917E+03  0.50400001928E-02 0.  1.
       -1    1    3    3    0  502 -0.58479001569E+02 -0.34268893584E+03 -0.17299961280E+04  0.17645798659E+04  0.50400001928E-02 0. -1.
</event>
<event>
 5   0  0.3873231E-07  0.2499665E+04  0.7818609E-02  0.8403105E-01
       -1   -1    0    0    0  501  0.00000000000E+00  0.00000000000E+00  0.86931117065E+03  0.86931117066E+03  0.50400001928E-02 0.  1.
        1   -1    0    0  501    0  0.00000000000E+00  0.00000000000E+00 -0.17969184491E+04  0.17969184491E+04  0.50400001928E-02 0. -1.
    10030    2    1    2    0    0  0.00000000000E+00  0.00000000000E+00 -0.92760727847E+03  0.26662296198E+04  0.24996650020E+04 0.  0.
        2    1    3    3  502    0  0.11922376066E+04  0.23877246437E+03 -0.77227780996E+03  0.14404359813E+04  0.25500000920E-02 0. -1.
       -2    1    3    3    0  502 -0.11922376066E+04 -0.23877246437E+03 -0.15532946851E+03  0.12257936385E+04  0.25500000920E-02 0.  1.
</event>
<event>
 5   0  0.8997210E-07  0.2500221E+04  0.7818609E-02  0.8402907E-01
       -2   -1    0    0    0  501  0.00000000000E+00  0.00000000000E+00  0.13961364624E+04  0.13961364624E+04  0.25500000920E-02 0. -1.
        2   -1    0    0  501    0  0.00000000000E+00  0.00000000000E+00 -0.11193579120E+04  0.11193579120E+04  0.25500000920E-02 0.  1.
    10030    2    1    2    0    0  0.00000000000E+00  0.00000000000E+00  0.27677855036E+03  0.25154943744E+04  0.25002211065E+04 0.  0.
        1    1    3    3  502    0 -0.10561355305E+02 -0.25790221530E+03  0.13690339889E+04  0.13931543912E+04  0.50400001928E-02 0. -1.
       -1    1    3    3    0  502  0.10561355305E+02  0.25790221530E+03 -0.10922554385E+04  0.11223399832E+04  0.50400001928E-02 0.  1.
</event>
<event>
 5   0  0.8997210E-07  0.2500274E+04  0.7818609E-02  0.8402888E-01
       -2   -1    0    0    0  501  0.00000000000E+00  0.00000000000E+00  0.10855071653E+04  0.10855071653E+04  0.25500000920E-02 0. -1.
        2   -1    0    0  501    0  0.00000000000E+00  0.00000000000E+00 -0.14397344715E+04  0.14397344715E+04  0.25500000920E-02 0.  1.
    10030    2    1    2    0    0  0.00000000000E+00  0.00000000000E+00 -0.35422730619E+03  0.25252416369E+04  0.25002736530E+04 0.  0.
        1    1    3    3  502    0 -0.40283066665E+03 -0.10525784811E+04  0.36925809762E+03  0.11859787298E+04  0.50400001928E-02 0. -1.
       -1    1    3    3    0  502  0.40283066665E+03  0.10525784811E+04 -0.72348540381E+03  0.13392629071E+04  0.50400001928E-02 0.  1.
</event>
<event>
 5   0  0.3214375E-07  0.2499797E+04  0.7818609E-02  0.8403058E-01
       -3   -1    0    0    0  501  0.00000000000E+00  0.00000000000E+00  0.84949190609E+03  0.84949191209E+03  0.10100000352E+00 0.  1.
        3   -1    0    0  501    0  0.00000000000E+00  0.00000000000E+00 -0.18390359487E+04  0.18390359514E+04  0.10100000352E+00 0. -1.
    10030    2    1    2    0    0  0.00000000000E+00  0.00000000000E+00 -0.98954404258E+03  0.26885278635E+04  0.24997969239E+04 0.  0.
        1    1    3    3  502    0 -0.52071621173E+03  0.11036317143E+04 -0.20399367778E+03  0.12372395704E+04  0.50400001928E-02 0. -1.
       -1    1    3    3    0  502  0.52071621173E+03 -0.11036317143E+04 -0.78555036480E+03  0.14512882931E+04  0.50400001928E-02 0.  1.
</event>
<event>
 5   0  0.3805418E-07  0.2500646E+04  0.7818609E-02  0.8402755E-01
       -1   -1    0    0    0  501  0.00000000000E+00  0.00000000000E+00  0.93954326502E+03  0.93954326503E+03  0.50400001928E-02 0. -1.
        1   -1    0    0  501    0  0.00000000000E+00  0.00000000000E+00 -0.16639022042E+04  0.16639022042E+04  0.50400001928E-02 0.  1.
    10030    2    1    2    0    0  0.00000000000E+00  0.00000000000E+00 -0.72435893918E+03  0.26034454692E+04  0.25006464041E+04 0.  0.
        4    1    3    3  502    0  0.75664149627E+03 -0.67689267760E+03 -0.11219868112E+04  0.15131246044E+04  0.12699999809E+01 0.  1.
       -4    1    3    3    0  502 -0.75664149627E+03  0.67689267760E+03  0.39762787203E+03  0.10903208649E+04  0.12699999809E+01 0. -1.
</event>
<event>
 5   0  0.9251138E-07  0.2499775E+04  0.7818609E-02  0.8403066E-01
        2   -1    0    0  501    0  0.00000000000E+00  0.00000000000E+00  0.12712505188E+04  0.12712505188E+04  0.25500000920E-02 0.  1.
       -2   -1    0    0    0  501  0.00000000000E+00  0.00000000000E+00 -0.12288838636E+04  0.12288838636E+04  0.25500000920E-02 0. -1.
    10030    2    1    2    0    0  0.00000000000E+00  0.00000000000E+00  0.42366655227E+02  0.25001343824E+04  0.24997753892E+04 0.  0.
        5    1    3    3  502    0 -0.93264661603E+03 -0.15627078462E+03  0.83858087610E+03  0.12639186067E+04  0.46999998093E+01 0.  1.
       -5    1    3    3    0  502  0.93264661603E+03  0.15627078462E+03 -0.79621422088E+03  0.12362157757E+04  0.46999998093E+01 0. -1.
</event>
<event>
 5   0  0.3837524E-07  0.2500019E+04  0.7818609E-02  0.8402979E-01
       -1   -1    0    0    0  501  0.00000000000E+00  0.00000000000E+00  0.14898129624E+04  0.14898129624E+04  0.50400001928E-02 0. -1.
        1   -1    0    0  501    0  0.00000000000E+00  0.00000000000E+00 -0.10488055526E+04  0.10488055526E+04  0.50400001928E-02 0.  1.
    10030    2    1    2    0    0  0.00000000000E+00  0.00000000000E+00  0.44100740982E+03  0.25386185150E+04  0.25000192858E+04 0.  0.
        5    1    3    3  502    0 -0.92343328678E+03  0.26396326933E+03  0.10329165248E+04  0.14104411650E+04  0.46999998093E+01 0. -1.
       -5    1    3    3    0  502  0.92343328678E+03 -0.26396326933E+03 -0.59190911499E+03  0.11281773500E+04  0.46999998093E+01 0.  1.
</event>
<event>
 5   0  0.3873231E-07  0.2500246E+04  0.7818609E-02  0.8402898E-01
       -1   -1    0    0    0  501  0.00000000000E+00  0.00000000000E+00  0.58551830468E+03  0.58551830471E+03  0.50400001928E-02 0. -1.
        1   -1    0    0  501    0  0.00000000000E+00  0.00000000000E+00 -0.26691018548E+04  0.26691018548E+04  0.50400001928E-02 0.  1.
    10030    2    1    2    0    0  0.00000000000E+00  0.00000000000E+00 -0.20835835501E+04  0.32546201595E+04  0.25002463823E+04 0.  0.
        2    1    3    3  502    0  0.78919376082E+03 -0.22099280342E+02 -0.23035154027E+04  0.24350561351E+04  0.25500000920E-02 0.  1.
       -2    1    3    3    0  502 -0.78919376082E+03  0.22099280342E+02  0.21993185264E+03  0.81956402442E+03  0.25500000920E-02 0. -1.
</event>
<event>
 5   0  0.9251138E-07  0.2500822E+04  0.7818609E-02  0.8402693E-01
       -2   -1    0    0    0  501  0.00000000000E+00  0.00000000000E+00  0.11742922109E+04  0.11742922109E+04  0.25500000920E-02 0.  1.
        2   -1    0    0  501    0  0.00000000000E+00  0.00000000000E+00 -0.13314639526E+04  0.13314639526E+04  0.25500000920E-02 0. -1.
    10030    2    1    2    0    0  0.00000000000E+00  0.00000000000E+00 -0.15717174167E+03  0.25057561635E+04  0.25008220638E+04 0.  0.
        5    1    3    3  502    0  0.10079602313E+04  0.73303692540E+03  0.22502710484E+02  0.12465373737E+04  0.46999998093E+01 0. -1.
       -5    1    3    3    0  502 -0.10079602313E+04 -0.73303692540E+03 -0.17967445216E+03  0.12592187899E+04  0.46999998093E+01 0.  1.
</event>
<event>
 5   0  0.8997210E-07  0.2499954E+04  0.7818609E-02  0.8403002E-01
       -2   -1    0    0    0  501  0.00000000000E+00  0.00000000000E+00  0.53566786984E+03  0.53566786985E+03  0.25500000920E-02 0.  1.
        2   -1    0    0  501    0  0.00000000000E+00  0.00000000000E+00 -0.29168110709E+04  0.29168110709E+04  0.25500000920E-02 0. -1.
    10030    2    1    2    0    0  0.00000000000E+00  0.00000000000E+00 -0.23811432010E+04  0.34524789407E+04  0.24999535780E+04 0.  0.
        1    1    3    3  502    0  0.81590538623E+03  0.67537548673E+03 -0.21072678269E+04  0.23584764874E+04  0.50400001928E-02 0. -1.
       -1    1    3    3    0  502 -0.81590538623E+03 -0.67537548673E+03 -0.27387537418E+03  0.10940024534E+04  0.50400001928E-02 0.  1.
</event>
<event>
 5   0  0.3873231E-07  0.2499871E+04  0.7818609E-02  0.8403031E-01
        1   -1    0    0  501    0  0.00000000000E+00  0.00000000000E+00  0.10989197044E+04  0.10989197044E+04  0.50400001928E-02 0.  1.
       -1   -1    0    0    0  501  0.00000000000E+00  0.00000000000E+00 -0.14217046788E+04  0.14217046788E+04  0.50400001928E-02 0. -1.
    10030    2    1    2    0    0  0.00000000000E+00  0.00000000000E+00 -0.32278497444E+03  0.25206243832E+04  0.24998714250E+04 0.  0.
        2    1    3    3  502    0  0.40297623984E+03 -0.68745640489E+03 -0.11323786280E+04  0.13846542946E+04  0.25500000920E-02 0. -1.
       -2    1    3    3    0  502 -0.40297623984E+03  0.68745640489E+03  0.80959365351E+03  0.11359700887E+04  0.25500000920E-02 0.  1.
</event>
<event>
 5   0  0.3837524E-07  0.2500284E+04  0.7818609E-02  0.8402884E-01
       -1   -1    0    0    0  501  0.00000000000E+00  0.00000000000E+00  0.11923429456E+04  0.11923429456E+04  0.50400001928E-02 0.  1.
        1   -1    0    0  501    0  0.00000000000E+00  0.00000000000E+00 -0.13107429907E+04  0.13107429907E+04  0.50400001928E-02 0. -1.
    10030    2    1    2    0    0  0.00000000000E+00  0.00000000000E+00 -0.11840004509E+03  0.25030859363E+04  0.25002841106E+04 0.  0.
        5    1    3    3  502    0 -0.28681615041E+03  0.94533592460E+02 -0.12736682373E+04  0.13089892944E+04  0.46999998093E+01 0. -1.
       -5    1    3    3    0  502  0.28681615041E+03 -0.94533592460E+02  0.11552681922E+04  0.11940966419E+04  0.46999998093E+01 0.  1.
</event>
<event>
 5   0  0.3972587E-07  0.2500017E+04  0.7818609E-02  0.8402979E-01
       -1   -1    0    0    0  501  0.00000000000E+00  0.00000000000E+00  0.82899196876E+03  0.82899196878E+03  0.50400001928E-02 0. -1.
        1   -1    0    0  501    0  0.00000000000E+00  0.00000000000E+00 -0.18848450563E+04  0.18848450563E+04  0.50400001928E-02 0.  1.
    10030    2    1    2    0    0  0.00000000000E+00  0.00000000000E+00 -0.10558530875E+04  0.27138370251E+04  0.25000171312E+04 0.  0.
        3    1    3    3  502    0  0.25352876252E+03  0.35410401353E+03 -0.17998269339E+04  0.18517676658E+04  0.10100000352E+00 0.  1.
       -3    1    3    3    0  502 -0.25352876252E+03 -0.35410401353E+03  0.74397384642E+03  0.86206935926E+03  0.10100000352E+00 0. -1.
</event>
<event>
 5   0  0.3972587E-07  0.2497611E+04  0.7818609E-02  0.8403837E-01
        1   -1    0    0  501    0  0.00000000000E+00  0.00000000000E+00  0.10582197449E+04  0.10582197449E+04  0.50400001928E-02 0. -1.
       -1   -1    0    0    0  501  0.00000000000E+00  0.00000000000E+00 -0.14737163844E+04  0.14737163844E+04  0.50400001928E-02 0.  1.
    10030    2    1    2    0    0  0.00000000000E+00  0.00000000000E+00 -0.41549663948E+03  0.25319361293E+04  0.24976114800E+04 0.  0.
        3    1    3    3  502    0  0.82625677614E+03  0.53448627399E+02  0.73995702850E+03  0.11104474009E+04  0.10100000352E+00 0. -1.
       -3    1    3    3    0  502 -0.82625677614E+03 -0.53448627399E+02 -0.11554536680E+04  0.14214887284E+04  0.10100000352E+00 0.  1.
</event>
<event>
 5   0  0.3837524E-07  0.2498555E+04  0.7818609E-02  0.8403501E-01
       -1   -1    0    0    0  501  0.00000000000E+00  0.00000000000E+00  0.10865297791E+04  0.10865297791E+04  0.50400001928E-02 0.  1.
        1   -1    0    0  501    0  0.00000000000E+00  0.00000000000E+00 -0.14364026581E+04  0.14364026581E+04  0.50400001928E-02 0. -1.
    10030    2    1    2    0    0  0.00000000000E+00  0.00000000000E+00 -0.34987287897E+03  0.25229324372E+04  0.24985549926E+04 0.  0.
        5    1    3    3  502    0  0.15667463766E+03  0.10730335608E+04  0.45137661669E+03  0.11746109589E+04  0.46999998093E+01 0.  1.
       -5    1    3    3    0  502 -0.15667463766E+03 -0.10730335608E+04 -0.80124949566E+03  0.13483214783E+04  0.46999998093E+01 0. -1.
</event>
<event>
 5   0  0.3805418E-07  0.2500013E+04  0.7818609E-02  0.8402981E-01
       -1   -1    0    0    0  501  0.00000000000E+00  0.00000000000E+00  0.20507479492E+04  0.20507479492E+04  0.50400001928E-02 0. -1.
        1   -1    0    0  501    0  0.00000000000E+00  0.00000000000E+00 -0.76192505939E+03  0.76192505941E+03  0.50400001928E-02 0.  1.
    10030    2    1    2    0    0  0.00000000000E+00  0.00000000000E+00  0.12888228898E+04  0.28126730086E+04  0.25000130024E+04 0.  0.
        4    1    3    3  502    0 -0.29180582572E+03  0.12038970934E+04  0.83265639407E+03  0.14925940958E+04  0.12699999809E+01 0. -1.
       -4    1    3    3    0  502  0.29180582572E+03 -0.12038970934E+04  0.45616649575E+03  0.13200789128E+04  0.12699999809E+01 0.  1.
</event>
<event>
 5   0  0.3837524E-07  0.2499733E+04  0.7818609E-02  0.8403081E-01
        1   -1    0    0  501    0  0.00000000000E+00  0.00000000000E+00  0.21649796550E+04  0.21649796550E+04  0.50400001928E-02 0.  1.
       -1   -1    0    0    0  501  0.00000000000E+00  0.00000000000E+00 -0.72156174279E+03  0.72156174281E+03  0.50400001928E-02 0. -1.
    10030    2    1    2    0    0  0.00000000000E+00  0.00000000000E+00  0.14434179122E+04  0.28865413978E+04  0.24997331801E+04 0.  0.
        5    1    3    3  502    0 -0.10379777794E+04 -0.67654464683E+03  0.53184685940E+03  0.13483299676E+04  0.46999998093E+01 0. -1.
       -5    1    3    3    0  502  0.10379777794E+04  0.67654464683E+03  0.91157105278E+03  0.15382114302E+04  0.46999998093E+01 0.  1.
</event>
<event>
 5   0  0.9261602E-07  0.2502175E+04  0.7818609E-02  0.8402211E-01
        2   -1    0    0  501    0  0.00000000000E+00  0.00000000000E+00  0.13468050609E+04  0.13468050609E+04  0.25500000920E-02 0.  1.
       -2   -1    0    0    0  501  0.00000000000E+00  0.00000000000E+00 -0.11621723420E+04  0.11621723420E+04  0.25500000920E-02 0. -1.
    10030    2    1    2    0    0  0.00000000000E+00  0.00000000000E+00  0.18463271888E+03  0.25089774029E+04  0.25021747276E+04 0.  0.
        4    1    3    3  502    0  0.47294143080E+03 -0.92365355850E+03 -0.60844592067E+03  0.12029204231E+04  0.12699999809E+01 0. -1.
       -4    1    3    3    0  502 -0.47294143080E+03  0.92365355850E+03  0.79307863955E+03  0.13060569798E+04  0.12699999809E+01 0.  1.
</event>
<event>
 5   0  0.3837524E-07  0.2499446E+04  0.7818609E-02  0.8403183E-01
       -1   -1    0    0    0  501  0.00000000000E+00  0.00000000000E+00  0.69436657290E+03  0.69436657292E+03  0.50400001928E-02 0.  1.
        1   -1    0    0  501    0  0.00000000000E+00  0.00000000000E+00 -0.22492545857E+04  0.22492545857E+04  0.50400001928E-02 0. -1.
    10030    2    1    2    0    0  0.00000000000E+00  0.00000000000E+00 -0.15548880128E+04  0.29436211586E+04  0.24994456972E+04 0.  0.
        5    1    3    3  502    0  0.57993103201E+03 -0.28409545582E+03 -0.20375133964E+04  0.21374080473E+04  0.46999998093E+01 0. -1.
       -5    1    3    3    0  502 -0.57993103201E+03  0.28409545582E+03  0.48262538367E+03  0.80621311132E+03  0.46999998093E+01 0.  1.
</event>
<event>
 5   0  0.9768582E-07  0.2499642E+04  0.7818609E-02  0.8403113E-01
       -2   -1    0    0    0  501  0.00000000000E+00  0.00000000000E+00  0.14903881051E+04  0.14903881051E+04  0.25500000920E-02 0.  1.
        2   -1    0    0  501    0  0.00000000000E+00  0.00000000000E+00 -0.10480841708E+04  0.10480841708E+04  0.25500000920E-02 0. -1.
    10030    2    1    2    0    0  0.00000000000E+00  0.00000000000E+00  0.44230393429E+03  0.25384722758E+04  0.24996417193E+04 0.  0.
        3    1    3    3  502    0 -0.10983008312E+04  0.34980301608E+03  0.71179837953E+03  0.13547264703E+04  0.10100000352E+00 0.  1.
       -3    1    3    3    0  502  0.10983008312E+04 -0.34980301608E+03 -0.26949444524E+03  0.11837458056E+04  0.10100000352E+00 0. -1.
</event>
<event>
 5   0  0.9768582E-07  0.2500066E+04  0.7818609E-02  0.8402962E-01
       -2   -1    0    0    0  501  0.00000000000E+00  0.00000000000E+00  0.10637940585E+04  0.10637940585E+04  0.25500000920E-02 0. -1.
        2   -1    0    0  501    0  0.00000000000E+00  0.00000000000E+00 -0.14688764097E+04  0.14688764097E+04  0.25500000920E-02 0.  1.
    10030    2    1    2    0    0  0.00000000000E+00  0.00000000000E+00 -0.40508235121E+03  0.25326704683E+04  0.25000655971E+04 0.  0.
        3    1    3    3  502    0  0.66606506247E+03 -0.71191305334E+03 -0.99512509471E+03  0.13931033082E+04  0.10100000352E+00 0.  1.
       -3    1    3    3    0  502 -0.66606506247E+03  0.71191305334E+03  0.59004274351E+03  0.11395671601E+04  0.10100000352E+00 0. -1.
</event>
<event>
 5   0  0.3214375E-07  0.2498988E+04  0.7818609E-02  0.8403346E-01
        4   -1    0    0  501    0  0.00000000000E+00  0.00000000000E+00  0.10249142431E+04  0.10249150299E+04  0.12699999809E+01 0.  1.
       -4   -1    0    0    0  501  0.00000000000E+00  0.00000000000E+00 -0.15232817563E+04  0.15232822858E+04  0.12699999809E+01 0. -1.
    10030    2    1    2    0    0  0.00000000000E+00  0.00000000000E+00 -0.49836751324E+03  0.25481973157E+04  0.24989876713E+04 0.  0.
        3    1    3    3  502    0 -0.79316377991E+03 -0.60713133708E+02 -0.12317138352E+04  0.14662584521E+04  0.10100000352E+00 0. -1.
       -3    1    3    3    0  502  0.79316377991E+03  0.60713133708E+02  0.73334632196E+03  0.10819388636E+04  0.10100000352E+00 0.  1.
</event>
<event>
 5   0  0.9251138E-07  0.2500376E+04  0.7818609E-02  0.8402852E-01
       -2   -1    0    0    0  501  0.00000000000E+00  0.00000000000E+00  0.79408714118E+03  0.79408714118E+03  0.25500000920E-02 0. -1.
        2   -1    0    0  501    0  0.00000000000E+00  0.00000000000E+00 -0.19682604574E+04  0.19682604574E+04  0.25500000920E-02 0.  1.
    10030    2    1    2    0    0  0.00000000000E+00  0.00000000000E+00 -0.11741733162E+04  0.27623475986E+04  0.25003762275E+04 0.  0.
        5    1    3    3  502    0 -0.10568063635E+04  0.45985761319E+03 -0.11222342090E+04  0.16086455247E+04  0.46999998093E+01 0.  1.
       -5    1    3    3    0  502  0.10568063635E+04 -0.45985761319E+03 -0.51939107249E+02  0.11537020739E+04  0.46999998093E+01 0. -1.
</event>
<event>
 5   0  0.3837524E-07  0.2498958E+04  0.7818609E-02  0.8403357E-01
        1   -1    0    0  501    0  0.00000000000E+00  0.00000000000E+00  0.13157922441E+04  0.13157922441E+04  0.50400001928E-02 0.  1.
       -1   -1    0    0    0  501  0.00000000000E+00  0.00000000000E+00 -0.11865074920E+04  0.11865074920E+04  0.50400001928E-02 0. -1.
    10030    2    1    2    0    0  0.00000000000E+00  0.00000000000E+00  0.12928475211E+03  0.25022997361E+04  0.24989576671E+04 0.  0.
        5    1    3    3  502    0  0.85347188249E+03  0.78394486967E+03  0.53237676107E+03  0.12753160074E+04  0.46999998093E+01 0.  1.
       -5    1    3    3    0  502 -0.85347188249E+03 -0.78394486967E+03 -0.40309200896E+03  0.12269837287E+04  0.46999998093E+01 0. -1.
</event>
<event>
 5   0  0.3873231E-07  0.2498672E+04  0.7818609E-02  0.8403459E-01
        1   -1    0    0  501    0  0.00000000000E+00  0.00000000000E+00  0.14589936709E+04  0.14589936709E+04  0.50400001928E-02 0.  1.
       -1   -1    0    0    0  501  0.00000000000E+00  0.00000000000E+00 -0.10698059927E+04  0.10698059927E+04  0.50400001928E-02 0. -1.
    10030    2    1    2    0    0  0.00000000000E+00  0.00000000000E+00  0.38918767815E+03  0.25287996636E+04  0.24986717851E+04 0.  0.
        2    1    3    3  502    0 -0.56705483589E+03  0.10873945627E+04  0.43592670517E+03  0.13015414762E+04  0.25500000920E-02 0.  1.
       -2    1    3    3    0  502  0.56705483589E+03 -0.10873945627E+04 -0.46739027018E+02  0.12272581874E+04  0.25500000920E-02 0. -1.
</event>
<event>
 5   0  0.9251138E-07  0.2499958E+04  0.7818609E-02  0.8403001E-01
       -2   -1    0    0    0  501  0.00000000000E+00  0.00000000000E+00  0.13560837588E+04  0.13560837588E+04  0.25500000920E-02 0.  1.
        2   -1    0    0  501    0  0.00000000000E+00  0.00000000000E+00 -0.11521758089E+04  0.11521758089E+04  0.25500000920E-02 0. -1.
    10030    2    1    2    0    0  0.00000000000E+00  0.00000000000E+00  0.20390794999E+03  0.25082595677E+04  0.24999575210E+04 0.  0.
        5    1    3    3  502    0  0.12090820761E+03  0.50760790281E+02  0.13491546115E+04  0.13555204566E+04  0.46999998093E+01 0.  1.
       -5    1    3    3    0  502 -0.12090820761E+03 -0.50760790281E+02 -0.11452466615E+04  0.11527391111E+04  0.46999998093E+01 0. -1.
</event>
<event>
 5   0  0.8997210E-07  0.2499487E+04  0.7818609E-02  0.8403168E-01
       -2   -1    0    0    0  501  0.00000000000E+00  0.00000000000E+00  0.94673595698E+03  0.94673595698E+03  0.25500000920E-02 0.  1.
        2   -1    0    0  501    0  0.00000000000E+00  0.00000000000E+00 -0.16497303660E+04  0.16497303660E+04  0.25500000920E-02 0. -1.
    10030    2    1    2    0    0  0.00000000000E+00  0.00000000000E+00 -0.70299440903E+03  0.25964663230E+04  0.24994871929E+04 0.  0.
        1    1    3    3  502    0  0.11126592377E+04 -0.29837285265E+03  0.15188896474E+03  0.11619411328E+04  0.50400001928E-02 0.  1.
       -1    1    3    3    0  502 -0.11126592377E+04  0.29837285265E+03 -0.85488337377E+03  0.14345251902E+04  0.50400001928E-02 0. -1.
</event>
<event>
 5   0  0.3873231E-07  0.2500520E+04  0.7818609E-02  0.8402800E-01
       -1   -1    0    0    0  501  0.00000000000E+00  0.00000000000E+00  0.12113495750E+04  0.12113495751E+04  0.50400001928E-02 0.  1.
        1   -1    0    0  501    0  0.00000000000E+00  0.00000000000E+00 -0.12904201392E+04  0.12904201392E+04  0.50400001928E-02 0. -1.
    10030    2    1    2    0    0  0.00000000000E+00  0.00000000000E+00 -0.79070564120E+02  0.25017697142E+04  0.25005198557E+04 0.  0.
        2    1    3    3  502    0 -0.14265854618E+03 -0.39933075559E+03 -0.12162751041E+04  0.12880767221E+04  0.25500000920E-02 0. -1.
       -2    1    3    3    0  502  0.14265854618E+03  0.39933075559E+03  0.11372045400E+04  0.12136929921E+04  0.25500000920E-02 0.  1.
</event>
<event>
 5   0  0.8997210E-07  0.2500981E+04  0.7818609E-02  0.8402636E-01
        2   -1    0    0  501    0  0.00000000000E+00  0.00000000000E+00  0.13082625770E+04  0.13082625770E+04  0.25500000920E-02 0.  1.
       -2   -1    0    0    0  501  0.00000000000E+00  0.00000000000E+00 -0.11952698371E+04  0.11952698371E+04  0.25500000920E-02 0. -1.
    10030    2    1    2    0    0  0.00000000000E+00  0.00000000000E+00  0.11299273988E+03  0.25035324141E+04  0.25009812453E+04 0.  0.
        1    1    3    3  502    0 -0.71937073949E+03 -0.94100630602E+03 -0.34483611846E+03  0.12336527378E+04  0.50400001928E-02 0.  1.
       -1    1    3    3    0  502  0.71937073949E+03  0.94100630602E+03  0.45782885834E+03  0.12698796763E+04  0.50400001928E-02 0. -1.
</event>
<event>
 5   0  0.3805418E-07  0.2499711E+04  0.7818609E-02  0.8403088E-01
        1   -1    0    0  501    0  0.00000000000E+00  0.00000000000E+00  0.14100502436E+04  0.14100502436E+04  0.50400001928E-02 0.  1.
       -1   -1    0    0    0  501  0.00000000000E+00  0.00000000000E+00 -0.11078606253E+04  0.11078606253E+04  0.50400001928E-02 0. -1.
    10030    2    1    2    0    0  0.00000000000E+00  0.00000000000E+00  0.30218961828E+03  0.25179108689E+04  0.24997112990E+04 0.  0.
        4    1    3    3  502    0  0.12004778102E+04 -0.16125347705E+03  0.46153974902E+03  0.12962137977E+04  0.12699999809E+01 0.  1.
       -4    1    3    3    0  502 -0.12004778102E+04  0.16125347705E+03 -0.15935013074E+03  0.12216970711E+04  0.12699999809E+01 0. -1.
</event>
<event>
 5   0  0.9768582E-07  0.2509022E+04  0.7818609E-02  0.8399778E-01
       -2   -1    0    0    0  501  0.00000000000E+00  0.00000000000E+00  0.75284990812E+03  0.75284990812E+03  0.25500000920E-02 0.  1.
        2   -1    0    0  501    0  0.00000000000E+00  0.00000000000E+00 -0.20904543783E+04  0.20904543783E+04  0.25500000920E-02 0. -1.
    10030    2    1    2    0    0  0.00000000000E+00  0.00000000000E+00 -0.13376044702E+04  0.28433042864E+04  0.25090224285E+04 0.  0.
        3    1    3    3  502    0 -0.82629545226E+03  0.31771758809E+02  0.40030148293E+03  0.91870283907E+03  0.10100000352E+00 0.  1.
       -3    1    3    3    0  502  0.82629545226E+03 -0.31771758809E+02 -0.17379059531E+04  0.19246014474E+04  0.10100000352E+00 0. -1.
</event>
<event>
 5   0  0.3805418E-07  0.2498500E+04  0.7818609E-02  0.8403520E-01
       -1   -1    0    0    0  501  0.00000000000E+00  0.00000000000E+00  0.11120566548E+04  0.11120566548E+04  0.50400001928E-02 0.  1.
        1   -1    0    0  501    0  0.00000000000E+00  0.00000000000E+00 -0.14033691035E+04  0.14033691036E+04  0.50400001928E-02 0. -1.
    10030    2    1    2    0    0  0.00000000000E+00  0.00000000000E+00 -0.29131244878E+03  0.25154257583E+04  0.24985003107E+04 0.  0.
        4    1    3    3  502    0  0.76844497662E+03  0.50855862129E+03 -0.99486584279E+03  0.13560601799E+04  0.12699999809E+01 0. -1.
       -4    1    3    3    0  502 -0.76844497662E+03 -0.50855862129E+03  0.70355339400E+03  0.11593655785E+04  0.12699999809E+01 0.  1.
</event>
<event>
 5   0  0.9768582E-07  0.2499105E+04  0.7818609E-02  0.8403305E-01
       -2   -1    0    0    0  501  0.00000000000E+00  0.00000000000E+00  0.87797028411E+03  0.87797028411E+03  0.25500000920E-02 0.  1.
        2   -1    0    0  501    0  0.00000000000E+00  0.00000000000E+00 -0.17783986885E+04  0.17783986885E+04  0.25500000920E-02 0. -1.
    10030    2    1    2    0    0  0.00000000000E+00  0.00000000000E+00 -0.90042840438E+03  0.26563689726E+04  0.24991048012E+04 0.  0.
        3    1    3    3  502    0  0.38124059602E+03 -0.29229864463E+03  0.77589008912E+03  0.91257236990E+03  0.10100000352E+00 0.  1.
       -3    1    3    3    0  502 -0.38124059602E+03  0.29229864463E+03 -0.16763184935E+04  0.17437966027E+04  0.10100000352E+00 0. -1.
</event>
<event>
 5   0  0.9261602E-07  0.2505723E+04  0.7818609E-02  0.8400949E-01
        2   -1    0    0  501    0  0.00000000000E+00  0.00000000000E+00  0.22237942477E+04  0.22237942477E+04  0.25500000920E-02 0. -1.
       -2   -1    0    0    0  501  0.00000000000E+00  0.00000000000E+00 -0.70584873881E+03  0.70584873881E+03  0.25500000920E-02 0.  1.
    10030    2    1    2    0    0  0.00000000000E+00  0.00000000000E+00  0.15179455089E+04  0.29296429866E+04  0.25057233408E+04 0.  0.
        4    1    3    3  502    0  0.45438714422E+03 -0.62517669044E+03 -0.39392889542E+03  0.86746478813E+03  0.12699999809E+01 0.  1.
       -4    1    3    3    0  502 -0.45438714422E+03  0.62517669044E+03  0.19118744044E+04  0.20621781984E+04  0.12699999809E+01 0. -1.
</event>
<event>
 5   0  0.9508784E-07  0.2500028E+04  0.7818609E-02  0.8402976E-01
       -2   -1    0    0    0  501  0.00000000000E+00  0.00000000000E+00  0.73878830258E+03  0.73878830258E+03  0.25500000920E-02 0. -1.
        2   -1    0    0  501    0  0.00000000000E+00  0.00000000000E+00 -0.21149969813E+04  0.21149969813E+04  0.25500000920E-02 0.  1.
    10030    2    1    2    0    0  0.00000000000E+00  0.00000000000E+00 -0.13762086787E+04  0.28537852839E+04  0.25000280237E+04 0.  0.
        2    1    3    3  502    0 -0.54406850182E+03 -0.54491967081E+03 -0.18121134200E+04  0.19689344909E+04  0.25500000920E-02 0.  1.
       -2    1    3    3    0  502  0.54406850182E+03  0.54491967081E+03  0.43590474134E+03  0.88485079298E+03  0.25500000920E-02 0. -1.
</event>
<event>
 5   0  0.9508784E-07  0.2505994E+04  0.7818609E-02  0.8400853E-01
       -2   -1    0    0    0  501  0.00000000000E+00  0.00000000000E+00  0.10739533726E+04  0.10739533726E+04  0.25500000920E-02 0.  1.
        2   -1    0    0  501    0  0.00000000000E+00  0.00000000000E+00 -0.14618893989E+04  0.14618893989E+04  0.25500000920E-02 0. -1.
    10030    2    1    2    0    0  0.00000000000E+00  0.00000000000E+00 -0.38793602634E+03  0.25358427715E+04  0.25059936555E+04 0.  0.
        2    1    3    3  502    0 -0.11586478500E+04  0.46890444922E+03 -0.28255981795E+03  0.12814742578E+04  0.25500000920E-02 0.  1.
       -2    1    3    3    0  502  0.11586478500E+04 -0.46890444922E+03 -0.10537620839E+03  0.12543685137E+04  0.25500000920E-02 0. -1.
</event>
<event>
 5   0  0.3805418E-07  0.2500238E+04  0.7818609E-02  0.8402901E-01
        1   -1    0    0  501    0  0.00000000000E+00  0.00000000000E+00  0.17109297422E+04  0.17109297422E+04  0.50400001928E-02 0.  1.
       -1   -1    0    0    0  501  0.00000000000E+00  0.00000000000E+00 -0.91341968460E+03  0.91341968461E+03  0.50400001928E-02 0. -1.
    10030    2    1    2    0    0  0.00000000000E+00  0.00000000000E+00  0.79751005763E+03  0.26243494268E+04  0.25002375132E+04 0.  0.
        4    1    3    3  502    0  0.44131004968E+03  0.62772585287E+03  0.14346604154E+04  0.16269746239E+04  0.12699999809E+01 0.  1.
       -4    1    3    3    0  502 -0.44131004968E+03 -0.62772585287E+03 -0.63715035776E+03  0.99737480298E+03  0.12699999809E+01 0. -1.
</event>
<event>
 5   0  0.9508784E-07  0.2499347E+04  0.7818609E-02  0.8403218E-01
       -2   -1    0    0    0  501  0.00000000000E+00  0.00000000000E+00  0.86451142652E+03  0.86451142652E+03  0.25500000920E-02 0. -1.
        2   -1    0    0  501    0  0.00000000000E+00  0.00000000000E+00 -0.18064349223E+04  0.18064349223E+04  0.25500000920E-02 0.  1.
    10030    2    1    2    0    0  0.00000000000E+00  0.00000000000E+00 -0.94192349582E+03  0.26709463489E+04  0.24993468200E+04 0.  0.
        2    1    3    3  502    0  0.89915944097E+03 -0.32233449207E+03 -0.13320747352E+04  0.16391492687E+04  0.25500000920E-02 0.  1.
       -2    1    3    3    0  502 -0.89915944097E+03  0.32233449207E+03  0.39015123933E+03  0.10317970802E+04  0.25500000920E-02 0. -1.
</event>
<event>
 5   0  0.9251138E-07  0.2499526E+04  0.7818609E-02  0.8403155E-01
       -2   -1    0    0    0  501  0.00000000000E+00  0.00000000000E+00  0.84202231540E+03  0.84202231540E+03  0.25500000920E-02 0. -1.
        2   -1    0    0  501    0  0.00000000000E+00  0.00000000000E+00 -0.18549475535E+04  0.18549475535E+04  0.25500000920E-02 0.  1.
    10030    2    1    2    0    0  0.00000000000E+00  0.00000000000E+00 -0.10129252381E+04  0.26969698689E+04  0.24995257421E+04 0.  0.
        5    1    3    3  502    0 -0.41749821841E+03 -0.96064121765E+03 -0.12420387604E+04  0.16247518838E+04  0.46999998093E+01 0. -1.
       -5    1    3    3    0  502  0.41749821841E+03  0.96064121765E+03  0.22911352236E+03  0.10722179851E+04  0.46999998093E+01 0.  1.
</event>
<event>
 5   0  0.9251138E-07  0.2499889E+04  0.7818609E-02  0.8403025E-01
        2   -1    0    0  501    0  0.00000000000E+00  0.00000000000E+00  0.16538366742E+04  0.16538366742E+04  0.25500000920E-02 0. -1.
       -2   -1    0    0    0  501  0.00000000000E+00  0.00000000000E+00 -0.94468862744E+03  0.94468862744E+03  0.25500000920E-02 0.  1.
    10030    2    1    2    0    0  0.00000000000E+00  0.00000000000E+00  0.70914804674E+03  0.25985253016E+04  0.24998885557E+04 0.  0.
        5    1    3    3  502    0 -0.36303596299E+03  0.54354477644E+03 -0.75287528335E+03  0.99703526352E+03  0.46999998093E+01 0.  1.
       -5    1    3    3    0  502  0.36303596299E+03 -0.54354477644E+03  0.14620233301E+04  0.16014900381E+04  0.46999998093E+01 0. -1.
</event>
<event>
 5   0  0.9768582E-07  0.2499427E+04  0.7818609E-02  0.8403190E-01
        2   -1    0    0  501    0  0.00000000000E+00  0.00000000000E+00  0.24312703759E+04  0.24312703759E+04  0.25500000920E-02 0.  1.
       -2   -1    0    0    0  501  0.00000000000E+00  0.00000000000E+00 -0.64237373420E+03  0.64237373420E+03  0.25500000920E-02 0. -1.
    10030    2    1    2    0    0  0.00000000000E+00  0.00000000000E+00  0.17888966417E+04  0.30736441101E+04  0.24994273186E+04 0.  0.
        3    1    3    3  502    0  0.12495918990E+03 -0.41695335080E+03 -0.54614254657E+03  0.69838140529E+03  0.10100000352E+00 0. -1.
       -3    1    3    3    0  502 -0.12495918990E+03  0.41695335080E+03  0.23350391883E+04  0.23752627048E+04  0.10100000352E+00 0.  1.
</event>
<event>
 5   0  0.3837524E-07  0.2500841E+04  0.7818609E-02  0.8402686E-01
       -1   -1    0    0    0  501  0.00000000000E+00  0.00000000000E+00  0.90771537687E+03  0.90771537688E+03  0.50400001928E-02 0.  1.
        1   -1    0    0  501    0  0.00000000000E+00  0.00000000000E+00 -0.17225122620E+04  0.17225122620E+04  0.50400001928E-02 0. -1.
    10030    2    1    2    0    0  0.00000000000E+00  0.00000000000E+00 -0.81479688514E+03  0.26302276389E+04  0.25008405524E+04 0.  0.
        5    1    3    3  502    0 -0.86502515873E+03  0.28272742217E+03 -0.13092750754E+04  0.15944988659E+04  0.46999998093E+01 0. -1.
       -5    1    3    3    0  502  0.86502515873E+03 -0.28272742217E+03  0.49447819024E+03  0.10357287729E+04  0.46999998093E+01 0.  1.
</event>
<event>
 5   0  0.3991066E-07  0.2499364E+04  0.7818609E-02  0.8403212E-01
        1   -1    0    0  501    0  0.00000000000E+00  0.00000000000E+00  0.14072866144E+04  0.14072866144E+04  0.50400001928E-02 0.  1.
       -1   -1    0    0    0  501  0.00000000000E+00  0.00000000000E+00 -0.11097275503E+04  0.11097275503E+04  0.50400001928E-02 0. -1.
    10030    2    1    2    0    0  0.00000000000E+00  0.00000000000E+00  0.29755906404E+03  0.25170141647E+04  0.24993637008E+04 0.  0.
        1    1    3    3  502    0 -0.43963957786E+03 -0.50315871119E+03  0.12122928117E+04  0.13842346291E+04  0.50400001928E-02 0.  1.
       -1    1    3    3    0  502  0.43963957786E+03  0.50315871119E+03 -0.91473374768E+03  0.11327795356E+04  0.50400001928E-02 0. -1.
</event>
<event>
 5   0  0.9768582E-07  0.2497960E+04  0.7818609E-02  0.8403713E-01
        2   -1    0    0  501    0  0.00000000000E+00  0.00000000000E+00  0.18447474586E+04  0.18447474586E+04  0.25500000920E-02 0.  1.
       -2   -1    0    0    0  501  0.00000000000E+00  0.00000000000E+00 -0.84561768992E+03  0.84561768993E+03  0.25500000920E-02 0. -1.
    10030    2    1    2    0    0  0.00000000000E+00  0.00000000000E+00  0.99912976866E+03  0.26903651485E+04  0.24979600353E+04 0.  0.
        3    1    3    3  502    0  0.61483815476E+03 -0.10520004567E+04  0.20417687661E+03  0.12354833567E+04  0.10100000352E+00 0. -1.
       -3    1    3    3    0  502 -0.61483815476E+03  0.10520004567E+04  0.79495289205E+03  0.14548817918E+04  0.10100000352E+00 0.  1.
</event>
<event>
 5   0  0.3873231E-07  0.2501302E+04  0.7818609E-02  0.8402522E-01
       -1   -1    0    0    0  501  0.00000000000E+00  0.00000000000E+00  0.11321560726E+04  0.11321560727E+04  0.50400001928E-02 0. -1.
        1   -1    0    0  501    0  0.00000000000E+00  0.00000000000E+00 -0.13815481440E+04  0.13815481440E+04  0.50400001928E-02 0.  1.
    10030    2    1    2    0    0  0.00000000000E+00  0.00000000000E+00 -0.24939207138E+03  0.25137042167E+04  0.25013021576E+04 0.  0.
        2    1    3    3  502    0 -0.11490763712E+04  0.18314816084E+03 -0.58545417250E+03  0.13025652934E+04  0.25500000920E-02 0.  1.
       -2    1    3    3    0  502  0.11490763712E+04 -0.18314816084E+03  0.33606210112E+03  0.12111389232E+04  0.25500000920E-02 0. -1.
</event>
<event>
 5   0  0.9261602E-07  0.2497876E+04  0.7818609E-02  0.8403743E-01
       -2   -1    0    0    0  501  0.00000000000E+00  0.00000000000E+00  0.17574080210E+04  0.17574080210E+04  0.25500000920E-02 0.  1.
        2   -1    0    0  501    0  0.00000000000E+00  0.00000000000E+00 -0.88758303769E+03  0.88758303769E+03  0.25500000920E-02 0. -1.
    10030    2    1    2    0    0  0.00000000000E+00  0.00000000000E+00  0.86982498334E+03  0.26449910587E+04  0.24978755372E+04 0.  0.
        4    1    3    3  502    0  0.99968568417E+03 -0.37263249242E+03  0.11224758520E+04  0.15486058546E+04  0.12699999809E+01 0.  1.
       -4    1    3    3    0  502 -0.99968568417E+03  0.37263249242E+03 -0.25265086868E+03  0.10963852042E+04  0.12699999809E+01 0. -1.
</event>
<event>
 5   0  0.3805418E-07  0.2481762E+04  0.7818609E-02  0.8409512E-01
       -1   -1    0    0    0  501  0.00000000000E+00  0.00000000000E+00  0.21823074667E+04  0.21823074667E+04  0.50400001928E-02 0.  1.
        1   -1    0    0  501    0  0.00000000000E+00  0.00000000000E+00 -0.70557672519E+03  0.70557672521E+03  0.50400001928E-02 0. -1.
    10030    2    1    2    0    0  0.00000000000E+00  0.00000000000E+00  0.14767307415E+04  0.28878841919E+04  0.24817617579E+04 0.  0.
        4    1    3    3  502    0  0.88489829703E+03 -0.44667132051E+03  0.16069944990E+04  0.18881189574E+04  0.12699999809E+01 0.  1.
       -4    1    3    3    0  502 -0.88489829703E+03  0.44667132051E+03 -0.13026375750E+03  0.99976523448E+03  0.12699999809E+01 0. -1.
</event>
<event>
 5   0  0.9261602E-07  0.2503201E+04  0.7818609E-02  0.8401846E-01
        2   -1    0    0  501    0  0.00000000000E+00  0.00000000000E+00  0.11459218640E+04  0.11459218640E+04  0.25500000920E-02 0. -1.
       -2   -1    0    0    0  501  0.00000000000E+00  0.00000000000E+00 -0.13670246004E+04  0.13670246004E+04  0.25500000920E-02 0.  1.
    10030    2    1    2    0    0  0.00000000000E+00  0.00000000000E+00 -0.22110273637E+03  0.25129464644E+04  0.25032006538E+04 0.  0.
        4    1    3    3  502    0  0.38800884058E+03  0.10653636466E+04 -0.64266333119E+03  0.13032913450E+04  0.12699999809E+01 0.  1.
       -4    1    3    3    0  502 -0.38800884058E+03 -0.10653636466E+04  0.42156059482E+03  0.12096551194E+04  0.12699999809E+01 0. -1.
</event>
<event>
 5   0  0.8997210E-07  0.2500773E+04  0.7818609E-02  0.8402710E-01
       -2   -1    0    0    0  501  0.00000000000E+00  0.00000000000E+00  0.85277060514E+03  0.85277060514E+03  0.25500000920E-02 0. -1.
        2   -1    0    0  501    0  0.00000000000E+00  0.00000000000E+00 -0.18333955979E+04  0.18333955979E+04  0.25500000920E-02 0.  1.
    10030    2    1    2    0    0  0.00000000000E+00  0.00000000000E+00 -0.98062499275E+03  0.26861662030E+04  0.25007725794E+04 0.  0.
        1    1    3    3  502    0 -0.88715788464E+03 -0.17567482518E+02 -0.14365928040E+04  0.16885368261E+04  0.50400001928E-02 0.  1.
       -1    1    3    3    0  502  0.88715788464E+03  0.17567482518E+02  0.45596781124E+03  0.99762937689E+03  0.50400001928E-02 0. -1.
</event>
<event>
 5   0  0.9508784E-07  0.2499684E+04  0.7818609E-02  0.8403098E-01
        2   -1    0    0  501    0  0.00000000000E+00  0.00000000000E+00  0.21697748059E+04  0.21697748059E+04  0.25500000920E-02 0.  1.
       -2   -1    0    0    0  501  0.00000000000E+00  0.00000000000E+00 -0.71993888273E+03  0.71993888274E+03  0.25500000920E-02 0. -1.
    10030    2    1    2    0    0  0.00000000000E+00  0.00000000000E+00  0.14498359231E+04  0.28897136886E+04  0.24996841797E+04 0.  0.
        2    1    3    3  502    0  0.49260924198E+03 -0.52926669800E+03 -0.45362095706E+03  0.85355672078E+03  0.25500000920E-02 0. -1.
       -2    1    3    3    0  502 -0.49260924198E+03  0.52926669800E+03  0.19034568802E+04  0.20361569678E+04  0.25500000920E-02 0.  1.
</event>
<event>
 5   0  0.3972587E-07  0.2496880E+04  0.7818609E-02  0.8404098E-01
       -1   -1    0    0    0  501  0.00000000000E+00  0.00000000000E+00  0.72493856026E+03  0.72493856027E+03  0.50400001928E-02 0. -1.
        1   -1    0    0  501    0  0.00000000000E+00  0.00000000000E+00 -0.21499781943E+04  0.21499781943E+04  0.50400001928E-02 0.  1.
    10030    2    1    2    0    0  0.00000000000E+00  0.00000000000E+00 -0.14250396340E+04  0.28749167545E+04  0.24968797302E+04 0.  0.
        3    1    3    3  502    0  0.11875216402E+04  0.31006166137E+03 -0.97572630530E+03  0.15679246515E+04  0.10100000352E+00 0. -1.
       -3    1    3    3    0  502 -0.11875216402E+04 -0.31006166137E+03 -0.44931332870E+03  0.13069921030E+04  0.10100000352E+00 0.  1.
</event>
<event>
 5   0  0.3991066E-07  0.2500174E+04  0.7818609E-02  0.8402924E-01
       -1   -1    0    0    0  501  0.00000000000E+00  0.00000000000E+00  0.96522751555E+03  0.96522751556E+03  0.50400001928E-02 0. -1.
        1   -1    0    0  501    0  0.00000000000E+00  0.00000000000E+00 -0.16190147443E+04  0.16190147443E+04  0.50400001928E-02 0.  1.
    10030    2    1    2    0    0  0.00000000000E+00  0.00000000000E+00 -0.65378722874E+03  0.25842422599E+04  0.25001740574E+04 0.  0.
        1    1    3    3  502    0 -0.71091344583E+03  0.10048249862E+04 -0.55251383593E+03  0.13492007705E+04  0.50400001928E-02 0. -1.
       -1    1    3    3    0  502  0.71091344583E+03 -0.10048249862E+04 -0.10127339281E+03  0.12350414893E+04  0.50400001928E-02 0.  1.
</event>
<event>
 5   0  0.3873231E-07  0.2497425E+04  0.7818609E-02  0.8403904E-01
       -1   -1    0    0    0  501  0.00000000000E+00  0.00000000000E+00  0.10443284090E+04  0.10443284090E+04  0.50400001928E-02 0. -1.
        1   -1    0    0  501    0  0.00000000000E+00  0.00000000000E+00 -0.14930961173E+04  0.14930961173E+04  0.50400001928E-02 0.  1.
    10030    2    1    2    0    0  0.00000000000E+00  0.00000000000E+00 -0.44876770836E+03  0.25374245263E+04  0.24974248279E+04 0.  0.
        2    1    3    3  502    0 -0.10079322707E+03  0.12428270493E+04 -0.29257318996E+03  0.12807721970E+04  0.25500000920E-02 0.  1.
       -2    1    3    3    0  502  0.10079322707E+03 -0.12428270493E+04 -0.15619451840E+03  0.12566523293E+04  0.25500000920E-02 0. -1.
</event>
<event>
 5   0  0.9508784E-07  0.2498191E+04  0.7818609E-02  0.8403630E-01
        2   -1    0    0  501    0  0.00000000000E+00  0.00000000000E+00  0.12368882177E+04  0.12368882177E+04  0.25500000920E-02 0.  1.
       -2   -1    0    0    0  501  0.00000000000E+00  0.00000000000E+00 -0.12614228696E+04  0.12614228696E+04  0.25500000920E-02 0. -1.
    10030    2    1    2    0    0  0.00000000000E+00  0.00000000000E+00 -0.24534651964E+02  0.24983110873E+04  0.24981906132E+04 0.  0.
        2    1    3    3  502    0  0.39126141015E+03 -0.70750353999E+03  0.93993001537E+03  0.12398044943E+04  0.25500000920E-02 0.  1.
       -2    1    3    3    0  502 -0.39126141015E+03  0.70750353999E+03 -0.96446466733E+03  0.12585065930E+04  0.25500000920E-02 0. -1.
</event>
<event>
 5   0  0.9251138E-07  0.2493657E+04  0.7818609E-02  0.8405249E-01
       -2   -1    0    0    0  501  0.00000000000E+00  0.00000000000E+00  0.13926175823E+04  0.13926175823E+04  0.25500000920E-02 0.  1.
        2   -1    0    0  501    0  0.00000000000E+00  0.00000000000E+00 -0.11163012882E+04  0.11163012882E+04  0.25500000920E-02 0. -1.
    10030    2    1    2    0    0  0.00000000000E+00  0.00000000000E+00  0.27631629412E+03  0.25089188706E+04  0.24936565932E+04 0.  0.
        5    1    3    3  502    0  0.41516487989E+03 -0.10285894624E+04 -0.43471286513E+03  0.11913670823E+04  0.46999998093E+01 0. -1.
       -5    1    3    3    0  502 -0.41516487989E+03  0.10285894624E+04  0.71102915925E+03  0.13175517883E+04  0.46999998093E+01 0.  1.
</event>
<event>
 5   0  0.3991066E-07  0.2498529E+04  0.7818609E-02  0.8403510E-01
       -1   -1    0    0    0  501  0.00000000000E+00  0.00000000000E+00  0.10007729883E+04  0.10007729883E+04  0.50400001928E-02 0. -1.
        1   -1    0    0  501    0  0.00000000000E+00  0.00000000000E+00 -0.15594557421E+04  0.15594557421E+04  0.50400001928E-02 0.  1.
    10030    2    1    2    0    0  0.00000000000E+00  0.00000000000E+00 -0.55868275381E+03  0.25602287305E+04  0.24985285135E+04 0.  0.
        1    1    3    3  502    0  0.87309343029E+03 -0.62274175195E+03  0.37723265604E+03  0.11368394365E+04  0.50400001928E-02 0. -1.
       -1    1    3    3    0  502 -0.87309343029E+03  0.62274175195E+03 -0.93591540985E+03  0.14233892939E+04  0.50400001928E-02 0.  1.
</event>
<event>
 5   0  0.8997210E-07  0.2500196E+04  0.7818609E-02  0.8402916E-01
        2   -1    0    0  501    0  0.00000000000E+00  0.00000000000E+00  0.15879866079E+04  0.15879866079E+04  0.25500000920E-02 0.  1.
       -2   -1    0    0    0  501  0.00000000000E+00  0.00000000000E+00 -0.98410503485E+03  0.98410503485E+03  0.25500000920E-02 0. -1.
    10030    2    1    2    0    0  0.00000000000E+00  0.00000000000E+00  0.60388157301E+03  0.25720916427E+04  0.25001964851E+04 0.  0.
        1    1    3    3  502    0 -0.40063764177E+03  0.97291998961E+03 -0.39249741535E+03  0.11230040282E+04  0.50400001928E-02 0. -1.
       -1    1    3    3    0  502  0.40063764177E+03 -0.97291998961E+03  0.99637898836E+03  0.14490876146E+04  0.50400001928E-02 0.  1.
</event>
<event>
 5   0  0.3991066E-07  0.2499841E+04  0.7818609E-02  0.8403042E-01
        1   -1    0    0  501    0  0.00000000000E+00  0.00000000000E+00  0.75751749063E+03  0.75751749064E+03  0.50400001928E-02 0.  1.
       -1   -1    0    0    0  501  0.00000000000E+00  0.00000000000E+00 -0.20623958146E+04  0.20623958146E+04  0.50400001928E-02 0. -1.
    10030    2    1    2    0    0  0.00000000000E+00  0.00000000000E+00 -0.13048783240E+04  0.28199133053E+04  0.24998407167E+04 0.  0.
        1    1    3    3  502    0  0.11543950181E+04  0.12874623045E+03 -0.13170922253E+03  0.11689956240E+04  0.50400001928E-02 0.  1.
       -1    1    3    3    0  502 -0.11543950181E+04 -0.12874623045E+03 -0.11731691015E+04  0.16509176813E+04  0.50400001928E-02 0. -1.
</event>
<event>
 5   0  0.9251138E-07  0.2495310E+04  0.7818609E-02  0.8404658E-01
        2   -1    0    0  501    0  0.00000000000E+00  0.00000000000E+00  0.12181220053E+04  0.12181220053E+04  0.25500000920E-02 0. -1.
       -2   -1    0    0    0  501  0.00000000000E+00  0.00000000000E+00 -0.12779041765E+04  0.12779041765E+04  0.25500000920E-02 0.  1.
    10030    2    1    2    0    0  0.00000000000E+00  0.00000000000E+00 -0.59782171240E+02  0.24960261818E+04  0.24953101595E+04 0.  0.
        5    1    3    3  502    0 -0.91603883220E+03 -0.74879832505E+03 -0.42597823647E+03  0.12574997502E+04  0.46999998093E+01 0.  1.
       -5    1    3    3    0  502  0.91603883220E+03  0.74879832505E+03  0.36619606523E+03  0.12385264316E+04  0.46999998093E+01 0. -1.
</event>
<event>
 5   0  0.8997210E-07  0.2499971E+04  0.7818609E-02  0.8402996E-01
        2   -1    0    0  501    0  0.00000000000E+00  0.00000000000E+00  0.21193352390E+04  0.21193352390E+04  0.25500000920E-02 0. -1.
       -2   -1    0    0    0  501  0.00000000000E+00  0.00000000000E+00 -0.73724238236E+03  0.73724238236E+03  0.25500000920E-02 0.  1.
    10030    2    1    2    0    0  0.00000000000E+00  0.00000000000E+00  0.13820928567E+04  0.28565776214E+04  0.24999710083E+04 0.  0.
        1    1    3    3  502    0 -0.42929993882E+03 -0.65931647172E+03 -0.41882952111E+03  0.89129950922E+03  0.50400001928E-02 0.  1.
       -1    1    3    3    0  502  0.42929993882E+03  0.65931647172E+03  0.18009223778E+04  0.19652781122E+04  0.50400001928E-02 0. -1.
</event>
<event>
 5   0  0.9251138E-07  0.2499995E+04  0.7818609E-02  0.8402987E-01
       -2   -1    0    0    0  501  0.00000000000E+00  0.00000000000E+00  0.75418550675E+03  0.75418550675E+03  0.25500000920E-02 0.  1.
        2   -1    0    0  501    0  0.00000000000E+00  0.00000000000E+00 -0.20717633616E+04  0.20717633616E+04  0.25500000920E-02 0. -1.
    10030    2    1    2    0    0  0.00000000000E+00  0.00000000000E+00 -0.13175778548E+04  0.28259488683E+04  0.24999951206E+04 0.  0.
        5    1    3    3  502    0 -0.21725352659E+03  0.12210155076E+04 -0.48223992106E+03  0.13306597597E+04  0.46999998093E+01 0. -1.
       -5    1    3    3    0  502  0.21725352659E+03 -0.12210155076E+04 -0.83533793375E+03  0.14952891086E+04  0.46999998093E+01 0.  1.
</event>
<event>
 5   0  0.9251138E-07  0.2499682E+04  0.7818609E-02  0.8403099E-01
       -2   -1    0    0    0  501  0.00000000000E+00  0.00000000000E+00  0.11291405020E+04  0.11291405020E+04  0.25500000920E-02 0.  1.
        2   -1    0    0  501    0  0.00000000000E+00  0.00000000000E+00 -0.13834434140E+04  0.13834434140E+04  0.25500000920E-02 0. -1.
    10030    2    1    2    0    0  0.00000000000E+00  0.00000000000E+00 -0.25430291200E+03  0.25125839160E+04  0.24996815725E+04 0.  0.
        5    1    3    3  502    0  0.25243821022E+02  0.67394242922E+03 -0.11848395217E+04  0.13633423747E+04  0.46999998093E+01 0. -1.
       -5    1    3    3    0  502 -0.25243821022E+02 -0.67394242922E+03  0.93053660969E+03  0.11492415414E+04  0.46999998093E+01 0.  1.
</event>
<event>
 5   0  0.3214375E-07  0.2500539E+04  0.7818609E-02  0.8402794E-01
       -4   -1    0    0    0  501  0.00000000000E+00  0.00000000000E+00  0.12880586013E+04  0.12880592274E+04  0.12699999809E+01 0. -1.
        4   -1    0    0  501    0  0.00000000000E+00  0.00000000000E+00 -0.12135875217E+04  0.12135881862E+04  0.12699999809E+01 0.  1.
    10030    2    1    2    0    0  0.00000000000E+00  0.00000000000E+00  0.74471079683E+02  0.25016474136E+04  0.25005387100E+04 0.  0.
        3    1    3    3  502    0  0.10445718892E+04 -0.26357089174E+03 -0.59753250685E+03  0.12319274141E+04  0.10100000352E+00 0.  1.
       -3    1    3    3    0  502 -0.10445718892E+04  0.26357089174E+03  0.67200358653E+03  0.12697199995E+04  0.10100000352E+00 0. -1.
</event>
<event>
 5   0  0.8997210E-07  0.2499170E+04  0.7818609E-02  0.8403281E-01
       -2   -1    0    0    0  501  0.00000000000E+00  0.00000000000E+00  0.11069961082E+04  0.11069961082E+04  0.25500000920E-02 0.  1.
        2   -1    0    0  501    0  0.00000000000E+00  0.00000000000E+00 -0.14105399602E+04  0.14105399602E+04  0.25500000920E-02 0. -1.
    10030    2    1    2    0    0  0.00000000000E+00  0.00000000000E+00 -0.30354385208E+03  0.25175360684E+04  0.24991696592E+04 0.  0.
        1    1    3    3  502    0  0.13098058892E+03  0.88202325181E+03 -0.10336145396E+04  0.13650933843E+04  0.50400001928E-02 0. -1.
       -1    1    3    3    0  502 -0.13098058892E+03 -0.88202325181E+03  0.73007068748E+03  0.11524426841E+04  0.50400001928E-02 0.  1.
</event>
<event>
 5   0  0.3873231E-07  0.2500582E+04  0.7818609E-02  0.8402778E-01
        1   -1    0    0  501    0  0.00000000000E+00  0.00000000000E+00  0.26338729582E+04  0.26338729582E+04  0.50400001928E-02 0. -1.
       -1   -1    0    0    0  501  0.00000000000E+00  0.00000000000E+00 -0.59350910821E+03  0.59350910823E+03  0.50400001928E-02 0.  1.
    10030    2    1    2    0    0  0.00000000000E+00  0.00000000000E+00  0.20403638500E+04  0.32273820665E+04  0.25005820048E+04 0.  0.
        2    1    3    3  502    0 -0.93461715192E+03  0.81844298797E+03  0.83825283277E+03  0.14986747335E+04  0.25500000920E-02 0.  1.
       -2    1    3    3    0  502  0.93461715192E+03 -0.81844298797E+03  0.12021110172E+04  0.17287073330E+04  0.25500000920E-02 0. -1.
</event>
<event>
 5   0  0.9261602E-07  0.2502296E+04  0.7818609E-02  0.8402168E-01
       -2   -1    0    0    0  501  0.00000000000E+00  0.00000000000E+00  0.17460122232E+04  0.17460122232E+04  0.25500000920E-02 0.  1.
        2   -1    0    0  501    0  0.00000000000E+00  0.00000000000E+00 -0.89654096635E+03  0.89654096635E+03  0.25500000920E-02 0. -1.
    10030    2    1    2    0    0  0.00000000000E+00  0.00000000000E+00  0.84947125686E+03  0.26425531896E+04  0.25022961342E+04 0.  0.
        4    1    3    3  502    0 -0.63898198243E+03  0.93545623895E+03  0.98553123179E+03  0.15015491236E+04  0.12699999809E+01 0.  1.
       -4    1    3    3    0  502  0.63898198243E+03 -0.93545623895E+03 -0.13605997493E+03  0.11410040660E+04  0.12699999809E+01 0. -1.
</event>
<event>
 5   0  0.3972587E-07  0.2501830E+04  0.7818609E-02  0.8402334E-01
       -1   -1    0    0    0  501  0.00000000000E+00  0.00000000000E+00  0.13012728304E+04  0.13012728304E+04  0.50400001928E-02 0.  1.
        1   -1    0    0  501    0  0.00000000000E+00  0.00000000000E+00 -0.12025055577E+04  0.12025055577E+04  0.50400001928E-02 0. -1.
    10030    2    1    2    0    0  0.00000000000E+00  0.00000000000E+00  0.98767272733E+02  0.25037783881E+04  0.25018295790E+04 0.  0.
        3    1    3    3  502    0  0.32451819512E+03  0.10225225592E+04 -0.59448627494E+03  0.12264902708E+04  0.10100000352E+00 0. -1.
       -3    1    3    3    0  502 -0.32451819512E+03 -0.10225225592E+04  0.69325354767E+03  0.12772881173E+04  0.10100000352E+00 0.  1.
</event>
<event>
 5   0  0.9768582E-07  0.2499327E+04  0.7818609E-02  0.8403225E-01
       -2   -1    0    0    0  501  0.00000000000E+00  0.00000000000E+00  0.10233519602E+04  0.10233519603E+04  0.25500000920E-02 0. -1.
        2   -1    0    0  501    0  0.00000000000E+00  0.00000000000E+00 -0.15260234895E+04  0.15260234895E+04  0.25500000920E-02 0.  1.
    10030    2    1    2    0    0  0.00000000000E+00  0.00000000000E+00 -0.50267152930E+03  0.25493754498E+04  0.24993272130E+04 0.  0.
        3    1    3    3  502    0  0.20328007238E+03 -0.41868650274E+03 -0.14343172550E+04  0.15079413694E+04  0.10100000352E+00 0.  1.
       -3    1    3    3    0  502 -0.20328007238E+03  0.41868650274E+03  0.93164572569E+03  0.10414340804E+04  0.10100000352E+00 0. -1.
</event>
<event>
 5   0  0.3805418E-07  0.2497878E+04  0.7818609E-02  0.8403742E-01
       -1   -1    0    0    0  501  0.00000000000E+00  0.00000000000E+00  0.13077323547E+04  0.13077323547E+04  0.50400001928E-02 0.  1.
        1   -1    0    0  501    0  0.00000000000E+00  0.00000000000E+00 -0.11927893095E+04  0.11927893095E+04  0.50400001928E-02 0. -1.
    10030    2    1    2    0    0  0.00000000000E+00  0.00000000000E+00  0.11494304518E+03  0.25005216642E+04  0.24978784377E+04 0.  0.
        4    1    3    3  502    0  0.23260414597E+03 -0.20303599981E+03 -0.11539823018E+04  0.11945731755E+04  0.12699999809E+01 0. -1.
       -4    1    3    3    0  502 -0.23260414597E+03  0.20303599981E+03  0.12689253470E+04  0.13059484887E+04  0.12699999809E+01 0.  1.
</event>
<event>
 5   0  0.8997210E-07  0.2500153E+04  0.7818609E-02  0.8402931E-01
       -2   -1    0    0    0  501  0.00000000000E+00  0.00000000000E+00  0.81839577508E+03  0.81839577508E+03  0.25500000920E-02 0. -1.
        2   -1    0    0  501    0  0.00000000000E+00  0.00000000000E+00 -0.19094563430E+04  0.19094563430E+04  0.25500000920E-02 0.  1.
    10030    2    1    2    0    0  0.00000000000E+00  0.00000000000E+00 -0.10910605679E+04  0.27278521181E+04  0.25001527984E+04 0.  0.
        1    1    3    3  502    0 -0.40665664644E+03 -0.10110030185E+04  0.12278650446E+03  0.10966190119E+04  0.50400001928E-02 0. -1.
       -1    1    3    3    0  502  0.40665664644E+03  0.10110030185E+04 -0.12138470724E+04  0.16312331062E+04  0.50400001928E-02 0.  1.
</event>
<event>
 5   0  0.3837524E-07  0.2499820E+04  0.7818609E-02  0.8403050E-01
        1   -1    0    0  501    0  0.00000000000E+00  0.00000000000E+00  0.16557377757E+04  0.16557377757E+04  0.50400001928E-02 0. -1.
       -1   -1    0    0    0  501  0.00000000000E+00  0.00000000000E+00 -0.94355252515E+03  0.94355252517E+03  0.50400001928E-02 0.  1.
    10030    2    1    2    0    0  0.00000000000E+00  0.00000000000E+00  0.71218525058E+03  0.25992903009E+04  0.24998204410E+04 0.  0.
        5    1    3    3  502    0 -0.65175832888E+03 -0.35726256909E+03 -0.68879521929E+03  0.10133540382E+04  0.46999998093E+01 0.  1.
       -5    1    3    3    0  502  0.65175832888E+03  0.35726256909E+03  0.14009804699E+04  0.15859362627E+04  0.46999998093E+01 0. -1.
</event>
<event>
 5   0  0.3805418E-07  0.2501260E+04  0.7818609E-02  0.8402537E-01
        1   -1    0    0  501    0  0.00000000000E+00  0.00000000000E+00  0.11186811315E+04  0.11186811315E+04  0.50400001928E-02 0.  1.
       -1   -1    0    0    0  501  0.00000000000E+00  0.00000000000E+00 -0.13981421755E+04  0.13981421755E+04  0.50400001928E-02 0. -1.
    10030    2    1    2    0    0  0.00000000000E+00  0.00000000000E+00 -0.27946104392E+03  0.25168233070E+04  0.25012598993E+04 0.  0.
        4    1    3    3  502    0 -0.20204393938E+03 -0.10550477353E+04  0.50466520731E+03  0.11868597481E+04  0.12699999809E+01 0.  1.
       -4    1    3    3    0  502  0.20204393938E+03  0.10550477353E+04 -0.78412625123E+03  0.13299635589E+04  0.12699999809E+01 0. -1.
</event>
<event>
 5   0  0.9768582E-07  0.2500402E+04  0.7818609E-02  0.8402842E-01
       -2   -1    0    0    0  501  0.00000000000E+00  0.00000000000E+00  0.14537043170E+04  0.14537043170E+04  0.25500000920E-02 0.  1.
        2   -1    0    0  501    0  0.00000000000E+00  0.00000000000E+00 -0.10751858455E+04  0.10751858455E+04  0.25500000920E-02 0. -1.
    10030    2    1    2    0    0  0.00000000000E+00  0.00000000000E+00  0.37851847147E+03  0.25288901625E+04  0.25004018119E+04 0.  0.
        3    1    3    3  502    0  0.39998114790E+03  0.86763852623E+03 -0.62629074002E+03  0.11423754340E+04  0.10100000352E+00 0. -1.
       -3    1    3    3    0  502 -0.39998114790E+03 -0.86763852623E+03  0.10048092115E+04  0.13865147286E+04  0.10100000352E+00 0.  1.
</event>
<event>
 5   0  0.3837524E-07  0.2489426E+04  0.7818609E-02  0.8406762E-01
       -1   -1    0    0    0  501  0.00000000000E+00  0.00000000000E+00  0.22769286005E+04  0.22769286005E+04  0.50400001928E-02 0.  1.
        1   -1    0    0  501    0  0.00000000000E+00  0.00000000000E+00 -0.68043883221E+03  0.68043883223E+03  0.50400001928E-02 0. -1.
    10030    2    1    2    0    0  0.00000000000E+00  0.00000000000E+00  0.15964897683E+04  0.29573674328E+04  0.24894261491E+04 0.  0.
        5    1    3    3  502    0  0.12288093777E+04 -0.16220033425E+03  0.66275823717E+03  0.14055433134E+04  0.46999998093E+01 0. -1.
       -5    1    3    3    0  502 -0.12288093777E+04  0.16220033425E+03  0.93373153114E+03  0.15518241193E+04  0.46999998093E+01 0.  1.
</event>
<event>
 5   0  0.3972587E-07  0.2499699E+04  0.7818609E-02  0.8403093E-01
       -1   -1    0    0    0  501  0.00000000000E+00  0.00000000000E+00  0.10070748903E+04  0.10070748903E+04  0.50400001928E-02 0. -1.
        1   -1    0    0  501    0  0.00000000000E+00  0.00000000000E+00 -0.15511497124E+04  0.15511497124E+04  0.50400001928E-02 0.  1.
    10030    2    1    2    0    0  0.00000000000E+00  0.00000000000E+00 -0.54407482206E+03  0.25582246027E+04  0.24996991231E+04 0.  0.
        3    1    3    3  502    0 -0.71098342724E+01  0.12494086475E+04 -0.23885297026E+03  0.12720547433E+04  0.10100000352E+00 0. -1.
       -3    1    3    3    0  502  0.71098342724E+01 -0.12494086475E+04 -0.30522185181E+03  0.12861698594E+04  0.10100000352E+00 0.  1.
</event>
<event>
 5   0  0.3873231E-07  0.2500822E+04  0.7818609E-02  0.8402693E-01
       -1   -1    0    0    0  501  0.00000000000E+00  0.00000000000E+00  0.12501398523E+04  0.12501398523E+04  0.50400001928E-02 0. -1.
        1   -1    0    0  501    0  0.00000000000E+00  0.00000000000E+00 -0.12506825471E+04  0.12506825472E+04  0.50400001928E-02 0.  1.
    10030    2    1    2    0    0  0.00000000000E+00  0.00000000000E+00 -0.54269484305E+00  0.25008223995E+04  0.25008223406E+04 0.  0.
        2    1    3    3  502    0 -0.40005772075E+03 -0.64512354281E+03  0.99335714244E+03  0.12501955758E+04  0.25500000920E-02 0. -1.
       -2    1    3    3    0  502  0.40005772075E+03  0.64512354281E+03 -0.99389983728E+03  0.12506268236E+04  0.25500000920E-02 0.  1.
</event>
<event>
 5   0  0.9508784E-07  0.2500722E+04  0.7818609E-02  0.8402728E-01
       -2   -1    0    0    0  501  0.00000000000E+00  0.00000000000E+00  0.10737954906E+04  0.10737954906E+04  0.25500000920E-02 0.  1.
        2   -1    0    0  501    0  0.00000000000E+00  0.00000000000E+00 -0.14559598956E+04  0.14559598956E+04  0.25500000920E-02 0. -1.
    10030    2    1    2    0    0  0.00000000000E+00  0.00000000000E+00 -0.38216440503E+03  0.25297553862E+04  0.25007224320E+04 0.  0.
        2    1    3    3  502    0 -0.11844285808E+04 -0.39731205092E+03 -0.13875897334E+03  0.12569733416E+04  0.25500000920E-02 0. -1.
       -2    1    3    3    0  502  0.11844285808E+04  0.39731205092E+03 -0.24340543169E+03  0.12727820446E+04  0.25500000920E-02 0.  1.
</event>
<event>
 5   0  0.3873231E-07  0.2499396E+04  0.7818609E-02  0.8403201E-01
       -1   -1    0    0    0  501  0.00000000000E+00  0.00000000000E+00  0.79638502665E+03  0.79638502666E+03  0.50400001928E-02 0.  1.
        1   -1    0    0  501    0  0.00000000000E+00  0.00000000000E+00 -0.19610431839E+04  0.19610431839E+04  0.50400001928E-02 0. -1.
    10030    2    1    2    0    0  0.00000000000E+00  0.00000000000E+00 -0.11646581572E+04  0.27574282105E+04  0.24993962697E+04 0.  0.
        2    1    3    3  502    0  0.20003766594E+03  0.19658040857E+03 -0.19258744542E+04  0.19461889267E+04  0.25500000920E-02 0. -1.
       -2    1    3    3    0  502 -0.20003766594E+03 -0.19658040857E+03  0.76121629702E+03  0.81123928386E+03  0.25500000920E-02 0.  1.
</event>
<event>
 5   0  0.3873231E-07  0.2497137E+04  0.7818609E-02  0.8404006E-01
       -1   -1    0    0    0  501  0.00000000000E+00  0.00000000000E+00  0.10824092800E+04  0.10824092800E+04  0.50400001928E-02 0. -1.
        1   -1    0    0  501    0  0.00000000000E+00  0.00000000000E+00 -0.14402344136E+04  0.14402344136E+04  0.50400001928E-02 0.  1.
    10030    2    1    2    0    0  0.00000000000E+00  0.00000000000E+00 -0.35782513368E+03  0.25226436936E+04  0.24971368362E+04 0.  0.
        2    1    3    3  502    0 -0.67573373821E+03  0.10458428858E+04 -0.27215742747E+03  0.12745481914E+04  0.25500000920E-02 0. -1.
       -2    1    3    3    0  502  0.67573373821E+03 -0.10458428858E+04 -0.85667706201E+02  0.12480955022E+04  0.25500000920E-02 0.  1.
</event>
<event>
 5   0  0.3972587E-07  0.2500319E+04  0.7818609E-02  0.8402872E-01
        1   -1    0    0  501    0  0.00000000000E+00  0.00000000000E+00  0.19926917222E+04  0.19926917222E+04  0.50400001928E-02 0.  1.
       -1   -1    0    0    0  501  0.00000000000E+00  0.00000000000E+00 -0.78431562215E+03  0.78431562216E+03  0.50400001928E-02 0. -1.
    10030    2    1    2    0    0  0.00000000000E+00  0.00000000000E+00  0.12083761000E+04  0.27770073444E+04  0.25003193779E+04 0.  0.
        3    1    3    3  502    0  0.68047707494E+03  0.40836631649E+03  0.16770470370E+04  0.18553433300E+04  0.10100000352E+00 0. -1.
       -3    1    3    3    0  502 -0.68047707494E+03 -0.40836631649E+03 -0.46867093692E+03  0.92166401431E+03  0.10100000352E+00 0.  1.
</event>
<event>
 5   0  0.8997210E-07  0.2500139E+04  0.7818609E-02  0.8402936E-01
        2   -1    0    0  501    0  0.00000000000E+00  0.00000000000E+00  0.16194326563E+04  0.16194326563E+04  0.25500000920E-02 0.  1.
       -2   -1    0    0    0  501  0.00000000000E+00  0.00000000000E+00 -0.96495156964E+03  0.96495156964E+03  0.25500000920E-02 0. -1.
    10030    2    1    2    0    0  0.00000000000E+00  0.00000000000E+00  0.65448108662E+03  0.25843842259E+04  0.25001392630E+04 0.  0.
        1    1    3    3  502    0 -0.67198204024E+01  0.58242378206E+03  0.14705904333E+04  0.15817391822E+04  0.50400001928E-02 0.  1.
       -1    1    3    3    0  502  0.67198204024E+01 -0.58242378206E+03 -0.81610934670E+03  0.10026450437E+04  0.50400001928E-02 0. -1.
</event>
<event>
 5   0  0.9261602E-07  0.2500198E+04  0.7818609E-02  0.8402915E-01
       -2   -1    0    0    0  501  0.00000000000E+00  0.00000000000E+00  0.55695152802E+03  0.55695152803E+03  0.25500000920E-02 0. -1.
        2   -1    0    0  501    0  0.00000000000E+00  0.00000000000E+00 -0.28058959904E+04  0.28058959904E+04  0.25500000920E-02 0.  1.
    10030    2    1    2    0    0  0.00000000000E+00  0.00000000000E+00 -0.22489444623E+04  0.33628475184E+04  0.25001984396E+04 0.  0.
        4    1    3    3  502    0 -0.35725273096E+03 -0.63803563052E+03 -0.24882231459E+04  0.25934484796E+04  0.12699999809E+01 0.  1.
       -4    1    3    3    0  502  0.35725273096E+03  0.63803563052E+03  0.23927868356E+03  0.76939903880E+03  0.12699999809E+01 0. -1.
</event>
<event>
 5   0  0.3991066E-07  0.2499753E+04  0.7818609E-02  0.8403073E-01
        1   -1    0    0  501    0  0.00000000000E+00  0.00000000000E+00  0.14354624238E+04  0.14354624238E+04  0.50400001928E-02 0.  1.
       -1   -1    0    0    0  501  0.00000000000E+00  0.00000000000E+00 -0.10882845392E+04  0.10882845392E+04  0.50400001928E-02 0. -1.
    10030    2    1    2    0    0  0.00000000000E+00  0.00000000000E+00  0.34717788469E+03  0.25237469630E+04  0.24997532378E+04 0.  0.
        1    1    3    3  502    0  0.44607739854E+03 -0.11673814494E+04  0.15272494815E+03  0.12590033374E+04  0.50400001928E-02 0.  1.
       -1    1    3    3    0  502 -0.44607739854E+03  0.11673814494E+04  0.19445293654E+03  0.12647436256E+04  0.50400001928E-02 0. -1.
</event>
<event>
 5   0  0.8997210E-07  0.2499091E+04  0.7818609E-02  0.8403310E-01
        2   -1    0    0  501    0  0.00000000000E+00  0.00000000000E+00  0.17695398876E+04  0.17695398876E+04  0.25500000920E-02 0. -1.
       -2   -1    0    0    0  501  0.00000000000E+00  0.00000000000E+00 -0.88235576296E+03  0.88235576296E+03  0.25500000920E-02 0.  1.
    10030    2    1    2    0    0  0.00000000000E+00  0.00000000000E+00  0.88718412464E+03  0.26518956506E+04  0.24990908088E+04 0.  0.
        1    1    3    3  502    0  0.29671275414E+03 -0.12075723038E+04  0.57396341739E+03  0.13695631902E+04  0.50400001928E-02 0. -1.
       -1    1    3    3    0  502 -0.29671275414E+03  0.12075723038E+04  0.31322070726E+03  0.12823324604E+04  0.50400001928E-02 0.  1.
</event>
<event>
 5   0  0.9261602E-07  0.2498130E+04  0.7818609E-02  0.8403652E-01
        2   -1    0    0  501    0  0.00000000000E+00  0.00000000000E+00  0.17090913883E+04  0.17090913883E+04  0.25500000920E-02 0.  1.
       -2   -1    0    0    0  501  0.00000000000E+00  0.00000000000E+00 -0.91286145650E+03  0.91286145651E+03  0.25500000920E-02 0. -1.
    10030    2    1    2    0    0  0.00000000000E+00  0.00000000000E+00  0.79622993182E+03  0.26219528448E+04  0.24981302240E+04 0.  0.
        4    1    3    3  502    0 -0.53224789744E+03 -0.30794244577E+03  0.15392234402E+04  0.16575061949E+04  0.12699999809E+01 0.  1.
       -4    1    3    3    0  502  0.53224789744E+03  0.30794244577E+03 -0.74299350838E+03  0.96444664997E+03  0.12699999809E+01 0. -1.
</event>
<event>
 5   0  0.9251138E-07  0.2500706E+04  0.7818609E-02  0.8402734E-01
        2   -1    0    0  501    0  0.00000000000E+00  0.00000000000E+00  0.12934992966E+04  0.12934992966E+04  0.25500000920E-02 0.  1.
       -2   -1    0    0    0  501  0.00000000000E+00  0.00000000000E+00 -0.12086459353E+04  0.12086459353E+04  0.25500000920E-02 0. -1.
    10030    2    1    2    0    0  0.00000000000E+00  0.00000000000E+00  0.84853361245E+02  0.25021452319E+04  0.25007060340E+04 0.  0.
        5    1    3    3  502    0 -0.98936659336E+02 -0.10045953594E+04 -0.69580569161E+03  0.12260374991E+04  0.46999998093E+01 0. -1.
       -5    1    3    3    0  502  0.98936659336E+02  0.10045953594E+04  0.78065905286E+03  0.12761077328E+04  0.46999998093E+01 0.  1.
</event>
<event>
 5   0  0.8997210E-07  0.2497330E+04  0.7818609E-02  0.8403937E-01
        2   -1    0    0  501    0  0.00000000000E+00  0.00000000000E+00  0.11276166658E+04  0.11276166658E+04  0.25500000920E-02 0.  1.
       -2   -1    0    0    0  501  0.00000000000E+00  0.00000000000E+00 -0.13827074896E+04  0.13827074896E+04  0.25500000920E-02 0. -1.
    10030    2    1    2    0    0  0.00000000000E+00  0.00000000000E+00 -0.25509082381E+03  0.25103241554E+04  0.24973297814E+04 0.  0.
        1    1    3    3  502    0 -0.51535762260E+03  0.22118749038E+03  0.99389690925E+03  0.11412048244E+04  0.50400001928E-02 0.  1.
       -1    1    3    3    0  502  0.51535762260E+03 -0.22118749038E+03 -0.12489877331E+04  0.13691193310E+04  0.50400001928E-02 0. -1.
</event>
<event>
 5   0  0.9251138E-07  0.2501107E+04  0.7818609E-02  0.8402591E-01
       -2   -1    0    0    0  501  0.00000000000E+00  0.00000000000E+00  0.69970458241E+03  0.69970458241E+03  0.25500000920E-02 0. -1.
        2   -1    0    0  501    0  0.00000000000E+00  0.00000000000E+00 -0.22350626764E+04  0.22350626764E+04  0.25500000920E-02 0.  1.
    10030    2    1    2    0    0  0.00000000000E+00  0.00000000000E+00 -0.15353580940E+04  0.29347672588E+04  0.25011066324E+04 0.  0.
        5    1    3    3  502    0  0.64529080144E+03  0.71327834446E+03 -0.17054317286E+04  0.19579800014E+04  0.46999998093E+01 0.  1.
       -5    1    3    3    0  502 -0.64529080144E+03 -0.71327834446E+03  0.17007363456E+03  0.97678725743E+03  0.46999998093E+01 0. -1.
</event>
<event>
 5   0  0.8997210E-07  0.2500965E+04  0.7818609E-02  0.8402642E-01
        2   -1    0    0  501    0  0.00000000000E+00  0.00000000000E+00  0.23427604188E+04  0.23427604188E+04  0.25500000920E-02 0. -1.
       -2   -1    0    0    0  501  0.00000000000E+00  0.00000000000E+00 -0.66746330034E+03  0.66746330035E+03  0.25500000920E-02 0.  1.
    10030    2    1    2    0    0  0.00000000000E+00  0.00000000000E+00  0.16752971185E+04  0.30102237192E+04  0.25009650946E+04 0.  0.
        1    1    3    3  502    0  0.92627346017E+03  0.70962931954E+03  0.29648524791E+03  0.12039351297E+04  0.50400001928E-02 0.  1.
       -1    1    3    3    0  502 -0.92627346017E+03 -0.70962931954E+03  0.13788118706E+04  0.18062885895E+04  0.50400001928E-02 0. -1.
</event>
<event>
 5   0  0.3805418E-07  0.2501317E+04  0.7818609E-02  0.8402516E-01
       -1   -1    0    0    0  501  0.00000000000E+00  0.00000000000E+00  0.96535948634E+03  0.96535948636E+03  0.50400001928E-02 0.  1.
        1   -1    0    0  501    0  0.00000000000E+00  0.00000000000E+00 -0.16202739752E+04  0.16202739752E+04  0.50400001928E-02 0. -1.
    10030    2    1    2    0    0  0.00000000000E+00  0.00000000000E+00 -0.65491448882E+03  0.25856334615E+04  0.25013171350E+04 0.  0.
        4    1    3    3  502    0 -0.39486049440E+02 -0.68453592220E+03 -0.14086576498E+04  0.15666737261E+04  0.12699999809E+01 0. -1.
       -4    1    3    3    0  502  0.39486049440E+02  0.68453592220E+03  0.75374316094E+03  0.10189597354E+04  0.12699999809E+01 0.  1.
</event>
<event>
 5   0  0.3972587E-07  0.2498356E+04  0.7818609E-02  0.8403572E-01
        1   -1    0    0  501    0  0.00000000000E+00  0.00000000000E+00  0.10424500912E+04  0.10424500912E+04  0.50400001928E-02 0.  1.
       -1   -1    0    0    0  501  0.00000000000E+00  0.00000000000E+00 -0.14969018132E+04  0.14969018132E+04  0.50400001928E-02 0. -1.
    10030    2    1    2    0    0  0.00000000000E+00  0.00000000000E+00 -0.45445172202E+03  0.25393519044E+04  0.24983558047E+04 0.  0.
        3    1    3    3  502    0  0.24877585683E+03  0.10311264592E+04  0.44339954811E+03  0.11496583716E+04  0.10100000352E+00 0.  1.
       -3    1    3    3    0  502 -0.24877585683E+03 -0.10311264592E+04 -0.89785127013E+03  0.13896935329E+04  0.10100000352E+00 0. -1.
</event>
<event>
 5   0  0.8997210E-07  0.2498178E+04  0.7818609E-02  0.8403635E-01
       -2   -1    0    0    0  501  0.00000000000E+00  0.00000000000E+00  0.10999219459E+04  0.10999219459E+04  0.25500000920E-02 0. -1.
        2   -1    0    0  501    0  0.00000000000E+00  0.00000000000E+00 -0.14184854966E+04  0.14184854966E+04  0.25500000920E-02 0.  1.
    10030    2    1    2    0    0  0.00000000000E+00  0.00000000000E+00 -0.31856355067E+03  0.25184074425E+04  0.24981779981E+04 0.  0.
        1    1    3    3  502    0 -0.10365285236E+03 -0.37297368301E+03  0.10379249635E+04  0.11077641951E+04  0.50400001928E-02 0. -1.
       -1    1    3    3    0  502  0.10365285236E+03  0.37297368301E+03 -0.13564885142E+04  0.14106432473E+04  0.50400001928E-02 0.  1.
</event>
<event>
 5   0  0.3873231E-07  0.2500095E+04  0.7818609E-02  0.8402952E-01
       -1   -1    0    0    0  501  0.00000000000E+00  0.00000000000E+00  0.72997681075E+03  0.72997681077E+03  0.50400001928E-02 0.  1.
        1   -1    0    0  501    0  0.00000000000E+00  0.00000000000E+00 -0.21406416631E+04  0.21406416631E+04  0.50400001928E-02 0. -1.
    10030    2    1    2    0    0  0.00000000000E+00  0.00000000000E+00 -0.14106648524E+04  0.28706184739E+04  0.25000950176E+04 0.  0.
        2    1    3    3  502    0 -0.44957442481E+03 -0.51987857736E+03 -0.19042176343E+04  0.20244593593E+04  0.25500000920E-02 0. -1.
       -2    1    3    3    0  502  0.44957442481E+03  0.51987857736E+03  0.49355278193E+03  0.84615911459E+03  0.25500000920E-02 0.  1.
</event>
<event>
 5   0  0.9508784E-07  0.2494251E+04  0.7818609E-02  0.8405036E-01
        2   -1    0    0  501    0  0.00000000000E+00  0.00000000000E+00  0.25675569972E+04  0.25675569972E+04  0.25500000920E-02 0. -1.
       -2   -1    0    0    0  501  0.00000000000E+00  0.00000000000E+00 -0.60575955667E+03  0.60575955668E+03  0.25500000920E-02 0.  1.
    10030    2    1    2    0    0  0.00000000000E+00  0.00000000000E+00  0.19617974406E+04  0.31733165539E+04  0.24942511408E+04 0.  0.
        2    1    3    3  502    0 -0.41155614646E+03 -0.54539780663E+03  0.23082456020E+04  0.24072463497E+04  0.25500000920E-02 0. -1.
       -2    1    3    3    0  502  0.41155614646E+03  0.54539780663E+03 -0.34644816143E+03  0.76607020418E+03  0.25500000920E-02 0.  1.
</event>
<event>
 5   0  0.3805418E-07  0.2500086E+04  0.7818609E-02  0.8402955E-01
       -1   -1    0    0    0  501  0.00000000000E+00  0.00000000000E+00  0.12152983141E+04  0.12152983141E+04  0.50400001928E-02 0.  1.
        1   -1    0    0  501    0  0.00000000000E+00  0.00000000000E+00 -0.12857807887E+04  0.12857807887E+04  0.50400001928E-02 0. -1.
    10030    2    1    2    0    0  0.00000000000E+00  0.00000000000E+00 -0.70482474568E+02  0.25010791028E+04  0.25000857784E+04 0.  0.
        4    1    3    3  502    0 -0.10408911302E+04 -0.80016508227E+02  0.65259912310E+03  0.12311556420E+04  0.12699999809E+01 0.  1.
       -4    1    3    3    0  502  0.10408911302E+04  0.80016508227E+02 -0.72308159767E+03  0.12699234608E+04  0.12699999809E+01 0. -1.
</event>
<event>
 5   0  0.9251138E-07  0.2499757E+04  0.7818609E-02  0.8403072E-01
        2   -1    0    0  501    0  0.00000000000E+00  0.00000000000E+00  0.10399278924E+04  0.10399278924E+04  0.25500000920E-02 0.  1.
       -2   -1    0    0    0  501  0.00000000000E+00  0.00000000000E+00 -0.15022161289E+04  0.15022161289E+04  0.25500000920E-02 0. -1.
    10030    2    1    2    0    0  0.00000000000E+00  0.00000000000E+00 -0.46228823652E+03  0.25421440213E+04  0.24997571505E+04 0.  0.
        5    1    3    3  502    0  0.18665441251E+03 -0.11195321209E+04  0.30116463047E+03  0.11742718016E+04  0.46999998093E+01 0. -1.
       -5    1    3    3    0  502 -0.18665441251E+03  0.11195321209E+04 -0.76345286699E+03  0.13678722197E+04  0.46999998093E+01 0.  1.
</event>
<event>
 5   0  0.3805418E-07  0.2498443E+04  0.7818609E-02  0.8403540E-01
       -1   -1    0    0    0  501  0.00000000000E+00  0.00000000000E+00  0.17874892678E+04  0.17874892678E+04  0.50400001928E-02 0. -1.
        1   -1    0    0  501    0  0.00000000000E+00  0.00000000000E+00 -0.87304269149E+03  0.87304269150E+03  0.50400001928E-02 0.  1.
    10030    2    1    2    0    0  0.00000000000E+00  0.00000000000E+00  0.91444657630E+03  0.26605319593E+04  0.24984430683E+04 0.  0.
        4    1    3    3  502    0 -0.64684729937E+02  0.69900037811E+03 -0.64314307876E+03  0.95206106713E+03  0.12699999809E+01 0.  1.
       -4    1    3    3    0  502  0.64684729937E+02 -0.69900037811E+03  0.15575896551E+04  0.17084708922E+04  0.12699999809E+01 0. -1.
</event>
<event>
 5   0  0.8997210E-07  0.2496225E+04  0.7818609E-02  0.8404332E-01
        2   -1    0    0  501    0  0.00000000000E+00  0.00000000000E+00  0.18207546331E+04  0.18207546331E+04  0.25500000920E-02 0. -1.
       -2   -1    0    0    0  501  0.00000000000E+00  0.00000000000E+00 -0.85557118855E+03  0.85557118855E+03  0.25500000920E-02 0.  1.
    10030    2    1    2    0    0  0.00000000000E+00  0.00000000000E+00  0.96518344459E+03  0.26763258217E+04  0.24962253148E+04 0.  0.
        1    1    3    3  502    0 -0.43941875540E+03  0.17349967710E+03 -0.75600470149E+03  0.89147859719E+03  0.50400001928E-02 0.  1.
       -1    1    3    3    0  502  0.43941875540E+03 -0.17349967710E+03  0.17211881461E+04  0.17848472245E+04  0.50400001928E-02 0. -1.
</event>
<event>
 5   0  0.3873231E-07  0.2499607E+04  0.7818609E-02  0.8403125E-01
       -1   -1    0    0    0  501  0.00000000000E+00  0.00000000000E+00  0.85226755292E+03  0.85226755294E+03  0.50400001928E-02 0. -1.
        1   -1    0    0  501    0  0.00000000000E+00  0.00000000000E+00 -0.18327686938E+04  0.18327686938E+04  0.50400001928E-02 0.  1.
    10030    2    1    2    0    0  0.00000000000E+00  0.00000000000E+00 -0.98050114087E+03  0.26850362467E+04  0.24996074010E+04 0.  0.
        2    1    3    3  502    0 -0.56513324367E+03  0.58842492083E+03 -0.15072642830E+04  0.17139034656E+04  0.25500000920E-02 0.  1.
       -2    1    3    3    0  502  0.56513324367E+03 -0.58842492083E+03  0.52676314218E+03  0.97113278110E+03  0.25500000920E-02 0. -1.
</event>
<event>
 5   0  0.3873231E-07  0.2496036E+04  0.7818609E-02  0.8404399E-01
        1   -1    0    0  501    0  0.00000000000E+00  0.00000000000E+00  0.15008312808E+04  0.15008312808E+04  0.50400001928E-02 0.  1.
       -1   -1    0    0    0  501  0.00000000000E+00  0.00000000000E+00 -0.10377911542E+04  0.10377911542E+04  0.50400001928E-02 0. -1.
    10030    2    1    2    0    0  0.00000000000E+00  0.00000000000E+00  0.46304012668E+03  0.25386224350E+04  0.24960363997E+04 0.  0.
        2    1    3    3  502    0 -0.10646771006E+04 -0.44770760632E+03  0.71241915946E+03  0.13570263402E+04  0.25500000920E-02 0.  1.
       -2    1    3    3    0  502  0.10646771006E+04  0.44770760632E+03 -0.24937903278E+03  0.11815960948E+04  0.25500000920E-02 0. -1.
</event>
<event>
 5   0  0.3972587E-07  0.2500165E+04  0.7818609E-02  0.8402927E-01
        1   -1    0    0  501    0  0.00000000000E+00  0.00000000000E+00  0.25445185723E+04  0.25445185723E+04  0.50400001928E-02 0.  1.
       -1   -1    0    0    0  501  0.00000000000E+00  0.00000000000E+00 -0.61414613304E+03  0.61414613306E+03  0.50400001928E-02 0. -1.
    10030    2    1    2    0    0  0.00000000000E+00  0.00000000000E+00  0.19303724393E+04  0.31586647054E+04  0.25001649879E+04 0.  0.
        3    1    3    3  502    0 -0.67935289083E+03 -0.85525835301E+03  0.17333799557E+04  0.20488028899E+04  0.10100000352E+00 0.  1.
       -3    1    3    3    0  502  0.67935289083E+03  0.85525835301E+03  0.19699248358E+03  0.11098618155E+04  0.10100000352E+00 0. -1.
</event>
<event>
 5   0  0.3837524E-07  0.2499471E+04  0.7818609E-02  0.8403174E-01
        1   -1    0    0  501    0  0.00000000000E+00  0.00000000000E+00  0.18516915123E+04  0.18516915123E+04  0.50400001928E-02 0.  1.
       -1   -1    0    0    0  501  0.00000000000E+00  0.00000000000E+00 -0.84346599485E+03  0.84346599486E+03  0.50400001928E-02 0. -1.
    10030    2    1    2    0    0  0.00000000000E+00  0.00000000000E+00  0.10082255174E+04  0.26951575071E+04  0.24994710029E+04 0.  0.
        5    1    3    3  502    0  0.73812479588E+03 -0.22194730125E+03 -0.55663636682E+03  0.95076545672E+03  0.46999998093E+01 0. -1.
       -5    1    3    3    0  502 -0.73812479588E+03  0.22194730125E+03  0.15648618842E+04  0.17443920504E+04  0.46999998093E+01 0.  1.
</event>
<event>
 5   0  0.3805418E-07  0.2498142E+04  0.7818609E-02  0.8403648E-01
       -1   -1    0    0    0  501  0.00000000000E+00  0.00000000000E+00  0.98108636969E+03  0.98108636970E+03  0.50400001928E-02 0.  1.
        1   -1    0    0  501    0  0.00000000000E+00  0.00000000000E+00 -0.15902563195E+04  0.15902563195E+04  0.50400001928E-02 0. -1.
    10030    2    1    2    0    0  0.00000000000E+00  0.00000000000E+00 -0.60916994983E+03  0.25713426892E+04  0.24981423494E+04 0.  0.
        4    1    3    3  502    0  0.67030234292E+03 -0.85653788801E+02  0.77668939751E+03  0.10295095121E+04  0.12699999809E+01 0.  1.
       -4    1    3    3    0  502 -0.67030234292E+03  0.85653788801E+02 -0.13858593473E+04  0.15418331771E+04  0.12699999809E+01 0. -1.
</event>
<event>
 5   0  0.9261602E-07  0.2500430E+04  0.7818609E-02  0.8402832E-01
        2   -1    0    0  501    0  0.00000000000E+00  0.00000000000E+00  0.13623188276E+04  0.13623188276E+04  0.25500000920E-02 0. -1.
       -2   -1    0    0    0  501  0.00000000000E+00  0.00000000000E+00 -0.11473364992E+04  0.11473364992E+04  0.25500000920E-02 0.  1.
    10030    2    1    2    0    0  0.00000000000E+00  0.00000000000E+00  0.21498232844E+03  0.25096553268E+04  0.25004304545E+04 0.  0.
        4    1    3    3  502    0 -0.10250370417E+04  0.57763038018E+03 -0.31677236727E+03  0.12184843612E+04  0.12699999809E+01 0.  1.
       -4    1    3    3    0  502  0.10250370417E+04 -0.57763038018E+03  0.53175469570E+03  0.12911709656E+04  0.12699999809E+01 0. -1.
</event>
<event>
 5   0  0.8997210E-07  0.2500051E+04  0.7818609E-02  0.8402967E-01
        2   -1    0    0  501    0  0.00000000000E+00  0.00000000000E+00  0.98633065676E+03  0.98633065676E+03  0.25500000920E-02 0.  1.
       -2   -1    0    0    0  501  0.00000000000E+00  0.00000000000E+00 -0.15842189441E+04  0.15842189441E+04  0.25500000920E-02 0. -1.
    10030    2    1    2    0    0  0.00000000000E+00  0.00000000000E+00 -0.59788828730E+03  0.25705496008E+04  0.25000509687E+04 0.  0.
        1    1    3    3  502    0 -0.62387622688E+03 -0.28351168905E+03  0.77598518558E+03  0.10352552500E+04  0.50400001928E-02 0.  1.
       -1    1    3    3    0  502  0.62387622688E+03  0.28351168905E+03 -0.13738734729E+04  0.15352943509E+04  0.50400001928E-02 0. -1.
</event>
<event>
 5   0  0.9251138E-07  0.2499911E+04  0.7818609E-02  0.8403017E-01
       -2   -1    0    0    0  501  0.00000000000E+00  0.00000000000E+00  0.13031442754E+04  0.13031442754E+04  0.25500000920E-02 0.  1.
        2   -1    0    0  501    0  0.00000000000E+00  0.00000000000E+00 -0.11989374336E+04  0.11989374336E+04  0.25500000920E-02 0. -1.
    10030    2    1    2    0    0  0.00000000000E+00  0.00000000000E+00  0.10420684179E+03  0.25020817090E+04  0.24999107610E+04 0.  0.
        5    1    3    3  502    0  0.10412518883E+04 -0.50286335340E+03  0.52716212578E+03  0.12708261266E+04  0.46999998093E+01 0.  1.
       -5    1    3    3    0  502 -0.10412518883E+04  0.50286335340E+03 -0.42295528399E+03  0.12312555825E+04  0.46999998093E+01 0. -1.
</event>
<event>
 5   0  0.9508784E-07  0.2500322E+04  0.7818609E-02  0.8402871E-01
       -2   -1    0    0    0  501  0.00000000000E+00  0.00000000000E+00  0.10794813034E+04  0.10794813034E+04  0.25500000920E-02 0.  1.
        2   -1    0    0  501    0  0.00000000000E+00  0.00000000000E+00 -0.14478267980E+04  0.14478267980E+04  0.25500000920E-02 0. -1.
    10030    2    1    2    0    0  0.00000000000E+00  0.00000000000E+00 -0.36834549456E+03  0.25273081014E+04  0.25003215465E+04 0.  0.
        2    1    3    3  502    0 -0.96653304094E+03 -0.66704377305E+03 -0.61748183336E+03  0.13268071936E+04  0.25500000920E-02 0.  1.
       -2    1    3    3    0  502  0.96653304094E+03  0.66704377305E+03  0.24913633880E+03  0.12005009078E+04  0.25500000920E-02 0. -1.
</event>
<event>
 5   0  0.3873231E-07  0.2499870E+04  0.7818609E-02  0.8403032E-01
       -1   -1    0    0    0  501  0.00000000000E+00  0.00000000000E+00  0.15336228027E+04  0.15336228027E+04  0.50400001928E-02 0.  1.
        1   -1    0    0  501    0  0.00000000000E+00  0.00000000000E+00 -0.10187233993E+04  0.10187233993E+04  0.50400001928E-02 0. -1.
    10030    2    1    2    0    0  0.00000000000E+00  0.00000000000E+00  0.51489940343E+03  0.25523462020E+04  0.24998699445E+04 0.  0.
        2    1    3    3  502    0 -0.70161472135E+02  0.11556919597E+04 -0.22338303211E+03  0.11791719624E+04  0.25500000920E-02 0.  1.
       -2    1    3    3    0  502  0.70161472135E+02 -0.11556919597E+04  0.73828243554E+03  0.13731742396E+04  0.25500000920E-02 0. -1.
</event>
<event>
 5   0  0.3991066E-07  0.2499339E+04  0.7818609E-02  0.8403221E-01
        1   -1    0    0  501    0  0.00000000000E+00  0.00000000000E+00  0.13093412955E+04  0.13093412955E+04  0.50400001928E-02 0.  1.
       -1   -1    0    0    0  501  0.00000000000E+00  0.00000000000E+00 -0.11927173702E+04  0.11927173702E+04  0.50400001928E-02 0. -1.
    10030    2    1    2    0    0  0.00000000000E+00  0.00000000000E+00  0.11662392527E+03  0.25020586657E+04  0.24993391980E+04 0.  0.
        1    1    3    3  502    0 -0.75668118664E+03  0.79012434977E+03 -0.54634125683E+03  0.12228457283E+04  0.50400001928E-02 0. -1.
       -1    1    3    3    0  502  0.75668118664E+03 -0.79012434977E+03  0.66296518210E+03  0.12792129373E+04  0.50400001928E-02 0.  1.
</event>
<event>
 5   0  0.9251138E-07  0.2499097E+04  0.7818609E-02  0.8403307E-01
       -2   -1    0    0    0  501  0.00000000000E+00  0.00000000000E+00  0.13557716306E+04  0.13557716306E+04  0.25500000920E-02 0.  1.
        2   -1    0    0  501    0  0.00000000000E+00  0.00000000000E+00 -0.11516480978E+04  0.11516480978E+04  0.25500000920E-02 0. -1.
    10030    2    1    2    0    0  0.00000000000E+00  0.00000000000E+00  0.20412353283E+03  0.25074197284E+04  0.24990972925E+04 0.  0.
        5    1    3    3  502    0  0.88483398920E+03 -0.24350998656E+02  0.98694299532E+03  0.13257461015E+04  0.46999998093E+01 0.  1.
       -5    1    3    3    0  502 -0.88483398920E+03  0.24350998656E+02 -0.78281946249E+03  0.11816736269E+04  0.46999998093E+01 0. -1.
</event>
<event>
 5   0  0.8997210E-07  0.2500326E+04  0.7818609E-02  0.8402869E-01
       -2   -1    0    0    0  501  0.00000000000E+00  0.00000000000E+00  0.53447134083E+03  0.53447134083E+03  0.25500000920E-02 0. -1.
        2   -1    0    0  501    0  0.00000000000E+00  0.00000000000E+00 -0.29242130121E+04  0.29242130121E+04  0.25500000920E-02 0.  1.
    10030    2    1    2    0    0  0.00000000000E+00  0.00000000000E+00 -0.23897416712E+04  0.34586843529E+04  0.25003264182E+04 0.  0.
        1    1    3    3  502    0  0.71323526461E+03 -0.28203739329E+03 -0.25605240712E+04  0.26729259536E+04  0.50400001928E-02 0.  1.
       -1    1    3    3    0  502 -0.71323526461E+03  0.28203739329E+03  0.17078240002E+03  0.78575839930E+03  0.50400001928E-02 0. -1.
</event>
<event>
 5   0  0.3837524E-07  0.2499543E+04  0.7818609E-02  0.8403148E-01
        1   -1    0    0  501    0  0.00000000000E+00  0.00000000000E+00  0.25967463671E+04  0.25967463671E+04  0.50400001928E-02 0.  1.
       -1   -1    0    0    0  501  0.00000000000E+00  0.00000000000E+00 -0.60149470872E+03  0.60149470874E+03  0.50400001928E-02 0. -1.
    10030    2    1    2    0    0  0.00000000000E+00  0.00000000000E+00  0.19952516584E+04  0.31982410758E+04  0.24995433181E+04 0.  0.
        5    1    3    3  502    0 -0.57541900227E+03  0.11055254156E+04  0.11163786170E+04  0.16732055400E+04  0.46999998093E+01 0. -1.
       -5    1    3    3    0  502  0.57541900227E+03 -0.11055254156E+04  0.87887304140E+03  0.15250355358E+04  0.46999998093E+01 0.  1.
</event>
<event>
 5   0  0.3972587E-07  0.2500469E+04  0.7818609E-02  0.8402818E-01
        1   -1    0    0  501    0  0.00000000000E+00  0.00000000000E+00  0.76800807905E+03  0.76800807907E+03  0.50400001928E-02 0.  1.
       -1   -1    0    0    0  501  0.00000000000E+00  0.00000000000E+00 -0.20352477221E+04  0.20352477221E+04  0.50400001928E-02 0. -1.
    10030    2    1    2    0    0  0.00000000000E+00  0.00000000000E+00 -0.12672396430E+04  0.28032558011E+04  0.25004693107E+04 0.  0.
        3    1    3    3  502    0 -0.41399412126E+03  0.33227432362E+03  0.63538947833E+03  0.82795963546E+03  0.10100000352E+00 0.  1.
       -3    1    3    3    0  502  0.41399412126E+03 -0.33227432362E+03 -0.19026291213E+04  0.19752961657E+04  0.10100000352E+00 0. -1.
</event>
<event>
 5   0  0.9251138E-07  0.2481691E+04  0.7818609E-02  0.8409537E-01
        2   -1    0    0  501    0  0.00000000000E+00  0.00000000000E+00  0.11887191940E+04  0.11887191940E+04  0.25500000920E-02 0.  1.
       -2   -1    0    0    0  501  0.00000000000E+00  0.00000000000E+00 -0.12952574287E+04  0.12952574288E+04  0.25500000920E-02 0. -1.
    10030    2    1    2    0    0  0.00000000000E+00  0.00000000000E+00 -0.10653823476E+03  0.24839766227E+04  0.24816908484E+04 0.  0.
        5    1    3    3  502    0 -0.68459923994E+03  0.99895561748E+03 -0.32386388398E+03  0.12535941729E+04  0.46999998093E+01 0.  1.
       -5    1    3    3    0  502  0.68459923994E+03 -0.99895561748E+03  0.21732564922E+03  0.12303824498E+04  0.46999998093E+01 0. -1.
</event>
<event>
 5   0  0.3972587E-07  0.2499357E+04  0.7818609E-02  0.8403215E-01
        1   -1    0    0  501    0  0.00000000000E+00  0.00000000000E+00  0.19000781801E+04  0.19000781801E+04  0.50400001928E-02 0.  1.
       -1   -1    0    0    0  501  0.00000000000E+00  0.00000000000E+00 -0.82191171083E+03  0.82191171084E+03  0.50400001928E-02 0. -1.
    10030    2    1    2    0    0  0.00000000000E+00  0.00000000000E+00  0.10781664693E+04  0.27219898909E+04  0.24993571235E+04 0.  0.
        3    1    3    3  502    0  0.83970894374E+03 -0.37572193929E+03 -0.38208350610E+03  0.99612544476E+03  0.10100000352E+00 0. -1.
       -3    1    3    3    0  502 -0.83970894374E+03  0.37572193929E+03  0.14602499754E+04  0.17258644462E+04  0.10100000352E+00 0.  1.
</event>
<event>
 5   0  0.9251138E-07  0.2502436E+04  0.7818609E-02  0.8402118E-01
       -2   -1    0    0    0  501  0.00000000000E+00  0.00000000000E+00  0.13902041361E+04  0.13902041361E+04  0.25500000920E-02 0. -1.
        2   -1    0    0  501    0  0.00000000000E+00  0.00000000000E+00 -0.11261273681E+04  0.11261273681E+04  0.25500000920E-02 0.  1.
    10030    2    1    2    0    0  0.00000000000E+00  0.00000000000E+00  0.26407676798E+03  0.25163315042E+04  0.25024363528E+04 0.  0.
        5    1    3    3  502    0  0.43288112833E+02 -0.12502505276E+04  0.10900722155E+03  0.12557487435E+04  0.46999998093E+01 0.  1.
       -5    1    3    3    0  502 -0.43288112833E+02  0.12502505276E+04  0.15506954643E+03  0.12605827607E+04  0.46999998093E+01 0. -1.
</event>
<event>
 5   0  0.3873231E-07  0.2499324E+04  0.7818609E-02  0.8403226E-01
        1   -1    0    0  501    0  0.00000000000E+00  0.00000000000E+00  0.84236976604E+03  0.84236976606E+03  0.50400001928E-02 0.  1.
       -1   -1    0    0    0  501  0.00000000000E+00  0.00000000000E+00 -0.18538835524E+04  0.18538835524E+04  0.50400001928E-02 0. -1.
    10030    2    1    2    0    0  0.00000000000E+00  0.00000000000E+00 -0.10115137864E+04  0.26962533185E+04  0.24993242722E+04 0.  0.
        2    1    3    3  502    0 -0.53296050071E+03 -0.75704311054E+03 -0.14112326434E+04  0.16878207074E+04  0.25500000920E-02 0. -1.
       -2    1    3    3    0  502  0.53296050071E+03  0.75704311054E+03  0.39971885698E+03  0.10084326111E+04  0.25500000920E-02 0.  1.
</event>
<event>
 5   0  0.8997210E-07  0.2500443E+04  0.7818609E-02  0.8402828E-01
        2   -1    0    0  501    0  0.00000000000E+00  0.00000000000E+00  0.21460566688E+04  0.21460566688E+04  0.25500000920E-02 0. -1.
       -2   -1    0    0    0  501  0.00000000000E+00  0.00000000000E+00 -0.72833742893E+03  0.72833742894E+03  0.25500000920E-02 0.  1.
    10030    2    1    2    0    0  0.00000000000E+00  0.00000000000E+00  0.14177192398E+04  0.28743940977E+04  0.25004426780E+04 0.  0.
        1    1    3    3  502    0 -0.87101386444E+03 -0.89437211897E+03  0.78586050094E+03  0.14751757069E+04  0.50400001928E-02 0. -1.
       -1    1    3    3    0  502  0.87101386444E+03  0.89437211897E+03  0.63185873889E+03  0.13992183908E+04  0.50400001928E-02 0.  1.
</event>
<event>
 5   0  0.3873231E-07  0.2500012E+04  0.7818609E-02  0.8402981E-01
       -1   -1    0    0    0  501  0.00000000000E+00  0.00000000000E+00  0.10410181105E+04  0.10410181105E+04  0.50400001928E-02 0.  1.
        1   -1    0    0  501    0  0.00000000000E+00  0.00000000000E+00 -0.15009486555E+04  0.15009486555E+04  0.50400001928E-02 0. -1.
    10030    2    1    2    0    0  0.00000000000E+00  0.00000000000E+00 -0.45993054497E+03  0.25419667660E+04  0.25000117867E+04 0.  0.
        2    1    3    3  502    0 -0.27399116176E+03 -0.78464856378E+03  0.71939012452E+03  0.10992118434E+04  0.25500000920E-02 0.  1.
       -2    1    3    3    0  502  0.27399116176E+03  0.78464856378E+03 -0.11793206695E+04  0.14427549227E+04  0.25500000920E-02 0. -1.
</event>
<event>
 5   0  0.9261602E-07  0.2500169E+04  0.7818609E-02  0.8402925E-01
        2   -1    0    0  501    0  0.00000000000E+00  0.00000000000E+00  0.19816783453E+04  0.19816783453E+04  0.25500000920E-02 0.  1.
       -2   -1    0    0    0  501  0.00000000000E+00  0.00000000000E+00 -0.78857989166E+03  0.78857989166E+03  0.25500000920E-02 0. -1.
    10030    2    1    2    0    0  0.00000000000E+00  0.00000000000E+00  0.11930984536E+04  0.27702582369E+04  0.25001693501E+04 0.  0.
        4    1    3    3  502    0 -0.15527551819E+02  0.16010416486E+03 -0.77706423653E+03  0.79353946913E+03  0.12699999809E+01 0. -1.
       -4    1    3    3    0  502  0.15527551819E+02 -0.16010416486E+03  0.19701626901E+04  0.19767187678E+04  0.12699999809E+01 0.  1.
</event>
<event>
 5   0  0.3805418E-07  0.2498344E+04  0.7818609E-02  0.8403576E-01
        1   -1    0    0  501    0  0.00000000000E+00  0.00000000000E+00  0.28666417694E+04  0.28666417695E+04  0.50400001928E-02 0.  1.
       -1   -1    0    0    0  501  0.00000000000E+00  0.00000000000E+00 -0.54434101324E+03  0.54434101327E+03  0.50400001928E-02 0. -1.
    10030    2    1    2    0    0  0.00000000000E+00  0.00000000000E+00  0.23223007562E+04  0.34109827827E+04  0.24983439999E+04 0.  0.
        4    1    3    3  502    0 -0.85940856015E+03  0.86217951846E+03  0.15436590702E+04  0.19659149354E+04  0.12699999809E+01 0. -1.
       -4    1    3    3    0  502  0.85940856015E+03 -0.86217951846E+03  0.77864168605E+03  0.14450678474E+04  0.12699999809E+01 0.  1.
</event>
<event>
 5   0  0.3873231E-07  0.2499901E+04  0.7818609E-02  0.8403021E-01
       -1   -1    0    0    0  501  0.00000000000E+00  0.00000000000E+00  0.13525947929E+04  0.13525947929E+04  0.50400001928E-02 0. -1.
        1   -1    0    0  501    0  0.00000000000E+00  0.00000000000E+00 -0.11550953404E+04  0.11550953405E+04  0.50400001928E-02 0.  1.
    10030    2    1    2    0    0  0.00000000000E+00  0.00000000000E+00  0.19749945246E+03  0.25076901334E+04  0.24999007523E+04 0.  0.
        2    1    3    3  502    0  0.11238458491E+04 -0.12112068015E+03  0.63396279288E+03  0.12959971198E+04  0.25500000920E-02 0. -1.
       -2    1    3    3    0  502 -0.11238458491E+04  0.12112068015E+03 -0.43646334041E+03  0.12116930136E+04  0.25500000920E-02 0.  1.
</event>
<event>
 5   0  0.3837524E-07  0.2494968E+04  0.7818609E-02  0.8404781E-01
        1   -1    0    0  501    0  0.00000000000E+00  0.00000000000E+00  0.97219998338E+03  0.97219998340E+03  0.50400001928E-02 0. -1.
       -1   -1    0    0    0  501  0.00000000000E+00  0.00000000000E+00 -0.16007158107E+04  0.16007158107E+04  0.50400001928E-02 0.  1.
    10030    2    1    2    0    0  0.00000000000E+00  0.00000000000E+00 -0.62851582731E+03  0.25729157941E+04  0.24949676427E+04 0.  0.
        5    1    3    3  502    0  0.10949599276E+04 -0.36733615394E+03 -0.80049782936E+03  0.14052373315E+04  0.46999998093E+01 0. -1.
       -5    1    3    3    0  502 -0.10949599276E+04  0.36733615394E+03  0.17198200205E+03  0.11676784626E+04  0.46999998093E+01 0.  1.
</event>
<event>
 5   0  0.3873231E-07  0.2499719E+04  0.7818609E-02  0.8403086E-01
       -1   -1    0    0    0  501  0.00000000000E+00  0.00000000000E+00  0.13842250455E+04  0.13842250455E+04  0.50400001928E-02 0.  1.
        1   -1    0    0  501    0  0.00000000000E+00  0.00000000000E+00 -0.11285364198E+04  0.11285364198E+04  0.50400001928E-02 0. -1.
    10030    2    1    2    0    0  0.00000000000E+00  0.00000000000E+00  0.25568862566E+03  0.25127614653E+04  0.24997186859E+04 0.  0.
        2    1    3    3  502    0  0.89147473711E+03 -0.85421123962E+03 -0.67448372497E+02  0.12365085247E+04  0.25500000920E-02 0. -1.
       -2    1    3    3    0  502 -0.89147473711E+03  0.85421123962E+03  0.32313699816E+03  0.12762529406E+04  0.25500000920E-02 0.  1.
</event>
<event>
 5   0  0.3972587E-07  0.2503712E+04  0.7818609E-02  0.8401664E-01
       -1   -1    0    0    0  501  0.00000000000E+00  0.00000000000E+00  0.11145689071E+04  0.11145689071E+04  0.50400001928E-02 0.  1.
        1   -1    0    0  501    0  0.00000000000E+00  0.00000000000E+00 -0.14060536660E+04  0.14060536660E+04  0.50400001928E-02 0. -1.
    10030    2    1    2    0    0  0.00000000000E+00  0.00000000000E+00 -0.29148475892E+03  0.25206225731E+04  0.25037122022E+04 0.  0.
        3    1    3    3  502    0  0.72262963785E+03 -0.63445119676E+03  0.66118330839E+03  0.11669984113E+04  0.10100000352E+00 0.  1.
       -3    1    3    3    0  502 -0.72262963785E+03  0.63445119676E+03 -0.95266806732E+03  0.13536241617E+04  0.10100000352E+00 0. -1.
</event>
<event>
 5   0  0.3837524E-07  0.2502663E+04  0.7818609E-02  0.8402038E-01
        1   -1    0    0  501    0  0.00000000000E+00  0.00000000000E+00  0.11559646066E+04  0.11559646066E+04  0.50400001928E-02 0.  1.
       -1   -1    0    0    0  501  0.00000000000E+00  0.00000000000E+00 -0.13545656206E+04  0.13545656206E+04  0.50400001928E-02 0. -1.
    10030    2    1    2    0    0  0.00000000000E+00  0.00000000000E+00 -0.19860101403E+03  0.25105302272E+04  0.25026625140E+04 0.  0.
        5    1    3    3  502    0  0.98595599117E+03  0.70929033312E+03 -0.40125482295E+03  0.12791518737E+04  0.46999998093E+01 0. -1.
       -5    1    3    3    0  502 -0.98595599117E+03 -0.70929033312E+03  0.20265380892E+03  0.12313783535E+04  0.46999998093E+01 0.  1.
</event>
<event>
 5   0  0.3837524E-07  0.2500365E+04  0.7818609E-02  0.8402855E-01
       -1   -1    0    0    0  501  0.00000000000E+00  0.00000000000E+00  0.56243717196E+03  0.56243717199E+03  0.50400001928E-02 0.  1.
        1   -1    0    0  501    0  0.00000000000E+00  0.00000000000E+00 -0.27788994446E+04  0.27788994446E+04  0.50400001928E-02 0. -1.
    10030    2    1    2    0    0  0.00000000000E+00  0.00000000000E+00 -0.22164622726E+04  0.33413366166E+04  0.25003650492E+04 0.  0.
        5    1    3    3  502    0  0.12023104239E+04 -0.21190910870E+03 -0.14679980297E+04  0.19093182372E+04  0.46999998093E+01 0.  1.
       -5    1    3    3    0  502 -0.12023104239E+04  0.21190910870E+03 -0.74846424293E+03  0.14320183793E+04  0.46999998093E+01 0. -1.
</event>
<event>
 5   0  0.3837524E-07  0.2503297E+04  0.7818609E-02  0.8401812E-01
        1   -1    0    0  501    0  0.00000000000E+00  0.00000000000E+00  0.10457946962E+04  0.10457946963E+04  0.50400001928E-02 0. -1.
       -1   -1    0    0    0  501  0.00000000000E+00  0.00000000000E+00 -0.14980223589E+04  0.14980223589E+04  0.50400001928E-02 0.  1.
    10030    2    1    2    0    0  0.00000000000E+00  0.00000000000E+00 -0.45222766266E+03  0.25438170552E+04  0.25032968964E+04 0.  0.
        5    1    3    3  502    0  0.10015746329E+04 -0.68145764055E+03  0.93727587006E+02  0.12150486458E+04  0.46999998093E+01 0. -1.
       -5    1    3    3    0  502 -0.10015746329E+04  0.68145764055E+03 -0.54595524967E+03  0.13287684094E+04  0.46999998093E+01 0.  1.
</event>
<event>
 5   0  0.9261602E-07  0.2502373E+04  0.7818609E-02  0.8402141E-01
        2   -1    0    0  501    0  0.00000000000E+00  0.00000000000E+00  0.10857983758E+04  0.10857983758E+04  0.25500000920E-02 0. -1.
       -2   -1    0    0    0  501  0.00000000000E+00  0.00000000000E+00 -0.14417667993E+04  0.14417667993E+04  0.25500000920E-02 0.  1.
    10030    2    1    2    0    0  0.00000000000E+00  0.00000000000E+00 -0.35596842350E+03  0.25275651750E+04  0.25023733126E+04 0.  0.
        4    1    3    3  502    0 -0.20979072883E+03  0.12296153313E+04 -0.27643557606E+03  0.12776479380E+04  0.12699999809E+01 0.  1.
       -4    1    3    3    0  502  0.20979072883E+03 -0.12296153313E+04 -0.79532847444E+02  0.12499172371E+04  0.12699999809E+01 0. -1.
</event>
<event>
 5   0  0.3805418E-07  0.2499658E+04  0.7818609E-02  0.8403107E-01
        1   -1    0    0  501    0  0.00000000000E+00  0.00000000000E+00  0.11859950812E+04  0.11859950812E+04  0.50400001928E-02 0.  1.
       -1   -1    0    0    0  501  0.00000000000E+00  0.00000000000E+00 -0.13170985732E+04  0.13170985733E+04  0.50400001928E-02 0. -1.
    10030    2    1    2    0    0  0.00000000000E+00  0.00000000000E+00 -0.13110349210E+03  0.25030936544E+04  0.24996579200E+04 0.  0.
        4    1    3    3  502    0 -0.90504835016E+03 -0.93976107338E+02 -0.92354141166E+03  0.12964853940E+04  0.12699999809E+01 0. -1.
       -4    1    3    3    0  502  0.90504835016E+03  0.93976107338E+02  0.79243791956E+03  0.12066082604E+04  0.12699999809E+01 0.  1.
</event>
<event>
 5   0  0.9768582E-07  0.2498251E+04  0.7818609E-02  0.8403609E-01
       -2   -1    0    0    0  501  0.00000000000E+00  0.00000000000E+00  0.76217069571E+03  0.76217069571E+03  0.25500000920E-02 0. -1.
        2   -1    0    0  501    0  0.00000000000E+00  0.00000000000E+00 -0.20471985672E+04  0.20471985672E+04  0.25500000920E-02 0.  1.
    10030    2    1    2    0    0  0.00000000000E+00  0.00000000000E+00 -0.12850278715E+04  0.28093692629E+04  0.24982511933E+04 0.  0.
        3    1    3    3  502    0  0.24345737795E+03 -0.11852967183E+04 -0.99114667980E+03  0.15641520247E+04  0.10100000352E+00 0.  1.
       -3    1    3    3    0  502 -0.24345737795E+03  0.11852967183E+04 -0.29388119172E+03  0.12452172382E+04  0.10100000352E+00 0. -1.
</event>
<event>
 5   0  0.8997210E-07  0.2500895E+04  0.7818609E-02  0.8402667E-01
        2   -1    0    0  501    0  0.00000000000E+00  0.00000000000E+00  0.12451297765E+04  0.12451297765E+04  0.25500000920E-02 0. -1.
       -2   -1    0    0    0  501  0.00000000000E+00  0.00000000000E+00 -0.12557877818E+04  0.12557877818E+04  0.25500000920E-02 0.  1.
    10030    2    1    2    0    0  0.00000000000E+00  0.00000000000E+00 -0.10658005283E+02  0.25009175583E+04  0.25008948479E+04 0.  0.
        1    1    3    3  502    0  0.20598520785E+02 -0.82895307965E+03  0.93064490894E+03  0.12464699972E+04  0.50400001928E-02 0. -1.
       -1    1    3    3    0  502 -0.20598520785E+02  0.82895307965E+03 -0.94130291422E+03  0.12544475611E+04  0.50400001928E-02 0.  1.
</event>
<event>
 5   0  0.3805418E-07  0.2504428E+04  0.7818609E-02  0.8401410E-01
       -1   -1    0    0    0  501  0.00000000000E+00  0.00000000000E+00  0.13872775529E+04  0.13872775529E+04  0.50400001928E-02 0.  1.
        1   -1    0    0  501    0  0.00000000000E+00  0.00000000000E+00 -0.11303002200E+04  0.11303002200E+04  0.50400001928E-02 0. -1.
    10030    2    1    2    0    0  0.00000000000E+00  0.00000000000E+00  0.25697733285E+03  0.25175777729E+04  0.25044281769E+04 0.  0.
        4    1    3    3  502    0  0.49053839692E+03 -0.26114386616E+03 -0.99955047053E+03  0.11436462712E+04  0.12699999809E+01 0. -1.
       -4    1    3    3    0  502 -0.49053839692E+03  0.26114386616E+03  0.12565278034E+04  0.13739315017E+04  0.12699999809E+01 0.  1.
</event>
<event>
 5   0  0.8997210E-07  0.2499764E+04  0.7818609E-02  0.8403070E-01
       -2   -1    0    0    0  501  0.00000000000E+00  0.00000000000E+00  0.12885248590E+04  0.12885248590E+04  0.25500000920E-02 0.  1.
        2   -1    0    0  501    0  0.00000000000E+00  0.00000000000E+00 -0.12123977898E+04  0.12123977898E+04  0.25500000920E-02 0. -1.
    10030    2    1    2    0    0  0.00000000000E+00  0.00000000000E+00  0.76127069185E+02  0.25009226489E+04  0.24997637418E+04 0.  0.
        1    1    3    3  502    0 -0.38408275260E+03  0.97603359276E+03 -0.64198945479E+03  0.12297607878E+04  0.50400001928E-02 0. -1.
       -1    1    3    3    0  502  0.38408275260E+03 -0.97603359276E+03  0.71811652398E+03  0.12711618611E+04  0.50400001928E-02 0.  1.
</event>
<event>
 5   0  0.8997210E-07  0.2501079E+04  0.7818609E-02  0.8402601E-01
        2   -1    0    0  501    0  0.00000000000E+00  0.00000000000E+00  0.10714262529E+04  0.10714262529E+04  0.25500000920E-02 0.  1.
       -2   -1    0    0    0  501  0.00000000000E+00  0.00000000000E+00 -0.14595960208E+04  0.14595960208E+04  0.25500000920E-02 0. -1.
    10030    2    1    2    0    0  0.00000000000E+00  0.00000000000E+00 -0.38816976783E+03  0.25310222737E+04  0.25010793633E+04 0.  0.
        1    1    3    3  502    0 -0.94232948703E+03 -0.80462480715E+03 -0.23413615494E+02  0.12393361690E+04  0.50400001928E-02 0.  1.
       -1    1    3    3    0  502  0.94232948703E+03  0.80462480715E+03 -0.36475615234E+03  0.12916861047E+04  0.50400001928E-02 0. -1.
</event>
<event>
 5   0  0.3873231E-07  0.2499780E+04  0.7818609E-02  0.8403064E-01
       -1   -1    0    0    0  501  0.00000000000E+00  0.00000000000E+00  0.20991068476E+04  0.20991068476E+04  0.50400001928E-02 0. -1.
        1   -1    0    0  501    0  0.00000000000E+00  0.00000000000E+00 -0.74423337625E+03  0.74423337627E+03  0.50400001928E-02 0.  1.
    10030    2    1    2    0    0  0.00000000000E+00  0.00000000000E+00  0.13548734714E+04  0.28433402239E+04  0.24997802914E+04 0.  0.
        2    1    3    3  502    0  0.60310742167E+03  0.90124091120E+03  0.13843435273E+04  0.17585166316E+04  0.25500000920E-02 0. -1.
       -2    1    3    3    0  502 -0.60310742167E+03 -0.90124091120E+03 -0.29470055963E+02  0.10848235923E+04  0.25500000920E-02 0.  1.
</event>
<event>
 5   0  0.8997210E-07  0.2501767E+04  0.7818609E-02  0.8402356E-01
       -2   -1    0    0    0  501  0.00000000000E+00  0.00000000000E+00  0.65550438871E+03  0.65550438872E+03  0.25500000920E-02 0.  1.
        2   -1    0    0  501    0  0.00000000000E+00  0.00000000000E+00 -0.23870305856E+04  0.23870305856E+04  0.25500000920E-02 0. -1.
    10030    2    1    2    0    0  0.00000000000E+00  0.00000000000E+00 -0.17315261969E+04  0.30425349743E+04  0.25017665957E+04 0.  0.
        1    1    3    3  502    0  0.30702132814E+03 -0.10978651425E+04 -0.23954495818E+03  0.11648827212E+04  0.50400001928E-02 0.  1.
       -1    1    3    3    0  502 -0.30702132814E+03  0.10978651425E+04 -0.14919812387E+04  0.18776522531E+04  0.50400001928E-02 0. -1.
</event>
<event>
 5   0  0.3805418E-07  0.2499732E+04  0.7818609E-02  0.8403081E-01
       -1   -1    0    0    0  501  0.00000000000E+00  0.00000000000E+00  0.12325022063E+04  0.12325022063E+04  0.50400001928E-02 0.  1.
        1   -1    0    0  501    0  0.00000000000E+00  0.00000000000E+00 -0.12674739835E+04  0.12674739835E+04  0.50400001928E-02 0. -1.
    10030    2    1    2    0    0  0.00000000000E+00  0.00000000000E+00 -0.34971777250E+02  0.24999761898E+04  0.24997315705E+04 0.  0.
        4    1    3    3  502    0  0.80436643403E+03  0.89305240902E+03  0.32549796383E+03  0.12451901472E+04  0.12699999809E+01 0.  1.
       -4    1    3    3    0  502 -0.80436643403E+03 -0.89305240902E+03 -0.36046974108E+03  0.12547860426E+04  0.12699999809E+01 0. -1.
</event>
<event>
 5   0  0.3873231E-07  0.2498291E+04  0.7818609E-02  0.8403595E-01
       -1   -1    0    0    0  501  0.00000000000E+00  0.00000000000E+00  0.11756382443E+04  0.11756382443E+04  0.50400001928E-02 0.  1.
        1   -1    0    0  501    0  0.00000000000E+00  0.00000000000E+00 -0.13272488103E+04  0.13272488103E+04  0.50400001928E-02 0. -1.
    10030    2    1    2    0    0  0.00000000000E+00  0.00000000000E+00 -0.15161056593E+03  0.25028870546E+04  0.24982909847E+04 0.  0.
        2    1    3    3  502    0 -0.10454429438E+04  0.47105098980E+03 -0.57222112078E+03  0.12815135562E+04  0.25500000920E-02 0. -1.
       -2    1    3    3    0  502  0.10454429438E+04 -0.47105098980E+03  0.42061055486E+03  0.12213734984E+04  0.25500000920E-02 0.  1.
</event>
<event>
 5   0  0.3805418E-07  0.2498996E+04  0.7818609E-02  0.8403343E-01
       -1   -1    0    0    0  501  0.00000000000E+00  0.00000000000E+00  0.91873706860E+03  0.91873706861E+03  0.50400001928E-02 0.  1.
        1   -1    0    0  501    0  0.00000000000E+00  0.00000000000E+00 -0.16993387676E+04  0.16993387676E+04  0.50400001928E-02 0. -1.
    10030    2    1    2    0    0  0.00000000000E+00  0.00000000000E+00 -0.78060169900E+03  0.26180758362E+04  0.24989962128E+04 0.  0.
        4    1    3    3  502    0  0.21832263801E+02  0.40879496397E+03 -0.16270855295E+04  0.16777958468E+04  0.12699999809E+01 0. -1.
       -4    1    3    3    0  502 -0.21832263801E+02 -0.40879496397E+03  0.84648383050E+03  0.94027998942E+03  0.12699999809E+01 0.  1.
</event>
<event>
 5   0  0.8997210E-07  0.2499759E+04  0.7818609E-02  0.8403071E-01
       -2   -1    0    0    0  501  0.00000000000E+00  0.00000000000E+00  0.12982475002E+04  0.12982475002E+04  0.25500000920E-02 0.  1.
        2   -1    0    0  501    0  0.00000000000E+00  0.00000000000E+00 -0.12033138514E+04  0.12033138514E+04  0.25500000920E-02 0. -1.
    10030    2    1    2    0    0  0.00000000000E+00  0.00000000000E+00  0.94933648707E+02  0.25015613516E+04  0.24997593481E+04 0.  0.
        1    1    3    3  502    0  0.12245493632E+04 -0.23669488375E+03  0.12909515734E+03  0.12538784513E+04  0.50400001928E-02 0.  1.
       -1    1    3    3    0  502 -0.12245493632E+04  0.23669488375E+03 -0.34161508633E+02  0.12476829003E+04  0.50400001928E-02 0. -1.
</event>
<event>
 5   0  0.3991066E-07  0.2500437E+04  0.7818609E-02  0.8402830E-01
        1   -1    0    0  501    0  0.00000000000E+00  0.00000000000E+00  0.27685573424E+04  0.27685573424E+04  0.50400001928E-02 0. -1.
       -1   -1    0    0    0  501  0.00000000000E+00  0.00000000000E+00 -0.56457063062E+03  0.56457063064E+03  0.50400001928E-02 0.  1.
    10030    2    1    2    0    0  0.00000000000E+00  0.00000000000E+00  0.22039867118E+04  0.33331279731E+04  0.25004368936E+04 0.  0.
        1    1    3    3  502    0  0.83187359055E+03 -0.73496403108E+03  0.18687516170E+04  0.21735727280E+04  0.50400001928E-02 0. -1.
       -1    1    3    3    0  502 -0.83187359055E+03  0.73496403108E+03  0.33523509478E+03  0.11595552451E+04  0.50400001928E-02 0.  1.
</event>
<event>
 5   0  0.3805418E-07  0.2499832E+04  0.7818609E-02  0.8403045E-01
       -1   -1    0    0    0  501  0.00000000000E+00  0.00000000000E+00  0.72362324654E+03  0.72362324656E+03  0.50400001928E-02 0.  1.
        1   -1    0    0  501    0  0.00000000000E+00  0.00000000000E+00 -0.21589831632E+04  0.21589831632E+04  0.50400001928E-02 0. -1.
    10030    2    1    2    0    0  0.00000000000E+00  0.00000000000E+00 -0.14353599167E+04  0.28826064098E+04  0.24998323190E+04 0.  0.
        4    1    3    3  502    0 -0.76982924352E+02 -0.94567442902E+03  0.22058154474E+03  0.97410693823E+03  0.12699999809E+01 0.  1.
       -4    1    3    3    0  502  0.76982924352E+02  0.94567442902E+03 -0.16559414614E+04  0.19084994715E+04  0.12699999809E+01 0. -1.
</event>
<event>
 5   0  0.9508784E-07  0.2499749E+04  0.7818609E-02  0.8403075E-01
        2   -1    0    0  501    0  0.00000000000E+00  0.00000000000E+00  0.19034222287E+04  0.19034222287E+04  0.25500000920E-02 0. -1.
       -2   -1    0    0    0  501  0.00000000000E+00  0.00000000000E+00 -0.82072478585E+03  0.82072478585E+03  0.25500000920E-02 0.  1.
    10030    2    1    2    0    0  0.00000000000E+00  0.00000000000E+00  0.10826974428E+04  0.27241470145E+04  0.24997486282E+04 0.  0.
        2    1    3    3  502    0 -0.43951283463E+02  0.10137720119E+03  0.18980892376E+04  0.19013026603E+04  0.25500000920E-02 0. -1.
       -2    1    3    3    0  502  0.43951283463E+02 -0.10137720119E+03 -0.81539179478E+03  0.82284435420E+03  0.25500000920E-02 0.  1.
</event>
<event>
 5   0  0.9508784E-07  0.2500170E+04  0.7818609E-02  0.8402925E-01
        2   -1    0    0  501    0  0.00000000000E+00  0.00000000000E+00  0.17330989137E+04  0.17330989137E+04  0.25500000920E-02 0.  1.
       -2   -1    0    0    0  501  0.00000000000E+00  0.00000000000E+00 -0.90168668264E+03  0.90168668264E+03  0.25500000920E-02 0. -1.
    10030    2    1    2    0    0  0.00000000000E+00  0.00000000000E+00  0.83141223103E+03  0.26347855963E+04  0.25001697624E+04 0.  0.
        2    1    3    3  502    0  0.54147532668E+03 -0.81928044804E+03 -0.39943709329E+03  0.10601726149E+04  0.25500000920E-02 0. -1.
       -2    1    3    3    0  502 -0.54147532668E+03  0.81928044804E+03  0.12308493243E+04  0.15746129814E+04  0.25500000920E-02 0.  1.
</event>
<event>
 5   0  0.9251138E-07  0.2500898E+04  0.7818609E-02  0.8402666E-01
       -2   -1    0    0    0  501  0.00000000000E+00  0.00000000000E+00  0.25923104161E+04  0.25923104161E+04  0.25500000920E-02 0.  1.
        2   -1    0    0  501    0  0.00000000000E+00  0.00000000000E+00 -0.60317719747E+03  0.60317719748E+03  0.25500000920E-02 0. -1.
    10030    2    1    2    0    0  0.00000000000E+00  0.00000000000E+00  0.19891332186E+04  0.31954876135E+04  0.25008978642E+04 0.  0.
        5    1    3    3  502    0 -0.58602287296E+03 -0.58753806124E+03  0.21897633968E+04  0.23417321805E+04  0.46999998093E+01 0.  1.
       -5    1    3    3    0  502  0.58602287296E+03  0.58753806124E+03 -0.20063017824E+03  0.85375543305E+03  0.46999998093E+01 0. -1.
</event>
<event>
 5   0  0.8997210E-07  0.2498663E+04  0.7818609E-02  0.8403462E-01
        2   -1    0    0  501    0  0.00000000000E+00  0.00000000000E+00  0.25594120948E+04  0.25594120948E+04  0.25500000920E-02 0.  1.
       -2   -1    0    0    0  501  0.00000000000E+00  0.00000000000E+00 -0.60983908883E+03  0.60983908884E+03  0.25500000920E-02 0. -1.
    10030    2    1    2    0    0  0.00000000000E+00  0.00000000000E+00  0.19495730059E+04  0.31692511836E+04  0.24986632745E+04 0.  0.
        1    1    3    3  502    0  0.81932158565E+03 -0.93803596678E+03  0.85031593427E+03  0.15080572018E+04  0.50400001928E-02 0.  1.
       -1    1    3    3    0  502 -0.81932158565E+03  0.93803596678E+03  0.10992570717E+04  0.16611939819E+04  0.50400001928E-02 0. -1.
</event>
<event>
 5   0  0.3972587E-07  0.2500070E+04  0.7818609E-02  0.8402961E-01
       -1   -1    0    0    0  501  0.00000000000E+00  0.00000000000E+00  0.15498082253E+04  0.15498082253E+04  0.50400001928E-02 0. -1.
        1   -1    0    0  501    0  0.00000000000E+00  0.00000000000E+00 -0.10082454957E+04  0.10082454957E+04  0.50400001928E-02 0.  1.
    10030    2    1    2    0    0  0.00000000000E+00  0.00000000000E+00  0.54156272961E+03  0.25580537210E+04  0.25000697289E+04 0.  0.
        3    1    3    3  502    0  0.88972811606E+03 -0.75966483591E+03  0.72131213500E+03  0.13744082326E+04  0.10100000352E+00 0. -1.
       -3    1    3    3    0  502 -0.88972811606E+03  0.75966483591E+03 -0.17974940539E+03  0.11836454885E+04  0.10100000352E+00 0.  1.
</event>
<event>
 5   0  0.9261602E-07  0.2500439E+04  0.7818609E-02  0.8402829E-01
       -2   -1    0    0    0  501  0.00000000000E+00  0.00000000000E+00  0.13260124345E+04  0.13260124345E+04  0.25500000920E-02 0. -1.
        2   -1    0    0  501    0  0.00000000000E+00  0.00000000000E+00 -0.11787591842E+04  0.11787591842E+04  0.25500000920E-02 0.  1.
    10030    2    1    2    0    0  0.00000000000E+00  0.00000000000E+00  0.14725325031E+03  0.25047716187E+04  0.25004394298E+04 0.  0.
        4    1    3    3  502    0 -0.11884930927E+04  0.38620286250E+03  0.36424158015E+02  0.12501987100E+04  0.12699999809E+01 0. -1.
       -4    1    3    3    0  502  0.11884930927E+04 -0.38620286250E+03  0.11082909230E+03  0.12545729086E+04  0.12699999809E+01 0.  1.
</event>
<event>
 5   0  0.9251138E-07  0.2493765E+04  0.7818609E-02  0.8405210E-01
        2   -1    0    0  501    0  0.00000000000E+00  0.00000000000E+00  0.24309907132E+04  0.24309907132E+04  0.25500000920E-02 0.  1.
       -2   -1    0    0    0  501  0.00000000000E+00  0.00000000000E+00 -0.63954016142E+03  0.63954016143E+03  0.25500000920E-02 0. -1.
    10030    2    1    2    0    0  0.00000000000E+00  0.00000000000E+00  0.17914505517E+04  0.30705308746E+04  0.24937651799E+04 0.  0.
        5    1    3    3  502    0  0.87336027702E+03 -0.41974770654E+02  0.19902341648E+04  0.21738385808E+04  0.46999998093E+01 0.  1.
       -5    1    3    3    0  502 -0.87336027702E+03  0.41974770654E+02 -0.19878361306E+03  0.89669229375E+03  0.46999998093E+01 0. -1.
</event>
<event>
 5   0  0.8997210E-07  0.2499593E+04  0.7818609E-02  0.8403131E-01
        2   -1    0    0  501    0  0.00000000000E+00  0.00000000000E+00  0.94969447688E+03  0.94969447688E+03  0.25500000920E-02 0.  1.
       -2   -1    0    0    0  501  0.00000000000E+00  0.00000000000E+00 -0.16447297914E+04  0.16447297914E+04  0.25500000920E-02 0. -1.
    10030    2    1    2    0    0  0.00000000000E+00  0.00000000000E+00 -0.69503531447E+03  0.25944242682E+04  0.24995926059E+04 0.  0.
        1    1    3    3  502    0  0.97311805253E+03  0.51383170380E+03 -0.96245506723E+03  0.14619512716E+04  0.50400001928E-02 0. -1.
       -1    1    3    3    0  502 -0.97311805253E+03 -0.51383170380E+03  0.26741975275E+03  0.11324729967E+04  0.50400001928E-02 0.  1.
</event>
<event>
 5   0  0.3991066E-07  0.2501632E+04  0.7818609E-02  0.8402404E-01
       -1   -1    0    0    0  501  0.00000000000E+00  0.00000000000E+00  0.84893366676E+03  0.84893366677E+03  0.50400001928E-02 0.  1.
        1   -1    0    0  501    0  0.00000000000E+00  0.00000000000E+00 -0.18429478286E+04  0.18429478286E+04  0.50400001928E-02 0. -1.
    10030    2    1    2    0    0  0.00000000000E+00  0.00000000000E+00 -0.99401416183E+03  0.26918814954E+04  0.25016318337E+04 0.  0.
        1    1    3    3  502    0 -0.12934583916E+03  0.50825800708E+03 -0.17189207019E+04  0.17971491110E+04  0.50400001928E-02 0. -1.
       -1    1    3    3    0  502  0.12934583916E+03 -0.50825800708E+03  0.72490654002E+03  0.89473238438E+03  0.50400001928E-02 0.  1.
</event>
<event>
 5   0  0.3873231E-07  0.2498798E+04  0.7818609E-02  0.8403414E-01
       -1   -1    0    0    0  501  0.00000000000E+00  0.00000000000E+00  0.11991503605E+04  0.11991503605E+04  0.50400001928E-02 0.  1.
        1   -1    0    0  501    0  0.00000000000E+00  0.00000000000E+00 -0.13017535075E+04  0.13017535075E+04  0.50400001928E-02 0. -1.
    10030    2    1    2    0    0  0.00000000000E+00  0.00000000000E+00 -0.10260314701E+03  0.25009038680E+04  0.24987982614E+04 0.  0.
        2    1    3    3  502    0  0.50317977892E+03  0.88234957125E+03  0.67681921311E+03  0.12205797405E+04  0.25500000920E-02 0.  1.
       -2    1    3    3    0  502 -0.50317977892E+03 -0.88234957125E+03 -0.77942236012E+03  0.12803241274E+04  0.25500000920E-02 0. -1.
</event>
<event>
 5   0  0.3873231E-07  0.2499436E+04  0.7818609E-02  0.8403186E-01
       -1   -1    0    0    0  501  0.00000000000E+00  0.00000000000E+00  0.10718345969E+04  0.10718345969E+04  0.50400001928E-02 0. -1.
        1   -1    0    0  501    0  0.00000000000E+00  0.00000000000E+00 -0.14571232914E+04  0.14571232914E+04  0.50400001928E-02 0.  1.
    10030    2    1    2    0    0  0.00000000000E+00  0.00000000000E+00 -0.38528869454E+03  0.25289578883E+04  0.24994360609E+04 0.  0.
        2    1    3    3  502    0  0.12349874434E+04  0.16706929344E+03 -0.28696026703E+03  0.12788480476E+04  0.25500000920E-02 0.  1.
       -2    1    3    3    0  502 -0.12349874434E+04 -0.16706929344E+03 -0.98328427511E+02  0.12501098407E+04  0.25500000920E-02 0. -1.
</event>
<event>
 5   0  0.9508784E-07  0.2503504E+04  0.7818609E-02  0.8401738E-01
       -2   -1    0    0    0  501  0.00000000000E+00  0.00000000000E+00  0.14018172147E+04  0.14018172147E+04  0.25500000920E-02 0. -1.
        2   -1    0    0  501    0  0.00000000000E+00  0.00000000000E+00 -0.11177512652E+04  0.11177512652E+04  0.25500000920E-02 0.  1.
    10030    2    1    2    0    0  0.00000000000E+00  0.00000000000E+00  0.28406594951E+03  0.25195684799E+04  0.25035039168E+04 0.  0.
        2    1    3    3  502    0  0.73369917158E+03  0.54209204910E+03  0.10046823276E+04  0.13570426830E+04  0.25500000920E-02 0. -1.
       -2    1    3    3    0  502 -0.73369917158E+03 -0.54209204910E+03 -0.72061637808E+03  0.11625257969E+04  0.25500000920E-02 0.  1.
</event>
<event>
 5   0  0.9261602E-07  0.2491993E+04  0.7818609E-02  0.8405844E-01
       -2   -1    0    0    0  501  0.00000000000E+00  0.00000000000E+00  0.10109388363E+04  0.10109388363E+04  0.25500000920E-02 0. -1.
        2   -1    0    0  501    0  0.00000000000E+00  0.00000000000E+00 -0.15357084785E+04  0.15357084785E+04  0.25500000920E-02 0.  1.
    10030    2    1    2    0    0  0.00000000000E+00  0.00000000000E+00 -0.52476964221E+03  0.25466473149E+04  0.24919930516E+04 0.  0.
        4    1    3    3  502    0  0.72808514538E+03 -0.87203206794E+03 -0.78542814464E+03  0.13811035044E+04  0.12699999809E+01 0.  1.
       -4    1    3    3    0  502 -0.72808514538E+03  0.87203206794E+03  0.26065850243E+03  0.11655438105E+04  0.12699999809E+01 0. -1.
</event>
<event>
 5   0  0.9251138E-07  0.2500127E+04  0.7818609E-02  0.8402940E-01
        2   -1    0    0  501    0  0.00000000000E+00  0.00000000000E+00  0.10400077792E+04  0.10400077792E+04  0.25500000920E-02 0. -1.
       -2   -1    0    0    0  501  0.00000000000E+00  0.00000000000E+00 -0.15025452594E+04  0.15025452594E+04  0.25500000920E-02 0.  1.
    10030    2    1    2    0    0  0.00000000000E+00  0.00000000000E+00 -0.46253748028E+03  0.25425530386E+04  0.25001270035E+04 0.  0.
        5    1    3    3  502    0 -0.16718320640E+03 -0.11477656522E+04 -0.70535596170E+03  0.13575217640E+04  0.46999998093E+01 0.  1.
       -5    1    3    3    0  502  0.16718320640E+03  0.11477656522E+04  0.24281848142E+03  0.11850312746E+04  0.46999998093E+01 0. -1.
</event>
<event>
 5   0  0.3991066E-07  0.2498465E+04  0.7818609E-02  0.8403533E-01
        1   -1    0    0  501    0  0.00000000000E+00  0.00000000000E+00  0.12318408973E+04  0.12318408973E+04  0.50400001928E-02 0.  1.
       -1   -1    0    0    0  501  0.00000000000E+00  0.00000000000E+00 -0.12668698464E+04  0.12668698464E+04  0.50400001928E-02 0. -1.
    10030    2    1    2    0    0  0.00000000000E+00  0.00000000000E+00 -0.35028949094E+02  0.24987107438E+04  0.24984651996E+04 0.  0.
        1    1    3    3  502    0 -0.71567692704E+03 -0.18146061244E+03  0.99028524529E+03  0.12352272199E+04  0.50400001928E-02 0.  1.
       -1    1    3    3    0  502  0.71567692704E+03  0.18146061244E+03 -0.10253141944E+04  0.12634835238E+04  0.50400001928E-02 0. -1.
</event>
<event>
 5   0  0.3805418E-07  0.2500456E+04  0.7818609E-02  0.8402823E-01
       -1   -1    0    0    0  501  0.00000000000E+00  0.00000000000E+00  0.97234735757E+03  0.97234735758E+03  0.50400001928E-02 0.  1.
        1   -1    0    0  501    0  0.00000000000E+00  0.00000000000E+00 -0.16075222970E+04  0.16075222970E+04  0.50400001928E-02 0. -1.
    10030    2    1    2    0    0  0.00000000000E+00  0.00000000000E+00 -0.63517493947E+03  0.25798696546E+04  0.25004560046E+04 0.  0.
        4    1    3    3  502    0  0.67554702734E+03  0.31605488781E+03 -0.13528563569E+04  0.15448224537E+04  0.12699999809E+01 0. -1.
       -4    1    3    3    0  502 -0.67554702734E+03 -0.31605488781E+03  0.71768141744E+03  0.10350472009E+04  0.12699999809E+01 0.  1.
</event>
<event>
 5   0  0.9508784E-07  0.2500059E+04  0.7818609E-02  0.8402965E-01
       -2   -1    0    0    0  501  0.00000000000E+00  0.00000000000E+00  0.60871871663E+03  0.60871871664E+03  0.25500000920E-02 0. -1.
        2   -1    0    0  501    0  0.00000000000E+00  0.00000000000E+00 -0.25669872388E+04  0.25669872388E+04  0.25500000920E-02 0.  1.
    10030    2    1    2    0    0  0.00000000000E+00  0.00000000000E+00 -0.19582685222E+04  0.31757059555E+04  0.25000585414E+04 0.  0.
        2    1    3    3  502    0 -0.64714015760E+03  0.32183964529E+03 -0.22746686789E+04  0.23867318114E+04  0.25500000920E-02 0.  1.
       -2    1    3    3    0  502  0.64714015760E+03 -0.32183964529E+03  0.31640015668E+03  0.78897414407E+03  0.25500000920E-02 0. -1.
</event>
<event>
 5   0  0.8997210E-07  0.2500518E+04  0.7818609E-02  0.8402801E-01
       -2   -1    0    0    0  501  0.00000000000E+00  0.00000000000E+00  0.56476146398E+03  0.56476146399E+03  0.25500000920E-02 0.  1.
        2   -1    0    0  501    0  0.00000000000E+00  0.00000000000E+00 -0.27678014445E+04  0.27678014445E+04  0.25500000920E-02 0. -1.
    10030    2    1    2    0    0  0.00000000000E+00  0.00000000000E+00 -0.22030399805E+04  0.33325629085E+04  0.25005180230E+04 0.  0.
        1    1    3    3  502    0 -0.60655782664E+03 -0.38608854331E+03  0.26164891677E+03  0.76513849465E+03  0.50400001928E-02 0.  1.
       -1    1    3    3    0  502  0.60655782664E+03  0.38608854331E+03 -0.24646888973E+04  0.25674244138E+04  0.50400001928E-02 0. -1.
</event>
<event>
 5   0  0.8997210E-07  0.2497708E+04  0.7818609E-02  0.8403802E-01
        2   -1    0    0  501    0  0.00000000000E+00  0.00000000000E+00  0.18353061617E+04  0.18353061617E+04  0.25500000920E-02 0. -1.
       -2   -1    0    0    0  501  0.00000000000E+00  0.00000000000E+00 -0.84979642864E+03  0.84979642864E+03  0.25500000920E-02 0.  1.
    10030    2    1    2    0    0  0.00000000000E+00  0.00000000000E+00  0.98550973311E+03  0.26851025904E+04  0.24977082469E+04 0.  0.
        1    1    3    3  502    0 -0.10714180717E+03 -0.10135534114E+04 -0.28310357140E+03  0.10577889755E+04  0.50400001928E-02 0.  1.
       -1    1    3    3    0  502  0.10714180717E+03  0.10135534114E+04  0.12686133045E+04  0.16273136148E+04  0.50400001928E-02 0. -1.
</event>
<event>
 5   0  0.3873231E-07  0.2497419E+04  0.7818609E-02  0.8403906E-01
       -1   -1    0    0    0  501  0.00000000000E+00  0.00000000000E+00  0.12647070180E+04  0.12647070181E+04  0.50400001928E-02 0.  1.
        1   -1    0    0  501    0  0.00000000000E+00  0.00000000000E+00 -0.12329145065E+04  0.12329145065E+04  0.50400001928E-02 0. -1.
    10030    2    1    2    0    0  0.00000000000E+00  0.00000000000E+00  0.31792511584E+02  0.24976215245E+04  0.24974191711E+04 0.  0.
        2    1    3    3  502    0  0.22828541053E+03  0.44841763278E+03  0.11588287500E+04  0.12633592814E+04  0.25500000920E-02 0.  1.
       -2    1    3    3    0  502 -0.22828541053E+03 -0.44841763278E+03 -0.11270362384E+04  0.12342622431E+04  0.25500000920E-02 0. -1.
</event>
<event>
 5   0  0.9251138E-07  0.2500037E+04  0.7818609E-02  0.8402972E-01
       -2   -1    0    0    0  501  0.00000000000E+00  0.00000000000E+00  0.87723139392E+03  0.87723139392E+03  0.25500000920E-02 0.  1.
        2   -1    0    0  501    0  0.00000000000E+00  0.00000000000E+00 -0.17812244051E+04  0.17812244051E+04  0.25500000920E-02 0. -1.
    10030    2    1    2    0    0  0.00000000000E+00  0.00000000000E+00 -0.90399301115E+03  0.26584557990E+04  0.25000367739E+04 0.  0.
        5    1    3    3  502    0  0.45387796513E+03  0.36624427915E+03  0.72367729313E+03  0.92944660623E+03  0.46999998093E+01 0.  1.
       -5    1    3    3    0  502 -0.45387796513E+03 -0.36624427915E+03 -0.16276703043E+04  0.17290091928E+04  0.46999998093E+01 0. -1.
</event>
<event>
 5   0  0.3805418E-07  0.2499445E+04  0.7818609E-02  0.8403183E-01
       -1   -1    0    0    0  501  0.00000000000E+00  0.00000000000E+00  0.11630789315E+04  0.11630789315E+04  0.50400001928E-02 0. -1.
        1   -1    0    0  501    0  0.00000000000E+00  0.00000000000E+00 -0.13428207658E+04  0.13428207658E+04  0.50400001928E-02 0.  1.
    10030    2    1    2    0    0  0.00000000000E+00  0.00000000000E+00 -0.17974183432E+03  0.25058996973E+04  0.24994451716E+04 0.  0.
        4    1    3    3  502    0 -0.11894647941E+04 -0.34719014179E+03  0.73144901299E+02  0.12412571371E+04  0.12699999809E+01 0. -1.
       -4    1    3    3    0  502  0.11894647941E+04  0.34719014179E+03 -0.25288673562E+03  0.12646425601E+04  0.12699999809E+01 0.  1.
</event>
<event>
 5   0  0.3991066E-07  0.2500528E+04  0.7818609E-02  0.8402797E-01
        1   -1    0    0  501    0  0.00000000000E+00  0.00000000000E+00  0.18932320294E+04  0.18932320294E+04  0.50400001928E-02 0.  1.
       -1   -1    0    0    0  501  0.00000000000E+00  0.00000000000E+00 -0.82565697716E+03  0.82565697718E+03  0.50400001928E-02 0. -1.
    10030    2    1    2    0    0  0.00000000000E+00  0.00000000000E+00  0.10675750522E+04  0.27188890065E+04  0.25005281318E+04 0.  0.
        1    1    3    3  502    0  0.54408706493E+03 -0.82649625275E+03  0.13647446063E+04  0.16857208044E+04  0.50400001928E-02 0.  1.
       -1    1    3    3    0  502 -0.54408706493E+03  0.82649625275E+03 -0.29716955407E+03  0.10331682021E+04  0.50400001928E-02 0. -1.
</event>
<event>
 5   0  0.3991066E-07  0.2499989E+04  0.7818609E-02  0.8402989E-01
       -1   -1    0    0    0  501  0.00000000000E+00  0.00000000000E+00  0.16243901882E+04  0.16243901883E+04  0.50400001928E-02 0. -1.
        1   -1    0    0  501    0  0.00000000000E+00  0.00000000000E+00 -0.96189118414E+03  0.96189118416E+03  0.50400001928E-02 0.  1.
    10030    2    1    2    0    0  0.00000000000E+00  0.00000000000E+00  0.66249900411E+03  0.25862813724E+04  0.24999892813E+04 0.  0.
        1    1    3    3  502    0  0.11530309244E+04  0.21540811052E+03  0.77813884918E+03  0.14076153720E+04  0.50400001928E-02 0. -1.
       -1    1    3    3    0  502 -0.11530309244E+04 -0.21540811052E+03 -0.11563984507E+03  0.11786660004E+04  0.50400001928E-02 0.  1.
</event>
<event>
 5   0  0.3873231E-07  0.2499166E+04  0.7818609E-02  0.8403283E-01
       -1   -1    0    0    0  501  0.00000000000E+00  0.00000000000E+00  0.58322957164E+03  0.58322957166E+03  0.50400001928E-02 0.  1.
        1   -1    0    0  501    0  0.00000000000E+00  0.00000000000E+00 -0.26772606615E+04  0.26772606615E+04  0.50400001928E-02 0. -1.
    10030    2    1    2    0    0  0.00000000000E+00  0.00000000000E+00 -0.20940310899E+04  0.32604902332E+04  0.24991659319E+04 0.  0.
        2    1    3    3  502    0 -0.11080884860E+04 -0.47118110356E+03 -0.14828207383E+04  0.19101384942E+04  0.25500000920E-02 0. -1.
       -2    1    3    3    0  502  0.11080884860E+04  0.47118110356E+03 -0.61121035154E+03  0.13503517390E+04  0.25500000920E-02 0.  1.
</event>
<event>
 5   0  0.3991066E-07  0.2502114E+04  0.7818609E-02  0.8402233E-01
       -1   -1    0    0    0  501  0.00000000000E+00  0.00000000000E+00  0.93631926269E+03  0.93631926270E+03  0.50400001928E-02 0.  1.
        1   -1    0    0  501    0  0.00000000000E+00  0.00000000000E+00 -0.16715916766E+04  0.16715916766E+04  0.50400001928E-02 0. -1.
    10030    2    1    2    0    0  0.00000000000E+00  0.00000000000E+00 -0.73527241390E+03  0.26079109393E+04  0.25021138952E+04 0.  0.
        1    1    3    3  502    0 -0.98644265400E+03 -0.58571004391E+03  0.15248092276E+03  0.11573140442E+04  0.50400001928E-02 0.  1.
       -1    1    3    3    0  502  0.98644265400E+03  0.58571004391E+03 -0.88775333667E+03  0.14505968951E+04  0.50400001928E-02 0. -1.
</event>
<event>
 5   0  0.8997210E-07  0.2499965E+04  0.7818609E-02  0.8402998E-01
       -2   -1    0    0    0  501  0.00000000000E+00  0.00000000000E+00  0.59256179888E+03  0.59256179889E+03  0.25500000920E-02 0.  1.
        2   -1    0    0  501    0  0.00000000000E+00  0.00000000000E+00 -0.26367817092E+04  0.26367817092E+04  0.25500000920E-02 0. -1.
    10030    2    1    2    0    0  0.00000000000E+00  0.00000000000E+00 -0.20442199103E+04  0.32293435081E+04  0.24999648901E+04 0.  0.
        1    1    3    3  502    0 -0.14282389030E+03 -0.12364219134E+04 -0.87303497817E+03  0.15203051946E+04  0.50400001928E-02 0. -1.
       -1    1    3    3    0  502  0.14282389030E+03  0.12364219134E+04 -0.11711849322E+04  0.17090383135E+04  0.50400001928E-02 0.  1.
</event>
<event>
 5   0  0.3972587E-07  0.2499933E+04  0.7818609E-02  0.8403009E-01
        1   -1    0    0  501    0  0.00000000000E+00  0.00000000000E+00  0.82704515725E+03  0.82704515726E+03  0.50400001928E-02 0.  1.
       -1   -1    0    0    0  501  0.00000000000E+00  0.00000000000E+00 -0.18891548334E+04  0.18891548334E+04  0.50400001928E-02 0. -1.
    10030    2    1    2    0    0  0.00000000000E+00  0.00000000000E+00 -0.10621096761E+04  0.27161999907E+04  0.24999330841E+04 0.  0.
        3    1    3    3  502    0  0.41920964395E+02 -0.37526646268E+03 -0.18257041789E+04  0.18643438643E+04  0.10100000352E+00 0. -1.
       -3    1    3    3    0  502 -0.41920964395E+02  0.37526646268E+03  0.76359450273E+03  0.85185612639E+03  0.10100000352E+00 0.  1.
</event>
<event>
 5   0  0.9261602E-07  0.2498882E+04  0.7818609E-02  0.8403384E-01
       -2   -1    0    0    0  501  0.00000000000E+00  0.00000000000E+00  0.16039523110E+04  0.16039523110E+04  0.25500000920E-02 0. -1.
        2   -1    0    0  501    0  0.00000000000E+00  0.00000000000E+00 -0.97328480647E+03  0.97328480647E+03  0.25500000920E-02 0.  1.
    10030    2    1    2    0    0  0.00000000000E+00  0.00000000000E+00  0.63066750451E+03  0.25772371175E+04  0.24988816815E+04 0.  0.
        4    1    3    3  502    0 -0.94292194581E+03  0.76428276562E+03  0.96086334693E+01  0.12138055365E+04  0.12699999809E+01 0. -1.
       -4    1    3    3    0  502  0.94292194581E+03 -0.76428276562E+03  0.62105887104E+03  0.13634315809E+04  0.12699999809E+01 0.  1.
</event>
<event>
 5   0  0.9768582E-07  0.2501158E+04  0.7818609E-02  0.8402573E-01
       -2   -1    0    0    0  501  0.00000000000E+00  0.00000000000E+00  0.69293452475E+03  0.69293452476E+03  0.25500000920E-02 0.  1.
        2   -1    0    0  501    0  0.00000000000E+00  0.00000000000E+00 -0.22569928089E+04  0.22569928089E+04  0.25500000920E-02 0. -1.
    10030    2    1    2    0    0  0.00000000000E+00  0.00000000000E+00 -0.15640582842E+04  0.29499273337E+04  0.25011583232E+04 0.  0.
        3    1    3    3  502    0  0.11056221644E+04 -0.38602446970E+03 -0.26451444607E+03  0.12005761800E+04  0.10100000352E+00 0.  1.
       -3    1    3    3    0  502 -0.11056221644E+04  0.38602446970E+03 -0.12995438381E+04  0.17493511537E+04  0.10100000352E+00 0. -1.
</event>
<event>
 5   0  0.9508784E-07  0.2514770E+04  0.7818609E-02  0.8397742E-01
       -2   -1    0    0    0  501  0.00000000000E+00  0.00000000000E+00  0.78138079128E+03  0.78138079129E+03  0.25500000920E-02 0. -1.
        2   -1    0    0  501    0  0.00000000000E+00  0.00000000000E+00 -0.20233634991E+04  0.20233634991E+04  0.25500000920E-02 0.  1.
    10030    2    1    2    0    0  0.00000000000E+00  0.00000000000E+00 -0.12419827078E+04  0.28047442904E+04  0.25147702654E+04 0.  0.
        2    1    3    3  502    0 -0.60084436309E+03 -0.91170857476E+03 -0.13164206795E+04  0.17103186485E+04  0.25500000920E-02 0.  1.
       -2    1    3    3    0  502  0.60084436309E+03  0.91170857476E+03  0.74437971718E+02  0.10944256419E+04  0.25500000920E-02 0. -1.
</event>
<event>
 5   0  0.3837524E-07  0.2500083E+04  0.7818609E-02  0.8402956E-01
       -1   -1    0    0    0  501  0.00000000000E+00  0.00000000000E+00  0.11342650881E+04  0.11342650881E+04  0.50400001928E-02 0. -1.
        1   -1    0    0  501    0  0.00000000000E+00  0.00000000000E+00 -0.13776356515E+04  0.13776356516E+04  0.50400001928E-02 0.  1.
    10030    2    1    2    0    0  0.00000000000E+00  0.00000000000E+00 -0.24337056342E+03  0.25119007397E+04  0.25000832176E+04 0.  0.
        5    1    3    3  502    0 -0.47649326133E+03 -0.45685146196E+03  0.94485148399E+03  0.11526168067E+04  0.46999998093E+01 0. -1.
       -5    1    3    3    0  502  0.47649326133E+03  0.45685146196E+03 -0.11882220474E+04  0.13592839329E+04  0.46999998093E+01 0.  1.
</event>
<event>
 5   0  0.3991066E-07  0.2499569E+04  0.7818609E-02  0.8403139E-01
       -1   -1    0    0    0  501  0.00000000000E+00  0.00000000000E+00  0.67220011495E+03  0.67220011497E+03  0.50400001928E-02 0.  1.
        1   -1    0    0  501    0  0.00000000000E+00  0.00000000000E+00 -0.23236559944E+04  0.23236559944E+04  0.50400001928E-02 0. -1.
    10030    2    1    2    0    0  0.00000000000E+00  0.00000000000E+00 -0.16514558795E+04  0.29958561094E+04  0.24995694242E+04 0.  0.
        1    1    3    3  502    0 -0.11532386568E+04 -0.26190594856E+03 -0.34122991917E+03  0.12308501059E+04  0.50400001928E-02 0.  1.
       -1    1    3    3    0  502  0.11532386568E+04  0.26190594856E+03 -0.13102259603E+04  0.17650060035E+04  0.50400001928E-02 0. -1.
</event>
<event>
 5   0  0.9261602E-07  0.2499819E+04  0.7818609E-02  0.8403050E-01
       -2   -1    0    0    0  501  0.00000000000E+00  0.00000000000E+00  0.79061341925E+03  0.79061341925E+03  0.25500000920E-02 0. -1.
        2   -1    0    0  501    0  0.00000000000E+00  0.00000000000E+00 -0.19760272906E+04  0.19760272906E+04  0.25500000920E-02 0.  1.
    10030    2    1    2    0    0  0.00000000000E+00  0.00000000000E+00 -0.11854138714E+04  0.27666407099E+04  0.24998189476E+04 0.  0.
        4    1    3    3  502    0  0.14819149855E+03 -0.10591859153E+04  0.12320403439E+03  0.10765762260E+04  0.12699999809E+01 0. -1.
       -4    1    3    3    0  502 -0.14819149855E+03  0.10591859153E+04 -0.13086179057E+04  0.16900644838E+04  0.12699999809E+01 0.  1.
</event>
<event>
 5   0  0.9261602E-07  0.2502028E+04  0.7818609E-02  0.8402263E-01
       -2   -1    0    0    0  501  0.00000000000E+00  0.00000000000E+00  0.19018066251E+04  0.19018066251E+04  0.25500000920E-02 0. -1.
        2   -1    0    0  501    0  0.00000000000E+00  0.00000000000E+00 -0.82292096378E+03  0.82292096378E+03  0.25500000920E-02 0.  1.
    10030    2    1    2    0    0  0.00000000000E+00  0.00000000000E+00  0.10788856613E+04  0.27247275889E+04  0.25020284098E+04 0.  0.
        4    1    3    3  502    0 -0.62398160916E+03 -0.10823183947E+04  0.61059404721E+03  0.13905368961E+04  0.12699999809E+01 0.  1.
       -4    1    3    3    0  502  0.62398160916E+03  0.10823183947E+04  0.46829161414E+03  0.13341906928E+04  0.12699999809E+01 0. -1.
</event>
<event>
 5   0  0.9251138E-07  0.2500831E+04  0.7818609E-02  0.8402690E-01
        2   -1    0    0  501    0  0.00000000000E+00  0.00000000000E+00  0.18081260725E+04  0.18081260725E+04  0.25500000920E-02 0. -1.
       -2   -1    0    0    0  501  0.00000000000E+00  0.00000000000E+00 -0.86472901452E+03  0.86472901453E+03  0.25500000920E-02 0.  1.
    10030    2    1    2    0    0  0.00000000000E+00  0.00000000000E+00  0.94339705797E+03  0.26728550870E+04  0.25008311233E+04 0.  0.
        5    1    3    3  502    0 -0.85275447532E+03 -0.85621536494E+02 -0.50142326333E+03  0.99295952672E+03  0.46999998093E+01 0.  1.
       -5    1    3    3    0  502  0.85275447532E+03  0.85621536494E+02  0.14448203213E+04  0.16798955603E+04  0.46999998093E+01 0. -1.
</event>
<event>
 5   0  0.9768582E-07  0.2499827E+04  0.7818609E-02  0.8403047E-01
        2   -1    0    0  501    0  0.00000000000E+00  0.00000000000E+00  0.18152385760E+04  0.18152385760E+04  0.25500000920E-02 0.  1.
       -2   -1    0    0    0  501  0.00000000000E+00  0.00000000000E+00 -0.86064931425E+03  0.86064931426E+03  0.25500000920E-02 0. -1.
    10030    2    1    2    0    0  0.00000000000E+00  0.00000000000E+00  0.95458926176E+03  0.26758878903E+04  0.24998270625E+04 0.  0.
        3    1    3    3  502    0  0.84699410202E+03  0.30832650637E+03  0.14042020064E+04  0.16686064630E+04  0.10100000352E+00 0.  1.
       -3    1    3    3    0  502 -0.84699410202E+03 -0.30832650637E+03 -0.44961274464E+03  0.10072814273E+04  0.10100000352E+00 0. -1.
</event>
<event>
 5   0  0.9261602E-07  0.2500220E+04  0.7818609E-02  0.8402907E-01
        2   -1    0    0  501    0  0.00000000000E+00  0.00000000000E+00  0.11690430292E+04  0.11690430292E+04  0.25500000920E-02 0.  1.
       -2   -1    0    0    0  501  0.00000000000E+00  0.00000000000E+00 -0.13367985890E+04  0.13367985890E+04  0.25500000920E-02 0. -1.
    10030    2    1    2    0    0  0.00000000000E+00  0.00000000000E+00 -0.16775555977E+03  0.25058416181E+04  0.25002200478E+04 0.  0.
        4    1    3    3  502    0 -0.53047089121E+03 -0.49147645412E+03  0.93813307731E+03  0.11845014795E+04  0.12699999809E+01 0.  1.
       -4    1    3    3    0  502  0.53047089121E+03  0.49147645412E+03 -0.11058886371E+04  0.13213401386E+04  0.12699999809E+01 0. -1.
</event>
<event>
 5   0  0.3837524E-07  0.2499864E+04  0.7818609E-02  0.8403034E-01
        1   -1    0    0  501    0  0.00000000000E+00  0.00000000000E+00  0.12552319620E+04  0.12552319620E+04  0.50400001928E-02 0. -1.
       -1   -1    0    0    0  501  0.00000000000E+00  0.00000000000E+00 -0.12446544481E+04  0.12446544481E+04  0.50400001928E-02 0.  1.
    10030    2    1    2    0    0  0.00000000000E+00  0.00000000000E+00  0.10577513958E+02  0.24998864101E+04  0.24998640323E+04 0.  0.
        5    1    3    3  502    0  0.17879294763E+02  0.10215767599E+04 -0.71469630536E+03  0.12468968058E+04  0.46999998093E+01 0.  1.
       -5    1    3    3    0  502 -0.17879294763E+02 -0.10215767599E+04  0.72527381932E+03  0.12529896043E+04  0.46999998093E+01 0. -1.
</event>
<event>
 5   0  0.3873231E-07  0.2500325E+04  0.7818609E-02  0.8402870E-01
        1   -1    0    0  501    0  0.00000000000E+00  0.00000000000E+00  0.17816354330E+04  0.17816354330E+04  0.50400001928E-02 0. -1.
       -1   -1    0    0    0  501  0.00000000000E+00  0.00000000000E+00 -0.87723096515E+03  0.87723096516E+03  0.50400001928E-02 0.  1.
    10030    2    1    2    0    0  0.00000000000E+00  0.00000000000E+00  0.90440446782E+03  0.26588663981E+04  0.25003245953E+04 0.  0.
        2    1    3    3  502    0  0.22103930474E+03  0.54937023565E+03  0.16230336882E+04  0.17276875826E+04  0.25500000920E-02 0. -1.
       -2    1    3    3    0  502 -0.22103930474E+03 -0.54937023565E+03 -0.71862922039E+03  0.93117881552E+03  0.25500000920E-02 0.  1.
</event>
<event>
 5   0  0.9261602E-07  0.2500218E+04  0.7818609E-02  0.8402908E-01
        2   -1    0    0  501    0  0.00000000000E+00  0.00000000000E+00  0.98003524085E+03  0.98003524085E+03  0.25500000920E-02 0.  1.
       -2   -1    0    0    0  501  0.00000000000E+00  0.00000000000E+00 -0.15946090685E+04  0.15946090685E+04  0.25500000920E-02 0. -1.
    10030    2    1    2    0    0  0.00000000000E+00  0.00000000000E+00 -0.61457382763E+03  0.25746443093E+04  0.25002184565E+04 0.  0.
        4    1    3    3  502    0 -0.30181354089E+03 -0.88095165752E+03 -0.11661429860E+04  0.14923331777E+04  0.12699999809E+01 0. -1.
       -4    1    3    3    0  502  0.30181354089E+03  0.88095165752E+03  0.55156915840E+03  0.10823111317E+04  0.12699999809E+01 0.  1.
</event>
<event>
 5   0  0.9768582E-07  0.2501063E+04  0.7818609E-02  0.8402607E-01
       -2   -1    0    0    0  501  0.00000000000E+00  0.00000000000E+00  0.89420184925E+03  0.89420184925E+03  0.25500000920E-02 0. -1.
        2   -1    0    0  501    0  0.00000000000E+00  0.00000000000E+00 -0.17488543420E+04  0.17488543420E+04  0.25500000920E-02 0.  1.
    10030    2    1    2    0    0  0.00000000000E+00  0.00000000000E+00 -0.85465249280E+03  0.26430561913E+04  0.25010628035E+04 0.  0.
        3    1    3    3  502    0  0.25574947821E+03 -0.64065449116E+03  0.67495600499E+03  0.96509667470E+03  0.10100000352E+00 0. -1.
       -3    1    3    3    0  502 -0.25574947821E+03  0.64065449116E+03 -0.15296084978E+04  0.16779595166E+04  0.10100000352E+00 0.  1.
</event>
<event>
 5   0  0.3214375E-07  0.2499590E+04  0.7818609E-02  0.8403132E-01
       -3   -1    0    0    0  501  0.00000000000E+00  0.00000000000E+00  0.11517847580E+04  0.11517847624E+04  0.10100000352E+00 0. -1.
        3   -1    0    0  501    0  0.00000000000E+00  0.00000000000E+00 -0.13561455030E+04  0.13561455068E+04  0.10100000352E+00 0.  1.
    10030    2    1    2    0    0  0.00000000000E+00  0.00000000000E+00 -0.20436074506E+03  0.25079302692E+04  0.24995901506E+04 0.  0.
        4    1    3    3  502    0  0.35849975780E+03 -0.11914175099E+04 -0.22084738887E+03  0.12636348133E+04  0.12699999809E+01 0. -1.
       -4    1    3    3    0  502 -0.35849975780E+03  0.11914175099E+04  0.16486643803E+02  0.12442954559E+04  0.12699999809E+01 0.  1.
</event>
<event>
 5   0  0.9508784E-07  0.2500488E+04  0.7818609E-02  0.8402812E-01
       -2   -1    0    0    0  501  0.00000000000E+00  0.00000000000E+00  0.10770774734E+04  0.10770774734E+04  0.25500000920E-02 0. -1.
        2   -1    0    0  501    0  0.00000000000E+00  0.00000000000E+00 -0.14512510390E+04  0.14512510390E+04  0.25500000920E-02 0.  1.
    10030    2    1    2    0    0  0.00000000000E+00  0.00000000000E+00 -0.37417356558E+03  0.25283285123E+04  0.25004877942E+04 0.  0.
        2    1    3    3  502    0  0.42861487521E+03  0.39366430162E+03  0.93177206977E+03  0.10985815781E+04  0.25500000920E-02 0. -1.
       -2    1    3    3    0  502 -0.42861487521E+03 -0.39366430162E+03 -0.13059456354E+04  0.14297469343E+04  0.25500000920E-02 0.  1.
</event>
<event>
 5   0  0.9261602E-07  0.2497867E+04  0.7818609E-02  0.8403746E-01
        2   -1    0    0  501    0  0.00000000000E+00  0.00000000000E+00  0.14258378025E+04  0.14258378025E+04  0.25500000920E-02 0.  1.
       -2   -1    0    0    0  501  0.00000000000E+00  0.00000000000E+00 -0.10939779810E+04  0.10939779810E+04  0.25500000920E-02 0. -1.
    10030    2    1    2    0    0  0.00000000000E+00  0.00000000000E+00  0.33185982152E+03  0.25198157835E+04  0.24978672186E+04 0.  0.
        4    1    3    3  502    0 -0.37229428216E+03 -0.10281695150E+04  0.77463729237E+03  0.13400746739E+04  0.12699999809E+01 0.  1.
       -4    1    3    3    0  502  0.37229428216E+03  0.10281695150E+04 -0.44277747085E+03  0.11797411096E+04  0.12699999809E+01 0. -1.
</event>
<event>
 5   0  0.3991066E-07  0.2499933E+04  0.7818609E-02  0.8403009E-01
       -1   -1    0    0    0  501  0.00000000000E+00  0.00000000000E+00  0.26031638734E+04  0.26031638734E+04  0.50400001928E-02 0.  1.
        1   -1    0    0  501    0  0.00000000000E+00  0.00000000000E+00 -0.60019918861E+03  0.60019918863E+03  0.50400001928E-02 0. -1.
    10030    2    1    2    0    0  0.00000000000E+00  0.00000000000E+00  0.20029646848E+04  0.32033630620E+04  0.24999334748E+04 0.  0.
        1    1    3    3  502    0  0.68910810833E+03  0.73648502266E+03  0.19475678946E+04  0.21932398131E+04  0.50400001928E-02 0.  1.
       -1    1    3    3    0  502 -0.68910810833E+03 -0.73648502266E+03  0.55396790136E+02  0.10101232489E+04  0.50400001928E-02 0. -1.
</event>
<event>
 5   0  0.9508784E-07  0.2499440E+04  0.7818609E-02  0.8403185E-01
       -2   -1    0    0    0  501  0.00000000000E+00  0.00000000000E+00  0.98682869176E+03  0.98682869176E+03  0.25500000920E-02 0. -1.
        2   -1    0    0  501    0  0.00000000000E+00  0.00000000000E+00 -0.15826455553E+04  0.15826455553E+04  0.25500000920E-02 0.  1.
    10030    2    1    2    0    0  0.00000000000E+00  0.00000000000E+00 -0.59581686357E+03  0.25694742471E+04  0.24994399716E+04 0.  0.
        2    1    3    3  502    0  0.27567205485E+03 -0.11622916077E+04  0.79646768112E+02  0.11971885695E+04  0.25500000920E-02 0.  1.
       -2    1    3    3    0  502 -0.27567205485E+03  0.11622916077E+04 -0.67546363168E+03  0.13722856776E+04  0.25500000920E-02 0. -1.
</event>
<event>
 5   0  0.3837524E-07  0.2500011E+04  0.7818609E-02  0.8402982E-01
        1   -1    0    0  501    0  0.00000000000E+00  0.00000000000E+00  0.14292874020E+04  0.14292874020E+04  0.50400001928E-02 0.  1.
       -1   -1    0    0    0  501  0.00000000000E+00  0.00000000000E+00 -0.10932120003E+04  0.10932120003E+04  0.50400001928E-02 0. -1.
    10030    2    1    2    0    0  0.00000000000E+00  0.00000000000E+00  0.33607540171E+03  0.25224994022E+04  0.25000113117E+04 0.  0.
        5    1    3    3  502    0 -0.74006850587E+03 -0.66410948055E+02 -0.84618078220E+03  0.11261242443E+04  0.46999998093E+01 0. -1.
       -5    1    3    3    0  502  0.74006850587E+03  0.66410948055E+02  0.11822561839E+04  0.13963751580E+04  0.46999998093E+01 0.  1.
</event>
<event>
 5   0  0.3972587E-07  0.2497383E+04  0.7818609E-02  0.8403918E-01
        1   -1    0    0  501    0  0.00000000000E+00  0.00000000000E+00  0.24570393662E+04  0.24570393662E+04  0.50400001928E-02 0. -1.
       -1   -1    0    0    0  501  0.00000000000E+00  0.00000000000E+00 -0.63459725712E+03  0.63459725714E+03  0.50400001928E-02 0.  1.
    10030    2    1    2    0    0  0.00000000000E+00  0.00000000000E+00  0.18224421091E+04  0.30916366233E+04  0.24973829842E+04 0.  0.
        3    1    3    3  502    0  0.12058974147E+02  0.55073591001E+03  0.22984853420E+04  0.23635757527E+04  0.10100000352E+00 0. -1.
       -3    1    3    3    0  502 -0.12058974147E+02 -0.55073591001E+03 -0.47604323294E+03  0.72806087057E+03  0.10100000352E+00 0.  1.
</event>
<event>
 5   0  0.9251138E-07  0.2499306E+04  0.7818609E-02  0.8403233E-01
       -2   -1    0    0    0  501  0.00000000000E+00  0.00000000000E+00  0.87323389348E+03  0.87323389349E+03  0.25500000920E-02 0.  1.
        2   -1    0    0  501    0  0.00000000000E+00  0.00000000000E+00 -0.17883326758E+04  0.17883326758E+04  0.25500000920E-02 0. -1.
    10030    2    1    2    0    0  0.00000000000E+00  0.00000000000E+00 -0.91509878229E+03  0.26615665693E+04  0.24993060679E+04 0.  0.
        5    1    3    3  502    0  0.40357913492E+03  0.10281678152E+04  0.16486593636E+03  0.11167846889E+04  0.46999998093E+01 0.  1.
       -5    1    3    3    0  502 -0.40357913492E+03 -0.10281678152E+04 -0.10799647187E+04  0.15447818804E+04  0.46999998093E+01 0. -1.
</event>
<event>
 5   0  0.3837524E-07  0.2497221E+04  0.7818609E-02  0.8403976E-01
       -1   -1    0    0    0  501  0.00000000000E+00  0.00000000000E+00  0.16669901830E+04  0.16669901830E+04  0.50400001928E-02 0. -1.
        1   -1    0    0  501    0  0.00000000000E+00  0.00000000000E+00 -0.93523540306E+03  0.93523540307E+03  0.50400001928E-02 0.  1.
    10030    2    1    2    0    0  0.00000000000E+00  0.00000000000E+00  0.73175477990E+03  0.26022255860E+04  0.24972210440E+04 0.  0.
        5    1    3    3  502    0  0.30265043745E+02  0.89684358615E+03  0.12705782551E+04  0.15555177862E+04  0.46999998093E+01 0. -1.
       -5    1    3    3    0  502 -0.30265043745E+02 -0.89684358615E+03 -0.53882347517E+03  0.10467077999E+04  0.46999998093E+01 0.  1.
</event>
<event>
 5   0  0.9768582E-07  0.2500504E+04  0.7818609E-02  0.8402806E-01
       -2   -1    0    0    0  501  0.00000000000E+00  0.00000000000E+00  0.10788206234E+04  0.10788206234E+04  0.25500000920E-02 0. -1.
        2   -1    0    0  501    0  0.00000000000E+00  0.00000000000E+00 -0.14489252750E+04  0.14489252750E+04  0.25500000920E-02 0.  1.
    10030    2    1    2    0    0  0.00000000000E+00  0.00000000000E+00 -0.37010465155E+03  0.25277458984E+04  0.25005043239E+04 0.  0.
        3    1    3    3  502    0  0.74486145336E+03 -0.42096443809E+03  0.73652686260E+03  0.11289382057E+04  0.10100000352E+00 0. -1.
       -3    1    3    3    0  502 -0.74486145336E+03  0.42096443809E+03 -0.11066315141E+04  0.13988076927E+04  0.10100000352E+00 0.  1.
</event>
<event>
 5   0  0.3991066E-07  0.2499370E+04  0.7818609E-02  0.8403210E-01
       -1   -1    0    0    0  501  0.00000000000E+00  0.00000000000E+00  0.88805864281E+03  0.88805864282E+03  0.50400001928E-02 0. -1.
        1   -1    0    0  501    0  0.00000000000E+00  0.00000000000E+00 -0.17585689176E+04  0.17585689176E+04  0.50400001928E-02 0.  1.
    10030    2    1    2    0    0  0.00000000000E+00  0.00000000000E+00 -0.87051027475E+03  0.26466275604E+04  0.24993697816E+04 0.  0.
        1    1    3    3  502    0  0.41493139652E+03 -0.10434928411E+04  0.14538247380E+03  0.11323345076E+04  0.50400001928E-02 0. -1.
       -1    1    3    3    0  502 -0.41493139652E+03  0.10434928411E+04 -0.10158927486E+04  0.15142930528E+04  0.50400001928E-02 0.  1.
</event>
<event>
 5   0  0.3837524E-07  0.2501175E+04  0.7818609E-02  0.8402567E-01
       -1   -1    0    0    0  501  0.00000000000E+00  0.00000000000E+00  0.63435232125E+03  0.63435232127E+03  0.50400001928E-02 0. -1.
        1   -1    0    0  501    0  0.00000000000E+00  0.00000000000E+00 -0.24654580348E+04  0.24654580348E+04  0.50400001928E-02 0.  1.
    10030    2    1    2    0    0  0.00000000000E+00  0.00000000000E+00 -0.18311057136E+04  0.30998103561E+04  0.25011749458E+04 0.  0.
        5    1    3    3  502    0  0.23126060497E+03  0.45922173250E+03 -0.23283919722E+04  0.23844910008E+04  0.46999998093E+01 0.  1.
       -5    1    3    3    0  502 -0.23126060497E+03 -0.45922173250E+03  0.49728625860E+03  0.71531935525E+03  0.46999998093E+01 0. -1.
</event>
<event>
 5   0  0.9768582E-07  0.2500690E+04  0.7818609E-02  0.8402740E-01
       -2   -1    0    0    0  501  0.00000000000E+00  0.00000000000E+00  0.78936371396E+03  0.78936371396E+03  0.25500000920E-02 0.  1.
        2   -1    0    0  501    0  0.00000000000E+00  0.00000000000E+00 -0.19805346149E+04  0.19805346149E+04  0.25500000920E-02 0. -1.
    10030    2    1    2    0    0  0.00000000000E+00  0.00000000000E+00 -0.11911709009E+04  0.27698983289E+04  0.25006896323E+04 0.  0.
        3    1    3    3  502    0  0.35487412608E+03 -0.13629988351E+03 -0.19149721456E+04  0.19523400401E+04  0.10100000352E+00 0. -1.
       -3    1    3    3    0  502 -0.35487412608E+03  0.13629988351E+03  0.72380124464E+03  0.81755828877E+03  0.10100000352E+00 0.  1.
</event>
<event>
 5   0  0.9251138E-07  0.2500194E+04  0.7818609E-02  0.8402916E-01
       -2   -1    0    0    0  501  0.00000000000E+00  0.00000000000E+00  0.81294519925E+03  0.81294519925E+03  0.25500000920E-02 0. -1.
        2   -1    0    0  501    0  0.00000000000E+00  0.00000000000E+00 -0.19223222584E+04  0.19223222584E+04  0.25500000920E-02 0.  1.
    10030    2    1    2    0    0  0.00000000000E+00  0.00000000000E+00 -0.11093770591E+04  0.27352674576E+04  0.25001941135E+04 0.  0.
        5    1    3    3  502    0  0.80870510007E+03 -0.94974791318E+03 -0.46516888440E+03  0.13313261127E+04  0.46999998093E+01 0.  1.
       -5    1    3    3    0  502 -0.80870510007E+03  0.94974791318E+03 -0.64420817472E+03  0.14039413449E+04  0.46999998093E+01 0. -1.
</event>
<event>
 5   0  0.9251138E-07  0.2501301E+04  0.7818609E-02  0.8402522E-01
        2   -1    0    0  501    0  0.00000000000E+00  0.00000000000E+00  0.12699491910E+04  0.12699491910E+04  0.25500000920E-02 0. -1.
       -2   -1    0    0    0  501  0.00000000000E+00  0.00000000000E+00 -0.12316446530E+04  0.12316446530E+04  0.25500000920E-02 0.  1.
    10030    2    1    2    0    0  0.00000000000E+00  0.00000000000E+00  0.38304538007E+02  0.25015938439E+04  0.25013005662E+04 0.  0.
        5    1    3    3  502    0  0.26633174749E+03 -0.15865385589E+03  0.12309049919E+04  0.12693513441E+04  0.46999998093E+01 0. -1.
       -5    1    3    3    0  502 -0.26633174749E+03  0.15865385589E+03 -0.11926004539E+04  0.12322424998E+04  0.46999998093E+01 0.  1.
</event>
<event>
 5   0  0.3805418E-07  0.2502316E+04  0.7818609E-02  0.8402161E-01
        1   -1    0    0  501    0  0.00000000000E+00  0.00000000000E+00  0.16708271598E+04  0.16708271598E+04  0.50400001928E-02 0. -1.
       -1   -1    0    0    0  501  0.00000000000E+00  0.00000000000E+00 -0.93689866485E+03  0.93689866486E+03  0.50400001928E-02 0.  1.
    10030    2    1    2    0    0  0.00000000000E+00  0.00000000000E+00  0.73392849494E+03  0.26077258247E+04  0.25023155159E+04 0.  0.
        4    1    3    3  502    0 -0.21060696343E+02  0.83936058723E+03  0.13336297304E+04  0.15759250042E+04  0.12699999809E+01 0. -1.
       -4    1    3    3    0  502  0.21060696343E+02 -0.83936058723E+03 -0.59970123544E+03  0.10318008204E+04  0.12699999809E+01 0.  1.
</event>
<event>
 5   0  0.3837524E-07  0.2500239E+04  0.7818609E-02  0.8402901E-01
        1   -1    0    0  501    0  0.00000000000E+00  0.00000000000E+00  0.12964145568E+04  0.12964145568E+04  0.50400001928E-02 0.  1.
       -1   -1    0    0    0  501  0.00000000000E+00  0.00000000000E+00 -0.12054773133E+04  0.12054773133E+04  0.50400001928E-02 0. -1.
    10030    2    1    2    0    0  0.00000000000E+00  0.00000000000E+00  0.90937243495E+02  0.25018918701E+04  0.25002386581E+04 0.  0.
        5    1    3    3  502    0 -0.10202192147E+04  0.34502589378E+03 -0.58968419729E+03  0.12278597868E+04  0.46999998093E+01 0. -1.
       -5    1    3    3    0  502  0.10202192147E+04 -0.34502589378E+03  0.68062144079E+03  0.12740320833E+04  0.46999998093E+01 0.  1.
</event>
<event>
 5   0  0.3805418E-07  0.2501164E+04  0.7818609E-02  0.8402571E-01
       -1   -1    0    0    0  501  0.00000000000E+00  0.00000000000E+00  0.11692989279E+04  0.11692989279E+04  0.50400001928E-02 0. -1.
        1   -1    0    0  501    0  0.00000000000E+00  0.00000000000E+00 -0.13375150615E+04  0.13375150615E+04  0.50400001928E-02 0.  1.
    10030    2    1    2    0    0  0.00000000000E+00  0.00000000000E+00 -0.16821613364E+03  0.25068139894E+04  0.25011636712E+04 0.  0.
        4    1    3    3  502    0  0.10138292543E+03  0.11520964077E+04 -0.56094401052E+03  0.12854043823E+04  0.12699999809E+01 0.  1.
       -4    1    3    3    0  502 -0.10138292543E+03 -0.11520964077E+04  0.39272787687E+03  0.12214096071E+04  0.12699999809E+01 0. -1.
</event>
<event>
 5   0  0.3972587E-07  0.2499846E+04  0.7818609E-02  0.8403041E-01
       -1   -1    0    0    0  501  0.00000000000E+00  0.00000000000E+00  0.14509780776E+04  0.14509780776E+04  0.50400001928E-02 0. -1.
        1   -1    0    0  501    0  0.00000000000E+00  0.00000000000E+00 -0.10767268957E+04  0.10767268957E+04  0.50400001928E-02 0.  1.
    10030    2    1    2    0    0  0.00000000000E+00  0.00000000000E+00  0.37425118193E+03  0.25277049734E+04  0.24998456923E+04 0.  0.
        3    1    3    3  502    0 -0.73227724125E+03 -0.82423518599E+03  0.78251151668E+03  0.13520051345E+04  0.10100000352E+00 0. -1.
       -3    1    3    3    0  502  0.73227724125E+03  0.82423518599E+03 -0.40826033475E+03  0.11756998388E+04  0.10100000352E+00 0.  1.
</event>
<event>
 5   0  0.3805418E-07  0.2492506E+04  0.7818609E-02  0.8405660E-01
       -1   -1    0    0    0  501  0.00000000000E+00  0.00000000000E+00  0.89670935937E+03  0.89670935938E+03  0.50400001928E-02 0.  1.
        1   -1    0    0  501    0  0.00000000000E+00  0.00000000000E+00 -0.17320507061E+04  0.17320507061E+04  0.50400001928E-02 0. -1.
    10030    2    1    2    0    0  0.00000000000E+00  0.00000000000E+00 -0.83534134671E+03  0.26287600655E+04  0.24925056301E+04 0.  0.
        4    1    3    3  502    0 -0.89345332709E+02  0.63601623887E+02 -0.17269507688E+04  0.17304300985E+04  0.12699999809E+01 0. -1.
       -4    1    3    3    0  502  0.89345332709E+02 -0.63601623887E+02  0.89160942210E+03  0.89832996695E+03  0.12699999809E+01 0.  1.
</event>
<event>
 5   0  0.9768582E-07  0.2499827E+04  0.7818609E-02  0.8403047E-01
       -2   -1    0    0    0  501  0.00000000000E+00  0.00000000000E+00  0.96391277818E+03  0.96391277819E+03  0.25500000920E-02 0.  1.
        2   -1    0    0  501    0  0.00000000000E+00  0.00000000000E+00 -0.16207735608E+04  0.16207735608E+04  0.25500000920E-02 0. -1.
    10030    2    1    2    0    0  0.00000000000E+00  0.00000000000E+00 -0.65686078258E+03  0.25846863390E+04  0.24998274707E+04 0.  0.
        3    1    3    3  502    0 -0.11402505613E+04  0.46703153363E+03 -0.11156152939E+03  0.12372290737E+04  0.10100000352E+00 0. -1.
       -3    1    3    3    0  502  0.11402505613E+04 -0.46703153363E+03 -0.54529925319E+03  0.13474572652E+04  0.10100000352E+00 0.  1.
</event>
<event>
 5   0  0.9251138E-07  0.2499658E+04  0.7818609E-02  0.8403108E-01
        2   -1    0    0  501    0  0.00000000000E+00  0.00000000000E+00  0.18499113981E+04  0.18499113981E+04  0.25500000920E-02 0. -1.
       -2   -1    0    0    0  501  0.00000000000E+00  0.00000000000E+00 -0.84440367154E+03  0.84440367155E+03  0.25500000920E-02 0.  1.
    10030    2    1    2    0    0  0.00000000000E+00  0.00000000000E+00  0.10055077266E+04  0.26943150697E+04  0.24996575578E+04 0.  0.
        5    1    3    3  502    0  0.10795024097E+04  0.51532015707E+03  0.11237669365E+03  0.12014703193E+04  0.46999998093E+01 0.  1.
       -5    1    3    3    0  502 -0.10795024097E+04 -0.51532015707E+03  0.89313103295E+03  0.14928447504E+04  0.46999998093E+01 0. -1.
</event>
<event>
 5   0  0.9251138E-07  0.2500756E+04  0.7818609E-02  0.8402716E-01
       -2   -1    0    0    0  501  0.00000000000E+00  0.00000000000E+00  0.13874606822E+04  0.13874606822E+04  0.25500000920E-02 0.  1.
        2   -1    0    0  501    0  0.00000000000E+00  0.00000000000E+00 -0.11268396169E+04  0.11268396169E+04  0.25500000920E-02 0. -1.
    10030    2    1    2    0    0  0.00000000000E+00  0.00000000000E+00  0.26062106528E+03  0.25143002991E+04  0.25007564165E+04 0.  0.
        5    1    3    3  502    0  0.74750740778E+03 -0.77806157547E+03  0.76561600191E+03  0.13230030583E+04  0.46999998093E+01 0.  1.
       -5    1    3    3    0  502 -0.74750740778E+03  0.77806157547E+03 -0.50499493663E+03  0.11912972408E+04  0.46999998093E+01 0. -1.
</event>
<event>
 5   0  0.3991066E-07  0.2500113E+04  0.7818609E-02  0.8402945E-01
        1   -1    0    0  501    0  0.00000000000E+00  0.00000000000E+00  0.23419350702E+04  0.23419350703E+04  0.50400001928E-02 0.  1.
       -1   -1    0    0    0  501  0.00000000000E+00  0.00000000000E+00 -0.66724363865E+03  0.66724363867E+03  0.50400001928E-02 0. -1.
    10030    2    1    2    0    0  0.00000000000E+00  0.00000000000E+00  0.16746914316E+04  0.30091787089E+04  0.25001130197E+04 0.  0.
        1    1    3    3  502    0 -0.42430933231E+02  0.32577551268E+03 -0.61435379747E+03  0.69667830255E+03  0.50400001928E-02 0. -1.
       -1    1    3    3    0  502  0.42430933231E+02 -0.32577551268E+03  0.22890452291E+04  0.23125004064E+04  0.50400001928E-02 0.  1.
</event>
<event>
 5   0  0.8997210E-07  0.2500304E+04  0.7818609E-02  0.8402877E-01
        2   -1    0    0  501    0  0.00000000000E+00  0.00000000000E+00  0.12857208537E+04  0.12857208537E+04  0.25500000920E-02 0. -1.
       -2   -1    0    0    0  501  0.00000000000E+00  0.00000000000E+00 -0.12155667882E+04  0.12155667882E+04  0.25500000920E-02 0.  1.
    10030    2    1    2    0    0  0.00000000000E+00  0.00000000000E+00  0.70154065526E+02  0.25012876419E+04  0.25003036365E+04 0.  0.
        1    1    3    3  502    0  0.10838618837E+04 -0.54045025262E+03  0.34509657450E+03  0.12593389949E+04  0.50400001928E-02 0. -1.
       -1    1    3    3    0  502 -0.10838618837E+04  0.54045025262E+03 -0.27494250898E+03  0.12419486470E+04  0.50400001928E-02 0.  1.
</event>
<event>
 5   0  0.8997210E-07  0.2499294E+04  0.7818609E-02  0.8403237E-01
        2   -1    0    0  501    0  0.00000000000E+00  0.00000000000E+00  0.12019474268E+04  0.12019474268E+04  0.25500000920E-02 0. -1.
       -2   -1    0    0    0  501  0.00000000000E+00  0.00000000000E+00 -0.12992400086E+04  0.12992400086E+04  0.25500000920E-02 0.  1.
    10030    2    1    2    0    0  0.00000000000E+00  0.00000000000E+00 -0.97292581841E+02  0.25011874354E+04  0.24992944485E+04 0.  0.
        1    1    3    3  502    0  0.12243636999E+04  0.24676889853E+03 -0.79113330069E+01  0.12490091866E+04  0.50400001928E-02 0.  1.
       -1    1    3    3    0  502 -0.12243636999E+04 -0.24676889853E+03 -0.89381248834E+02  0.12521782488E+04  0.50400001928E-02 0. -1.
</event>
<event>
 5   0  0.3972587E-07  0.2500988E+04  0.7818609E-02  0.8402634E-01
        1   -1    0    0  501    0  0.00000000000E+00  0.00000000000E+00  0.13479104448E+04  0.13479104448E+04  0.50400001928E-02 0.  1.
       -1   -1    0    0    0  501  0.00000000000E+00  0.00000000000E+00 -0.11601180977E+04  0.11601180977E+04  0.50400001928E-02 0. -1.
    10030    2    1    2    0    0  0.00000000000E+00  0.00000000000E+00  0.18779234709E+03  0.25080285425E+04  0.25009880456E+04 0.  0.
        3    1    3    3  502    0 -0.24034439823E+03 -0.92612136588E+03 -0.71352198379E+03  0.11935576424E+04  0.10100000352E+00 0. -1.
       -3    1    3    3    0  502  0.24034439823E+03  0.92612136588E+03  0.90131433087E+03  0.13144709001E+04  0.10100000352E+00 0.  1.
</event>
<event>
 5   0  0.9261602E-07  0.2498711E+04  0.7818609E-02  0.8403445E-01
       -2   -1    0    0    0  501  0.00000000000E+00  0.00000000000E+00  0.13940445107E+04  0.13940445107E+04  0.25500000920E-02 0. -1.
        2   -1    0    0  501    0  0.00000000000E+00  0.00000000000E+00 -0.11196842888E+04  0.11196842888E+04  0.25500000920E-02 0.  1.
    10030    2    1    2    0    0  0.00000000000E+00  0.00000000000E+00  0.27436022191E+03  0.25137287994E+04  0.24987114571E+04 0.  0.
        4    1    3    3  502    0  0.12303080549E+04 -0.47399285091E+02 -0.76187766637E+02  0.12335764228E+04  0.12699999809E+01 0.  1.
       -4    1    3    3    0  502 -0.12303080549E+04  0.47399285091E+02  0.35054798854E+03  0.12801523766E+04  0.12699999809E+01 0. -1.
</event>
<event>
 5   0  0.3873231E-07  0.2498793E+04  0.7818609E-02  0.8403416E-01
       -1   -1    0    0    0  501  0.00000000000E+00  0.00000000000E+00  0.91524744843E+03  0.91524744844E+03  0.50400001928E-02 0. -1.
        1   -1    0    0  501    0  0.00000000000E+00  0.00000000000E+00 -0.17055408533E+04  0.17055408533E+04  0.50400001928E-02 0.  1.
    10030    2    1    2    0    0  0.00000000000E+00  0.00000000000E+00 -0.79029340488E+03  0.26207883018E+04  0.24987932401E+04 0.  0.
        2    1    3    3  502    0 -0.93252360249E+03 -0.21632479186E+03 -0.12372108225E+04  0.15643168810E+04  0.25500000920E-02 0.  1.
       -2    1    3    3    0  502  0.93252360249E+03  0.21632479186E+03  0.44691741761E+03  0.10564714208E+04  0.25500000920E-02 0. -1.
</event>
<event>
 5   0  0.9508784E-07  0.2498821E+04  0.7818609E-02  0.8403406E-01
       -2   -1    0    0    0  501  0.00000000000E+00  0.00000000000E+00  0.69748526863E+03  0.69748526863E+03  0.25500000920E-02 0.  1.
        2   -1    0    0  501    0  0.00000000000E+00  0.00000000000E+00 -0.22380783443E+04  0.22380783443E+04  0.25500000920E-02 0. -1.
    10030    2    1    2    0    0  0.00000000000E+00  0.00000000000E+00 -0.15405930757E+04  0.29355636129E+04  0.24988210622E+04 0.  0.
        2    1    3    3  502    0  0.56547398378E+02  0.93445550299E+03  0.20173813585E+03  0.95765493305E+03  0.25500000920E-02 0.  1.
       -2    1    3    3    0  502 -0.56547398378E+02 -0.93445550299E+03 -0.17423312115E+04  0.19779086799E+04  0.25500000920E-02 0. -1.
</event>
<event>
 5   0  0.3991066E-07  0.2498983E+04  0.7818609E-02  0.8403348E-01
        1   -1    0    0  501    0  0.00000000000E+00  0.00000000000E+00  0.18085795933E+04  0.18085795933E+04  0.50400001928E-02 0.  1.
       -1   -1    0    0    0  501  0.00000000000E+00  0.00000000000E+00 -0.86323491653E+03  0.86323491655E+03  0.50400001928E-02 0. -1.
    10030    2    1    2    0    0  0.00000000000E+00  0.00000000000E+00  0.94534467678E+03  0.26718145099E+04  0.24989830366E+04 0.  0.
        1    1    3    3  502    0 -0.75858067612E+03  0.52198748668E+03  0.13756628988E+04  0.16554044791E+04  0.50400001928E-02 0.  1.
       -1    1    3    3    0  502  0.75858067612E+03 -0.52198748668E+03 -0.43031822197E+03  0.10164100308E+04  0.50400001928E-02 0. -1.
</event>
<event>
 5   0  0.9508784E-07  0.2501116E+04  0.7818609E-02  0.8402588E-01
        2   -1    0    0  501    0  0.00000000000E+00  0.00000000000E+00  0.15372040464E+04  0.15372040464E+04  0.25500000920E-02 0. -1.
       -2   -1    0    0    0  501  0.00000000000E+00  0.00000000000E+00 -0.10173632030E+04  0.10173632030E+04  0.25500000920E-02 0.  1.
    10030    2    1    2    0    0  0.00000000000E+00  0.00000000000E+00  0.51984084342E+03  0.25545672495E+04  0.25011156170E+04 0.  0.
        2    1    3    3  502    0 -0.65109917565E+03  0.68763767473E+03 -0.57430854838E+03  0.11075224679E+04  0.25500000920E-02 0.  1.
       -2    1    3    3    0  502  0.65109917565E+03 -0.68763767473E+03  0.10941493918E+04  0.14470447815E+04  0.25500000920E-02 0. -1.
</event>
<event>
 5   0  0.9251138E-07  0.2499900E+04  0.7818609E-02  0.8403021E-01
       -2   -1    0    0    0  501  0.00000000000E+00  0.00000000000E+00  0.10641865804E+04  0.10641865804E+04  0.25500000920E-02 0. -1.
        2   -1    0    0  501    0  0.00000000000E+00  0.00000000000E+00 -0.14681401694E+04  0.14681401694E+04  0.25500000920E-02 0.  1.
    10030    2    1    2    0    0  0.00000000000E+00  0.00000000000E+00 -0.40395358896E+03  0.25323267498E+04  0.24999000512E+04 0.  0.
        5    1    3    3  502    0 -0.62752125972E+03 -0.85912049110E+03  0.46264504653E+03  0.11601437319E+04  0.46999998093E+01 0. -1.
       -5    1    3    3    0  502  0.62752125972E+03  0.85912049110E+03 -0.86659863549E+03  0.13721830179E+04  0.46999998093E+01 0.  1.
</event>
<event>
 5   0  0.9251138E-07  0.2498797E+04  0.7818609E-02  0.8403414E-01
        2   -1    0    0  501    0  0.00000000000E+00  0.00000000000E+00  0.13988486791E+04  0.13988486791E+04  0.25500000920E-02 0. -1.
       -2   -1    0    0    0  501  0.00000000000E+00  0.00000000000E+00 -0.11159155685E+04  0.11159155685E+04  0.25500000920E-02 0.  1.
    10030    2    1    2    0    0  0.00000000000E+00  0.00000000000E+00  0.28293311065E+03  0.25147642476E+04  0.24987973259E+04 0.  0.
        5    1    3    3  502    0 -0.10038012575E+04 -0.36433002368E+03 -0.51123106529E+03  0.11839478970E+04  0.46999998093E+01 0. -1.
       -5    1    3    3    0  502  0.10038012575E+04  0.36433002368E+03  0.79416417593E+03  0.13308163506E+04  0.46999998093E+01 0.  1.
</event>
<event>
 5   0  0.9251138E-07  0.2499741E+04  0.7818609E-02  0.8403078E-01
        2   -1    0    0  501    0  0.00000000000E+00  0.00000000000E+00  0.12827032838E+04  0.12827032838E+04  0.25500000920E-02 0.  1.
       -2   -1    0    0    0  501  0.00000000000E+00  0.00000000000E+00 -0.12178785544E+04  0.12178785544E+04  0.25500000920E-02 0. -1.
    10030    2    1    2    0    0  0.00000000000E+00  0.00000000000E+00  0.64824729353E+02  0.25005818382E+04  0.24997414434E+04 0.  0.
        5    1    3    3  502    0  0.46979600844E+03  0.32553194936E+03 -0.10794807267E+04  0.12214663601E+04  0.46999998093E+01 0. -1.
       -5    1    3    3    0  502 -0.46979600844E+03 -0.32553194936E+03  0.11443054560E+04  0.12791154781E+04  0.46999998093E+01 0.  1.
</event>
<event>
 5   0  0.3991066E-07  0.2499332E+04  0.7818609E-02  0.8403224E-01
        1   -1    0    0  501    0  0.00000000000E+00  0.00000000000E+00  0.21606848516E+04  0.21606848516E+04  0.50400001928E-02 0. -1.
       -1   -1    0    0    0  501  0.00000000000E+00  0.00000000000E+00 -0.72276393959E+03  0.72276393961E+03  0.50400001928E-02 0.  1.
    10030    2    1    2    0    0  0.00000000000E+00  0.00000000000E+00  0.14379209120E+04  0.28834487912E+04  0.24993319872E+04 0.  0.
        1    1    3    3  502    0 -0.11346039432E+04  0.26705893965E+03  0.19913671092E+03  0.11824982093E+04  0.50400001928E-02 0.  1.
       -1    1    3    3    0  502  0.11346039432E+04 -0.26705893965E+03  0.12387842010E+04  0.17009505819E+04  0.50400001928E-02 0. -1.
</event>
<event>
 5   0  0.3972587E-07  0.2498249E+04  0.7818609E-02  0.8403609E-01
       -1   -1    0    0    0  501  0.00000000000E+00  0.00000000000E+00  0.94790806249E+03  0.94790806250E+03  0.50400001928E-02 0. -1.
        1   -1    0    0  501    0  0.00000000000E+00  0.00000000000E+00 -0.16460589104E+04  0.16460589104E+04  0.50400001928E-02 0.  1.
    10030    2    1    2    0    0  0.00000000000E+00  0.00000000000E+00 -0.69815084787E+03  0.25939669729E+04  0.24982493971E+04 0.  0.
        3    1    3    3  502    0 -0.99034005954E+03 -0.19889272901E+03 -0.11120635692E+04  0.15023372269E+04  0.10100000352E+00 0.  1.
       -3    1    3    3    0  502  0.99034005954E+03  0.19889272901E+03  0.41391272133E+03  0.10916297460E+04  0.10100000352E+00 0. -1.
</event>
<event>
 5   0  0.3972587E-07  0.2500419E+04  0.7818609E-02  0.8402836E-01
       -1   -1    0    0    0  501  0.00000000000E+00  0.00000000000E+00  0.10253289693E+04  0.10253289694E+04  0.50400001928E-02 0. -1.
        1   -1    0    0  501    0  0.00000000000E+00  0.00000000000E+00 -0.15244123426E+04  0.15244123426E+04  0.50400001928E-02 0.  1.
    10030    2    1    2    0    0  0.00000000000E+00  0.00000000000E+00 -0.49908337321E+03  0.25497413119E+04  0.25004192737E+04 0.  0.
        3    1    3    3  502    0 -0.97813026988E+03  0.32908963576E+03  0.47005896808E+03  0.11340168680E+04  0.10100000352E+00 0. -1.
       -3    1    3    3    0  502  0.97813026988E+03 -0.32908963576E+03 -0.96914234130E+03  0.14157244439E+04  0.10100000352E+00 0.  1.
</event>
<event>
 5   0  0.8997210E-07  0.2501008E+04  0.7818609E-02  0.8402627E-01
       -2   -1    0    0    0  501  0.00000000000E+00  0.00000000000E+00  0.10730611762E+04  0.10730611762E+04  0.25500000920E-02 0. -1.
        2   -1    0    0  501    0  0.00000000000E+00  0.00000000000E+00 -0.14572885748E+04  0.14572885749E+04  0.25500000920E-02 0.  1.
    10030    2    1    2    0    0  0.00000000000E+00  0.00000000000E+00 -0.38422739865E+03  0.25303497511E+04  0.25010076307E+04 0.  0.
        1    1    3    3  502    0  0.10092547764E+03 -0.69459554134E+03 -0.12392006614E+04  0.14241724605E+04  0.50400001928E-02 0.  1.
       -1    1    3    3    0  502 -0.10092547764E+03  0.69459554134E+03  0.85497326273E+03  0.11061772905E+04  0.50400001928E-02 0. -1.
</event>
<event>
 5   0  0.3837524E-07  0.2500086E+04  0.7818609E-02  0.8402955E-01
        1   -1    0    0  501    0  0.00000000000E+00  0.00000000000E+00  0.13209096261E+04  0.13209096261E+04  0.50400001928E-02 0. -1.
       -1   -1    0    0    0  501  0.00000000000E+00  0.00000000000E+00 -0.11829784876E+04  0.11829784876E+04  0.50400001928E-02 0.  1.
    10030    2    1    2    0    0  0.00000000000E+00  0.00000000000E+00  0.13793113846E+03  0.25038881137E+04  0.25000861359E+04 0.  0.
        5    1    3    3  502    0  0.93481125702E+03 -0.82292181606E+03 -0.38497093307E+02  0.12460242846E+04  0.46999998093E+01 0.  1.
       -5    1    3    3    0  502 -0.93481125702E+03  0.82292181606E+03  0.17642823176E+03  0.12578638291E+04  0.46999998093E+01 0. -1.
</event>
<event>
 5   0  0.8997210E-07  0.2499257E+04  0.7818609E-02  0.8403250E-01
        2   -1    0    0  501    0  0.00000000000E+00  0.00000000000E+00  0.10656794661E+04  0.10656794661E+04  0.25500000920E-02 0. -1.
       -2   -1    0    0    0  501  0.00000000000E+00  0.00000000000E+00 -0.14653292654E+04  0.14653292654E+04  0.25500000920E-02 0.  1.
    10030    2    1    2    0    0  0.00000000000E+00  0.00000000000E+00 -0.39964979935E+03  0.25310087315E+04  0.24992569369E+04 0.  0.
        1    1    3    3  502    0 -0.74035931932E+03 -0.82848522002E+03  0.37932487883E+03  0.11740558101E+04  0.50400001928E-02 0. -1.
       -1    1    3    3    0  502  0.74035931932E+03  0.82848522002E+03 -0.77897467819E+03  0.13569529214E+04  0.50400001928E-02 0.  1.
</event>
<event>
 5   0  0.9768582E-07  0.2497659E+04  0.7818609E-02  0.8403820E-01
       -2   -1    0    0    0  501  0.00000000000E+00  0.00000000000E+00  0.68044394103E+03  0.68044394103E+03  0.25500000920E-02 0. -1.
        2   -1    0    0  501    0  0.00000000000E+00  0.00000000000E+00 -0.22919969758E+04  0.22919969758E+04  0.25500000920E-02 0.  1.
    10030    2    1    2    0    0  0.00000000000E+00  0.00000000000E+00 -0.16115530347E+04  0.29724409168E+04  0.24976592682E+04 0.  0.
        3    1    3    3  502    0  0.44409240479E+02 -0.26015271397E+03 -0.22584301437E+04  0.22737982187E+04  0.10100000352E+00 0.  1.
       -3    1    3    3    0  502 -0.44409240479E+02  0.26015271397E+03  0.64687710899E+03  0.69864269806E+03  0.10100000352E+00 0. -1.
</event>
<event>
 5   0  0.9508784E-07  0.2499449E+04  0.7818609E-02  0.8403182E-01
       -2   -1    0    0    0  501  0.00000000000E+00  0.00000000000E+00  0.11225664216E+04  0.11225664216E+04  0.25500000920E-02 0. -1.
        2   -1    0    0  501    0  0.00000000000E+00  0.00000000000E+00 -0.13912868933E+04  0.13912868933E+04  0.25500000920E-02 0.  1.
    10030    2    1    2    0    0  0.00000000000E+00  0.00000000000E+00 -0.26872047167E+03  0.25138533149E+04  0.24994494988E+04 0.  0.
        2    1    3    3  502    0 -0.90544906043E+03  0.81241282047E+03  0.15357501589E+03  0.12261475757E+04  0.25500000920E-02 0. -1.
       -2    1    3    3    0  502  0.90544906043E+03 -0.81241282047E+03 -0.42229548756E+03  0.12877057392E+04  0.25500000920E-02 0.  1.
</event>
<event>
 5   0  0.3873231E-07  0.2500131E+04  0.7818609E-02  0.8402939E-01
        1   -1    0    0  501    0  0.00000000000E+00  0.00000000000E+00  0.11990509159E+04  0.11990509159E+04  0.50400001928E-02 0. -1.
       -1   -1    0    0    0  501  0.00000000000E+00  0.00000000000E+00 -0.13032502959E+04  0.13032502959E+04  0.50400001928E-02 0.  1.
    10030    2    1    2    0    0  0.00000000000E+00  0.00000000000E+00 -0.10419938001E+03  0.25023012119E+04  0.25001307654E+04 0.  0.
        2    1    3    3  502    0 -0.73201260689E+03 -0.59669004762E+03  0.76762413738E+03  0.12170161403E+04  0.25500000920E-02 0. -1.
       -2    1    3    3    0  502  0.73201260689E+03  0.59669004762E+03 -0.87182351739E+03  0.12852850715E+04  0.25500000920E-02 0.  1.
</event>
<event>
 5   0  0.9251138E-07  0.2498335E+04  0.7818609E-02  0.8403579E-01
        2   -1    0    0  501    0  0.00000000000E+00  0.00000000000E+00  0.14781674474E+04  0.14781674474E+04  0.25500000920E-02 0. -1.
       -2   -1    0    0    0  501  0.00000000000E+00  0.00000000000E+00 -0.10556443472E+04  0.10556443472E+04  0.25500000920E-02 0.  1.
    10030    2    1    2    0    0  0.00000000000E+00  0.00000000000E+00  0.42252310015E+03  0.25338117946E+04  0.24983347335E+04 0.  0.
        5    1    3    3  502    0  0.12766114887E+02 -0.33913990050E+03 -0.10079819100E+04  0.10635922464E+04  0.46999998093E+01 0.  1.
       -5    1    3    3    0  502 -0.12766114887E+02  0.33913990050E+03  0.14305050102E+04  0.14702195482E+04  0.46999998093E+01 0. -1.
</event>
<event>
 5   0  0.3214375E-07  0.2504160E+04  0.7818609E-02  0.8401505E-01
       -3   -1    0    0    0  501  0.00000000000E+00  0.00000000000E+00  0.17553975857E+04  0.17553975886E+04  0.10100000352E+00 0. -1.
        3   -1    0    0  501    0  0.00000000000E+00  0.00000000000E+00 -0.89307652606E+03  0.89307653177E+03  0.10100000352E+00 0.  1.
    10030    2    1    2    0    0  0.00000000000E+00  0.00000000000E+00  0.86232105967E+03  0.26484741204E+04  0.25041600501E+04 0.  0.
        3    1    3    3  502    0  0.13458167107E+03 -0.68963224455E+03 -0.66490291685E+03  0.96736795375E+03  0.10100000352E+00 0.  1.
       -3    1    3    3    0  502 -0.13458167107E+03  0.68963224455E+03  0.15272239765E+04  0.16811061667E+04  0.10100000352E+00 0. -1.
</event>
<event>
 5   0  0.9251138E-07  0.2499024E+04  0.7818609E-02  0.8403333E-01
       -2   -1    0    0    0  501  0.00000000000E+00  0.00000000000E+00  0.68763696986E+03  0.68763696987E+03  0.25500000920E-02 0. -1.
        2   -1    0    0  501    0  0.00000000000E+00  0.00000000000E+00 -0.22704999327E+04  0.22704999327E+04  0.25500000920E-02 0.  1.
    10030    2    1    2    0    0  0.00000000000E+00  0.00000000000E+00 -0.15828629628E+04  0.29581369025E+04  0.24990235643E+04 0.  0.
        5    1    3    3  502    0  0.93971684663E+03 -0.60956615209E+03 -0.13596963081E+03  0.11283388126E+04  0.46999998093E+01 0. -1.
       -5    1    3    3    0  502 -0.93971684663E+03  0.60956615209E+03 -0.14468933320E+04  0.18297980899E+04  0.46999998093E+01 0.  1.
</event>
<event>
 5   0  0.8997210E-07  0.2500607E+04  0.7818609E-02  0.8402769E-01
       -2   -1    0    0    0  501  0.00000000000E+00  0.00000000000E+00  0.88746750546E+03  0.88746750546E+03  0.25500000920E-02 0.  1.
        2   -1    0    0  501    0  0.00000000000E+00  0.00000000000E+00 -0.17614829051E+04  0.17614829051E+04  0.25500000920E-02 0. -1.
    10030    2    1    2    0    0  0.00000000000E+00  0.00000000000E+00 -0.87401539962E+03  0.26489504105E+04  0.25006069981E+04 0.  0.
        1    1    3    3  502    0 -0.10302180662E+04 -0.22984322366E+03 -0.11468976854E+04  0.15587018548E+04  0.50400001928E-02 0. -1.
       -1    1    3    3    0  502  0.10302180662E+04  0.22984322366E+03  0.27288228583E+03  0.10902485557E+04  0.50400001928E-02 0.  1.
</event>
<event>
 5   0  0.9261602E-07  0.2499249E+04  0.7818609E-02  0.8403253E-01
        2   -1    0    0  501    0  0.00000000000E+00  0.00000000000E+00  0.17809514489E+04  0.17809514489E+04  0.25500000920E-02 0.  1.
       -2   -1    0    0    0  501  0.00000000000E+00  0.00000000000E+00 -0.87681273083E+03  0.87681273083E+03  0.25500000920E-02 0. -1.
    10030    2    1    2    0    0  0.00000000000E+00  0.00000000000E+00  0.90413871812E+03  0.26577641798E+04  0.24992486098E+04 0.  0.
        4    1    3    3  502    0 -0.10239247609E+04 -0.63907683797E+03  0.10794294710E+03  0.12118145128E+04  0.12699999809E+01 0. -1.
       -4    1    3    3    0  502  0.10239247609E+04  0.63907683797E+03  0.79619577102E+03  0.14459496670E+04  0.12699999809E+01 0.  1.
</event>
<event>
 5   0  0.3873231E-07  0.2500376E+04  0.7818609E-02  0.8402852E-01
        1   -1    0    0  501    0  0.00000000000E+00  0.00000000000E+00  0.26753258318E+04  0.26753258318E+04  0.50400001928E-02 0.  1.
       -1   -1    0    0    0  501  0.00000000000E+00  0.00000000000E+00 -0.58421647135E+03  0.58421647138E+03  0.50400001928E-02 0. -1.
    10030    2    1    2    0    0  0.00000000000E+00  0.00000000000E+00  0.20911093604E+04  0.32595423032E+04  0.25003755056E+04 0.  0.
        2    1    3    3  502    0  0.71708498275E+03  0.25406186559E+03 -0.24773412495E+03  0.80008155879E+03  0.25500000920E-02 0. -1.
       -2    1    3    3    0  502 -0.71708498275E+03 -0.25406186559E+03  0.23388434854E+04  0.24594607444E+04  0.25500000920E-02 0.  1.
</event>
<event>
 5   0  0.3873231E-07  0.2499927E+04  0.7818609E-02  0.8403011E-01
       -1   -1    0    0    0  501  0.00000000000E+00  0.00000000000E+00  0.12689573254E+04  0.12689573254E+04  0.50400001928E-02 0. -1.
        1   -1    0    0  501    0  0.00000000000E+00  0.00000000000E+00 -0.12312544056E+04  0.12312544056E+04  0.50400001928E-02 0.  1.
    10030    2    1    2    0    0  0.00000000000E+00  0.00000000000E+00  0.37702919855E+02  0.25002117310E+04  0.24999274369E+04 0.  0.
        2    1    3    3  502    0  0.23023804938E+03 -0.34109395998E+03  0.11992630430E+04  0.12679063433E+04  0.25500000920E-02 0. -1.
       -2    1    3    3    0  502 -0.23023804938E+03  0.34109395998E+03 -0.11615601232E+04  0.12323053877E+04  0.25500000920E-02 0.  1.
</event>
<event>
 5   0  0.9251138E-07  0.2500255E+04  0.7818609E-02  0.8402895E-01
       -2   -1    0    0    0  501  0.00000000000E+00  0.00000000000E+00  0.63712172436E+03  0.63712172437E+03  0.25500000920E-02 0.  1.
        2   -1    0    0  501    0  0.00000000000E+00  0.00000000000E+00 -0.24529353492E+04  0.24529353492E+04  0.25500000920E-02 0. -1.
    10030    2    1    2    0    0  0.00000000000E+00  0.00000000000E+00 -0.18158136249E+04  0.30900570736E+04  0.25002547066E+04 0.  0.
        5    1    3    3  502    0  0.53900483359E+03  0.94498327699E+03 -0.14677419737E+03  0.10977633440E+04  0.46999998093E+01 0.  1.
       -5    1    3    3    0  502 -0.53900483359E+03 -0.94498327699E+03 -0.16690394275E+04  0.19922937296E+04  0.46999998093E+01 0. -1.
</event>
<event>
 5   0  0.9768582E-07  0.2500239E+04  0.7818609E-02  0.8402900E-01
        2   -1    0    0  501    0  0.00000000000E+00  0.00000000000E+00  0.12460162034E+04  0.12460162034E+04  0.25500000920E-02 0.  1.
       -2   -1    0    0    0  501  0.00000000000E+00  0.00000000000E+00 -0.12542367912E+04  0.12542367912E+04  0.25500000920E-02 0. -1.
    10030    2    1    2    0    0  0.00000000000E+00  0.00000000000E+00 -0.82205877923E+01  0.25002529946E+04  0.25002394803E+04 0.  0.
        3    1    3    3  502    0  0.46766247315E+03  0.11546899186E+04  0.99728399683E+02  0.12497850858E+04  0.10100000352E+00 0. -1.
       -3    1    3    3    0  502 -0.46766247315E+03 -0.11546899186E+04 -0.10794898748E+03  0.12504679088E+04  0.10100000352E+00 0.  1.
</event>
<event>
 5   0  0.3873231E-07  0.2500874E+04  0.7818609E-02  0.8402674E-01
        1   -1    0    0  501    0  0.00000000000E+00  0.00000000000E+00  0.65508703050E+03  0.65508703052E+03  0.50400001928E-02 0. -1.
       -1   -1    0    0    0  501  0.00000000000E+00  0.00000000000E+00 -0.23868477304E+04  0.23868477304E+04  0.50400001928E-02 0.  1.
    10030    2    1    2    0    0  0.00000000000E+00  0.00000000000E+00 -0.17317606999E+04  0.30419347609E+04  0.25008742407E+04 0.  0.
        2    1    3    3  502    0  0.82236850108E+03  0.93785902235E+03 -0.75898348566E+03  0.14601114440E+04  0.25500000920E-02 0.  1.
       -2    1    3    3    0  502 -0.82236850108E+03 -0.93785902235E+03 -0.97277721421E+03  0.15818233169E+04  0.25500000920E-02 0. -1.
</event>
<event>
 5   0  0.9261602E-07  0.2498848E+04  0.7818609E-02  0.8403396E-01
        2   -1    0    0  501    0  0.00000000000E+00  0.00000000000E+00  0.17941769927E+04  0.17941769927E+04  0.25500000920E-02 0. -1.
       -2   -1    0    0    0  501  0.00000000000E+00  0.00000000000E+00 -0.87007018942E+03  0.87007018942E+03  0.25500000920E-02 0.  1.
    10030    2    1    2    0    0  0.00000000000E+00  0.00000000000E+00  0.92410680328E+03  0.26642471821E+04  0.24988476671E+04 0.  0.
        4    1    3    3  502    0 -0.27407695664E+03  0.91317242528E+03  0.13230020790E+04  0.16307477335E+04  0.12699999809E+01 0. -1.
       -4    1    3    3    0  502  0.27407695664E+03 -0.91317242528E+03 -0.39889527568E+03  0.10334994486E+04  0.12699999809E+01 0.  1.
</event>
<event>
 5   0  0.3805418E-07  0.2501652E+04  0.7818609E-02  0.8402397E-01
       -1   -1    0    0    0  501  0.00000000000E+00  0.00000000000E+00  0.10958678906E+04  0.10958678906E+04  0.50400001928E-02 0.  1.
        1   -1    0    0  501    0  0.00000000000E+00  0.00000000000E+00 -0.14276954018E+04  0.14276954018E+04  0.50400001928E-02 0. -1.
    10030    2    1    2    0    0  0.00000000000E+00  0.00000000000E+00 -0.33182751116E+03  0.25235632924E+04  0.25016518929E+04 0.  0.
        4    1    3    3  502    0  0.16786728950E+03  0.10361726363E+04  0.52028751389E+03  0.11715519063E+04  0.12699999809E+01 0.  1.
       -4    1    3    3    0  502 -0.16786728950E+03 -0.10361726363E+04 -0.85211502505E+03  0.13520113861E+04  0.12699999809E+01 0. -1.
</event>
<event>
 5   0  0.3972587E-07  0.2499769E+04  0.7818609E-02  0.8403068E-01
        1   -1    0    0  501    0  0.00000000000E+00  0.00000000000E+00  0.15505404596E+04  0.15505404596E+04  0.50400001928E-02 0.  1.
       -1   -1    0    0    0  501  0.00000000000E+00  0.00000000000E+00 -0.10075268247E+04  0.10075268247E+04  0.50400001928E-02 0. -1.
    10030    2    1    2    0    0  0.00000000000E+00  0.00000000000E+00  0.54301363493E+03  0.25580672844E+04  0.24997688740E+04 0.  0.
        3    1    3    3  502    0 -0.12265385912E+04 -0.77936640506E+02  0.50427604840E+03  0.13284447218E+04  0.10100000352E+00 0.  1.
       -3    1    3    3    0  502  0.12265385912E+04  0.77936640506E+02  0.38737586534E+02  0.12296225626E+04  0.10100000352E+00 0. -1.
</event>
<event>
 5   0  0.8997210E-07  0.2499987E+04  0.7818609E-02  0.8402990E-01
       -2   -1    0    0    0  501  0.00000000000E+00  0.00000000000E+00  0.10872310431E+04  0.10872310431E+04  0.25500000920E-02 0. -1.
        2   -1    0    0  501    0  0.00000000000E+00  0.00000000000E+00 -0.14371223815E+04  0.14371223815E+04  0.25500000920E-02 0.  1.
    10030    2    1    2    0    0  0.00000000000E+00  0.00000000000E+00 -0.34989133848E+03  0.25243534246E+04  0.24999872527E+04 0.  0.
        1    1    3    3  502    0 -0.19475684738E+03 -0.35829240821E+03 -0.13680629359E+04  0.14275503059E+04  0.50400001928E-02 0.  1.
       -1    1    3    3    0  502  0.19475684738E+03  0.35829240821E+03  0.10181715974E+04  0.10968031187E+04  0.50400001928E-02 0. -1.
</event>
<event>
 5   0  0.3873231E-07  0.2499142E+04  0.7818609E-02  0.8403291E-01
        1   -1    0    0  501    0  0.00000000000E+00  0.00000000000E+00  0.11417766417E+04  0.11417766417E+04  0.50400001928E-02 0.  1.
       -1   -1    0    0    0  501  0.00000000000E+00  0.00000000000E+00 -0.13675418970E+04  0.13675418970E+04  0.50400001928E-02 0. -1.
    10030    2    1    2    0    0  0.00000000000E+00  0.00000000000E+00 -0.22576525528E+03  0.25093185387E+04  0.24991417683E+04 0.  0.
        2    1    3    3  502    0  0.43758329357E+03 -0.43293047172E+03 -0.12047478942E+04  0.13528951995E+04  0.25500000920E-02 0. -1.
       -2    1    3    3    0  502 -0.43758329357E+03  0.43293047172E+03  0.97898263893E+03  0.11564233392E+04  0.25500000920E-02 0.  1.
</event>
<event>
 5   0  0.8997210E-07  0.2499904E+04  0.7818609E-02  0.8403020E-01
        2   -1    0    0  501    0  0.00000000000E+00  0.00000000000E+00  0.18687861549E+04  0.18687861549E+04  0.25500000920E-02 0.  1.
       -2   -1    0    0    0  501  0.00000000000E+00  0.00000000000E+00 -0.83604015884E+03  0.83604015884E+03  0.25500000920E-02 0. -1.
    10030    2    1    2    0    0  0.00000000000E+00  0.00000000000E+00  0.10327459960E+04  0.27048263137E+04  0.24999042172E+04 0.  0.
        1    1    3    3  502    0  0.72188665582E+03  0.30981064148E+03  0.15683242799E+04  0.17540650000E+04  0.50400001928E-02 0.  1.
       -1    1    3    3    0  502 -0.72188665582E+03 -0.30981064148E+03 -0.53557828386E+03  0.95076131368E+03  0.50400001928E-02 0. -1.
</event>
<event>
 5   0  0.9768582E-07  0.2499721E+04  0.7818609E-02  0.8403085E-01
        2   -1    0    0  501    0  0.00000000000E+00  0.00000000000E+00  0.13071258026E+04  0.13071258026E+04  0.25500000920E-02 0. -1.
       -2   -1    0    0    0  501  0.00000000000E+00  0.00000000000E+00 -0.11951038909E+04  0.11951038909E+04  0.25500000920E-02 0.  1.
    10030    2    1    2    0    0  0.00000000000E+00  0.00000000000E+00  0.11202191174E+03  0.25022296935E+04  0.24997208905E+04 0.  0.
        3    1    3    3  502    0 -0.10717201820E+04  0.52913239886E+03  0.42187179732E+03  0.12674940109E+04  0.10100000352E+00 0. -1.
       -3    1    3    3    0  502  0.10717201820E+04 -0.52913239886E+03 -0.30984988559E+03  0.12347356826E+04  0.10100000352E+00 0.  1.
</event>
<event>
 5   0  0.3991066E-07  0.2504869E+04  0.7818609E-02  0.8401253E-01
       -1   -1    0    0    0  501  0.00000000000E+00  0.00000000000E+00  0.12231042316E+04  0.12231042316E+04  0.50400001928E-02 0.  1.
        1   -1    0    0  501    0  0.00000000000E+00  0.00000000000E+00 -0.12824681304E+04  0.12824681304E+04  0.50400001928E-02 0. -1.
    10030    2    1    2    0    0  0.00000000000E+00  0.00000000000E+00 -0.59363898744E+02  0.25055723620E+04  0.25048690163E+04 0.  0.
        1    1    3    3  502    0  0.11371166734E+04 -0.35150731804E+03  0.36029990466E+03  0.12435464386E+04  0.50400001928E-02 0.  1.
       -1    1    3    3    0  502 -0.11371166734E+04  0.35150731804E+03 -0.41966380340E+03  0.12620259234E+04  0.50400001928E-02 0. -1.
</event>
<event>
 5   0  0.3991066E-07  0.2498008E+04  0.7818609E-02  0.8403695E-01
       -1   -1    0    0    0  501  0.00000000000E+00  0.00000000000E+00  0.71435598773E+03  0.71435598774E+03  0.50400001928E-02 0.  1.
        1   -1    0    0  501    0  0.00000000000E+00  0.00000000000E+00 -0.21838013868E+04  0.21838013868E+04  0.50400001928E-02 0. -1.
    10030    2    1    2    0    0  0.00000000000E+00  0.00000000000E+00 -0.14694453991E+04  0.28981573746E+04  0.24980084841E+04 0.  0.
        1    1    3    3  502    0  0.16741092957E+03  0.36653382918E+03  0.63687082385E+03  0.75364309429E+03  0.50400001928E-02 0.  1.
       -1    1    3    3    0  502 -0.16741092957E+03 -0.36653382918E+03 -0.21063162229E+04  0.21445142803E+04  0.50400001928E-02 0. -1.
</event>
<event>
 5   0  0.8997210E-07  0.2499081E+04  0.7818609E-02  0.8403313E-01
       -2   -1    0    0    0  501  0.00000000000E+00  0.00000000000E+00  0.10025874347E+04  0.10025874347E+04  0.25500000920E-02 0. -1.
        2   -1    0    0  501    0  0.00000000000E+00  0.00000000000E+00 -0.15573222424E+04  0.15573222424E+04  0.25500000920E-02 0.  1.
    10030    2    1    2    0    0  0.00000000000E+00  0.00000000000E+00 -0.55473480772E+03  0.25599096771E+04  0.24990812007E+04 0.  0.
        1    1    3    3  502    0 -0.67964387925E+03  0.66377696986E+03  0.55407649308E+03  0.10997801728E+04  0.50400001928E-02 0. -1.
       -1    1    3    3    0  502  0.67964387925E+03 -0.66377696986E+03 -0.11088113008E+04  0.14601295042E+04  0.50400001928E-02 0.  1.
</event>
<event>
 5   0  0.3873231E-07  0.2500307E+04  0.7818609E-02  0.8402876E-01
        1   -1    0    0  501    0  0.00000000000E+00  0.00000000000E+00  0.85657224109E+03  0.85657224111E+03  0.50400001928E-02 0. -1.
       -1   -1    0    0    0  501  0.00000000000E+00  0.00000000000E+00 -0.18245793536E+04  0.18245793536E+04  0.50400001928E-02 0.  1.
    10030    2    1    2    0    0  0.00000000000E+00  0.00000000000E+00 -0.96800711249E+03  0.26811515947E+04  0.25003072019E+04 0.  0.
        2    1    3    3  502    0  0.12035990805E+04  0.13292748435E+03 -0.15078080950E+03  0.12202685422E+04  0.25500000920E-02 0. -1.
       -2    1    3    3    0  502 -0.12035990805E+04 -0.13292748435E+03 -0.81722630300E+03  0.14608830525E+04  0.25500000920E-02 0.  1.
</event>
<event>
 5   0  0.3991066E-07  0.2501118E+04  0.7818609E-02  0.8402587E-01
        1   -1    0    0  501    0  0.00000000000E+00  0.00000000000E+00  0.13173703847E+04  0.13173703848E+04  0.50400001928E-02 0. -1.
       -1   -1    0    0    0  501  0.00000000000E+00  0.00000000000E+00 -0.11871362881E+04  0.11871362881E+04  0.50400001928E-02 0.  1.
    10030    2    1    2    0    0  0.00000000000E+00  0.00000000000E+00  0.13023409669E+03  0.25045066728E+04  0.25011183007E+04 0.  0.
        1    1    3    3  502    0 -0.74889739833E+03  0.39668211722E+03 -0.85574511374E+03  0.12043685960E+04  0.50400001928E-02 0.  1.
       -1    1    3    3    0  502  0.74889739833E+03 -0.39668211722E+03  0.98597921043E+03  0.13001380768E+04  0.50400001928E-02 0. -1.
</event>
<event>
 5   0  0.9768582E-07  0.2498606E+04  0.7818609E-02  0.8403482E-01
        2   -1    0    0  501    0  0.00000000000E+00  0.00000000000E+00  0.15928689292E+04  0.15928689292E+04  0.25500000920E-02 0.  1.
       -2   -1    0    0    0  501  0.00000000000E+00  0.00000000000E+00 -0.97984082456E+03  0.97984082456E+03  0.25500000920E-02 0. -1.
    10030    2    1    2    0    0  0.00000000000E+00  0.00000000000E+00  0.61302810466E+03  0.25727097538E+04  0.24986060154E+04 0.  0.
        3    1    3    3  502    0  0.11281658267E+04 -0.63893320025E+02 -0.24212800656E+03  0.11556238448E+04  0.10100000352E+00 0. -1.
       -3    1    3    3    0  502 -0.11281658267E+04  0.63893320025E+02  0.85515611122E+03  0.14170859090E+04  0.10100000352E+00 0.  1.
</event>
<event>
 5   0  0.3805418E-07  0.2498691E+04  0.7818609E-02  0.8403452E-01
       -1   -1    0    0    0  501  0.00000000000E+00  0.00000000000E+00  0.10788538285E+04  0.10788538285E+04  0.50400001928E-02 0.  1.
        1   -1    0    0  501    0  0.00000000000E+00  0.00000000000E+00 -0.14467798599E+04  0.14467798599E+04  0.50400001928E-02 0. -1.
    10030    2    1    2    0    0  0.00000000000E+00  0.00000000000E+00 -0.36792603147E+03  0.25256336884E+04  0.24986908499E+04 0.  0.
        4    1    3    3  502    0 -0.12212509273E+04  0.17527135581E+03  0.14851822443E+02  0.12338541507E+04  0.12699999809E+01 0. -1.
       -4    1    3    3    0  502  0.12212509273E+04 -0.17527135581E+03 -0.38277785391E+03  0.12917795377E+04  0.12699999809E+01 0.  1.
</event>
<event>
 5   0  0.3991066E-07  0.2500520E+04  0.7818609E-02  0.8402800E-01
        1   -1    0    0  501    0  0.00000000000E+00  0.00000000000E+00  0.19048586209E+04  0.19048586209E+04  0.50400001928E-02 0.  1.
       -1   -1    0    0    0  501  0.00000000000E+00  0.00000000000E+00 -0.82061221713E+03  0.82061221714E+03  0.50400001928E-02 0. -1.
    10030    2    1    2    0    0  0.00000000000E+00  0.00000000000E+00  0.10842464038E+04  0.27254708381E+04  0.25005201509E+04 0.  0.
        1    1    3    3  502    0 -0.11169653040E+04 -0.29495124781E+03  0.21054853073E+02  0.11554440859E+04  0.50400001928E-02 0.  1.
       -1    1    3    3    0  502  0.11169653040E+04  0.29495124781E+03  0.10631915507E+04  0.15700267521E+04  0.50400001928E-02 0. -1.
</event>
<event>
 5   0  0.3805418E-07  0.2502512E+04  0.7818609E-02  0.8402091E-01
        1   -1    0    0  501    0  0.00000000000E+00  0.00000000000E+00  0.13418018546E+04  0.13418018546E+04  0.50400001928E-02 0.  1.
       -1   -1    0    0    0  501  0.00000000000E+00  0.00000000000E+00 -0.11668199429E+04  0.11668199430E+04  0.50400001928E-02 0. -1.
    10030    2    1    2    0    0  0.00000000000E+00  0.00000000000E+00  0.17498191167E+03  0.25086217976E+04  0.25025116691E+04 0.  0.
        4    1    3    3  502    0  0.17023631892E+03  0.52130166237E+02  0.13290388910E+04  0.13409116097E+04  0.12699999809E+01 0.  1.
       -4    1    3    3    0  502 -0.17023631892E+03 -0.52130166237E+02 -0.11540569793E+04  0.11677101879E+04  0.12699999809E+01 0. -1.
</event>
<event>
 5   0  0.9508784E-07  0.2500260E+04  0.7818609E-02  0.8402893E-01
        2   -1    0    0  501    0  0.00000000000E+00  0.00000000000E+00  0.27223667145E+04  0.27223667145E+04  0.25500000920E-02 0. -1.
       -2   -1    0    0    0  501  0.00000000000E+00  0.00000000000E+00 -0.57406842128E+03  0.57406842129E+03  0.25500000920E-02 0.  1.
    10030    2    1    2    0    0  0.00000000000E+00  0.00000000000E+00  0.21482982932E+04  0.32964351358E+04  0.25002597960E+04 0.  0.
        2    1    3    3  502    0 -0.53218048664E+03 -0.10902824649E+04  0.67666095662E+03  0.13891731260E+04  0.25500000920E-02 0.  1.
       -2    1    3    3    0  502  0.53218048664E+03  0.10902824649E+04  0.14716373366E+04  0.19072620098E+04  0.25500000920E-02 0. -1.
</event>
<event>
 5   0  0.9261602E-07  0.2503256E+04  0.7818609E-02  0.8401827E-01
        2   -1    0    0  501    0  0.00000000000E+00  0.00000000000E+00  0.16929470062E+04  0.16929470062E+04  0.25500000920E-02 0.  1.
       -2   -1    0    0    0  501  0.00000000000E+00  0.00000000000E+00 -0.92535222010E+03  0.92535222011E+03  0.25500000920E-02 0. -1.
    10030    2    1    2    0    0  0.00000000000E+00  0.00000000000E+00  0.76759478605E+03  0.26182992263E+04  0.25032556966E+04 0.  0.
        4    1    3    3  502    0  0.62360096416E+03  0.82499388031E+03 -0.35364170139E+03  0.10929579731E+04  0.12699999809E+01 0. -1.
       -4    1    3    3    0  502 -0.62360096416E+03 -0.82499388031E+03  0.11212364874E+04  0.15253412532E+04  0.12699999809E+01 0.  1.
</event>
<event>
 5   0  0.9768582E-07  0.2487081E+04  0.7818609E-02  0.8407602E-01
        2   -1    0    0  501    0  0.00000000000E+00  0.00000000000E+00  0.98577351613E+03  0.98577351613E+03  0.25500000920E-02 0.  1.
       -2   -1    0    0    0  501  0.00000000000E+00  0.00000000000E+00 -0.15687103976E+04  0.15687103976E+04  0.25500000920E-02 0. -1.
    10030    2    1    2    0    0  0.00000000000E+00  0.00000000000E+00 -0.58293688151E+03  0.25544839138E+04  0.24870811523E+04 0.  0.
        3    1    3    3  502    0  0.11735658555E+04  0.36458848309E+03 -0.96017878795E+02  0.12326398592E+04  0.10100000352E+00 0. -1.
       -3    1    3    3    0  502 -0.11735658555E+04 -0.36458848309E+03 -0.48691900272E+03  0.13218440546E+04  0.10100000352E+00 0.  1.
</event>
<event>
 5   0  0.3972587E-07  0.2499545E+04  0.7818609E-02  0.8403148E-01
        1   -1    0    0  501    0  0.00000000000E+00  0.00000000000E+00  0.18070055667E+04  0.18070055667E+04  0.50400001928E-02 0.  1.
       -1   -1    0    0    0  501  0.00000000000E+00  0.00000000000E+00 -0.86437555529E+03  0.86437555531E+03  0.50400001928E-02 0. -1.
    10030    2    1    2    0    0  0.00000000000E+00  0.00000000000E+00  0.94263001141E+03  0.26713811220E+04  0.24995451107E+04 0.  0.
        3    1    3    3  502    0  0.11024389894E+04  0.50908711134E+03  0.15537415237E+03  0.12242069065E+04  0.10100000352E+00 0. -1.
       -3    1    3    3    0  502 -0.11024389894E+04 -0.50908711134E+03  0.78725585904E+03  0.14471742156E+04  0.10100000352E+00 0.  1.
</event>
<event>
 5   0  0.9251138E-07  0.2500426E+04  0.7818609E-02  0.8402834E-01
        2   -1    0    0  501    0  0.00000000000E+00  0.00000000000E+00  0.17708785805E+04  0.17708785805E+04  0.25500000920E-02 0.  1.
       -2   -1    0    0    0  501  0.00000000000E+00  0.00000000000E+00 -0.88263078386E+03  0.88263078387E+03  0.25500000920E-02 0. -1.
    10030    2    1    2    0    0  0.00000000000E+00  0.00000000000E+00  0.88824779667E+03  0.26535093644E+04  0.25004255235E+04 0.  0.
        5    1    3    3  502    0 -0.65359453954E+03 -0.18998481780E+03 -0.66875959100E+03  0.95422299997E+03  0.46999998093E+01 0. -1.
       -5    1    3    3    0  502  0.65359453954E+03  0.18998481780E+03  0.15570073877E+04  0.16992863644E+04  0.46999998093E+01 0.  1.
</event>
<event>
 5   0  0.9508784E-07  0.2499683E+04  0.7818609E-02  0.8403098E-01
        2   -1    0    0  501    0  0.00000000000E+00  0.00000000000E+00  0.34716168962E+04  0.34716168962E+04  0.25500000920E-02 0. -1.
       -2   -1    0    0    0  501  0.00000000000E+00  0.00000000000E+00 -0.44996430875E+03  0.44996430876E+03  0.25500000920E-02 0.  1.
    10030    2    1    2    0    0  0.00000000000E+00  0.00000000000E+00  0.30216525874E+04  0.39215812049E+04  0.24996829374E+04 0.  0.
        2    1    3    3  502    0 -0.94384276496E+02 -0.42484762460E+03  0.33489048654E+04  0.33770649524E+04  0.25500000920E-02 0. -1.
       -2    1    3    3    0  502  0.94384276496E+02  0.42484762460E+03 -0.32725227795E+03  0.54451625247E+03  0.25500000920E-02 0.  1.
</event>
<event>
 5   0  0.3972587E-07  0.2499111E+04  0.7818609E-02  0.8403302E-01
       -1   -1    0    0    0  501  0.00000000000E+00  0.00000000000E+00  0.87948820130E+03  0.87948820132E+03  0.50400001928E-02 0. -1.
        1   -1    0    0  501    0  0.00000000000E+00  0.00000000000E+00 -0.17753377655E+04  0.17753377655E+04  0.50400001928E-02 0.  1.
    10030    2    1    2    0    0  0.00000000000E+00  0.00000000000E+00 -0.89584956424E+03  0.26548259669E+04  0.24991107364E+04 0.  0.
        3    1    3    3  502    0 -0.11962798544E+04 -0.36095661103E+03 -0.45181968601E+03  0.13287272873E+04  0.10100000352E+00 0.  1.
       -3    1    3    3    0  502  0.11962798544E+04  0.36095661103E+03 -0.44402987823E+03  0.13260986796E+04  0.10100000352E+00 0. -1.
</event>
<event>
 5   0  0.9251138E-07  0.2499780E+04  0.7818609E-02  0.8403064E-01
        2   -1    0    0  501    0  0.00000000000E+00  0.00000000000E+00  0.11576710465E+04  0.11576710465E+04  0.25500000920E-02 0. -1.
       -2   -1    0    0    0  501  0.00000000000E+00  0.00000000000E+00 -0.13494551791E+04  0.13494551791E+04  0.25500000920E-02 0.  1.
    10030    2    1    2    0    0  0.00000000000E+00  0.00000000000E+00 -0.19178413258E+03  0.25071262257E+04  0.24997801419E+04 0.  0.
        5    1    3    3  502    0 -0.79591206975E+03  0.77656333253E+03 -0.66824982626E+03  0.12973459648E+04  0.46999998093E+01 0. -1.
       -5    1    3    3    0  502  0.79591206975E+03 -0.77656333253E+03  0.47646569368E+03  0.12097802608E+04  0.46999998093E+01 0.  1.
</event>
<event>
 5   0  0.3214375E-07  0.2501778E+04  0.7818609E-02  0.8402352E-01
        3   -1    0    0  501    0  0.00000000000E+00  0.00000000000E+00  0.66264702497E+03  0.66264703267E+03  0.10100000352E+00 0.  1.
       -3   -1    0    0    0  501  0.00000000000E+00  0.00000000000E+00 -0.23613223692E+04  0.23613223714E+04  0.10100000352E+00 0. -1.
    10030    2    1    2    0    0  0.00000000000E+00  0.00000000000E+00 -0.16986753442E+04  0.30239694040E+04  0.25017779741E+04 0.  0.
        2    1    3    3  502    0  0.66110161904E+03  0.74242304548E+03  0.68401389524E+02  0.99645676236E+03  0.25500000920E-02 0. -1.
       -2    1    3    3    0  502 -0.66110161904E+03 -0.74242304548E+03 -0.17670767338E+04  0.20275126417E+04  0.25500000920E-02 0.  1.
</event>
<event>
 5   0  0.9251138E-07  0.2501141E+04  0.7818609E-02  0.8402579E-01
       -2   -1    0    0    0  501  0.00000000000E+00  0.00000000000E+00  0.65456847738E+03  0.65456847738E+03  0.25500000920E-02 0.  1.
        2   -1    0    0  501    0  0.00000000000E+00  0.00000000000E+00 -0.23892487612E+04  0.23892487612E+04  0.25500000920E-02 0. -1.
    10030    2    1    2    0    0  0.00000000000E+00  0.00000000000E+00 -0.17346802838E+04  0.30438172385E+04  0.25011412784E+04 0.  0.
        5    1    3    3  502    0 -0.12438019512E+04 -0.12387685561E+03 -0.91472495498E+03  0.15489133619E+04  0.46999998093E+01 0. -1.
       -5    1    3    3    0  502  0.12438019512E+04  0.12387685561E+03 -0.81995532879E+03  0.14949038767E+04  0.46999998093E+01 0.  1.
</event>
<event>
 5   0  0.8997210E-07  0.2501307E+04  0.7818609E-02  0.8402520E-01
        2   -1    0    0  501    0  0.00000000000E+00  0.00000000000E+00  0.21793058047E+04  0.21793058047E+04  0.25500000920E-02 0.  1.
       -2   -1    0    0    0  501  0.00000000000E+00  0.00000000000E+00 -0.71772109130E+03  0.71772109131E+03  0.25500000920E-02 0. -1.
    10030    2    1    2    0    0  0.00000000000E+00  0.00000000000E+00  0.14615847134E+04  0.28970268960E+04  0.25013066509E+04 0.  0.
        1    1    3    3  502    0 -0.11285936096E+04  0.49927843892E+03  0.96568613728E+03  0.15670201693E+04  0.50400001928E-02 0.  1.
       -1    1    3    3    0  502  0.11285936096E+04 -0.49927843892E+03  0.49589857608E+03  0.13300067267E+04  0.50400001928E-02 0. -1.
</event>
<event>
 5   0  0.9261602E-07  0.2499920E+04  0.7818609E-02  0.8403014E-01
        2   -1    0    0  501    0  0.00000000000E+00  0.00000000000E+00  0.23100733059E+04  0.23100733059E+04  0.25500000920E-02 0.  1.
       -2   -1    0    0    0  501  0.00000000000E+00  0.00000000000E+00 -0.67634242888E+03  0.67634242889E+03  0.25500000920E-02 0. -1.
    10030    2    1    2    0    0  0.00000000000E+00  0.00000000000E+00  0.16337308770E+04  0.29864157348E+04  0.24999204712E+04 0.  0.
        4    1    3    3  502    0  0.88477142467E+03  0.87454896339E+03  0.96191329873E+03  0.15725568894E+04  0.12699999809E+01 0.  1.
       -4    1    3    3    0  502 -0.88477142467E+03 -0.87454896339E+03  0.67181757831E+03  0.14138588454E+04  0.12699999809E+01 0. -1.
</event>
<event>
 5   0  0.3972587E-07  0.2500429E+04  0.7818609E-02  0.8402833E-01
       -1   -1    0    0    0  501  0.00000000000E+00  0.00000000000E+00  0.15361809046E+04  0.15361809046E+04  0.50400001928E-02 0.  1.
        1   -1    0    0  501    0  0.00000000000E+00  0.00000000000E+00 -0.10174815743E+04  0.10174815743E+04  0.50400001928E-02 0. -1.
    10030    2    1    2    0    0  0.00000000000E+00  0.00000000000E+00  0.51869933036E+03  0.25536624789E+04  0.25004285754E+04 0.  0.
        3    1    3    3  502    0 -0.14890254404E+03 -0.10793218497E+03 -0.10035918391E+04  0.10203028540E+04  0.10100000352E+00 0. -1.
       -3    1    3    3    0  502  0.14890254404E+03  0.10793218497E+03  0.15222911695E+04  0.15333596249E+04  0.10100000352E+00 0.  1.
</event>
<event>
 5   0  0.3805418E-07  0.2499453E+04  0.7818609E-02  0.8403180E-01
       -1   -1    0    0    0  501  0.00000000000E+00  0.00000000000E+00  0.88866887120E+03  0.88866887121E+03  0.50400001928E-02 0.  1.
        1   -1    0    0  501    0  0.00000000000E+00  0.00000000000E+00 -0.17574781554E+04  0.17574781554E+04  0.50400001928E-02 0. -1.
    10030    2    1    2    0    0  0.00000000000E+00  0.00000000000E+00 -0.86880928416E+03  0.26461470266E+04  0.24994528429E+04 0.  0.
        4    1    3    3  502    0  0.68913714530E+03  0.76921644510E+03 -0.11794178585E+04  0.15676836550E+04  0.12699999809E+01 0. -1.
       -4    1    3    3    0  502 -0.68913714530E+03 -0.76921644510E+03  0.31060857432E+03  0.10784633716E+04  0.12699999809E+01 0.  1.
</event>
<event>
 5   0  0.8997210E-07  0.2499639E+04  0.7818609E-02  0.8403114E-01
        2   -1    0    0  501    0  0.00000000000E+00  0.00000000000E+00  0.95194331293E+03  0.95194331294E+03  0.25500000920E-02 0.  1.
       -2   -1    0    0    0  501  0.00000000000E+00  0.00000000000E+00 -0.16409048826E+04  0.16409048826E+04  0.25500000920E-02 0. -1.
    10030    2    1    2    0    0  0.00000000000E+00  0.00000000000E+00 -0.68896156965E+03  0.25928481955E+04  0.24996387180E+04 0.  0.
        1    1    3    3  502    0 -0.27235813784E+03 -0.11759770991E+04 -0.84449757360E+01  0.12071339654E+04  0.50400001928E-02 0.  1.
       -1    1    3    3    0  502  0.27235813784E+03  0.11759770991E+04 -0.68051659391E+03  0.13857142301E+04  0.50400001928E-02 0. -1.
</event>
<event>
 5   0  0.3991066E-07  0.2499272E+04  0.7818609E-02  0.8403245E-01
       -1   -1    0    0    0  501  0.00000000000E+00  0.00000000000E+00  0.68492208166E+03  0.68492208168E+03  0.50400001928E-02 0. -1.
        1   -1    0    0  501    0  0.00000000000E+00  0.00000000000E+00 -0.22799523290E+04  0.22799523290E+04  0.50400001928E-02 0.  1.
    10030    2    1    2    0    0  0.00000000000E+00  0.00000000000E+00 -0.15950302474E+04  0.29648744107E+04  0.24992716502E+04 0.  0.
        1    1    3    3  502    0 -0.27130773794E+03 -0.10256107529E+04 -0.14107004634E+02  0.10609827109E+04  0.50400001928E-02 0. -1.
       -1    1    3    3    0  502  0.27130773794E+03  0.10256107529E+04 -0.15809232427E+04  0.19038916998E+04  0.50400001928E-02 0.  1.
</event>
<event>
 5   0  0.9261602E-07  0.2499640E+04  0.7818609E-02  0.8403114E-01
        2   -1    0    0  501    0  0.00000000000E+00  0.00000000000E+00  0.25712741678E+04  0.25712741678E+04  0.25500000920E-02 0. -1.
       -2   -1    0    0    0  501  0.00000000000E+00  0.00000000000E+00 -0.60750042780E+03  0.60750042781E+03  0.25500000920E-02 0.  1.
    10030    2    1    2    0    0  0.00000000000E+00  0.00000000000E+00  0.19637737400E+04  0.31787745956E+04  0.24996400996E+04 0.  0.
        4    1    3    3  502    0  0.61244836868E+03  0.10642702419E+04  0.12781787429E+04  0.17724295935E+04  0.12699999809E+01 0.  1.
       -4    1    3    3    0  502 -0.61244836868E+03 -0.10642702419E+04  0.68559499708E+03  0.14063450021E+04  0.12699999809E+01 0. -1.
</event>
<event>
 5   0  0.9251138E-07  0.2499393E+04  0.7818609E-02  0.8403202E-01
        2   -1    0    0  501    0  0.00000000000E+00  0.00000000000E+00  0.67341307402E+03  0.67341307403E+03  0.25500000920E-02 0. -1.
       -2   -1    0    0    0  501  0.00000000000E+00  0.00000000000E+00 -0.23191432616E+04  0.23191432616E+04  0.25500000920E-02 0.  1.
    10030    2    1    2    0    0  0.00000000000E+00  0.00000000000E+00 -0.16457301876E+04  0.29925563357E+04  0.24993930407E+04 0.  0.
        5    1    3    3  502    0  0.12109468700E+04 -0.20656085620E+03 -0.54810950801E+03  0.13451787361E+04  0.46999998093E+01 0. -1.
       -5    1    3    3    0  502 -0.12109468700E+04  0.20656085620E+03 -0.10976206796E+04  0.16473775996E+04  0.46999998093E+01 0.  1.
</event>
<event>
 5   0  0.9251138E-07  0.2499095E+04  0.7818609E-02  0.8403308E-01
       -2   -1    0    0    0  501  0.00000000000E+00  0.00000000000E+00  0.58803372873E+03  0.58803372874E+03  0.25500000920E-02 0.  1.
        2   -1    0    0  501    0  0.00000000000E+00  0.00000000000E+00 -0.26552376912E+04  0.26552376912E+04  0.25500000920E-02 0. -1.
    10030    2    1    2    0    0  0.00000000000E+00  0.00000000000E+00 -0.20672039625E+04  0.32432714199E+04  0.24990952925E+04 0.  0.
        5    1    3    3  502    0 -0.12400210438E+04  0.95196101979E+02 -0.87661510176E+03  0.15215750437E+04  0.46999998093E+01 0.  1.
       -5    1    3    3    0  502  0.12400210438E+04 -0.95196101979E+02 -0.11905888607E+04  0.17216963763E+04  0.46999998093E+01 0. -1.
</event>
<event>
 5   0  0.3805418E-07  0.2500553E+04  0.7818609E-02  0.8402789E-01
        1   -1    0    0  501    0  0.00000000000E+00  0.00000000000E+00  0.12230701482E+04  0.12230701482E+04  0.50400001928E-02 0. -1.
       -1   -1    0    0    0  501  0.00000000000E+00  0.00000000000E+00 -0.12780875892E+04  0.12780875893E+04  0.50400001928E-02 0.  1.
    10030    2    1    2    0    0  0.00000000000E+00  0.00000000000E+00 -0.55017441071E+02  0.25011577374E+04  0.25005525607E+04 0.  0.
        4    1    3    3  502    0  0.11228104218E+01  0.60951735475E+03 -0.11194122786E+04  0.12745972418E+04  0.12699999809E+01 0.  1.
       -4    1    3    3    0  502 -0.11228104218E+01 -0.60951735475E+03  0.10643948375E+04  0.12265604956E+04  0.12699999809E+01 0. -1.
</event>
<event>
 5   0  0.3805418E-07  0.2499871E+04  0.7818609E-02  0.8403031E-01
       -1   -1    0    0    0  501  0.00000000000E+00  0.00000000000E+00  0.85426738302E+03  0.85426738304E+03  0.50400001928E-02 0.  1.
        1   -1    0    0  501    0  0.00000000000E+00  0.00000000000E+00 -0.18288641253E+04  0.18288641254E+04  0.50400001928E-02 0. -1.
    10030    2    1    2    0    0  0.00000000000E+00  0.00000000000E+00 -0.97459674233E+03  0.26831315084E+04  0.24998711729E+04 0.  0.
        4    1    3    3  502    0 -0.35157664328E+02  0.10770452186E+04 -0.11670293586E+04  0.15884651715E+04  0.12699999809E+01 0. -1.
       -4    1    3    3    0  502  0.35157664328E+02 -0.10770452186E+04  0.19243261630E+03  0.10946663369E+04  0.12699999809E+01 0.  1.
</event>
<event>
 5   0  0.3991066E-07  0.2499191E+04  0.7818609E-02  0.8403274E-01
       -1   -1    0    0    0  501  0.00000000000E+00  0.00000000000E+00  0.14322451652E+04  0.14322451652E+04  0.50400001928E-02 0.  1.
        1   -1    0    0  501    0  0.00000000000E+00  0.00000000000E+00 -0.10902388093E+04  0.10902388093E+04  0.50400001928E-02 0. -1.
    10030    2    1    2    0    0  0.00000000000E+00  0.00000000000E+00  0.34200635595E+03  0.25224839745E+04  0.24991912800E+04 0.  0.
        1    1    3    3  502    0 -0.54371643352E+03  0.25060754487E+03  0.12780656335E+04  0.14113410166E+04  0.50400001928E-02 0.  1.
       -1    1    3    3    0  502  0.54371643352E+03 -0.25060754487E+03 -0.93605927758E+03  0.11111429579E+04  0.50400001928E-02 0. -1.
</event>
<event>
 5   0  0.9251138E-07  0.2498781E+04  0.7818609E-02  0.8403420E-01
        2   -1    0    0  501    0  0.00000000000E+00  0.00000000000E+00  0.12046325342E+04  0.12046325342E+04  0.25500000920E-02 0.  1.
       -2   -1    0    0    0  501  0.00000000000E+00  0.00000000000E+00 -0.12958118418E+04  0.12958118418E+04  0.25500000920E-02 0. -1.
    10030    2    1    2    0    0  0.00000000000E+00  0.00000000000E+00 -0.91179307518E+02  0.25004443760E+04  0.24987813853E+04 0.  0.
        5    1    3    3  502    0  0.10740008620E+04 -0.61326671784E+03  0.13167533865E+03  0.12437581773E+04  0.46999998093E+01 0.  1.
       -5    1    3    3    0  502 -0.10740008620E+04  0.61326671784E+03 -0.22285464617E+03  0.12566861987E+04  0.46999998093E+01 0. -1.
</event>
<event>
 5   0  0.9261602E-07  0.2499001E+04  0.7818609E-02  0.8403341E-01
       -2   -1    0    0    0  501  0.00000000000E+00  0.00000000000E+00  0.67778486573E+03  0.67778486574E+03  0.25500000920E-02 0. -1.
        2   -1    0    0  501    0  0.00000000000E+00  0.00000000000E+00 -0.23034621977E+04  0.23034621977E+04  0.25500000920E-02 0.  1.
    10030    2    1    2    0    0  0.00000000000E+00  0.00000000000E+00 -0.16256773320E+04  0.29812470635E+04  0.24990012536E+04 0.  0.
        4    1    3    3  502    0 -0.12042118591E+04 -0.22308606182E+03 -0.11083418577E+04  0.16517617501E+04  0.12699999809E+01 0.  1.
       -4    1    3    3    0  502  0.12042118591E+04  0.22308606182E+03 -0.51733547425E+03  0.13294853134E+04  0.12699999809E+01 0. -1.
</event>
<event>
 5   0  0.8997210E-07  0.2500099E+04  0.7818609E-02  0.8402950E-01
       -2   -1    0    0    0  501  0.00000000000E+00  0.00000000000E+00  0.66966493499E+03  0.66966493500E+03  0.25500000920E-02 0.  1.
        2   -1    0    0  501    0  0.00000000000E+00  0.00000000000E+00 -0.23334410151E+04  0.23334410151E+04  0.25500000920E-02 0. -1.
    10030    2    1    2    0    0  0.00000000000E+00  0.00000000000E+00 -0.16637760801E+04  0.30031059501E+04  0.25000988986E+04 0.  0.
        1    1    3    3  502    0  0.29058953406E+03 -0.92021085558E+03 -0.17863606285E+04  0.20303483916E+04  0.50400001928E-02 0. -1.
       -1    1    3    3    0  502 -0.29058953406E+03  0.92021085558E+03  0.12258454846E+03  0.97275755848E+03  0.50400001928E-02 0.  1.
</event>
<event>
 5   0  0.8997210E-07  0.2498963E+04  0.7818609E-02  0.8403355E-01
        2   -1    0    0  501    0  0.00000000000E+00  0.00000000000E+00  0.15076953444E+04  0.15076953444E+04  0.25500000920E-02 0.  1.
       -2   -1    0    0    0  501  0.00000000000E+00  0.00000000000E+00 -0.10354901550E+04  0.10354901550E+04  0.25500000920E-02 0. -1.
    10030    2    1    2    0    0  0.00000000000E+00  0.00000000000E+00  0.47220518939E+03  0.25431854994E+04  0.24989627336E+04 0.  0.
        1    1    3    3  502    0  0.53957403871E+03  0.11177318090E+04  0.89543190065E+02  0.12443803771E+04  0.50400001928E-02 0.  1.
       -1    1    3    3    0  502 -0.53957403871E+03 -0.11177318090E+04  0.38266199933E+03  0.12988051223E+04  0.50400001928E-02 0. -1.
</event>
<event>
 5   0  0.3873231E-07  0.2500123E+04  0.7818609E-02  0.8402942E-01
       -1   -1    0    0    0  501  0.00000000000E+00  0.00000000000E+00  0.10067502224E+04  0.10067502224E+04  0.50400001928E-02 0. -1.
        1   -1    0    0  501    0  0.00000000000E+00  0.00000000000E+00 -0.15521756598E+04  0.15521756598E+04  0.50400001928E-02 0.  1.
    10030    2    1    2    0    0  0.00000000000E+00  0.00000000000E+00 -0.54542543736E+03  0.25589258822E+04  0.25001225496E+04 0.  0.
        2    1    3    3  502    0  0.10366674473E+04  0.50993610394E+03 -0.76137148607E+03  0.13836187214E+04  0.25500000920E-02 0.  1.
       -2    1    3    3    0  502 -0.10366674473E+04 -0.50993610394E+03  0.21594604871E+03  0.11753071608E+04  0.25500000920E-02 0. -1.
</event>
<event>
 5   0  0.3837524E-07  0.2495473E+04  0.7818609E-02  0.8404600E-01
        1   -1    0    0  501    0  0.00000000000E+00  0.00000000000E+00  0.11396205117E+04  0.11396205117E+04  0.50400001928E-02 0.  1.
       -1   -1    0    0    0  501  0.00000000000E+00  0.00000000000E+00 -0.13661090564E+04  0.13661090565E+04  0.50400001928E-02 0. -1.
    10030    2    1    2    0    0  0.00000000000E+00  0.00000000000E+00 -0.22648854474E+03  0.25057295682E+04  0.24954726221E+04 0.  0.
        5    1    3    3  502    0  0.61796897752E+03 -0.10535903899E+04  0.14252892486E+03  0.12297458889E+04  0.46999998093E+01 0.  1.
       -5    1    3    3    0  502 -0.61796897752E+03  0.10535903899E+04 -0.36901746960E+03  0.12759836793E+04  0.46999998093E+01 0. -1.
</event>
<event>
 5   0  0.9251138E-07  0.2500734E+04  0.7818609E-02  0.8402724E-01
        2   -1    0    0  501    0  0.00000000000E+00  0.00000000000E+00  0.10068531625E+04  0.10068531625E+04  0.25500000920E-02 0. -1.
       -2   -1    0    0    0  501  0.00000000000E+00  0.00000000000E+00 -0.15527758348E+04  0.15527758348E+04  0.25500000920E-02 0.  1.
    10030    2    1    2    0    0  0.00000000000E+00  0.00000000000E+00 -0.54592267228E+03  0.25596289972E+04  0.25007337002E+04 0.  0.
        5    1    3    3  502    0  0.65350100217E+03 -0.68175821457E+02  0.81589880132E+03  0.10475802816E+04  0.46999998093E+01 0. -1.
       -5    1    3    3    0  502 -0.65350100217E+03  0.68175821457E+02 -0.13618214736E+04  0.15120487156E+04  0.46999998093E+01 0.  1.
</event>
<event>
 5   0  0.3805418E-07  0.2499907E+04  0.7818609E-02  0.8403019E-01
       -1   -1    0    0    0  501  0.00000000000E+00  0.00000000000E+00  0.12820441884E+04  0.12820441884E+04  0.50400001928E-02 0.  1.
        1   -1    0    0  501    0  0.00000000000E+00  0.00000000000E+00 -0.12186660851E+04  0.12186660851E+04  0.50400001928E-02 0. -1.
    10030    2    1    2    0    0  0.00000000000E+00  0.00000000000E+00  0.63378103352E+02  0.25007102735E+04  0.24999070159E+04 0.  0.
        4    1    3    3  502    0  0.83187886962E+03  0.42798753992E+03  0.86092246190E+03  0.12713712622E+04  0.12699999809E+01 0.  1.
       -4    1    3    3    0  502 -0.83187886962E+03 -0.42798753992E+03 -0.79754435855E+03  0.12293390113E+04  0.12699999809E+01 0. -1.
</event>
<event>
 5   0  0.9508784E-07  0.2503024E+04  0.7818609E-02  0.8401909E-01
       -2   -1    0    0    0  501  0.00000000000E+00  0.00000000000E+00  0.12455514240E+04  0.12455514240E+04  0.25500000920E-02 0.  1.
        2   -1    0    0  501    0  0.00000000000E+00  0.00000000000E+00 -0.12575015322E+04  0.12575015322E+04  0.25500000920E-02 0. -1.
    10030    2    1    2    0    0  0.00000000000E+00  0.00000000000E+00 -0.11950108250E+02  0.25030529562E+04  0.25030244299E+04 0.  0.
        2    1    3    3  502    0  0.10709898896E+03  0.83835202962E+03  0.91706228252E+03  0.12471197012E+04  0.25500000920E-02 0.  1.
       -2    1    3    3    0  502 -0.10709898896E+03 -0.83835202962E+03 -0.92901239077E+03  0.12559332551E+04  0.25500000920E-02 0. -1.
</event>
<event>
 5   0  0.3991066E-07  0.2499581E+04  0.7818609E-02  0.8403135E-01
       -1   -1    0    0    0  501  0.00000000000E+00  0.00000000000E+00  0.97896024803E+03  0.97896024804E+03  0.50400001928E-02 0.  1.
        1   -1    0    0  501    0  0.00000000000E+00  0.00000000000E+00 -0.15955465910E+04  0.15955465910E+04  0.50400001928E-02 0. -1.
    10030    2    1    2    0    0  0.00000000000E+00  0.00000000000E+00 -0.61658634295E+03  0.25745068390E+04  0.24995813141E+04 0.  0.
        1    1    3    3  502    0 -0.83706878442E+02 -0.69564031707E+03 -0.13742326424E+04  0.15425425919E+04  0.50400001928E-02 0. -1.
       -1    1    3    3    0  502  0.83706878442E+02  0.69564031707E+03  0.75764629948E+03  0.10319642471E+04  0.50400001928E-02 0.  1.
</event>
<event>
 5   0  0.9768582E-07  0.2497991E+04  0.7818609E-02  0.8403701E-01
       -2   -1    0    0    0  501  0.00000000000E+00  0.00000000000E+00  0.97857485268E+03  0.97857485268E+03  0.25500000920E-02 0.  1.
        2   -1    0    0  501    0  0.00000000000E+00  0.00000000000E+00 -0.15941450730E+04  0.15941450730E+04  0.25500000920E-02 0. -1.
    10030    2    1    2    0    0  0.00000000000E+00  0.00000000000E+00 -0.61557022031E+03  0.25727199257E+04  0.24979914171E+04 0.  0.
        3    1    3    3  502    0 -0.12237056953E+04 -0.13544884801E+03 -0.91286569657E+02  0.12345587337E+04  0.10100000352E+00 0. -1.
       -3    1    3    3    0  502  0.12237056953E+04  0.13544884801E+03 -0.52428365066E+03  0.13381611919E+04  0.10100000352E+00 0.  1.
</event>
<event>
 5   0  0.9251138E-07  0.2500205E+04  0.7818609E-02  0.8402912E-01
       -2   -1    0    0    0  501  0.00000000000E+00  0.00000000000E+00  0.68715773505E+03  0.68715773506E+03  0.25500000920E-02 0.  1.
        2   -1    0    0  501    0  0.00000000000E+00  0.00000000000E+00 -0.22742329240E+04  0.22742329240E+04  0.25500000920E-02 0. -1.
    10030    2    1    2    0    0  0.00000000000E+00  0.00000000000E+00 -0.15870751889E+04  0.29613906590E+04  0.25002053876E+04 0.  0.
        5    1    3    3  502    0 -0.19163226045E+03 -0.25188585862E+03 -0.22259815533E+04  0.22483739401E+04  0.46999998093E+01 0. -1.
       -5    1    3    3    0  502  0.19163226045E+03  0.25188585862E+03  0.63890636437E+03  0.71301671891E+03  0.46999998093E+01 0.  1.
</event>
<event>
 5   0  0.3991066E-07  0.2500004E+04  0.7818609E-02  0.8402984E-01
       -1   -1    0    0    0  501  0.00000000000E+00  0.00000000000E+00  0.14067896775E+04  0.14067896775E+04  0.50400001928E-02 0.  1.
        1   -1    0    0  501    0  0.00000000000E+00  0.00000000000E+00 -0.11106887809E+04  0.11106887809E+04  0.50400001928E-02 0. -1.
    10030    2    1    2    0    0  0.00000000000E+00  0.00000000000E+00  0.29610089665E+03  0.25174784584E+04  0.25000044095E+04 0.  0.
        1    1    3    3  502    0  0.80132092857E+03  0.76978681446E+03 -0.42850588263E+03  0.11909258003E+04  0.50400001928E-02 0.  1.
       -1    1    3    3    0  502 -0.80132092857E+03 -0.76978681446E+03  0.72460677928E+03  0.13265526582E+04  0.50400001928E-02 0. -1.
</event>
<event>
 5   0  0.3805418E-07  0.2499956E+04  0.7818609E-02  0.8403001E-01
       -1   -1    0    0    0  501  0.00000000000E+00  0.00000000000E+00  0.68899057263E+03  0.68899057265E+03  0.50400001928E-02 0. -1.
        1   -1    0    0  501    0  0.00000000000E+00  0.00000000000E+00 -0.22677302386E+04  0.22677302386E+04  0.50400001928E-02 0.  1.
    10030    2    1    2    0    0  0.00000000000E+00  0.00000000000E+00 -0.15787396659E+04  0.29567208112E+04  0.24999558041E+04 0.  0.
        4    1    3    3  502    0  0.11228021461E+04 -0.54929898865E+03 -0.78298926989E+03  0.14749535070E+04  0.12699999809E+01 0.  1.
       -4    1    3    3    0  502 -0.11228021461E+04  0.54929898865E+03 -0.79575039604E+03  0.14817673042E+04  0.12699999809E+01 0. -1.
</event>
<event>
 5   0  0.3837524E-07  0.2500362E+04  0.7818609E-02  0.8402857E-01
        1   -1    0    0  501    0  0.00000000000E+00  0.00000000000E+00  0.26308256628E+04  0.26308256628E+04  0.50400001928E-02 0. -1.
       -1   -1    0    0    0  501  0.00000000000E+00  0.00000000000E+00 -0.59409199229E+03  0.59409199231E+03  0.50400001928E-02 0.  1.
    10030    2    1    2    0    0  0.00000000000E+00  0.00000000000E+00  0.20367336705E+04  0.32249176551E+04  0.25003619413E+04 0.  0.
        5    1    3    3  502    0  0.11682417506E+04  0.20591943594E+02  0.44486030954E+03  0.12502542146E+04  0.46999998093E+01 0. -1.
       -5    1    3    3    0  502 -0.11682417506E+04 -0.20591943594E+02  0.15918733609E+04  0.19746634405E+04  0.46999998093E+01 0.  1.
</event>
<event>
 5   0  0.3837524E-07  0.2500240E+04  0.7818609E-02  0.8402900E-01
       -1   -1    0    0    0  501  0.00000000000E+00  0.00000000000E+00  0.97411401384E+03  0.97411401385E+03  0.50400001928E-02 0. -1.
        1   -1    0    0  501    0  0.00000000000E+00  0.00000000000E+00 -0.16043296383E+04  0.16043296383E+04  0.50400001928E-02 0.  1.
    10030    2    1    2    0    0  0.00000000000E+00  0.00000000000E+00 -0.63021562450E+03  0.25784436522E+04  0.25002399753E+04 0.  0.
        5    1    3    3  502    0  0.10956177678E+02 -0.63945596164E+03 -0.14228343159E+04  0.15599690847E+04  0.46999998093E+01 0.  1.
       -5    1    3    3    0  502 -0.10956177678E+02  0.63945596164E+03  0.79261869139E+03  0.10184745675E+04  0.46999998093E+01 0. -1.
</event>
<event>
 5   0  0.9251138E-07  0.2500020E+04  0.7818609E-02  0.8402978E-01
       -2   -1    0    0    0  501  0.00000000000E+00  0.00000000000E+00  0.75178909946E+03  0.75178909946E+03  0.25500000920E-02 0. -1.
        2   -1    0    0  501    0  0.00000000000E+00  0.00000000000E+00 -0.20784088321E+04  0.20784088321E+04  0.25500000920E-02 0.  1.
    10030    2    1    2    0    0  0.00000000000E+00  0.00000000000E+00 -0.13266197326E+04  0.28301979315E+04  0.25000200833E+04 0.  0.
        5    1    3    3  502    0  0.27570072769E+03  0.71470539887E+02 -0.20411763908E+04  0.20609565929E+04  0.46999998093E+01 0.  1.
       -5    1    3    3    0  502 -0.27570072769E+03 -0.71470539887E+02  0.71455665820E+03  0.76924133866E+03  0.46999998093E+01 0. -1.
</event>
<event>
 5   0  0.9251138E-07  0.2502609E+04  0.7818609E-02  0.8402056E-01
        2   -1    0    0  501    0  0.00000000000E+00  0.00000000000E+00  0.13168708973E+04  0.13168708973E+04  0.25500000920E-02 0. -1.
       -2   -1    0    0    0  501  0.00000000000E+00  0.00000000000E+00 -0.11890030443E+04  0.11890030443E+04  0.25500000920E-02 0.  1.
    10030    2    1    2    0    0  0.00000000000E+00  0.00000000000E+00  0.12786785300E+03  0.25058739417E+04  0.25026094429E+04 0.  0.
        5    1    3    3  502    0  0.31214983323E+03  0.43056026908E+03  0.11980727711E+04  0.13108089558E+04  0.46999998093E+01 0. -1.
       -5    1    3    3    0  502 -0.31214983323E+03 -0.43056026908E+03 -0.10702049181E+04  0.11950649859E+04  0.46999998093E+01 0.  1.
</event>
<event>
 5   0  0.9768582E-07  0.2500418E+04  0.7818609E-02  0.8402837E-01
        2   -1    0    0  501    0  0.00000000000E+00  0.00000000000E+00  0.12233617592E+04  0.12233617592E+04  0.25500000920E-02 0.  1.
       -2   -1    0    0    0  501  0.00000000000E+00  0.00000000000E+00 -0.12776453844E+04  0.12776453844E+04  0.25500000920E-02 0. -1.
    10030    2    1    2    0    0  0.00000000000E+00  0.00000000000E+00 -0.54283625161E+02  0.25010071436E+04  0.25004179691E+04 0.  0.
        3    1    3    3  502    0  0.80619299251E+03 -0.52858616392E+03  0.76908094580E+03  0.12332217908E+04  0.10100000352E+00 0.  1.
       -3    1    3    3    0  502 -0.80619299251E+03  0.52858616392E+03 -0.82336457096E+03  0.12677853528E+04  0.10100000352E+00 0. -1.
</event>
<event>
 5   0  0.9251138E-07  0.2500066E+04  0.7818609E-02  0.8402962E-01
       -2   -1    0    0    0  501  0.00000000000E+00  0.00000000000E+00  0.15569606066E+04  0.15569606066E+04  0.25500000920E-02 0.  1.
        2   -1    0    0  501    0  0.00000000000E+00  0.00000000000E+00 -0.10036109818E+04  0.10036109818E+04  0.25500000920E-02 0. -1.
    10030    2    1    2    0    0  0.00000000000E+00  0.00000000000E+00  0.55334962481E+03  0.25605715885E+04  0.25000662096E+04 0.  0.
        5    1    3    3  502    0 -0.43547889611E+03 -0.25981872873E+03  0.14468729001E+04  0.15331702188E+04  0.46999998093E+01 0.  1.
       -5    1    3    3    0  502  0.43547889611E+03  0.25981872873E+03 -0.89352327533E+03  0.10274013696E+04  0.46999998093E+01 0. -1.
</event>
<event>
 5   0  0.3873231E-07  0.2500213E+04  0.7818609E-02  0.8402910E-01
       -1   -1    0    0    0  501  0.00000000000E+00  0.00000000000E+00  0.11558811691E+04  0.11558811692E+04  0.50400001928E-02 0.  1.
        1   -1    0    0  501    0  0.00000000000E+00  0.00000000000E+00 -0.13520132846E+04  0.13520132846E+04  0.50400001928E-02 0. -1.
    10030    2    1    2    0    0  0.00000000000E+00  0.00000000000E+00 -0.19613211546E+03  0.25078944538E+04  0.25002133478E+04 0.  0.
        2    1    3    3  502    0  0.11851202091E+04  0.23412668042E+03 -0.42067734332E+03  0.12791773293E+04  0.25500000920E-02 0. -1.
       -2    1    3    3    0  502 -0.11851202091E+04 -0.23412668042E+03  0.22454522786E+03  0.12287171245E+04  0.25500000920E-02 0.  1.
</event>
<event>
 5   0  0.9768582E-07  0.2497669E+04  0.7818609E-02  0.8403816E-01
       -2   -1    0    0    0  501  0.00000000000E+00  0.00000000000E+00  0.11581811679E+04  0.11581811679E+04  0.25500000920E-02 0. -1.
        2   -1    0    0  501    0  0.00000000000E+00  0.00000000000E+00 -0.13465839208E+04  0.13465839208E+04  0.25500000920E-02 0.  1.
    10030    2    1    2    0    0  0.00000000000E+00  0.00000000000E+00 -0.18840275290E+03  0.25047650887E+04  0.24976694241E+04 0.  0.
        3    1    3    3  502    0  0.12155250925E+03 -0.50626717129E+02  0.11512002850E+04  0.11587062541E+04  0.10100000352E+00 0. -1.
       -3    1    3    3    0  502 -0.12155250925E+03  0.50626717129E+02 -0.13396030379E+04  0.13460588346E+04  0.10100000352E+00 0.  1.
</event>
<event>
 5   0  0.9261602E-07  0.2500974E+04  0.7818609E-02  0.8402639E-01
       -2   -1    0    0    0  501  0.00000000000E+00  0.00000000000E+00  0.83080629829E+03  0.83080629830E+03  0.25500000920E-02 0.  1.
        2   -1    0    0  501    0  0.00000000000E+00  0.00000000000E+00 -0.18821688100E+04  0.18821688100E+04  0.25500000920E-02 0. -1.
    10030    2    1    2    0    0  0.00000000000E+00  0.00000000000E+00 -0.10513625117E+04  0.27129751083E+04  0.25009739717E+04 0.  0.
        4    1    3    3  502    0 -0.29625274985E+03 -0.16909038233E+03 -0.18307240292E+04  0.18622323521E+04  0.12699999809E+01 0. -1.
       -4    1    3    3    0  502  0.29625274985E+03  0.16909038233E+03  0.77936151755E+03  0.85074275614E+03  0.12699999809E+01 0.  1.
</event>
<event>
 5   0  0.9768582E-07  0.2499853E+04  0.7818609E-02  0.8403038E-01
       -2   -1    0    0    0  501  0.00000000000E+00  0.00000000000E+00  0.85976118041E+03  0.85976118041E+03  0.25500000920E-02 0.  1.
        2   -1    0    0  501    0  0.00000000000E+00  0.00000000000E+00 -0.18171510781E+04  0.18171510781E+04  0.25500000920E-02 0. -1.
    10030    2    1    2    0    0  0.00000000000E+00  0.00000000000E+00 -0.95738989765E+03  0.26769122585E+04  0.24998527603E+04 0.  0.
        3    1    3    3  502    0 -0.60680705163E+03  0.76473501626E+03 -0.13145456352E+04  0.16373957006E+04  0.10100000352E+00 0. -1.
       -3    1    3    3    0  502  0.60680705163E+03 -0.76473501626E+03  0.35715573759E+03  0.10395165579E+04  0.10100000352E+00 0.  1.
</event>
<event>
 5   0  0.3873231E-07  0.2501765E+04  0.7818609E-02  0.8402357E-01
        1   -1    0    0  501    0  0.00000000000E+00  0.00000000000E+00  0.11607262817E+04  0.11607262817E+04  0.50400001928E-02 0. -1.
       -1   -1    0    0    0  501  0.00000000000E+00  0.00000000000E+00 -0.13480415462E+04  0.13480415463E+04  0.50400001928E-02 0.  1.
    10030    2    1    2    0    0  0.00000000000E+00  0.00000000000E+00 -0.18731526454E+03  0.25087678280E+04  0.25017651781E+04 0.  0.
        2    1    3    3  502    0  0.11252231401E+04  0.11418655047E+02 -0.64149233440E+03  0.12952875803E+04  0.25500000920E-02 0.  1.
       -2    1    3    3    0  502 -0.11252231401E+04 -0.11418655047E+02  0.45417706986E+03  0.12134802476E+04  0.25500000920E-02 0. -1.
</event>
<event>
 5   0  0.9508784E-07  0.2499287E+04  0.7818609E-02  0.8403240E-01
        2   -1    0    0  501    0  0.00000000000E+00  0.00000000000E+00  0.14989754675E+04  0.14989754675E+04  0.25500000920E-02 0. -1.
       -2   -1    0    0    0  501  0.00000000000E+00  0.00000000000E+00 -0.10417839834E+04  0.10417839834E+04  0.25500000920E-02 0.  1.
    10030    2    1    2    0    0  0.00000000000E+00  0.00000000000E+00  0.45719148407E+03  0.25407594509E+04  0.24992868052E+04 0.  0.
        2    1    3    3  502    0 -0.95667427204E+03  0.21130567210E+03  0.10171822205E+04  0.14122802199E+04  0.25500000920E-02 0. -1.
       -2    1    3    3    0  502  0.95667427204E+03 -0.21130567210E+03 -0.55999073648E+03  0.11284792310E+04  0.25500000920E-02 0.  1.
</event>
<event>
 5   0  0.3805418E-07  0.2495292E+04  0.7818609E-02  0.8404665E-01
       -1   -1    0    0    0  501  0.00000000000E+00  0.00000000000E+00  0.15119823940E+04  0.15119823940E+04  0.50400001928E-02 0.  1.
        1   -1    0    0  501    0  0.00000000000E+00  0.00000000000E+00 -0.10295229530E+04  0.10295229530E+04  0.50400001928E-02 0. -1.
    10030    2    1    2    0    0  0.00000000000E+00  0.00000000000E+00  0.48245944101E+03  0.25415053471E+04  0.24952920304E+04 0.  0.
        4    1    3    3  502    0  0.58301082031E+03 -0.10570119077E+04 -0.79956676168E+02  0.12097811672E+04  0.12699999809E+01 0. -1.
       -4    1    3    3    0  502 -0.58301082031E+03  0.10570119077E+04  0.56241611718E+03  0.13317241799E+04  0.12699999809E+01 0.  1.
</event>
<event>
 5   0  0.3805418E-07  0.2500215E+04  0.7818609E-02  0.8402909E-01
       -1   -1    0    0    0  501  0.00000000000E+00  0.00000000000E+00  0.72505227469E+03  0.72505227471E+03  0.50400001928E-02 0.  1.
        1   -1    0    0  501    0  0.00000000000E+00  0.00000000000E+00 -0.21553879439E+04  0.21553879439E+04  0.50400001928E-02 0. -1.
    10030    2    1    2    0    0  0.00000000000E+00  0.00000000000E+00 -0.14303356692E+04  0.28804402186E+04  0.25002151360E+04 0.  0.
        4    1    3    3  502    0  0.86154122917E+03  0.24944334146E+03 -0.17183960480E+04  0.19383915654E+04  0.12699999809E+01 0. -1.
       -4    1    3    3    0  502 -0.86154122917E+03 -0.24944334146E+03  0.28806037884E+03  0.94204865316E+03  0.12699999809E+01 0.  1.
</event>
<event>
 5   0  0.9261602E-07  0.2500088E+04  0.7818609E-02  0.8402954E-01
        2   -1    0    0  501    0  0.00000000000E+00  0.00000000000E+00  0.89671492514E+03  0.89671492514E+03  0.25500000920E-02 0. -1.
       -2   -1    0    0    0  501  0.00000000000E+00  0.00000000000E+00 -0.17425942450E+04  0.17425942450E+04  0.25500000920E-02 0.  1.
    10030    2    1    2    0    0  0.00000000000E+00  0.00000000000E+00 -0.84587931983E+03  0.26393091701E+04  0.25000882128E+04 0.  0.
        4    1    3    3  502    0 -0.80718406779E+02  0.12120423134E+04 -0.11147347659E+03  0.12198319473E+04  0.12699999809E+01 0. -1.
       -4    1    3    3    0  502  0.80718406779E+02 -0.12120423134E+04 -0.73440584324E+03  0.14194772228E+04  0.12699999809E+01 0.  1.
</event>
<event>
 5   0  0.3972587E-07  0.2499274E+04  0.7818609E-02  0.8403244E-01
       -1   -1    0    0    0  501  0.00000000000E+00  0.00000000000E+00  0.14641372598E+04  0.14641372598E+04  0.50400001928E-02 0.  1.
        1   -1    0    0  501    0  0.00000000000E+00  0.00000000000E+00 -0.10665619564E+04  0.10665619564E+04  0.50400001928E-02 0. -1.
    10030    2    1    2    0    0  0.00000000000E+00  0.00000000000E+00  0.39757530346E+03  0.25306992162E+04  0.24992743749E+04 0.  0.
        3    1    3    3  502    0 -0.10118354680E+04 -0.10061332397E+03 -0.53674724722E+03  0.11497963615E+04  0.10100000352E+00 0. -1.
       -3    1    3    3    0  502  0.10118354680E+04  0.10061332397E+03  0.93432255068E+03  0.13809028547E+04  0.10100000352E+00 0.  1.
</event>
<event>
 5   0  0.3873231E-07  0.2499700E+04  0.7818609E-02  0.8403092E-01
       -1   -1    0    0    0  501  0.00000000000E+00  0.00000000000E+00  0.10191417863E+04  0.10191417863E+04  0.50400001928E-02 0.  1.
        1   -1    0    0  501    0  0.00000000000E+00  0.00000000000E+00 -0.15327848404E+04  0.15327848404E+04  0.50400001928E-02 0. -1.
    10030    2    1    2    0    0  0.00000000000E+00  0.00000000000E+00 -0.51364305403E+03  0.25519266267E+04  0.24997000462E+04 0.  0.
        2    1    3    3  502    0 -0.25349282494E+03 -0.10017038868E+03 -0.15020736345E+04  0.15266033940E+04  0.25500000920E-02 0. -1.
       -2    1    3    3    0  502  0.25349282494E+03  0.10017038868E+03  0.98843058049E+03  0.10253232327E+04  0.25500000920E-02 0.  1.
</event>
<event>
 5   0  0.8997210E-07  0.2500678E+04  0.7818609E-02  0.8402744E-01
       -2   -1    0    0    0  501  0.00000000000E+00  0.00000000000E+00  0.10655116015E+04  0.10655116015E+04  0.25500000920E-02 0.  1.
        2   -1    0    0  501    0  0.00000000000E+00  0.00000000000E+00 -0.14672275996E+04  0.14672275996E+04  0.25500000920E-02 0. -1.
    10030    2    1    2    0    0  0.00000000000E+00  0.00000000000E+00 -0.40171599810E+03  0.25327392010E+04  0.25006783314E+04 0.  0.
        1    1    3    3  502    0 -0.12322648766E+04  0.18975052674E+03 -0.10549113441E+03  0.12512435286E+04  0.50400001928E-02 0.  1.
       -1    1    3    3    0  502  0.12322648766E+04 -0.18975052674E+03 -0.29622486370E+03  0.12814956724E+04  0.50400001928E-02 0. -1.
</event>
<event>
 5   0  0.9768582E-07  0.2499397E+04  0.7818609E-02  0.8403200E-01
       -2   -1    0    0    0  501  0.00000000000E+00  0.00000000000E+00  0.68497989856E+03  0.68497989857E+03  0.25500000920E-02 0. -1.
        2   -1    0    0  501    0  0.00000000000E+00  0.00000000000E+00 -0.22799888533E+04  0.22799888533E+04  0.25500000920E-02 0.  1.
    10030    2    1    2    0    0  0.00000000000E+00  0.00000000000E+00 -0.15950089547E+04  0.29649687518E+04  0.24993971541E+04 0.  0.
        3    1    3    3  502    0 -0.33724147181E+03  0.24133518426E+02  0.62969269807E+03  0.71472172293E+03  0.10100000352E+00 0. -1.
       -3    1    3    3    0  502  0.33724147181E+03 -0.24133518426E+02 -0.22247016528E+04  0.22502470289E+04  0.10100000352E+00 0.  1.
</event>
<event>
 5   0  0.9261602E-07  0.2499685E+04  0.7818609E-02  0.8403098E-01
        2   -1    0    0  501    0  0.00000000000E+00  0.00000000000E+00  0.89871613911E+03  0.89871613911E+03  0.25500000920E-02 0.  1.
       -2   -1    0    0    0  501  0.00000000000E+00  0.00000000000E+00 -0.17381532241E+04  0.17381532241E+04  0.25500000920E-02 0. -1.
    10030    2    1    2    0    0  0.00000000000E+00  0.00000000000E+00 -0.83943708503E+03  0.26368693633E+04  0.24996850640E+04 0.  0.
        4    1    3    3  502    0  0.44929249379E+03  0.16690620886E+03  0.79791866877E+03  0.93080462096E+03  0.12699999809E+01 0.  1.
       -4    1    3    3    0  502 -0.44929249379E+03 -0.16690620886E+03 -0.16373557538E+04  0.17060647423E+04  0.12699999809E+01 0. -1.
</event>
<event>
 5   0  0.3991066E-07  0.2501586E+04  0.7818609E-02  0.8402421E-01
       -1   -1    0    0    0  501  0.00000000000E+00  0.00000000000E+00  0.14885246061E+04  0.14885246061E+04  0.50400001928E-02 0. -1.
        1   -1    0    0  501    0  0.00000000000E+00  0.00000000000E+00 -0.10510292956E+04  0.10510292957E+04  0.50400001928E-02 0.  1.
    10030    2    1    2    0    0  0.00000000000E+00  0.00000000000E+00  0.43749531044E+03  0.25395539017E+04  0.25015858716E+04 0.  0.
        1    1    3    3  502    0  0.11367054151E+04 -0.39578153673E+03 -0.12662277562E+03  0.12102791218E+04  0.50400001928E-02 0. -1.
       -1    1    3    3    0  502 -0.11367054151E+04  0.39578153673E+03  0.56411808607E+03  0.13292747799E+04  0.50400001928E-02 0.  1.
</event>
<event>
 5   0  0.9261602E-07  0.2499746E+04  0.7818609E-02  0.8403076E-01
        2   -1    0    0  501    0  0.00000000000E+00  0.00000000000E+00  0.25693159628E+04  0.25693159628E+04  0.25500000920E-02 0. -1.
       -2   -1    0    0    0  501  0.00000000000E+00  0.00000000000E+00 -0.60801484457E+03  0.60801484458E+03  0.25500000920E-02 0.  1.
    10030    2    1    2    0    0  0.00000000000E+00  0.00000000000E+00  0.19613011183E+04  0.31773308074E+04  0.24997457837E+04 0.  0.
        4    1    3    3  502    0  0.11827070268E+04  0.33850873520E+03  0.12614273354E+04  0.17619831470E+04  0.12699999809E+01 0. -1.
       -4    1    3    3    0  502 -0.11827070268E+04 -0.33850873520E+03  0.69987378286E+03  0.14153476604E+04  0.12699999809E+01 0.  1.
</event>
<event>
 5   0  0.3972587E-07  0.2504922E+04  0.7818609E-02  0.8401234E-01
       -1   -1    0    0    0  501  0.00000000000E+00  0.00000000000E+00  0.89251136807E+03  0.89251136808E+03  0.50400001928E-02 0.  1.
        1   -1    0    0  501    0  0.00000000000E+00  0.00000000000E+00 -0.17575779317E+04  0.17575779317E+04  0.50400001928E-02 0. -1.
    10030    2    1    2    0    0  0.00000000000E+00  0.00000000000E+00 -0.86506656367E+03  0.26500892998E+04  0.25049217827E+04 0.  0.
        3    1    3    3  502    0  0.63244225921E+03 -0.10436682109E+04 -0.73070287028E+03  0.14223759139E+04  0.10100000352E+00 0. -1.
       -3    1    3    3    0  502 -0.63244225921E+03  0.10436682109E+04 -0.13436369340E+03  0.12277133859E+04  0.10100000352E+00 0.  1.
</event>
<event>
 5   0  0.9768582E-07  0.2499357E+04  0.7818609E-02  0.8403215E-01
        2   -1    0    0  501    0  0.00000000000E+00  0.00000000000E+00  0.77303773575E+03  0.77303773576E+03  0.25500000920E-02 0.  1.
       -2   -1    0    0    0  501  0.00000000000E+00  0.00000000000E+00 -0.20202077052E+04  0.20202077052E+04  0.25500000920E-02 0. -1.
    10030    2    1    2    0    0  0.00000000000E+00  0.00000000000E+00 -0.12471699694E+04  0.27932454409E+04  0.24993573495E+04 0.  0.
        3    1    3    3  502    0  0.42331215593E+03 -0.98878759245E+03  0.87468783044E+02  0.10791408076E+04  0.10100000352E+00 0.  1.
       -3    1    3    3    0  502 -0.42331215593E+03  0.98878759245E+03 -0.13346387525E+04  0.17141046334E+04  0.10100000352E+00 0. -1.
</event>
<event>
 5   0  0.9768582E-07  0.2500584E+04  0.7818609E-02  0.8402778E-01
        2   -1    0    0  501    0  0.00000000000E+00  0.00000000000E+00  0.59064196775E+03  0.59064196776E+03  0.25500000920E-02 0. -1.
       -2   -1    0    0    0  501  0.00000000000E+00  0.00000000000E+00 -0.26466623819E+04  0.26466623819E+04  0.25500000920E-02 0.  1.
    10030    2    1    2    0    0  0.00000000000E+00  0.00000000000E+00 -0.20560204142E+04  0.32373043497E+04  0.25005838336E+04 0.  0.
        3    1    3    3  502    0 -0.41385354103E+03 -0.77546925023E+03 -0.21791318478E+04  0.23497325234E+04  0.10100000352E+00 0.  1.
       -3    1    3    3    0  502  0.41385354103E+03  0.77546925023E+03  0.12311143360E+03  0.88757182625E+03  0.10100000352E+00 0. -1.
</event>
<event>
 5   0  0.3805418E-07  0.2499924E+04  0.7818609E-02  0.8403013E-01
       -1   -1    0    0    0  501  0.00000000000E+00  0.00000000000E+00  0.90109882703E+03  0.90109882704E+03  0.50400001928E-02 0. -1.
        1   -1    0    0  501    0  0.00000000000E+00  0.00000000000E+00 -0.17338879630E+04  0.17338879630E+04  0.50400001928E-02 0.  1.
    10030    2    1    2    0    0  0.00000000000E+00  0.00000000000E+00 -0.83278913601E+03  0.26349867901E+04  0.24999235266E+04 0.  0.
        4    1    3    3  502    0  0.93853035564E+02  0.12443297097E+04 -0.49267858546E+03  0.13416030040E+04  0.12699999809E+01 0. -1.
       -4    1    3    3    0  502 -0.93853035564E+02 -0.12443297097E+04 -0.34011055055E+03  0.12933837861E+04  0.12699999809E+01 0.  1.
</event>
<event>
 5   0  0.3991066E-07  0.2501174E+04  0.7818609E-02  0.8402567E-01
        1   -1    0    0  501    0  0.00000000000E+00  0.00000000000E+00  0.15608643438E+04  0.15608643438E+04  0.50400001928E-02 0. -1.
       -1   -1    0    0    0  501  0.00000000000E+00  0.00000000000E+00 -0.10019884128E+04  0.10019884128E+04  0.50400001928E-02 0.  1.
    10030    2    1    2    0    0  0.00000000000E+00  0.00000000000E+00  0.55887593092E+03  0.25628527566E+04  0.25011741135E+04 0.  0.
        1    1    3    3  502    0 -0.71471414842E+03 -0.30834749781E+03  0.12823876419E+04  0.15001375129E+04  0.50400001928E-02 0. -1.
       -1    1    3    3    0  502  0.71471414842E+03  0.30834749781E+03 -0.72351171098E+03  0.10627152438E+04  0.50400001928E-02 0.  1.
</event>
<event>
 5   0  0.8997210E-07  0.2499662E+04  0.7818609E-02  0.8403106E-01
       -2   -1    0    0    0  501  0.00000000000E+00  0.00000000000E+00  0.10303602444E+04  0.10303602444E+04  0.25500000920E-02 0. -1.
        2   -1    0    0  501    0  0.00000000000E+00  0.00000000000E+00 -0.15160500726E+04  0.15160500726E+04  0.25500000920E-02 0.  1.
    10030    2    1    2    0    0  0.00000000000E+00  0.00000000000E+00 -0.48568982821E+03  0.25464103169E+04  0.24996621557E+04 0.  0.
        1    1    3    3  502    0  0.10594282204E+04  0.13655288286E+03 -0.90385826821E+03  0.13992836071E+04  0.50400001928E-02 0.  1.
       -1    1    3    3    0  502 -0.10594282204E+04 -0.13655288286E+03  0.41816844000E+03  0.11471267098E+04  0.50400001928E-02 0. -1.
</event>
<event>
 5   0  0.3805418E-07  0.2500189E+04  0.7818609E-02  0.8402918E-01
        1   -1    0    0  501    0  0.00000000000E+00  0.00000000000E+00  0.16770217679E+04  0.16770217679E+04  0.50400001928E-02 0.  1.
       -1   -1    0    0    0  501  0.00000000000E+00  0.00000000000E+00 -0.93185241371E+03  0.93185241372E+03  0.50400001928E-02 0. -1.
    10030    2    1    2    0    0  0.00000000000E+00  0.00000000000E+00  0.74516935417E+03  0.26088741816E+04  0.25001894186E+04 0.  0.
        4    1    3    3  502    0 -0.68207951638E+03  0.39392212403E+03  0.13855189933E+04  0.15937602079E+04  0.12699999809E+01 0.  1.
       -4    1    3    3    0  502  0.68207951638E+03 -0.39392212403E+03 -0.64034963913E+03  0.10151139737E+04  0.12699999809E+01 0. -1.
</event>
<event>
 5   0  0.9251138E-07  0.2500172E+04  0.7818609E-02  0.8402924E-01
        2   -1    0    0  501    0  0.00000000000E+00  0.00000000000E+00  0.18757829165E+04  0.18757829165E+04  0.25500000920E-02 0.  1.
       -2   -1    0    0    0  501  0.00000000000E+00  0.00000000000E+00 -0.83310000691E+03  0.83310000692E+03  0.25500000920E-02 0. -1.
    10030    2    1    2    0    0  0.00000000000E+00  0.00000000000E+00  0.10426829096E+04  0.27088829234E+04  0.25001718026E+04 0.  0.
        5    1    3    3  502    0  0.94743441762E+03  0.22700657963E+02 -0.36190662629E+03  0.10144682310E+04  0.46999998093E+01 0. -1.
       -5    1    3    3    0  502 -0.94743441762E+03 -0.22700657963E+02  0.14045895359E+04  0.16944146924E+04  0.46999998093E+01 0.  1.
</event>
<event>
 5   0  0.3873231E-07  0.2489655E+04  0.7818609E-02  0.8406680E-01
       -1   -1    0    0    0  501  0.00000000000E+00  0.00000000000E+00  0.14245817433E+04  0.14245817433E+04  0.50400001928E-02 0. -1.
        1   -1    0    0  501    0  0.00000000000E+00  0.00000000000E+00 -0.10877549711E+04  0.10877549711E+04  0.50400001928E-02 0.  1.
    10030    2    1    2    0    0  0.00000000000E+00  0.00000000000E+00  0.33682677224E+03  0.25123367144E+04  0.24896552959E+04 0.  0.
        2    1    3    3  502    0 -0.85663048166E+03  0.27233505705E+03  0.10374288368E+04  0.13726764939E+04  0.25500000920E-02 0. -1.
       -2    1    3    3    0  502  0.85663048166E+03 -0.27233505705E+03 -0.70060206457E+03  0.11396602205E+04  0.25500000920E-02 0.  1.
</event>
<event>
 5   0  0.3837524E-07  0.2499504E+04  0.7818609E-02  0.8403162E-01
        1   -1    0    0  501    0  0.00000000000E+00  0.00000000000E+00  0.95213878308E+03  0.95213878309E+03  0.50400001928E-02 0. -1.
       -1   -1    0    0    0  501  0.00000000000E+00  0.00000000000E+00 -0.16403911460E+04  0.16403911460E+04  0.50400001928E-02 0.  1.
    10030    2    1    2    0    0  0.00000000000E+00  0.00000000000E+00 -0.68825236290E+03  0.25925299291E+04  0.24995039744E+04 0.  0.
        5    1    3    3  502    0 -0.86330499958E+03 -0.35461840972E+02  0.59242165878E+03  0.10476347533E+04  0.46999998093E+01 0. -1.
       -5    1    3    3    0  502  0.86330499958E+03  0.35461840972E+02 -0.12806740217E+04  0.15448951758E+04  0.46999998093E+01 0.  1.
</event>
<event>
 5   0  0.3991066E-07  0.2498562E+04  0.7818609E-02  0.8403498E-01
        1   -1    0    0  501    0  0.00000000000E+00  0.00000000000E+00  0.10843350977E+04  0.10843350977E+04  0.50400001928E-02 0. -1.
       -1   -1    0    0    0  501  0.00000000000E+00  0.00000000000E+00 -0.14393175872E+04  0.14393175872E+04  0.50400001928E-02 0.  1.
    10030    2    1    2    0    0  0.00000000000E+00  0.00000000000E+00 -0.35498248948E+03  0.25236526849E+04  0.24985616474E+04 0.  0.
        1    1    3    3  502    0 -0.40190866633E+03 -0.49446208362E+03  0.90785971950E+03  0.11091585092E+04  0.50400001928E-02 0. -1.
       -1    1    3    3    0  502  0.40190866633E+03  0.49446208362E+03 -0.12628422090E+04  0.14144941757E+04  0.50400001928E-02 0.  1.
</event>
<event>
 5   0  0.9251138E-07  0.2499981E+04  0.7818609E-02  0.8402992E-01
        2   -1    0    0  501    0  0.00000000000E+00  0.00000000000E+00  0.19650024945E+04  0.19650024945E+04  0.25500000920E-02 0. -1.
       -2   -1    0    0    0  501  0.00000000000E+00  0.00000000000E+00 -0.79515230920E+03  0.79515230921E+03  0.25500000920E-02 0.  1.
    10030    2    1    2    0    0  0.00000000000E+00  0.00000000000E+00  0.11698501853E+04  0.27601548037E+04  0.24999810168E+04 0.  0.
        5    1    3    3  502    0 -0.99356884367E+03 -0.74410985615E+03  0.42275202431E+03  0.13113427810E+04  0.46999998093E+01 0. -1.
       -5    1    3    3    0  502  0.99356884367E+03  0.74410985615E+03  0.74709816103E+03  0.14488120228E+04  0.46999998093E+01 0.  1.
</event>
<event>
 5   0  0.3873231E-07  0.2497970E+04  0.7818609E-02  0.8403709E-01
        1   -1    0    0  501    0  0.00000000000E+00  0.00000000000E+00  0.18551429048E+04  0.18551429048E+04  0.50400001928E-02 0. -1.
       -1   -1    0    0    0  501  0.00000000000E+00  0.00000000000E+00 -0.84088570624E+03  0.84088570626E+03  0.50400001928E-02 0.  1.
    10030    2    1    2    0    0  0.00000000000E+00  0.00000000000E+00  0.10142571985E+04  0.26960286110E+04  0.24979696969E+04 0.  0.
        2    1    3    3  502    0 -0.98028252028E+03  0.13321133351E+03 -0.31572783877E+03  0.10384522845E+04  0.25500000920E-02 0.  1.
       -2    1    3    3    0  502  0.98028252028E+03 -0.13321133351E+03  0.13299850373E+04  0.16575763266E+04  0.25500000920E-02 0. -1.
</event>
<event>
 5   0  0.3972587E-07  0.2499553E+04  0.7818609E-02  0.8403145E-01
        1   -1    0    0  501    0  0.00000000000E+00  0.00000000000E+00  0.67993313179E+03  0.67993313181E+03  0.50400001928E-02 0.  1.
       -1   -1    0    0    0  501  0.00000000000E+00  0.00000000000E+00 -0.22971977325E+04  0.22971977325E+04  0.50400001928E-02 0. -1.
    10030    2    1    2    0    0  0.00000000000E+00  0.00000000000E+00 -0.16172646007E+04  0.29771308643E+04  0.24995526389E+04 0.  0.
        3    1    3    3  502    0 -0.84850356652E+03  0.89933141073E+03 -0.10256075247E+04  0.16064327231E+04  0.10100000352E+00 0.  1.
       -3    1    3    3    0  502  0.84850356652E+03 -0.89933141073E+03 -0.59165707599E+03  0.13706981413E+04  0.10100000352E+00 0. -1.
</event>
<event>
 5   0  0.9768582E-07  0.2499052E+04  0.7818609E-02  0.8403323E-01
        2   -1    0    0  501    0  0.00000000000E+00  0.00000000000E+00  0.15199093575E+04  0.15199093575E+04  0.25500000920E-02 0.  1.
       -2   -1    0    0    0  501  0.00000000000E+00  0.00000000000E+00 -0.10272424449E+04  0.10272424449E+04  0.25500000920E-02 0. -1.
    10030    2    1    2    0    0  0.00000000000E+00  0.00000000000E+00  0.49266691263E+03  0.25471518024E+04  0.24990521438E+04 0.  0.
        3    1    3    3  502    0 -0.12136831865E+04  0.85128991654E+02  0.53649071409E+03  0.13296977547E+04  0.10100000352E+00 0. -1.
       -3    1    3    3    0  502  0.12136831865E+04 -0.85128991654E+02 -0.43823801457E+02  0.12174540477E+04  0.10100000352E+00 0.  1.
</event>
<event>
 5   0  0.9251138E-07  0.2499483E+04  0.7818609E-02  0.8403170E-01
       -2   -1    0    0    0  501  0.00000000000E+00  0.00000000000E+00  0.24774308190E+04  0.24774308190E+04  0.25500000920E-02 0. -1.
        2   -1    0    0  501    0  0.00000000000E+00  0.00000000000E+00 -0.63043283293E+03  0.63043283294E+03  0.25500000920E-02 0.  1.
    10030    2    1    2    0    0  0.00000000000E+00  0.00000000000E+00  0.18469979861E+04  0.31078636519E+04  0.24994829302E+04 0.  0.
        5    1    3    3  502    0  0.94396661716E+02 -0.33117712674E+03  0.24172611570E+04  0.24416720931E+04  0.46999998093E+01 0. -1.
       -5    1    3    3    0  502 -0.94396661716E+02  0.33117712674E+03 -0.57026317091E+03  0.66619155887E+03  0.46999998093E+01 0.  1.
</event>
<event>
 5   0  0.8997210E-07  0.2500961E+04  0.7818609E-02  0.8402643E-01
        2   -1    0    0  501    0  0.00000000000E+00  0.00000000000E+00  0.11142007727E+04  0.11142007727E+04  0.25500000920E-02 0.  1.
       -2   -1    0    0    0  501  0.00000000000E+00  0.00000000000E+00 -0.14034283616E+04  0.14034283616E+04  0.25500000920E-02 0. -1.
    10030    2    1    2    0    0  0.00000000000E+00  0.00000000000E+00 -0.28922758889E+03  0.25176291343E+04  0.25009605874E+04 0.  0.
        1    1    3    3  502    0 -0.34869380053E+03  0.10991588820E+04 -0.63153515180E+03  0.13147525479E+04  0.50400001928E-02 0.  1.
       -1    1    3    3    0  502  0.34869380053E+03 -0.10991588820E+04  0.34230756291E+03  0.12028765864E+04  0.50400001928E-02 0. -1.
</event>
<event>
 5   0  0.3805418E-07  0.2499976E+04  0.7818609E-02  0.8402994E-01
       -1   -1    0    0    0  501  0.00000000000E+00  0.00000000000E+00  0.10452551851E+04  0.10452551851E+04  0.50400001928E-02 0.  1.
        1   -1    0    0  501    0  0.00000000000E+00  0.00000000000E+00 -0.14948219149E+04  0.14948219149E+04  0.50400001928E-02 0. -1.
    10030    2    1    2    0    0  0.00000000000E+00  0.00000000000E+00 -0.44956672984E+03  0.25400771000E+04  0.24999762857E+04 0.  0.
        4    1    3    3  502    0 -0.24530583716E+02 -0.38209118586E+03 -0.14337747585E+04  0.14840172151E+04  0.12699999809E+01 0. -1.
       -4    1    3    3    0  502  0.24530583716E+02  0.38209118586E+03  0.98420802864E+03  0.10560598849E+04  0.12699999809E+01 0.  1.
</event>
<event>
 5   0  0.3972587E-07  0.2499628E+04  0.7818609E-02  0.8403118E-01
        1   -1    0    0  501    0  0.00000000000E+00  0.00000000000E+00  0.13133078881E+04  0.13133078881E+04  0.50400001928E-02 0.  1.
       -1   -1    0    0    0  501  0.00000000000E+00  0.00000000000E+00 -0.11893902103E+04  0.11893902103E+04  0.50400001928E-02 0. -1.
    10030    2    1    2    0    0  0.00000000000E+00  0.00000000000E+00  0.12391767778E+03  0.25026980985E+04  0.24996284086E+04 0.  0.
        3    1    3    3  502    0 -0.11733485894E+04  0.39642938509E+02 -0.36718981584E+03  0.12301003398E+04  0.10100000352E+00 0. -1.
       -3    1    3    3    0  502  0.11733485894E+04 -0.39642938509E+02  0.49110749362E+03  0.12725977587E+04  0.10100000352E+00 0.  1.
</event>
<event>
 5   0  0.3991066E-07  0.2499082E+04  0.7818609E-02  0.8403313E-01
       -1   -1    0    0    0  501  0.00000000000E+00  0.00000000000E+00  0.32335242543E+04  0.32335242543E+04  0.50400001928E-02 0. -1.
        1   -1    0    0  501    0  0.00000000000E+00  0.00000000000E+00 -0.48286400051E+03  0.48286400054E+03  0.50400001928E-02 0.  1.
    10030    2    1    2    0    0  0.00000000000E+00  0.00000000000E+00  0.27506602538E+04  0.37163882549E+04  0.24990817972E+04 0.  0.
        1    1    3    3  502    0  0.65465249461E+03 -0.59454511003E+03  0.62548233191E+02  0.88654726781E+03  0.50400001928E-02 0.  1.
       -1    1    3    3    0  502 -0.65465249461E+03  0.59454511003E+03  0.26881120206E+04  0.28298409871E+04  0.50400001928E-02 0. -1.
</event>
<event>
 5   0  0.9508784E-07  0.2500137E+04  0.7818609E-02  0.8402937E-01
       -2   -1    0    0    0  501  0.00000000000E+00  0.00000000000E+00  0.58250040216E+03  0.58250040216E+03  0.25500000920E-02 0. -1.
        2   -1    0    0  501    0  0.00000000000E+00  0.00000000000E+00 -0.26826950407E+04  0.26826950407E+04  0.25500000920E-02 0.  1.
    10030    2    1    2    0    0  0.00000000000E+00  0.00000000000E+00 -0.21001946385E+04  0.32651954428E+04  0.25001367483E+04 0.  0.
        2    1    3    3  502    0  0.41786233404E+03 -0.11623422687E+04 -0.79880567072E+03  0.14709653223E+04  0.25500000920E-02 0. -1.
       -2    1    3    3    0  502 -0.41786233404E+03  0.11623422687E+04 -0.13013889678E+04  0.17942301205E+04  0.25500000920E-02 0.  1.
</event>
<event>
 5   0  0.3991066E-07  0.2498948E+04  0.7818609E-02  0.8403360E-01
        1   -1    0    0  501    0  0.00000000000E+00  0.00000000000E+00  0.15054979097E+04  0.15054979097E+04  0.50400001928E-02 0. -1.
       -1   -1    0    0    0  501  0.00000000000E+00  0.00000000000E+00 -0.10369896517E+04  0.10369896517E+04  0.50400001928E-02 0.  1.
    10030    2    1    2    0    0  0.00000000000E+00  0.00000000000E+00  0.46850825792E+03  0.25424875614E+04  0.24989483813E+04 0.  0.
        1    1    3    3  502    0  0.35588749222E+03  0.32547719437E+03  0.14069834054E+04  0.14873444841E+04  0.50400001928E-02 0. -1.
       -1    1    3    3    0  502 -0.35588749222E+03 -0.32547719437E+03 -0.93847514749E+03  0.10551430773E+04  0.50400001928E-02 0.  1.
</event>
<event>
 5   0  0.3214375E-07  0.2498987E+04  0.7818609E-02  0.8403346E-01
        4   -1    0    0  501    0  0.00000000000E+00  0.00000000000E+00  0.15494841874E+04  0.15494847078E+04  0.12699999809E+01 0.  1.
       -4   -1    0    0    0  501  0.00000000000E+00  0.00000000000E+00 -0.10075821235E+04  0.10075829239E+04  0.12699999809E+01 0. -1.
    10030    2    1    2    0    0  0.00000000000E+00  0.00000000000E+00  0.54190206381E+03  0.25570676317E+04  0.24989872001E+04 0.  0.
        5    1    3    3  502    0 -0.72527435506E+03 -0.50137511611E+03 -0.63495721209E+03  0.10865508034E+04  0.46999998093E+01 0. -1.
       -5    1    3    3    0  502  0.72527435506E+03  0.50137511611E+03  0.11768592759E+04  0.14705168283E+04  0.46999998093E+01 0.  1.
</event>
<event>
 5   0  0.3805418E-07  0.2503048E+04  0.7818609E-02  0.8401900E-01
        1   -1    0    0  501    0  0.00000000000E+00  0.00000000000E+00  0.18451521686E+04  0.18451521686E+04  0.50400001928E-02 0.  1.
       -1   -1    0    0    0  501  0.00000000000E+00  0.00000000000E+00 -0.84888003553E+03  0.84888003554E+03  0.50400001928E-02 0. -1.
    10030    2    1    2    0    0  0.00000000000E+00  0.00000000000E+00  0.99627213304E+03  0.26940322041E+04  0.25030484122E+04 0.  0.
        4    1    3    3  502    0  0.77447625987E+03  0.69566325965E+03  0.12457973007E+04  0.16235065061E+04  0.12699999809E+01 0.  1.
       -4    1    3    3    0  502 -0.77447625987E+03 -0.69566325965E+03 -0.24952516768E+03  0.10705256980E+04  0.12699999809E+01 0. -1.
</event>
<event>
 5   0  0.8997210E-07  0.2499824E+04  0.7818609E-02  0.8403048E-01
        2   -1    0    0  501    0  0.00000000000E+00  0.00000000000E+00  0.11516183618E+04  0.11516183618E+04  0.25500000920E-02 0. -1.
       -2   -1    0    0    0  501  0.00000000000E+00  0.00000000000E+00 -0.13565952322E+04  0.13565952322E+04  0.25500000920E-02 0.  1.
    10030    2    1    2    0    0  0.00000000000E+00  0.00000000000E+00 -0.20497687040E+03  0.25082135940E+04  0.24998239770E+04 0.  0.
        1    1    3    3  502    0 -0.93924886415E+02  0.61524568440E+03 -0.11900685045E+04  0.13429862925E+04  0.50400001928E-02 0.  1.
       -1    1    3    3    0  502  0.93924886415E+02 -0.61524568440E+03  0.98509163413E+03  0.11652273015E+04  0.50400001928E-02 0. -1.
</event>
<event>
 5   0  0.9768582E-07  0.2499843E+04  0.7818609E-02  0.8403041E-01
       -2   -1    0    0    0  501  0.00000000000E+00  0.00000000000E+00  0.69400940955E+03  0.69400940956E+03  0.25500000920E-02 0.  1.
        2   -1    0    0  501    0  0.00000000000E+00  0.00000000000E+00 -0.22511280906E+04  0.22511280906E+04  0.25500000920E-02 0. -1.
    10030    2    1    2    0    0  0.00000000000E+00  0.00000000000E+00 -0.15571186811E+04  0.29451375002E+04  0.24998432567E+04 0.  0.
        3    1    3    3  502    0  0.10029211336E+04 -0.67719704277E+03 -0.11471036449E+04  0.16674211877E+04  0.10100000352E+00 0. -1.
       -3    1    3    3    0  502 -0.10029211336E+04  0.67719704277E+03 -0.41001503622E+03  0.12777163125E+04  0.10100000352E+00 0.  1.
</event>
<event>
 5   0  0.3873231E-07  0.2501127E+04  0.7818609E-02  0.8402584E-01
       -1   -1    0    0    0  501  0.00000000000E+00  0.00000000000E+00  0.11439475600E+04  0.11439475601E+04  0.50400001928E-02 0.  1.
        1   -1    0    0  501    0  0.00000000000E+00  0.00000000000E+00 -0.13671160124E+04  0.13671160124E+04  0.50400001928E-02 0. -1.
    10030    2    1    2    0    0  0.00000000000E+00  0.00000000000E+00 -0.22316845238E+03  0.25110635725E+04  0.25011269674E+04 0.  0.
        2    1    3    3  502    0  0.32346133045E+03  0.37388285239E+03 -0.12648398506E+04  0.13580263132E+04  0.25500000920E-02 0. -1.
       -2    1    3    3    0  502 -0.32346133045E+03 -0.37388285239E+03  0.10416713982E+04  0.11530372593E+04  0.25500000920E-02 0.  1.
</event>
<event>
 5   0  0.3837524E-07  0.2497911E+04  0.7818609E-02  0.8403730E-01
        1   -1    0    0  501    0  0.00000000000E+00  0.00000000000E+00  0.10243258883E+04  0.10243258883E+04  0.50400001928E-02 0. -1.
       -1   -1    0    0    0  501  0.00000000000E+00  0.00000000000E+00 -0.15228455349E+04  0.15228455349E+04  0.50400001928E-02 0.  1.
    10030    2    1    2    0    0  0.00000000000E+00  0.00000000000E+00 -0.49851964668E+03  0.25471714232E+04  0.24979112116E+04 0.  0.
        5    1    3    3  502    0  0.30306987826E+03  0.68165195304E+03 -0.12706957838E+04  0.14734960472E+04  0.46999998093E+01 0.  1.
       -5    1    3    3    0  502 -0.30306987826E+03 -0.68165195304E+03  0.77217613714E+03  0.10736753760E+04  0.46999998093E+01 0. -1.
</event>
<event>
 5   0  0.9251138E-07  0.2498454E+04  0.7818609E-02  0.8403536E-01
       -2   -1    0    0    0  501  0.00000000000E+00  0.00000000000E+00  0.86920344974E+03  0.86920344975E+03  0.25500000920E-02 0. -1.
        2   -1    0    0  501    0  0.00000000000E+00  0.00000000000E+00 -0.17954006690E+04  0.17954006690E+04  0.25500000920E-02 0.  1.
    10030    2    1    2    0    0  0.00000000000E+00  0.00000000000E+00 -0.92619721928E+03  0.26646041188E+04  0.24984542863E+04 0.  0.
        5    1    3    3  502    0 -0.56603972419E+03  0.93419998879E+03  0.18335920189E+03  0.11075979755E+04  0.46999998093E+01 0. -1.
       -5    1    3    3    0  502  0.56603972419E+03 -0.93419998879E+03 -0.11095564212E+04  0.15570061433E+04  0.46999998093E+01 0.  1.
</event>
<event>
 5   0  0.8997210E-07  0.2500201E+04  0.7818609E-02  0.8402914E-01
        2   -1    0    0  501    0  0.00000000000E+00  0.00000000000E+00  0.88511579590E+03  0.88511579590E+03  0.25500000920E-02 0. -1.
       -2   -1    0    0    0  501  0.00000000000E+00  0.00000000000E+00 -0.17655899828E+04  0.17655899828E+04  0.25500000920E-02 0.  1.
    10030    2    1    2    0    0  0.00000000000E+00  0.00000000000E+00 -0.88047418688E+03  0.26507057787E+04  0.25002012582E+04 0.  0.
        1    1    3    3  502    0 -0.62901723832E+03  0.10755932543E+04 -0.33322520074E+03  0.12898071830E+04  0.50400001928E-02 0.  1.
       -1    1    3    3    0  502  0.62901723832E+03 -0.10755932543E+04 -0.54724898614E+03  0.13608985957E+04  0.50400001928E-02 0. -1.
</event>
<event>
 5   0  0.3837524E-07  0.2501332E+04  0.7818609E-02  0.8402511E-01
        1   -1    0    0  501    0  0.00000000000E+00  0.00000000000E+00  0.14651378191E+04  0.14651378191E+04  0.50400001928E-02 0.  1.
       -1   -1    0    0    0  501  0.00000000000E+00  0.00000000000E+00 -0.10675895180E+04  0.10675895181E+04  0.50400001928E-02 0. -1.
    10030    2    1    2    0    0  0.00000000000E+00  0.00000000000E+00  0.39754830105E+03  0.25327273372E+04  0.25013322676E+04 0.  0.
        5    1    3    3  502    0 -0.34727505937E+03 -0.95044328874E+03  0.94298304344E+03  0.13831780515E+04  0.46999998093E+01 0.  1.
       -5    1    3    3    0  502  0.34727505937E+03  0.95044328874E+03 -0.54543474238E+03  0.11495492857E+04  0.46999998093E+01 0. -1.
</event>
<event>
 5   0  0.3805418E-07  0.2502802E+04  0.7818609E-02  0.8401988E-01
        1   -1    0    0  501    0  0.00000000000E+00  0.00000000000E+00  0.27859150936E+04  0.27859150936E+04  0.50400001928E-02 0.  1.
       -1   -1    0    0    0  501  0.00000000000E+00  0.00000000000E+00 -0.56211476257E+03  0.56211476260E+03  0.50400001928E-02 0. -1.
    10030    2    1    2    0    0  0.00000000000E+00  0.00000000000E+00  0.22238003311E+04  0.33480298562E+04  0.25028016313E+04 0.  0.
        4    1    3    3  502    0  0.11753157155E+04 -0.28466551178E+03  0.15424710559E+04  0.19600051163E+04  0.12699999809E+01 0.  1.
       -4    1    3    3    0  502 -0.11753157155E+04  0.28466551178E+03  0.68132927514E+03  0.13880247399E+04  0.12699999809E+01 0. -1.
</event>
<event>
 5   0  0.9261602E-07  0.2498867E+04  0.7818609E-02  0.8403389E-01
       -2   -1    0    0    0  501  0.00000000000E+00  0.00000000000E+00  0.93996186557E+03  0.93996186557E+03  0.25500000920E-02 0.  1.
        2   -1    0    0  501    0  0.00000000000E+00  0.00000000000E+00 -0.16607946269E+04  0.16607946269E+04  0.25500000920E-02 0. -1.
    10030    2    1    2    0    0  0.00000000000E+00  0.00000000000E+00 -0.72083276131E+03  0.26007564925E+04  0.24988666358E+04 0.  0.
        4    1    3    3  502    0 -0.25207982980E+03 -0.71695133012E+02  0.91103242879E+03  0.94798002716E+03  0.12699999809E+01 0.  1.
       -4    1    3    3    0  502  0.25207982980E+03  0.71695133012E+02 -0.16318651901E+04  0.16527764653E+04  0.12699999809E+01 0. -1.
</event>
<event>
 5   0  0.8997210E-07  0.2499039E+04  0.7818609E-02  0.8403328E-01
       -2   -1    0    0    0  501  0.00000000000E+00  0.00000000000E+00  0.77969618441E+03  0.77969618441E+03  0.25500000920E-02 0.  1.
        2   -1    0    0  501    0  0.00000000000E+00  0.00000000000E+00 -0.20024460548E+04  0.20024460548E+04  0.25500000920E-02 0. -1.
    10030    2    1    2    0    0  0.00000000000E+00  0.00000000000E+00 -0.12227498704E+04  0.27821422392E+04  0.24990394542E+04 0.  0.
        1    1    3    3  502    0 -0.43795124782E+03 -0.82250135468E+03 -0.15381399488E+04  0.17983837955E+04  0.50400001928E-02 0. -1.
       -1    1    3    3    0  502  0.43795124782E+03  0.82250135468E+03  0.31539007842E+03  0.98375844368E+03  0.50400001928E-02 0.  1.
</event>
<event>
 5   0  0.9251138E-07  0.2499716E+04  0.7818609E-02  0.8403087E-01
       -2   -1    0    0    0  501  0.00000000000E+00  0.00000000000E+00  0.16199156202E+04  0.16199156202E+04  0.25500000920E-02 0. -1.
        2   -1    0    0  501    0  0.00000000000E+00  0.00000000000E+00 -0.96433730800E+03  0.96433730800E+03  0.25500000920E-02 0.  1.
    10030    2    1    2    0    0  0.00000000000E+00  0.00000000000E+00  0.65557831224E+03  0.25842529282E+04  0.24997160386E+04 0.  0.
        5    1    3    3  502    0 -0.26004677207E+03  0.52118423398E+01  0.15916176941E+04  0.16127369473E+04  0.46999998093E+01 0. -1.
       -5    1    3    3    0  502  0.26004677207E+03 -0.52118423398E+01 -0.93603938183E+03  0.97151598098E+03  0.46999998093E+01 0.  1.
</event>
<event>
 5   0  0.9251138E-07  0.2498950E+04  0.7818609E-02  0.8403360E-01
        2   -1    0    0  501    0  0.00000000000E+00  0.00000000000E+00  0.77811952020E+03  0.77811952020E+03  0.25500000920E-02 0. -1.
       -2   -1    0    0    0  501  0.00000000000E+00  0.00000000000E+00 -0.20063593396E+04  0.20063593396E+04  0.25500000920E-02 0.  1.
    10030    2    1    2    0    0  0.00000000000E+00  0.00000000000E+00 -0.12282398194E+04  0.27844788598E+04  0.24989496727E+04 0.  0.
        5    1    3    3  502    0 -0.25131308844E+03  0.11947875649E+04 -0.90995466485E+03  0.15227327985E+04  0.46999998093E+01 0. -1.
       -5    1    3    3    0  502  0.25131308844E+03 -0.11947875649E+04 -0.31828515459E+03  0.12617460613E+04  0.46999998093E+01 0.  1.
</event>
<event>
 5   0  0.9251138E-07  0.2500257E+04  0.7818609E-02  0.8402894E-01
        2   -1    0    0  501    0  0.00000000000E+00  0.00000000000E+00  0.18185064108E+04  0.18185064108E+04  0.25500000920E-02 0. -1.
       -2   -1    0    0    0  501  0.00000000000E+00  0.00000000000E+00 -0.85939849583E+03  0.85939849583E+03  0.25500000920E-02 0.  1.
    10030    2    1    2    0    0  0.00000000000E+00  0.00000000000E+00  0.95910791496E+03  0.26779049066E+04  0.25002573260E+04 0.  0.
        5    1    3    3  502    0 -0.20589027513E+03  0.66546035862E+03  0.15913713112E+04  0.17371565946E+04  0.46999998093E+01 0. -1.
       -5    1    3    3    0  502  0.20589027513E+03 -0.66546035862E+03 -0.63226339621E+03  0.94074831197E+03  0.46999998093E+01 0.  1.
</event>
<event>
 5   0  0.3837524E-07  0.2497008E+04  0.7818609E-02  0.8404052E-01
        1   -1    0    0  501    0  0.00000000000E+00  0.00000000000E+00  0.23281561382E+04  0.23281561382E+04  0.50400001928E-02 0. -1.
       -1   -1    0    0    0  501  0.00000000000E+00  0.00000000000E+00 -0.66952651879E+03  0.66952651881E+03  0.50400001928E-02 0.  1.
    10030    2    1    2    0    0  0.00000000000E+00  0.00000000000E+00  0.16586296194E+04  0.29976826570E+04  0.24970080292E+04 0.  0.
        5    1    3    3  502    0 -0.16079445069E+03  0.47039044064E+03 -0.54557985735E+03  0.73810669470E+03  0.46999998093E+01 0.  1.
       -5    1    3    3    0  502  0.16079445069E+03 -0.47039044064E+03  0.22042094767E+04  0.22595759623E+04  0.46999998093E+01 0. -1.
</event>
<event>
 5   0  0.8997210E-07  0.2500090E+04  0.7818609E-02  0.8402953E-01
        2   -1    0    0  501    0  0.00000000000E+00  0.00000000000E+00  0.10586240604E+04  0.10586240604E+04  0.25500000920E-02 0. -1.
       -2   -1    0    0    0  501  0.00000000000E+00  0.00000000000E+00 -0.14760788329E+04  0.14760788329E+04  0.25500000920E-02 0.  1.
    10030    2    1    2    0    0  0.00000000000E+00  0.00000000000E+00 -0.41745477250E+03  0.25347028932E+04  0.25000900524E+04 0.  0.
        1    1    3    3  502    0  0.12352856107E+04  0.18553236557E+03 -0.16053222712E+03  0.12594139092E+04  0.50400001928E-02 0. -1.
       -1    1    3    3    0  502 -0.12352856107E+04 -0.18553236557E+03 -0.25692254538E+03  0.12752889841E+04  0.50400001928E-02 0.  1.
</event>
<event>
 5   0  0.3873231E-07  0.2500021E+04  0.7818609E-02  0.8402978E-01
        1   -1    0    0  501    0  0.00000000000E+00  0.00000000000E+00  0.92817854642E+03  0.92817854643E+03  0.50400001928E-02 0. -1.
       -1   -1    0    0    0  501  0.00000000000E+00  0.00000000000E+00 -0.16834322973E+04  0.16834322973E+04  0.50400001928E-02 0.  1.
    10030    2    1    2    0    0  0.00000000000E+00  0.00000000000E+00 -0.75525375091E+03  0.26116108438E+04  0.25000205941E+04 0.  0.
        2    1    3    3  502    0  0.65886771137E+02  0.35864930326E+02  0.92582502840E+03  0.92885916212E+03  0.25500000920E-02 0. -1.
       -2    1    3    3    0  502 -0.65886771137E+02 -0.35864930326E+02 -0.16810787793E+04  0.16827516816E+04  0.25500000920E-02 0.  1.
</event>
<event>
 5   0  0.3873231E-07  0.2498942E+04  0.7818609E-02  0.8403363E-01
       -1   -1    0    0    0  501  0.00000000000E+00  0.00000000000E+00  0.69301751240E+03  0.69301751241E+03  0.50400001928E-02 0.  1.
        1   -1    0    0  501    0  0.00000000000E+00  0.00000000000E+00 -0.22527247254E+04  0.22527247255E+04  0.50400001928E-02 0. -1.
    10030    2    1    2    0    0  0.00000000000E+00  0.00000000000E+00 -0.15597072131E+04  0.29457422379E+04  0.24989419244E+04 0.  0.
        2    1    3    3  502    0  0.81936189587E+03 -0.35992850258E+03 -0.18076900279E+04  0.20170884166E+04  0.25500000920E-02 0. -1.
       -2    1    3    3    0  502 -0.81936189587E+03  0.35992850258E+03  0.24798281481E+03  0.92865382131E+03  0.25500000920E-02 0.  1.
</event>
<event>
 5   0  0.3972587E-07  0.2500113E+04  0.7818609E-02  0.8402945E-01
        1   -1    0    0  501    0  0.00000000000E+00  0.00000000000E+00  0.11908018155E+04  0.11908018155E+04  0.50400001928E-02 0.  1.
       -1   -1    0    0    0  501  0.00000000000E+00  0.00000000000E+00 -0.13122593588E+04  0.13122593589E+04  0.50400001928E-02 0. -1.
    10030    2    1    2    0    0  0.00000000000E+00  0.00000000000E+00 -0.12145754332E+03  0.25030611744E+04  0.25001126590E+04 0.  0.
        3    1    3    3  502    0 -0.70184724614E+03 -0.88380157057E+03  0.47744219035E+03  0.12254165938E+04  0.10100000352E+00 0.  1.
       -3    1    3    3    0  502  0.70184724614E+03  0.88380157057E+03 -0.59889973367E+03  0.12776445806E+04  0.10100000352E+00 0. -1.
</event>
<event>
 5   0  0.8997210E-07  0.2500250E+04  0.7818609E-02  0.8402897E-01
        2   -1    0    0  501    0  0.00000000000E+00  0.00000000000E+00  0.23727911308E+04  0.23727911308E+04  0.25500000920E-02 0.  1.
       -2   -1    0    0    0  501  0.00000000000E+00  0.00000000000E+00 -0.65863874411E+03  0.65863874412E+03  0.25500000920E-02 0. -1.
    10030    2    1    2    0    0  0.00000000000E+00  0.00000000000E+00  0.17141523867E+04  0.30314298749E+04  0.25002497239E+04 0.  0.
        1    1    3    3  502    0  0.12317030305E+04 -0.15495286059E+03  0.10357201416E+04  0.16167309473E+04  0.50400001928E-02 0.  1.
       -1    1    3    3    0  502 -0.12317030305E+04  0.15495286059E+03  0.67843224514E+03  0.14146989276E+04  0.50400001928E-02 0. -1.
</event>
<event>
 5   0  0.3805418E-07  0.2500054E+04  0.7818609E-02  0.8402966E-01
       -1   -1    0    0    0  501  0.00000000000E+00  0.00000000000E+00  0.14544505505E+04  0.14544505505E+04  0.50400001928E-02 0.  1.
        1   -1    0    0  501    0  0.00000000000E+00  0.00000000000E+00 -0.10743354109E+04  0.10743354109E+04  0.50400001928E-02 0. -1.
    10030    2    1    2    0    0  0.00000000000E+00  0.00000000000E+00  0.38011513960E+03  0.25287859615E+04  0.25000541833E+04 0.  0.
        4    1    3    3  502    0  0.74682718878E+03 -0.43453549444E+03 -0.72364780353E+03  0.11270491126E+04  0.12699999809E+01 0. -1.
       -4    1    3    3    0  502 -0.74682718878E+03  0.43453549444E+03  0.11037629431E+04  0.14017368488E+04  0.12699999809E+01 0.  1.
</event>
<event>
 5   0  0.3805418E-07  0.2500477E+04  0.7818609E-02  0.8402815E-01
       -1   -1    0    0    0  501  0.00000000000E+00  0.00000000000E+00  0.11056622022E+04  0.11056622022E+04  0.50400001928E-02 0.  1.
        1   -1    0    0  501    0  0.00000000000E+00  0.00000000000E+00 -0.14137199964E+04  0.14137199964E+04  0.50400001928E-02 0. -1.
    10030    2    1    2    0    0  0.00000000000E+00  0.00000000000E+00 -0.30805779420E+03  0.25193821987E+04  0.25004773661E+04 0.  0.
        4    1    3    3  502    0 -0.63813718876E+03  0.38366115998E+03 -0.11659528485E+04  0.13834242354E+04  0.12699999809E+01 0. -1.
       -4    1    3    3    0  502  0.63813718876E+03 -0.38366115998E+03  0.85789505426E+03  0.11359579633E+04  0.12699999809E+01 0.  1.
</event>
<event>
 5   0  0.3837524E-07  0.2499150E+04  0.7818609E-02  0.8403288E-01
        1   -1    0    0  501    0  0.00000000000E+00  0.00000000000E+00  0.14333520766E+04  0.14333520766E+04  0.50400001928E-02 0. -1.
       -1   -1    0    0    0  501  0.00000000000E+00  0.00000000000E+00 -0.10893609108E+04  0.10893609108E+04  0.50400001928E-02 0.  1.
    10030    2    1    2    0    0  0.00000000000E+00  0.00000000000E+00  0.34399116576E+03  0.25227129874E+04  0.24991500345E+04 0.  0.
        5    1    3    3  502    0  0.15303012087E+02 -0.50692139723E+03 -0.98079291410E+03  0.11041649856E+04  0.46999998093E+01 0.  1.
       -5    1    3    3    0  502 -0.15303012087E+02  0.50692139723E+03  0.13247840799E+04  0.14185480018E+04  0.46999998093E+01 0. -1.
</event>
<event>
 5   0  0.9508784E-07  0.2499697E+04  0.7818609E-02  0.8403093E-01
        2   -1    0    0  501    0  0.00000000000E+00  0.00000000000E+00  0.13709237933E+04  0.13709237933E+04  0.25500000920E-02 0.  1.
       -2   -1    0    0    0  501  0.00000000000E+00  0.00000000000E+00 -0.11394665425E+04  0.11394665425E+04  0.25500000920E-02 0. -1.
    10030    2    1    2    0    0  0.00000000000E+00  0.00000000000E+00  0.23145725080E+03  0.25103903358E+04  0.24996974175E+04 0.  0.
        2    1    3    3  502    0  0.10331377193E+03 -0.65170471141E+03 -0.95028696070E+03  0.11569088443E+04  0.25500000920E-02 0. -1.
       -2    1    3    3    0  502 -0.10331377193E+03  0.65170471141E+03  0.11817442115E+04  0.13534814915E+04  0.25500000920E-02 0.  1.
</event>
<event>
 5   0  0.9261602E-07  0.2498951E+04  0.7818609E-02  0.8403359E-01
        2   -1    0    0  501    0  0.00000000000E+00  0.00000000000E+00  0.11791418764E+04  0.11791418764E+04  0.25500000920E-02 0.  1.
       -2   -1    0    0    0  501  0.00000000000E+00  0.00000000000E+00 -0.13240045070E+04  0.13240045070E+04  0.25500000920E-02 0. -1.
    10030    2    1    2    0    0  0.00000000000E+00  0.00000000000E+00 -0.14486263060E+03  0.25031463833E+04  0.24989511069E+04 0.  0.
        4    1    3    3  502    0  0.99628300639E+03  0.59514806573E+03  0.39138653551E+03  0.12247310244E+04  0.12699999809E+01 0.  1.
       -4    1    3    3    0  502 -0.99628300639E+03 -0.59514806573E+03 -0.53624916612E+03  0.12784153590E+04  0.12699999809E+01 0. -1.
</event>
<event>
 5   0  0.9251138E-07  0.2499397E+04  0.7818609E-02  0.8403200E-01
       -2   -1    0    0    0  501  0.00000000000E+00  0.00000000000E+00  0.14683129554E+04  0.14683129554E+04  0.25500000920E-02 0. -1.
        2   -1    0    0  501    0  0.00000000000E+00  0.00000000000E+00 -0.10636331480E+04  0.10636331480E+04  0.25500000920E-02 0.  1.
    10030    2    1    2    0    0  0.00000000000E+00  0.00000000000E+00  0.40467980741E+03  0.25319461034E+04  0.24993969920E+04 0.  0.
        5    1    3    3  502    0  0.10335818204E+03  0.11498147171E+04 -0.28239699673E+03  0.11884977708E+04  0.46999998093E+01 0.  1.
       -5    1    3    3    0  502 -0.10335818204E+03 -0.11498147171E+04  0.68707680414E+03  0.13434483325E+04  0.46999998093E+01 0. -1.
</event>
<event>
 5   0  0.9768582E-07  0.2499918E+04  0.7818609E-02  0.8403015E-01
       -2   -1    0    0    0  501  0.00000000000E+00  0.00000000000E+00  0.69139146125E+03  0.69139146125E+03  0.25500000920E-02 0. -1.
        2   -1    0    0  501    0  0.00000000000E+00  0.00000000000E+00 -0.22597869788E+04  0.22597869788E+04  0.25500000920E-02 0.  1.
    10030    2    1    2    0    0  0.00000000000E+00  0.00000000000E+00 -0.15683955176E+04  0.29511784401E+04  0.24999179358E+04 0.  0.
        3    1    3    3  502    0  0.50620888645E+03 -0.10572497188E+04 -0.27183323456E+03  0.12032945284E+04  0.10100000352E+00 0. -1.
       -3    1    3    3    0  502 -0.50620888645E+03  0.10572497188E+04 -0.12965622830E+04  0.17478839116E+04  0.10100000352E+00 0.  1.
</event>
<event>
 5   0  0.9251138E-07  0.2501149E+04  0.7818609E-02  0.8402576E-01
        2   -1    0    0  501    0  0.00000000000E+00  0.00000000000E+00  0.19060455937E+04  0.19060455937E+04  0.25500000920E-02 0. -1.
       -2   -1    0    0    0  501  0.00000000000E+00  0.00000000000E+00 -0.82051398362E+03  0.82051398363E+03  0.25500000920E-02 0.  1.
    10030    2    1    2    0    0  0.00000000000E+00  0.00000000000E+00  0.10855316100E+04  0.27265595773E+04  0.25011493862E+04 0.  0.
        5    1    3    3  502    0 -0.27397832664E+03 -0.46030398309E+02 -0.78643841775E+03  0.83408056922E+03  0.46999998093E+01 0.  1.
       -5    1    3    3    0  502  0.27397832664E+03  0.46030398309E+02  0.18719700278E+04  0.18924790081E+04  0.46999998093E+01 0. -1.
</event>
<event>
 5   0  0.9508784E-07  0.2496611E+04  0.7818609E-02  0.8404194E-01
        2   -1    0    0  501    0  0.00000000000E+00  0.00000000000E+00  0.13481979061E+04  0.13481979061E+04  0.25500000920E-02 0.  1.
       -2   -1    0    0    0  501  0.00000000000E+00  0.00000000000E+00 -0.11558144022E+04  0.11558144022E+04  0.25500000920E-02 0. -1.
    10030    2    1    2    0    0  0.00000000000E+00  0.00000000000E+00  0.19238350387E+03  0.25040123082E+04  0.24966109483E+04 0.  0.
        2    1    3    3  502    0 -0.87561478069E+03 -0.23226248215E+03 -0.76520210285E+03  0.11858251823E+04  0.25500000920E-02 0. -1.
       -2    1    3    3    0  502  0.87561478069E+03  0.23226248215E+03  0.95758560672E+03  0.13181871259E+04  0.25500000920E-02 0.  1.
</event>
<event>
 5   0  0.3991066E-07  0.2500416E+04  0.7818609E-02  0.8402837E-01
        1   -1    0    0  501    0  0.00000000000E+00  0.00000000000E+00  0.12394243092E+04  0.12394243093E+04  0.50400001928E-02 0.  1.
       -1   -1    0    0    0  501  0.00000000000E+00  0.00000000000E+00 -0.12610851464E+04  0.12610851464E+04  0.50400001928E-02 0. -1.
    10030    2    1    2    0    0  0.00000000000E+00  0.00000000000E+00 -0.21660837125E+02  0.25005094556E+04  0.25004156346E+04 0.  0.
        1    1    3    3  502    0 -0.40052691893E+03 -0.97167557604E+03 -0.68794100988E+03  0.12561202454E+04  0.50400001928E-02 0. -1.
       -1    1    3    3    0  502  0.40052691893E+03  0.97167557604E+03  0.66628017276E+03  0.12443892102E+04  0.50400001928E-02 0.  1.
</event>
<event>
 5   0  0.3805418E-07  0.2499149E+04  0.7818609E-02  0.8403289E-01
        1   -1    0    0  501    0  0.00000000000E+00  0.00000000000E+00  0.19778993410E+04  0.19778993410E+04  0.50400001928E-02 0.  1.
       -1   -1    0    0    0  501  0.00000000000E+00  0.00000000000E+00 -0.78944169317E+03  0.78944169319E+03  0.50400001928E-02 0. -1.
    10030    2    1    2    0    0  0.00000000000E+00  0.00000000000E+00  0.11884576478E+04  0.27673410342E+04  0.24991488189E+04 0.  0.
        4    1    3    3  502    0 -0.39453179628E+03 -0.42551124372E+03 -0.63120219568E+03  0.85739896288E+03  0.12699999809E+01 0. -1.
       -4    1    3    3    0  502  0.39453179628E+03  0.42551124372E+03  0.18196598435E+04  0.19099420713E+04  0.12699999809E+01 0.  1.
</event>
<event>
 5   0  0.9261602E-07  0.2500249E+04  0.7818609E-02  0.8402897E-01
        2   -1    0    0  501    0  0.00000000000E+00  0.00000000000E+00  0.18014428310E+04  0.18014428310E+04  0.25500000920E-02 0. -1.
       -2   -1    0    0    0  501  0.00000000000E+00  0.00000000000E+00 -0.86753317730E+03  0.86753317730E+03  0.25500000920E-02 0.  1.
    10030    2    1    2    0    0  0.00000000000E+00  0.00000000000E+00  0.93390965374E+03  0.26689760083E+04  0.25002491259E+04 0.  0.
        4    1    3    3  502    0 -0.86982716636E+03 -0.89750500783E+03  0.49510224968E+03  0.13443371560E+04  0.12699999809E+01 0. -1.
       -4    1    3    3    0  502  0.86982716636E+03  0.89750500783E+03  0.43880740406E+03  0.13246388524E+04  0.12699999809E+01 0.  1.
</event>
<event>
 5   0  0.9261602E-07  0.2492037E+04  0.7818609E-02  0.8405828E-01
        2   -1    0    0  501    0  0.00000000000E+00  0.00000000000E+00  0.17362719055E+04  0.17362719055E+04  0.25500000920E-02 0. -1.
       -2   -1    0    0    0  501  0.00000000000E+00  0.00000000000E+00 -0.89419286567E+03  0.89419286567E+03  0.25500000920E-02 0.  1.
    10030    2    1    2    0    0  0.00000000000E+00  0.00000000000E+00  0.84207903981E+03  0.26304647712E+04  0.24920368783E+04 0.  0.
        4    1    3    3  502    0 -0.92640040275E+03  0.33411739403E+03 -0.38471655628E+03  0.10572892607E+04  0.12699999809E+01 0.  1.
       -4    1    3    3    0  502  0.92640040275E+03 -0.33411739403E+03  0.12267955961E+04  0.15731755105E+04  0.12699999809E+01 0. -1.
</event>
<event>
 5   0  0.3873231E-07  0.2501591E+04  0.7818609E-02  0.8402419E-01
       -1   -1    0    0    0  501  0.00000000000E+00  0.00000000000E+00  0.27454106859E+04  0.27454106859E+04  0.50400001928E-02 0. -1.
        1   -1    0    0  501    0  0.00000000000E+00  0.00000000000E+00 -0.56985627210E+03  0.56985627212E+03  0.50400001928E-02 0.  1.
    10030    2    1    2    0    0  0.00000000000E+00  0.00000000000E+00  0.21755544138E+04  0.33152669580E+04  0.25015910928E+04 0.  0.
        2    1    3    3  502    0 -0.46617888173E+03  0.33083624900E+03 -0.38661272648E+03  0.69010490051E+03  0.25500000920E-02 0.  1.
       -2    1    3    3    0  502  0.46617888173E+03 -0.33083624900E+03  0.25621671402E+04  0.26251620575E+04  0.25500000920E-02 0. -1.
</event>
<event>
 5   0  0.3873231E-07  0.2500236E+04  0.7818609E-02  0.8402902E-01
        1   -1    0    0  501    0  0.00000000000E+00  0.00000000000E+00  0.10545777690E+04  0.10545777690E+04  0.50400001928E-02 0.  1.
       -1   -1    0    0    0  501  0.00000000000E+00  0.00000000000E+00 -0.14819152474E+04  0.14819152474E+04  0.50400001928E-02 0. -1.
    10030    2    1    2    0    0  0.00000000000E+00  0.00000000000E+00 -0.42733747840E+03  0.25364930165E+04  0.25002358893E+04 0.  0.
        2    1    3    3  502    0 -0.97507793562E+03  0.42495885080E+03 -0.88002546341E+03  0.13805114348E+04  0.25500000920E-02 0. -1.
       -2    1    3    3    0  502  0.97507793562E+03 -0.42495885080E+03  0.45268798500E+03  0.11559815817E+04  0.25500000920E-02 0.  1.
</event>
<event>
 5   0  0.9508784E-07  0.2499316E+04  0.7818609E-02  0.8403229E-01
        2   -1    0    0  501    0  0.00000000000E+00  0.00000000000E+00  0.18615922338E+04  0.18615922339E+04  0.25500000920E-02 0. -1.
       -2   -1    0    0    0  501  0.00000000000E+00  0.00000000000E+00 -0.83887605879E+03  0.83887605880E+03  0.25500000920E-02 0.  1.
    10030    2    1    2    0    0  0.00000000000E+00  0.00000000000E+00  0.10227161751E+04  0.27004682926E+04  0.24993160314E+04 0.  0.
        2    1    3    3  502    0  0.70165755616E+03  0.10297948017E+04  0.40974387254E+03  0.13117510056E+04  0.25500000920E-02 0. -1.
       -2    1    3    3    0  502 -0.70165755616E+03 -0.10297948017E+04  0.61297230251E+03  0.13887172870E+04  0.25500000920E-02 0.  1.
</event>
<event>
 5   0  0.9768582E-07  0.2499611E+04  0.7818609E-02  0.8403124E-01
        2   -1    0    0  501    0  0.00000000000E+00  0.00000000000E+00  0.15058689229E+04  0.15058689229E+04  0.25500000920E-02 0. -1.
       -2   -1    0    0    0  501  0.00000000000E+00  0.00000000000E+00 -0.10372838426E+04  0.10372838426E+04  0.25500000920E-02 0.  1.
    10030    2    1    2    0    0  0.00000000000E+00  0.00000000000E+00  0.46858508031E+03  0.25431527656E+04  0.24996107720E+04 0.  0.
        3    1    3    3  502    0  0.61967573884E+03 -0.10377161312E+04  0.55789065227E+03  0.13312005035E+04  0.10100000352E+00 0. -1.
       -3    1    3    3    0  502 -0.61967573884E+03  0.10377161312E+04 -0.89305571959E+02  0.12119522621E+04  0.10100000352E+00 0.  1.
</event>
<event>
 5   0  0.9508784E-07  0.2499681E+04  0.7818609E-02  0.8403099E-01
        2   -1    0    0  501    0  0.00000000000E+00  0.00000000000E+00  0.10578516644E+04  0.10578516644E+04  0.25500000920E-02 0.  1.
       -2   -1    0    0    0  501  0.00000000000E+00  0.00000000000E+00 -0.14766732667E+04  0.14766732667E+04  0.25500000920E-02 0. -1.
    10030    2    1    2    0    0  0.00000000000E+00  0.00000000000E+00 -0.41882160237E+03  0.25345249311E+04  0.24996809980E+04 0.  0.
        2    1    3    3  502    0 -0.82299264051E+03 -0.43291378181E+03  0.63731661653E+03  0.11273436470E+04  0.25500000920E-02 0. -1.
       -2    1    3    3    0  502  0.82299264051E+03  0.43291378181E+03 -0.10561382189E+04  0.14071812841E+04  0.25500000920E-02 0.  1.
</event>
<event>
 5   0  0.8997210E-07  0.2501464E+04  0.7818609E-02  0.8402464E-01
       -2   -1    0    0    0  501  0.00000000000E+00  0.00000000000E+00  0.83489033167E+03  0.83489033167E+03  0.25500000920E-02 0.  1.
        2   -1    0    0  501    0  0.00000000000E+00  0.00000000000E+00 -0.18736963142E+04  0.18736963142E+04  0.25500000920E-02 0. -1.
    10030    2    1    2    0    0  0.00000000000E+00  0.00000000000E+00 -0.10388059825E+04  0.27085866459E+04  0.25014643209E+04 0.  0.
        1    1    3    3  502    0  0.55629391545E+03  0.10979967387E+04 -0.75975341722E+03  0.14464733020E+04  0.50400001928E-02 0.  1.
       -1    1    3    3    0  502 -0.55629391545E+03 -0.10979967387E+04 -0.27905256533E+03  0.12621133439E+04  0.50400001928E-02 0. -1.
</event>
<event>
 5   0  0.3837524E-07  0.2499880E+04  0.7818609E-02  0.8403028E-01
       -1   -1    0    0    0  501  0.00000000000E+00  0.00000000000E+00  0.82756641228E+03  0.82756641229E+03  0.50400001928E-02 0.  1.
        1   -1    0    0  501    0  0.00000000000E+00  0.00000000000E+00 -0.18878842551E+04  0.18878842551E+04  0.50400001928E-02 0. -1.
    10030    2    1    2    0    0  0.00000000000E+00  0.00000000000E+00 -0.10603178429E+04  0.27154506674E+04  0.24998796770E+04 0.  0.
        5    1    3    3  502    0  0.40236405662E+03  0.88064881756E+03 -0.13888244343E+04  0.16930134593E+04  0.46999998093E+01 0. -1.
       -5    1    3    3    0  502 -0.40236405662E+03 -0.88064881756E+03  0.32850659149E+03  0.10224372081E+04  0.46999998093E+01 0.  1.
</event>
<event>
 5   0  0.9251138E-07  0.2500516E+04  0.7818609E-02  0.8402802E-01
       -2   -1    0    0    0  501  0.00000000000E+00  0.00000000000E+00  0.96347305695E+03  0.96347305695E+03  0.25500000920E-02 0. -1.
        2   -1    0    0  501    0  0.00000000000E+00  0.00000000000E+00 -0.16224071838E+04  0.16224071838E+04  0.25500000920E-02 0.  1.
    10030    2    1    2    0    0  0.00000000000E+00  0.00000000000E+00 -0.65893412686E+03  0.25858802408E+04  0.25005164339E+04 0.  0.
        5    1    3    3  502    0 -0.10437889624E+03 -0.12258160801E+04 -0.55978876876E+03  0.13516307084E+04  0.46999998093E+01 0.  1.
       -5    1    3    3    0  502  0.10437889624E+03  0.12258160801E+04 -0.99145358099E+02  0.12342495324E+04  0.46999998093E+01 0. -1.
</event>
<event>
 5   0  0.9261602E-07  0.2499742E+04  0.7818609E-02  0.8403077E-01
        2   -1    0    0  501    0  0.00000000000E+00  0.00000000000E+00  0.14987282585E+04  0.14987282585E+04  0.25500000920E-02 0.  1.
       -2   -1    0    0    0  501  0.00000000000E+00  0.00000000000E+00 -0.10423354413E+04  0.10423354413E+04  0.25500000920E-02 0. -1.
    10030    2    1    2    0    0  0.00000000000E+00  0.00000000000E+00  0.45639281714E+03  0.25410636998E+04  0.24997420513E+04 0.  0.
        4    1    3    3  502    0 -0.21893499234E+03 -0.11667547581E+03 -0.10170554753E+04  0.10468759001E+04  0.12699999809E+01 0. -1.
       -4    1    3    3    0  502  0.21893499234E+03  0.11667547581E+03  0.14734482924E+04  0.14941877997E+04  0.12699999809E+01 0.  1.
</event>
<event>
 5   0  0.9508784E-07  0.2498496E+04  0.7818609E-02  0.8403521E-01
        2   -1    0    0  501    0  0.00000000000E+00  0.00000000000E+00  0.86880735949E+03  0.86880735949E+03  0.25500000920E-02 0. -1.
       -2   -1    0    0    0  501  0.00000000000E+00  0.00000000000E+00 -0.17962796863E+04  0.17962796863E+04  0.25500000920E-02 0.  1.
    10030    2    1    2    0    0  0.00000000000E+00  0.00000000000E+00 -0.92747232680E+03  0.26650870458E+04  0.24984963567E+04 0.  0.
        2    1    3    3  502    0  0.84971906110E+03  0.22999071521E+03 -0.14092368053E+04  0.16615855636E+04  0.25500000920E-02 0.  1.
       -2    1    3    3    0  502 -0.84971906110E+03 -0.22999071521E+03  0.48176447851E+03  0.10035014821E+04  0.25500000920E-02 0. -1.
</event>
<event>
 5   0  0.3972587E-07  0.2498646E+04  0.7818609E-02  0.8403468E-01
        1   -1    0    0  501    0  0.00000000000E+00  0.00000000000E+00  0.66990903990E+03  0.66990903992E+03  0.50400001928E-02 0. -1.
       -1   -1    0    0    0  501  0.00000000000E+00  0.00000000000E+00 -0.23298799200E+04  0.23298799200E+04  0.50400001928E-02 0.  1.
    10030    2    1    2    0    0  0.00000000000E+00  0.00000000000E+00 -0.16599708801E+04  0.29997889599E+04  0.24986457294E+04 0.  0.
        3    1    3    3  502    0 -0.44147962975E+03 -0.24254143344E+03 -0.22025620844E+04  0.22594269973E+04  0.10100000352E+00 0. -1.
       -3    1    3    3    0  502  0.44147962975E+03  0.24254143344E+03  0.54259120433E+03  0.74036196257E+03  0.10100000352E+00 0.  1.
</event>
<event>
 5   0  0.3837524E-07  0.2499215E+04  0.7818609E-02  0.8403265E-01
        1   -1    0    0  501    0  0.00000000000E+00  0.00000000000E+00  0.12355823826E+04  0.12355823826E+04  0.50400001928E-02 0. -1.
       -1   -1    0    0    0  501  0.00000000000E+00  0.00000000000E+00 -0.12637922498E+04  0.12637922498E+04  0.50400001928E-02 0.  1.
    10030    2    1    2    0    0  0.00000000000E+00  0.00000000000E+00 -0.28209867168E+02  0.24993746325E+04  0.24992154282E+04 0.  0.
        5    1    3    3  502    0  0.63340470617E+03 -0.40981514271E+03 -0.10103347307E+04  0.12609315330E+04  0.46999998093E+01 0.  1.
       -5    1    3    3    0  502 -0.63340470617E+03  0.40981514271E+03  0.98212486350E+03  0.12384430994E+04  0.46999998093E+01 0. -1.
</event>
<event>
 5   0  0.8997210E-07  0.2499557E+04  0.7818609E-02  0.8403143E-01
        2   -1    0    0  501    0  0.00000000000E+00  0.00000000000E+00  0.15939823561E+04  0.15939823561E+04  0.25500000920E-02 0.  1.
       -2   -1    0    0    0  501  0.00000000000E+00  0.00000000000E+00 -0.97990222129E+03  0.97990222130E+03  0.25500000920E-02 0. -1.
    10030    2    1    2    0    0  0.00000000000E+00  0.00000000000E+00  0.61408013481E+03  0.25738845774E+04  0.24995574420E+04 0.  0.
        1    1    3    3  502    0  0.12001113124E+04 -0.10380674717E+03  0.64996515188E+03  0.13687577221E+04  0.50400001928E-02 0.  1.
       -1    1    3    3    0  502 -0.12001113124E+04  0.10380674717E+03 -0.35885017062E+02  0.12051268553E+04  0.50400001928E-02 0. -1.
</event>
<event>
 5   0  0.9251138E-07  0.2499225E+04  0.7818609E-02  0.8403262E-01
       -2   -1    0    0    0  501  0.00000000000E+00  0.00000000000E+00  0.99815329264E+03  0.99815329264E+03  0.25500000920E-02 0. -1.
        2   -1    0    0  501    0  0.00000000000E+00  0.00000000000E+00 -0.15644198692E+04  0.15644198692E+04  0.25500000920E-02 0.  1.
    10030    2    1    2    0    0  0.00000000000E+00  0.00000000000E+00 -0.56626657660E+03  0.25625731619E+04  0.24992245546E+04 0.  0.
        5    1    3    3  502    0  0.49741131742E+03 -0.70054368501E+03 -0.12135077369E+04  0.14868767907E+04  0.46999998093E+01 0.  1.
       -5    1    3    3    0  502 -0.49741131742E+03  0.70054368501E+03  0.64724116031E+03  0.10756963711E+04  0.46999998093E+01 0. -1.
</event>
<event>
 5   0  0.9251138E-07  0.2500278E+04  0.7818609E-02  0.8402886E-01
        2   -1    0    0  501    0  0.00000000000E+00  0.00000000000E+00  0.10907199032E+04  0.10907199032E+04  0.25500000920E-02 0. -1.
       -2   -1    0    0    0  501  0.00000000000E+00  0.00000000000E+00 -0.14328591504E+04  0.14328591504E+04  0.25500000920E-02 0.  1.
    10030    2    1    2    0    0  0.00000000000E+00  0.00000000000E+00 -0.34213924725E+03  0.25235790536E+04  0.25002783795E+04 0.  0.
        5    1    3    3  502    0  0.63381534152E+02  0.18254726122E+03 -0.14176851891E+04  0.14308019104E+04  0.46999998093E+01 0.  1.
       -5    1    3    3    0  502 -0.63381534152E+02 -0.18254726122E+03  0.10755459419E+04  0.10927771431E+04  0.46999998093E+01 0. -1.
</event>
<event>
 5   0  0.3805418E-07  0.2500741E+04  0.7818609E-02  0.8402722E-01
        1   -1    0    0  501    0  0.00000000000E+00  0.00000000000E+00  0.18452908548E+04  0.18452908548E+04  0.50400001928E-02 0. -1.
       -1   -1    0    0    0  501  0.00000000000E+00  0.00000000000E+00 -0.84725189533E+03  0.84725189535E+03  0.50400001928E-02 0.  1.
    10030    2    1    2    0    0  0.00000000000E+00  0.00000000000E+00  0.99803895949E+03  0.26925427502E+04  0.25007408296E+04 0.  0.
        4    1    3    3  502    0  0.82527760602E+03  0.72894599270E+03 -0.13885407354E+03  0.11098321738E+04  0.12699999809E+01 0.  1.
       -4    1    3    3    0  502 -0.82527760602E+03 -0.72894599270E+03  0.11368930330E+04  0.15827105764E+04  0.12699999809E+01 0. -1.
</event>
<event>
 5   0  0.3805418E-07  0.2500273E+04  0.7818609E-02  0.8402888E-01
        1   -1    0    0  501    0  0.00000000000E+00  0.00000000000E+00  0.23289152304E+04  0.23289152304E+04  0.50400001928E-02 0. -1.
       -1   -1    0    0    0  501  0.00000000000E+00  0.00000000000E+00 -0.67105982856E+03  0.67105982858E+03  0.50400001928E-02 0.  1.
    10030    2    1    2    0    0  0.00000000000E+00  0.00000000000E+00  0.16578554018E+04  0.29999750589E+04  0.25002731493E+04 0.  0.
        4    1    3    3  502    0  0.76161344685E+03  0.57675691055E+03  0.17963862874E+04  0.20346274555E+04  0.12699999809E+01 0. -1.
       -4    1    3    3    0  502 -0.76161344685E+03 -0.57675691055E+03 -0.13853088559E+03  0.96534760343E+03  0.12699999809E+01 0.  1.
</event>
<event>
 5   0  0.3873231E-07  0.2499238E+04  0.7818609E-02  0.8403257E-01
       -1   -1    0    0    0  501  0.00000000000E+00  0.00000000000E+00  0.72079220831E+03  0.72079220832E+03  0.50400001928E-02 0.  1.
        1   -1    0    0  501    0  0.00000000000E+00  0.00000000000E+00 -0.21664320681E+04  0.21664320681E+04  0.50400001928E-02 0. -1.
    10030    2    1    2    0    0  0.00000000000E+00  0.00000000000E+00 -0.14456398598E+04  0.28872242764E+04  0.24992377674E+04 0.  0.
        2    1    3    3  502    0  0.29036677324E+03 -0.62557564971E+03  0.48101178903E+03  0.84085081774E+03  0.25500000920E-02 0.  1.
       -2    1    3    3    0  502 -0.29036677324E+03  0.62557564971E+03 -0.19266516488E+04  0.20463734587E+04  0.25500000920E-02 0. -1.
</event>
<event>
 5   0  0.8997210E-07  0.2501497E+04  0.7818609E-02  0.8402452E-01
        2   -1    0    0  501    0  0.00000000000E+00  0.00000000000E+00  0.18218695246E+04  0.18218695246E+04  0.25500000920E-02 0.  1.
       -2   -1    0    0    0  501  0.00000000000E+00  0.00000000000E+00 -0.85866283372E+03  0.85866283372E+03  0.25500000920E-02 0. -1.
    10030    2    1    2    0    0  0.00000000000E+00  0.00000000000E+00  0.96320669089E+03  0.26805323583E+04  0.25014968708E+04 0.  0.
        1    1    3    3  502    0 -0.47492968377E+03 -0.78764810021E+03  0.13898660481E+04  0.16666359428E+04  0.50400001928E-02 0.  1.
       -1    1    3    3    0  502  0.47492968377E+03  0.78764810021E+03 -0.42665935718E+03  0.10138964155E+04  0.50400001928E-02 0. -1.
</event>
<event>
 5   0  0.9251138E-07  0.2499765E+04  0.7818609E-02  0.8403069E-01
        2   -1    0    0  501    0  0.00000000000E+00  0.00000000000E+00  0.17195630214E+04  0.17195630214E+04  0.25500000920E-02 0. -1.
       -2   -1    0    0    0  501  0.00000000000E+00  0.00000000000E+00 -0.90849018230E+03  0.90849018230E+03  0.25500000920E-02 0.  1.
    10030    2    1    2    0    0  0.00000000000E+00  0.00000000000E+00  0.81107283911E+03  0.26280532037E+04  0.24997648872E+04 0.  0.
        5    1    3    3  502    0 -0.11692579254E+02  0.11419669007E+04 -0.12842546807E+03  0.11492346625E+04  0.46999998093E+01 0.  1.
       -5    1    3    3    0  502  0.11692579254E+02 -0.11419669007E+04  0.93949830718E+03  0.14788185412E+04  0.46999998093E+01 0. -1.
</event>
<event>
 5   0  0.9768582E-07  0.2500856E+04  0.7818609E-02  0.8402681E-01
       -2   -1    0    0    0  501  0.00000000000E+00  0.00000000000E+00  0.10839159899E+04  0.10839159899E+04  0.25500000920E-02 0. -1.
        2   -1    0    0  501    0  0.00000000000E+00  0.00000000000E+00 -0.14425192009E+04  0.14425192009E+04  0.25500000920E-02 0.  1.
    10030    2    1    2    0    0  0.00000000000E+00  0.00000000000E+00 -0.35860321098E+03  0.25264351908E+04  0.25008555557E+04 0.  0.
        3    1    3    3  502    0  0.61502139262E+03  0.37790292352E+03 -0.12107777445E+04  0.14096257268E+04  0.10100000352E+00 0.  1.
       -3    1    3    3    0  502 -0.61502139262E+03 -0.37790292352E+03  0.85217453353E+03  0.11168094640E+04  0.10100000352E+00 0. -1.
</event>
<event>
 5   0  0.3805418E-07  0.2497577E+04  0.7818609E-02  0.8403849E-01
        1   -1    0    0  501    0  0.00000000000E+00  0.00000000000E+00  0.20378665751E+04  0.20378665751E+04  0.50400001928E-02 0. -1.
       -1   -1    0    0    0  501  0.00000000000E+00  0.00000000000E+00 -0.76524789468E+03  0.76524789469E+03  0.50400001928E-02 0.  1.
    10030    2    1    2    0    0  0.00000000000E+00  0.00000000000E+00  0.12726186804E+04  0.28031144698E+04  0.24975773111E+04 0.  0.
        4    1    3    3  502    0 -0.26351830723E+03 -0.12109075226E+04  0.46340963611E+03  0.13230604786E+04  0.12699999809E+01 0.  1.
       -4    1    3    3    0  502  0.26351830723E+03  0.12109075226E+04  0.80920904432E+03  0.14800539912E+04  0.12699999809E+01 0. -1.
</event>
<event>
 5   0  0.8997210E-07  0.2499285E+04  0.7818609E-02  0.8403240E-01
       -2   -1    0    0    0  501  0.00000000000E+00  0.00000000000E+00  0.87814383408E+03  0.87814383409E+03  0.25500000920E-02 0.  1.
        2   -1    0    0  501    0  0.00000000000E+00  0.00000000000E+00 -0.17783032473E+04  0.17783032473E+04  0.25500000920E-02 0. -1.
    10030    2    1    2    0    0  0.00000000000E+00  0.00000000000E+00 -0.90015941321E+03  0.26564470814E+04  0.24992847231E+04 0.  0.
        1    1    3    3  502    0  0.82583387010E+03 -0.61434951262E+03 -0.12032874271E+04  0.15834543053E+04  0.50400001928E-02 0. -1.
       -1    1    3    3    0  502 -0.82583387010E+03  0.61434951262E+03  0.30312801393E+03  0.10729927761E+04  0.50400001928E-02 0.  1.
</event>
<event>
 5   0  0.3805418E-07  0.2500203E+04  0.7818609E-02  0.8402913E-01
       -1   -1    0    0    0  501  0.00000000000E+00  0.00000000000E+00  0.15167703405E+04  0.15167703405E+04  0.50400001928E-02 0.  1.
        1   -1    0    0  501    0  0.00000000000E+00  0.00000000000E+00 -0.10303169384E+04  0.10303169384E+04  0.50400001928E-02 0. -1.
    10030    2    1    2    0    0  0.00000000000E+00  0.00000000000E+00  0.48645340211E+03  0.25470872790E+04  0.25002033306E+04 0.  0.
        4    1    3    3  502    0  0.19613428025E+03 -0.71771692966E+03 -0.78018380274E+03  0.10780884129E+04  0.12699999809E+01 0. -1.
       -4    1    3    3    0  502 -0.19613428025E+03  0.71771692966E+03  0.12666372049E+04  0.14689988661E+04  0.12699999809E+01 0.  1.
</event>
<event>
 5   0  0.9768582E-07  0.2501443E+04  0.7818609E-02  0.8402472E-01
       -2   -1    0    0    0  501  0.00000000000E+00  0.00000000000E+00  0.11417210174E+04  0.11417210174E+04  0.25500000920E-02 0.  1.
        2   -1    0    0  501    0  0.00000000000E+00  0.00000000000E+00 -0.13701284628E+04  0.13701284628E+04  0.25500000920E-02 0. -1.
    10030    2    1    2    0    0  0.00000000000E+00  0.00000000000E+00 -0.22840744538E+03  0.25118494802E+04  0.25014431534E+04 0.  0.
        3    1    3    3  502    0  0.91716544707E+03  0.82095160386E+03 -0.33682504748E+03  0.12761681378E+04  0.10100000352E+00 0.  1.
       -3    1    3    3    0  502 -0.91716544707E+03 -0.82095160386E+03  0.10841760210E+03  0.12356813423E+04  0.10100000352E+00 0. -1.
</event>
<event>
 5   0  0.9261602E-07  0.2500496E+04  0.7818609E-02  0.8402809E-01
       -2   -1    0    0    0  501  0.00000000000E+00  0.00000000000E+00  0.94191941757E+03  0.94191941757E+03  0.25500000920E-02 0. -1.
        2   -1    0    0  501    0  0.00000000000E+00  0.00000000000E+00 -0.16595053677E+04  0.16595053677E+04  0.25500000920E-02 0.  1.
    10030    2    1    2    0    0  0.00000000000E+00  0.00000000000E+00 -0.71758595009E+03  0.26014247852E+04  0.25004962142E+04 0.  0.
        4    1    3    3  502    0 -0.38018573285E+03  0.51505965692E+03  0.75846776429E+03  0.99252335187E+03  0.12699999809E+01 0. -1.
       -4    1    3    3    0  502  0.38018573285E+03 -0.51505965692E+03 -0.14760537144E+04  0.16089014334E+04  0.12699999809E+01 0.  1.
</event>
<event>
 5   0  0.3991066E-07  0.2500488E+04  0.7818609E-02  0.8402812E-01
        1   -1    0    0  501    0  0.00000000000E+00  0.00000000000E+00  0.25138618321E+04  0.25138618321E+04  0.50400001928E-02 0. -1.
       -1   -1    0    0    0  501  0.00000000000E+00  0.00000000000E+00 -0.62179624479E+03  0.62179624481E+03  0.50400001928E-02 0.  1.
    10030    2    1    2    0    0  0.00000000000E+00  0.00000000000E+00  0.18920655873E+04  0.31356580769E+04  0.25004878301E+04 0.  0.
        1    1    3    3  502    0  0.64979484040E+03 -0.26632175442E+03  0.22431688778E+04  0.23505248830E+04  0.50400001928E-02 0. -1.
       -1    1    3    3    0  502 -0.64979484040E+03  0.26632175442E+03 -0.35110329049E+03  0.78513319386E+03  0.50400001928E-02 0.  1.
</event>
<event>
 5   0  0.8997210E-07  0.2505484E+04  0.7818609E-02  0.8401034E-01
        2   -1    0    0  501    0  0.00000000000E+00  0.00000000000E+00  0.11541995301E+04  0.11541995301E+04  0.25500000920E-02 0.  1.
       -2   -1    0    0    0  501  0.00000000000E+00  0.00000000000E+00 -0.13596975998E+04  0.13596975998E+04  0.25500000920E-02 0. -1.
    10030    2    1    2    0    0  0.00000000000E+00  0.00000000000E+00 -0.20549806970E+03  0.25138971299E+04  0.25054838501E+04 0.  0.
        1    1    3    3  502    0 -0.57810058451E+03  0.83770850598E+03  0.63005026860E+03  0.11970460174E+04  0.50400001928E-02 0.  1.
       -1    1    3    3    0  502  0.57810058451E+03 -0.83770850598E+03 -0.83554833831E+03  0.13168511125E+04  0.50400001928E-02 0. -1.
</event>
<event>
 5   0  0.3837524E-07  0.2499709E+04  0.7818609E-02  0.8403089E-01
       -1   -1    0    0    0  501  0.00000000000E+00  0.00000000000E+00  0.10331910695E+04  0.10331910695E+04  0.50400001928E-02 0. -1.
        1   -1    0    0  501    0  0.00000000000E+00  0.00000000000E+00 -0.15119523947E+04  0.15119523947E+04  0.50400001928E-02 0.  1.
    10030    2    1    2    0    0  0.00000000000E+00  0.00000000000E+00 -0.47876132520E+03  0.25451434641E+04  0.24997085523E+04 0.  0.
        5    1    3    3  502    0  0.40391121476E+03  0.74337615057E+03  0.69731989211E+03  0.10963710561E+04  0.46999998093E+01 0. -1.
       -5    1    3    3    0  502 -0.40391121476E+03 -0.74337615057E+03 -0.11760812173E+04  0.14487724081E+04  0.46999998093E+01 0.  1.
</event>
<event>
 5   0  0.3837524E-07  0.2499752E+04  0.7818609E-02  0.8403074E-01
       -1   -1    0    0    0  501  0.00000000000E+00  0.00000000000E+00  0.67733593875E+03  0.67733593877E+03  0.50400001928E-02 0.  1.
        1   -1    0    0  501    0  0.00000000000E+00  0.00000000000E+00 -0.23063732779E+04  0.23063732779E+04  0.50400001928E-02 0. -1.
    10030    2    1    2    0    0  0.00000000000E+00  0.00000000000E+00 -0.16290373392E+04  0.29837092167E+04  0.24997515951E+04 0.  0.
        5    1    3    3  502    0  0.52532199403E+03 -0.12820361716E+03 -0.21595172934E+04  0.22261932520E+04  0.46999998093E+01 0. -1.
       -5    1    3    3    0  502 -0.52532199403E+03  0.12820361716E+03  0.53047995424E+03  0.75751596466E+03  0.46999998093E+01 0.  1.
</event>
<event>
 5   0  0.3805418E-07  0.2500209E+04  0.7818609E-02  0.8402911E-01
        1   -1    0    0  501    0  0.00000000000E+00  0.00000000000E+00  0.29336798128E+04  0.29336798128E+04  0.50400001928E-02 0.  1.
       -1   -1    0    0    0  501  0.00000000000E+00  0.00000000000E+00 -0.53269665219E+03  0.53269665221E+03  0.50400001928E-02 0. -1.
    10030    2    1    2    0    0  0.00000000000E+00  0.00000000000E+00  0.24009831606E+04  0.34663764650E+04  0.25002091232E+04 0.  0.
        4    1    3    3  502    0  0.67542129944E+03 -0.44577286964E+03 -0.12052120029E+03  0.81818968196E+03  0.12699999809E+01 0. -1.
       -4    1    3    3    0  502 -0.67542129944E+03  0.44577286964E+03  0.25215043609E+04  0.26481867831E+04  0.12699999809E+01 0.  1.
</event>
<event>
 5   0  0.3972587E-07  0.2500670E+04  0.7818609E-02  0.8402747E-01
        1   -1    0    0  501    0  0.00000000000E+00  0.00000000000E+00  0.17763130104E+04  0.17763130104E+04  0.50400001928E-02 0.  1.
       -1   -1    0    0    0  501  0.00000000000E+00  0.00000000000E+00 -0.88010246363E+03  0.88010246364E+03  0.50400001928E-02 0. -1.
    10030    2    1    2    0    0  0.00000000000E+00  0.00000000000E+00  0.89621054673E+03  0.26564154740E+04  0.25006698755E+04 0.  0.
        3    1    3    3  502    0  0.77237907769E+03  0.91614071333E+03  0.68863023009E+02  0.12002605436E+04  0.10100000352E+00 0. -1.
       -3    1    3    3    0  502 -0.77237907769E+03 -0.91614071333E+03  0.82734752372E+03  0.14561549304E+04  0.10100000352E+00 0.  1.
</event>
<event>
 5   0  0.3972587E-07  0.2500402E+04  0.7818609E-02  0.8402842E-01
       -1   -1    0    0    0  501  0.00000000000E+00  0.00000000000E+00  0.71474166767E+03  0.71474166768E+03  0.50400001928E-02 0.  1.
        1   -1    0    0  501    0  0.00000000000E+00  0.00000000000E+00 -0.21868077416E+04  0.21868077416E+04  0.50400001928E-02 0. -1.
    10030    2    1    2    0    0  0.00000000000E+00  0.00000000000E+00 -0.14720660739E+04  0.29015494093E+04  0.25004020574E+04 0.  0.
        3    1    3    3  502    0 -0.22928972156E+03  0.32197921716E+03 -0.21123860943E+04  0.21490508170E+04  0.10100000352E+00 0. -1.
       -3    1    3    3    0  502  0.22928972156E+03 -0.32197921716E+03  0.64032002035E+03  0.75249859226E+03  0.10100000352E+00 0.  1.
</event>
<event>
 5   0  0.3805418E-07  0.2500428E+04  0.7818609E-02  0.8402833E-01
       -1   -1    0    0    0  501  0.00000000000E+00  0.00000000000E+00  0.72999336080E+03  0.72999336081E+03  0.50400001928E-02 0.  1.
        1   -1    0    0  501    0  0.00000000000E+00  0.00000000000E+00 -0.21411637212E+04  0.21411637212E+04  0.50400001928E-02 0. -1.
    10030    2    1    2    0    0  0.00000000000E+00  0.00000000000E+00 -0.14111703604E+04  0.28711570820E+04  0.25004282040E+04 0.  0.
        4    1    3    3  502    0 -0.10336363478E+04 -0.22947701891E+03 -0.14689618876E+04  0.18107773032E+04  0.12699999809E+01 0. -1.
       -4    1    3    3    0  502  0.10336363478E+04  0.22947701891E+03  0.57791527212E+02  0.10603797788E+04  0.12699999809E+01 0.  1.
</event>
<event>
 5   0  0.3972587E-07  0.2500419E+04  0.7818609E-02  0.8402836E-01
        1   -1    0    0  501    0  0.00000000000E+00  0.00000000000E+00  0.13507444069E+04  0.13507444069E+04  0.50400001928E-02 0.  1.
       -1   -1    0    0    0  501  0.00000000000E+00  0.00000000000E+00 -0.11571576219E+04  0.11571576219E+04  0.50400001928E-02 0. -1.
    10030    2    1    2    0    0  0.00000000000E+00  0.00000000000E+00  0.19358678497E+03  0.25079020289E+04  0.25004193134E+04 0.  0.
        3    1    3    3  502    0 -0.89400734717E+03 -0.57813843986E+03  0.75414082353E+03  0.13046921416E+04  0.10100000352E+00 0.  1.
       -3    1    3    3    0  502  0.89400734717E+03  0.57813843986E+03 -0.56055403856E+03  0.12032098873E+04  0.10100000352E+00 0. -1.
</event>
<event>
 5   0  0.3991066E-07  0.2496816E+04  0.7818609E-02  0.8404121E-01
       -1   -1    0    0    0  501  0.00000000000E+00  0.00000000000E+00  0.72244697246E+03  0.72244697248E+03  0.50400001928E-02 0. -1.
        1   -1    0    0  501    0  0.00000000000E+00  0.00000000000E+00 -0.21572834275E+04  0.21572834275E+04  0.50400001928E-02 0.  1.
    10030    2    1    2    0    0  0.00000000000E+00  0.00000000000E+00 -0.14348364551E+04  0.28797304000E+04  0.24968162776E+04 0.  0.
        1    1    3    3  502    0 -0.32233645819E+03 -0.11231148764E+02  0.67356374749E+03  0.74680322237E+03  0.50400001928E-02 0. -1.
       -1    1    3    3    0  502  0.32233645819E+03  0.11231148764E+02 -0.21084002025E+04  0.21329271776E+04  0.50400001928E-02 0.  1.
</event>
<event>
 5   0  0.3837524E-07  0.2497631E+04  0.7818609E-02  0.8403830E-01
        1   -1    0    0  501    0  0.00000000000E+00  0.00000000000E+00  0.13089217946E+04  0.13089217946E+04  0.50400001928E-02 0. -1.
       -1   -1    0    0    0  501  0.00000000000E+00  0.00000000000E+00 -0.11914694811E+04  0.11914694811E+04  0.50400001928E-02 0.  1.
    10030    2    1    2    0    0  0.00000000000E+00  0.00000000000E+00  0.11745231346E+03  0.25003912757E+04  0.24976311749E+04 0.  0.
        5    1    3    3  502    0 -0.12719626421E+03 -0.10021026045E+04  0.79379213426E+03  0.12847243136E+04  0.46999998093E+01 0. -1.
       -5    1    3    3    0  502  0.12719626421E+03  0.10021026045E+04 -0.67633982080E+03  0.12156669621E+04  0.46999998093E+01 0.  1.
</event>
<event>
 5   0  0.9768582E-07  0.2499776E+04  0.7818609E-02  0.8403065E-01
        2   -1    0    0  501    0  0.00000000000E+00  0.00000000000E+00  0.23932354921E+04  0.23932354921E+04  0.25500000920E-02 0.  1.
       -2   -1    0    0    0  501  0.00000000000E+00  0.00000000000E+00 -0.65276485627E+03  0.65276485628E+03  0.25500000920E-02 0. -1.
    10030    2    1    2    0    0  0.00000000000E+00  0.00000000000E+00  0.17404706358E+04  0.30460003484E+04  0.24997760076E+04 0.  0.
        3    1    3    3  502    0  0.32828714740E+03 -0.91216268793E+02 -0.59508338730E+03  0.68572378323E+03  0.10100000352E+00 0. -1.
       -3    1    3    3    0  502 -0.32828714740E+03  0.91216268793E+02  0.23355540231E+04  0.23602765652E+04  0.10100000352E+00 0.  1.
</event>
<event>
 5   0  0.9508784E-07  0.2493583E+04  0.7818609E-02  0.8405275E-01
        2   -1    0    0  501    0  0.00000000000E+00  0.00000000000E+00  0.18180326025E+04  0.18180326025E+04  0.25500000920E-02 0. -1.
       -2   -1    0    0    0  501  0.00000000000E+00  0.00000000000E+00 -0.85503935142E+03  0.85503935142E+03  0.25500000920E-02 0.  1.
    10030    2    1    2    0    0  0.00000000000E+00  0.00000000000E+00  0.96299325112E+03  0.26730719540E+04  0.24935832991E+04 0.  0.
        2    1    3    3  502    0  0.58593205584E+02 -0.17119161198E+03 -0.84088978954E+03  0.86013683209E+03  0.25500000920E-02 0.  1.
       -2    1    3    3    0  502 -0.58593205584E+02  0.17119161198E+03  0.18038830407E+04  0.18129351219E+04  0.25500000920E-02 0. -1.
</event>
<event>
 5   0  0.3837524E-07  0.2501563E+04  0.7818609E-02  0.8402429E-01
       -1   -1    0    0    0  501  0.00000000000E+00  0.00000000000E+00  0.12111622833E+04  0.12111622833E+04  0.50400001928E-02 0.  1.
        1   -1    0    0  501    0  0.00000000000E+00  0.00000000000E+00 -0.12916972035E+04  0.12916972035E+04  0.50400001928E-02 0. -1.
    10030    2    1    2    0    0  0.00000000000E+00  0.00000000000E+00 -0.80534920131E+02  0.25028594868E+04  0.25015634586E+04 0.  0.
        5    1    3    3  502    0  0.57872714069E+03 -0.94840381751E+03 -0.61505438180E+03  0.12699247564E+04  0.46999998093E+01 0. -1.
       -5    1    3    3    0  502 -0.57872714069E+03  0.94840381751E+03  0.53451946167E+03  0.12329347304E+04  0.46999998093E+01 0.  1.
</event>
<event>
 5   0  0.9768582E-07  0.2504554E+04  0.7818609E-02  0.8401365E-01
        2   -1    0    0  501    0  0.00000000000E+00  0.00000000000E+00  0.15318528063E+04  0.15318528063E+04  0.25500000920E-02 0. -1.
       -2   -1    0    0    0  501  0.00000000000E+00  0.00000000000E+00 -0.10237263407E+04  0.10237263407E+04  0.25500000920E-02 0.  1.
    10030    2    1    2    0    0  0.00000000000E+00  0.00000000000E+00  0.50812646561E+03  0.25555791470E+04  0.25045543059E+04 0.  0.
        3    1    3    3  502    0  0.46815582517E+01  0.12514363647E+04  0.30063479310E+03  0.12870494089E+04  0.10100000352E+00 0. -1.
       -3    1    3    3    0  502 -0.46815582517E+01 -0.12514363647E+04  0.20749167251E+03  0.12685297381E+04  0.10100000352E+00 0.  1.
</event>
<event>
 5   0  0.8997210E-07  0.2499600E+04  0.7818609E-02  0.8403128E-01
        2   -1    0    0  501    0  0.00000000000E+00  0.00000000000E+00  0.10488530032E+04  0.10488530032E+04  0.25500000920E-02 0. -1.
       -2   -1    0    0    0  501  0.00000000000E+00  0.00000000000E+00 -0.14892462255E+04  0.14892462255E+04  0.25500000920E-02 0.  1.
    10030    2    1    2    0    0  0.00000000000E+00  0.00000000000E+00 -0.44039322229E+03  0.25380992287E+04  0.24996002689E+04 0.  0.
        1    1    3    3  502    0  0.83347264448E+03 -0.76075371182E+03 -0.76566461466E+03  0.13636954064E+04  0.50400001928E-02 0.  1.
       -1    1    3    3    0  502 -0.83347264448E+03  0.76075371182E+03  0.32527139236E+03  0.11744038223E+04  0.50400001928E-02 0. -1.
</event>
<event>
 5   0  0.9261602E-07  0.2501031E+04  0.7818609E-02  0.8402618E-01
        2   -1    0    0  501    0  0.00000000000E+00  0.00000000000E+00  0.21492501742E+04  0.21492501742E+04  0.25500000920E-02 0.  1.
       -2   -1    0    0    0  501  0.00000000000E+00  0.00000000000E+00 -0.72759755963E+03  0.72759755964E+03  0.25500000920E-02 0. -1.
    10030    2    1    2    0    0  0.00000000000E+00  0.00000000000E+00  0.14216526146E+04  0.28768477338E+04  0.25010311328E+04 0.  0.
        4    1    3    3  502    0  0.89690334922E+03 -0.75516595986E+03  0.12109948264E+04  0.16855922779E+04  0.12699999809E+01 0.  1.
       -4    1    3    3    0  502 -0.89690334922E+03  0.75516595986E+03  0.21065778819E+03  0.11912554560E+04  0.12699999809E+01 0. -1.
</event>
<event>
 5   0  0.9508784E-07  0.2498993E+04  0.7818609E-02  0.8403344E-01
       -2   -1    0    0    0  501  0.00000000000E+00  0.00000000000E+00  0.10055334035E+04  0.10055334035E+04  0.25500000920E-02 0.  1.
        2   -1    0    0  501    0  0.00000000000E+00  0.00000000000E+00 -0.15526497529E+04  0.15526497529E+04  0.25500000920E-02 0. -1.
    10030    2    1    2    0    0  0.00000000000E+00  0.00000000000E+00 -0.54711634942E+03  0.25581831564E+04  0.24989927495E+04 0.  0.
        2    1    3    3  502    0  0.72013122551E+03 -0.91768531312E+03 -0.73194295551E+03  0.13771259223E+04  0.25500000920E-02 0. -1.
       -2    1    3    3    0  502 -0.72013122551E+03  0.91768531312E+03  0.18482660609E+03  0.11810572341E+04  0.25500000920E-02 0.  1.
</event>
<event>
 5   0  0.3837524E-07  0.2499942E+04  0.7818609E-02  0.8403006E-01
        1   -1    0    0  501    0  0.00000000000E+00  0.00000000000E+00  0.12120749992E+04  0.12120749992E+04  0.50400001928E-02 0. -1.
       -1   -1    0    0    0  501  0.00000000000E+00  0.00000000000E+00 -0.12890521871E+04  0.12890521871E+04  0.50400001928E-02 0.  1.
    10030    2    1    2    0    0  0.00000000000E+00  0.00000000000E+00 -0.76977187950E+02  0.25011271863E+04  0.24999423423E+04 0.  0.
        5    1    3    3  502    0  0.10918740137E+04 -0.16722519696E+03  0.54681236085E+03  0.12325497865E+04  0.46999998093E+01 0. -1.
       -5    1    3    3    0  502 -0.10918740137E+04  0.16722519696E+03 -0.62378954880E+03  0.12685773998E+04  0.46999998093E+01 0.  1.
</event>
<event>
 5   0  0.9508784E-07  0.2499549E+04  0.7818609E-02  0.8403146E-01
        2   -1    0    0  501    0  0.00000000000E+00  0.00000000000E+00  0.14781591251E+04  0.14781591251E+04  0.25500000920E-02 0. -1.
       -2   -1    0    0    0  501  0.00000000000E+00  0.00000000000E+00 -0.10566763493E+04  0.10566763493E+04  0.25500000920E-02 0.  1.
    10030    2    1    2    0    0  0.00000000000E+00  0.00000000000E+00  0.42148277587E+03  0.25348354744E+04  0.24995485897E+04 0.  0.
        2    1    3    3  502    0 -0.15457074741E+03 -0.62996127716E+03  0.12940885246E+04  0.14475525677E+04  0.25500000920E-02 0. -1.
       -2    1    3    3    0  502  0.15457074741E+03  0.62996127716E+03 -0.87260574871E+03  0.10872829068E+04  0.25500000920E-02 0.  1.
</event>
<event>
 5   0  0.3837524E-07  0.2498310E+04  0.7818609E-02  0.8403588E-01
       -1   -1    0    0    0  501  0.00000000000E+00  0.00000000000E+00  0.11561726831E+04  0.11561726831E+04  0.50400001928E-02 0.  1.
        1   -1    0    0  501    0  0.00000000000E+00  0.00000000000E+00 -0.13496150638E+04  0.13496150638E+04  0.50400001928E-02 0. -1.
    10030    2    1    2    0    0  0.00000000000E+00  0.00000000000E+00 -0.19344238076E+03  0.25057877469E+04  0.24983098843E+04 0.  0.
        5    1    3    3  502    0 -0.32012706628E+03 -0.29538172626E+03 -0.12709663246E+04  0.13435435203E+04  0.46999998093E+01 0. -1.
       -5    1    3    3    0  502  0.32012706628E+03  0.29538172626E+03  0.10775239438E+04  0.11622442266E+04  0.46999998093E+01 0.  1.
</event>
<event>
 5   0  0.3805418E-07  0.2500526E+04  0.7818609E-02  0.8402798E-01
        1   -1    0    0  501    0  0.00000000000E+00  0.00000000000E+00  0.99285468473E+03  0.99285468474E+03  0.50400001928E-02 0. -1.
       -1   -1    0    0    0  501  0.00000000000E+00  0.00000000000E+00 -0.15744077386E+04  0.15744077387E+04  0.50400001928E-02 0.  1.
    10030    2    1    2    0    0  0.00000000000E+00  0.00000000000E+00 -0.58155305392E+03  0.25672624234E+04  0.25005264238E+04 0.  0.
        4    1    3    3  502    0  0.10607741023E+04  0.26789173014E+01  0.38863054606E+03  0.11297274835E+04  0.12699999809E+01 0. -1.
       -4    1    3    3    0  502 -0.10607741023E+04 -0.26789173014E+01 -0.97018359998E+03  0.14375349399E+04  0.12699999809E+01 0.  1.
</event>
<event>
 5   0  0.3873231E-07  0.2500007E+04  0.7818609E-02  0.8402983E-01
        1   -1    0    0  501    0  0.00000000000E+00  0.00000000000E+00  0.19660808291E+04  0.19660808291E+04  0.50400001928E-02 0.  1.
       -1   -1    0    0    0  501  0.00000000000E+00  0.00000000000E+00 -0.79473244177E+03  0.79473244179E+03  0.50400001928E-02 0. -1.
    10030    2    1    2    0    0  0.00000000000E+00  0.00000000000E+00  0.11713483873E+04  0.27608132709E+04  0.25000065745E+04 0.  0.
        2    1    3    3  502    0 -0.63761784301E+03 -0.13107415334E+03  0.17641322620E+04  0.18803987836E+04  0.25500000920E-02 0.  1.
       -2    1    3    3    0  502  0.63761784301E+03  0.13107415334E+03 -0.59278387468E+03  0.88041448732E+03  0.25500000920E-02 0. -1.
</event>
<event>
 5   0  0.3805418E-07  0.2499840E+04  0.7818609E-02  0.8403042E-01
       -1   -1    0    0    0  501  0.00000000000E+00  0.00000000000E+00  0.79228051497E+03  0.79228051499E+03  0.50400001928E-02 0.  1.
        1   -1    0    0  501    0  0.00000000000E+00  0.00000000000E+00 -0.19719028416E+04  0.19719028416E+04  0.50400001928E-02 0. -1.
    10030    2    1    2    0    0  0.00000000000E+00  0.00000000000E+00 -0.11796223266E+04  0.27641833566E+04  0.24998401540E+04 0.  0.
        4    1    3    3  502    0 -0.53902237903E+03 -0.63186171761E+03 -0.16226638386E+04  0.18228642027E+04  0.12699999809E+01 0. -1.
       -4    1    3    3    0  502  0.53902237903E+03  0.63186171761E+03  0.44304151201E+03  0.94131915392E+03  0.12699999809E+01 0.  1.
</event>
<event>
 5   0  0.8997210E-07  0.2500201E+04  0.7818609E-02  0.8402914E-01
       -2   -1    0    0    0  501  0.00000000000E+00  0.00000000000E+00  0.10573790551E+04  0.10573790551E+04  0.25500000920E-02 0.  1.
        2   -1    0    0  501    0  0.00000000000E+00  0.00000000000E+00 -0.14779476440E+04  0.14779476440E+04  0.25500000920E-02 0. -1.
    10030    2    1    2    0    0  0.00000000000E+00  0.00000000000E+00 -0.42056858882E+03  0.25353266991E+04  0.25002006986E+04 0.  0.
        1    1    3    3  502    0 -0.28559099289E+03 -0.10803472467E+04  0.35798017286E+03  0.11733977130E+04  0.50400001928E-02 0.  1.
       -1    1    3    3    0  502  0.28559099289E+03  0.10803472467E+04 -0.77854876168E+03  0.13619289861E+04  0.50400001928E-02 0. -1.
</event>
<event>
 5   0  0.9261602E-07  0.2500553E+04  0.7818609E-02  0.8402789E-01
        2   -1    0    0  501    0  0.00000000000E+00  0.00000000000E+00  0.20430642985E+04  0.20430642985E+04  0.25500000920E-02 0.  1.
       -2   -1    0    0    0  501  0.00000000000E+00  0.00000000000E+00 -0.76512086461E+03  0.76512086461E+03  0.25500000920E-02 0. -1.
    10030    2    1    2    0    0  0.00000000000E+00  0.00000000000E+00  0.12779434339E+04  0.28081851631E+04  0.25005528369E+04 0.  0.
        4    1    3    3  502    0  0.80705181353E+03  0.37186801346E+03 -0.34876184757E+03  0.95459671505E+03  0.12699999809E+01 0. -1.
       -4    1    3    3    0  502 -0.80705181353E+03 -0.37186801346E+03  0.16267052815E+04  0.18535884481E+04  0.12699999809E+01 0.  1.
</event>
<event>
 5   0  0.3972587E-07  0.2501048E+04  0.7818609E-02  0.8402612E-01
       -1   -1    0    0    0  501  0.00000000000E+00  0.00000000000E+00  0.76470564022E+03  0.76470564023E+03  0.50400001928E-02 0. -1.
        1   -1    0    0  501    0  0.00000000000E+00  0.00000000000E+00 -0.20449825835E+04  0.20449825836E+04  0.50400001928E-02 0.  1.
    10030    2    1    2    0    0  0.00000000000E+00  0.00000000000E+00 -0.12802769433E+04  0.28096882238E+04  0.25010475532E+04 0.  0.
        3    1    3    3  502    0  0.26300187977E+03  0.20022841170E+03  0.71473973006E+03  0.78747336307E+03  0.10100000352E+00 0. -1.
       -3    1    3    3    0  502 -0.26300187977E+03 -0.20022841170E+03 -0.19950166734E+04  0.20222148607E+04  0.10100000352E+00 0.  1.
</event>
<event>
 5   0  0.9768582E-07  0.2501077E+04  0.7818609E-02  0.8402602E-01
       -2   -1    0    0    0  501  0.00000000000E+00  0.00000000000E+00  0.20348830174E+04  0.20348830174E+04  0.25500000920E-02 0. -1.
        2   -1    0    0  501    0  0.00000000000E+00  0.00000000000E+00 -0.76851928998E+03  0.76851928999E+03  0.25500000920E-02 0.  1.
    10030    2    1    2    0    0  0.00000000000E+00  0.00000000000E+00  0.12663637274E+04  0.28034023074E+04  0.25010772493E+04 0.  0.
        3    1    3    3  502    0 -0.97484729737E+03 -0.21979216424E+01  0.15111339750E+04  0.17982930753E+04  0.10100000352E+00 0. -1.
       -3    1    3    3    0  502  0.97484729737E+03  0.21979216424E+01 -0.24477024762E+03  0.10051092321E+04  0.10100000352E+00 0.  1.
</event>
<event>
 5   0  0.3972587E-07  0.2493577E+04  0.7818609E-02  0.8405277E-01
        1   -1    0    0  501    0  0.00000000000E+00  0.00000000000E+00  0.12852459683E+04  0.12852459683E+04  0.50400001928E-02 0.  1.
       -1   -1    0    0    0  501  0.00000000000E+00  0.00000000000E+00 -0.12094818561E+04  0.12094818561E+04  0.50400001928E-02 0. -1.
    10030    2    1    2    0    0  0.00000000000E+00  0.00000000000E+00  0.75764112214E+02  0.24947278243E+04  0.24935770926E+04 0.  0.
        3    1    3    3  502    0 -0.11485342626E+04  0.47128543998E+03 -0.77239506368E+02  0.12438677059E+04  0.10100000352E+00 0. -1.
       -3    1    3    3    0  502  0.11485342626E+04 -0.47128543998E+03  0.15300361858E+03  0.12508601184E+04  0.10100000352E+00 0.  1.
</event>
<event>
 5   0  0.3873231E-07  0.2496025E+04  0.7818609E-02  0.8404403E-01
        1   -1    0    0  501    0  0.00000000000E+00  0.00000000000E+00  0.17540914100E+04  0.17540914100E+04  0.50400001928E-02 0.  1.
       -1   -1    0    0    0  501  0.00000000000E+00  0.00000000000E+00 -0.88794379606E+03  0.88794379607E+03  0.50400001928E-02 0. -1.
    10030    2    1    2    0    0  0.00000000000E+00  0.00000000000E+00  0.86614761397E+03  0.26420352061E+04  0.24960245073E+04 0.  0.
        2    1    3    3  502    0 -0.40013852817E+02  0.10407682999E+03  0.17488083024E+04  0.17523594304E+04  0.25500000920E-02 0.  1.
       -2    1    3    3    0  502  0.40013852817E+02 -0.10407682999E+03 -0.88266068841E+03  0.88967577567E+03  0.25500000920E-02 0. -1.
</event>
<event>
 5   0  0.9508784E-07  0.2496947E+04  0.7818609E-02  0.8404074E-01
        2   -1    0    0  501    0  0.00000000000E+00  0.00000000000E+00  0.63637912822E+03  0.63637912823E+03  0.25500000920E-02 0.  1.
       -2   -1    0    0    0  501  0.00000000000E+00  0.00000000000E+00 -0.24493041713E+04  0.24493041713E+04  0.25500000920E-02 0. -1.
    10030    2    1    2    0    0  0.00000000000E+00  0.00000000000E+00 -0.18129250431E+04  0.30856832995E+04  0.24969469785E+04 0.  0.
        2    1    3    3  502    0  0.54554244981E+03  0.10767589954E+04 -0.51244445926E+03  0.13113450433E+04  0.25500000920E-02 0.  1.
       -2    1    3    3    0  502 -0.54554244981E+03 -0.10767589954E+04 -0.13004805838E+04  0.17743382563E+04  0.25500000920E-02 0. -1.
</event>
<event>
 5   0  0.3837524E-07  0.2500007E+04  0.7818609E-02  0.8402983E-01
       -1   -1    0    0    0  501  0.00000000000E+00  0.00000000000E+00  0.15234350306E+04  0.15234350306E+04  0.50400001928E-02 0.  1.
        1   -1    0    0  501    0  0.00000000000E+00  0.00000000000E+00 -0.10256483484E+04  0.10256483484E+04  0.50400001928E-02 0. -1.
    10030    2    1    2    0    0  0.00000000000E+00  0.00000000000E+00  0.49778668221E+03  0.25490833791E+04  0.25000068985E+04 0.  0.
        5    1    3    3  502    0 -0.82493910116E+03  0.93784679572E+03  0.29890099840E+03  0.12843072178E+04  0.46999998093E+01 0.  1.
       -5    1    3    3    0  502  0.82493910116E+03 -0.93784679572E+03  0.19888568381E+03  0.12647761613E+04  0.46999998093E+01 0. -1.
</event>
<event>
 5   0  0.3991066E-07  0.2499950E+04  0.7818609E-02  0.8403003E-01
        1   -1    0    0  501    0  0.00000000000E+00  0.00000000000E+00  0.78450305355E+03  0.78450305357E+03  0.50400001928E-02 0.  1.
       -1   -1    0    0    0  501  0.00000000000E+00  0.00000000000E+00 -0.19916277125E+04  0.19916277125E+04  0.50400001928E-02 0. -1.
    10030    2    1    2    0    0  0.00000000000E+00  0.00000000000E+00 -0.12071246589E+04  0.27761307661E+04  0.24999504171E+04 0.  0.
        1    1    3    3  502    0 -0.11036543543E+04  0.23490330742E+03 -0.12007513524E+04  0.16477367229E+04  0.50400001928E-02 0. -1.
       -1    1    3    3    0  502  0.11036543543E+04 -0.23490330742E+03 -0.63733064880E+01  0.11283940432E+04  0.50400001928E-02 0.  1.
</event>
<event>
 5   0  0.9261602E-07  0.2499615E+04  0.7818609E-02  0.8403123E-01
       -2   -1    0    0    0  501  0.00000000000E+00  0.00000000000E+00  0.10986579234E+04  0.10986579234E+04  0.25500000920E-02 0. -1.
        2   -1    0    0  501    0  0.00000000000E+00  0.00000000000E+00 -0.14217518149E+04  0.14217518149E+04  0.25500000920E-02 0.  1.
    10030    2    1    2    0    0  0.00000000000E+00  0.00000000000E+00 -0.32309389141E+03  0.25204097383E+04  0.24996150876E+04 0.  0.
        4    1    3    3  502    0  0.57384730082E+03  0.91593324502E+03  0.47119468627E+03  0.11790930749E+04  0.12699999809E+01 0. -1.
       -4    1    3    3    0  502 -0.57384730082E+03 -0.91593324502E+03 -0.79428857768E+03  0.13413166634E+04  0.12699999809E+01 0.  1.
</event>
<event>
 5   0  0.3991066E-07  0.2501256E+04  0.7818609E-02  0.8402538E-01
       -1   -1    0    0    0  501  0.00000000000E+00  0.00000000000E+00  0.98904016924E+03  0.98904016925E+03  0.50400001928E-02 0.  1.
        1   -1    0    0  501    0  0.00000000000E+00  0.00000000000E+00 -0.15814019337E+04  0.15814019337E+04  0.50400001928E-02 0. -1.
    10030    2    1    2    0    0  0.00000000000E+00  0.00000000000E+00 -0.59236176446E+03  0.25704421030E+04  0.25012557136E+04 0.  0.
        1    1    3    3  502    0 -0.99311650210E+03  0.12153773259E+03 -0.10672813395E+04  0.14629221664E+04  0.50400001928E-02 0. -1.
       -1    1    3    3    0  502  0.99311650210E+03 -0.12153773259E+03  0.47491957502E+03  0.11075199366E+04  0.50400001928E-02 0.  1.
</event>
<event>
 5   0  0.9261602E-07  0.2500219E+04  0.7818609E-02  0.8402907E-01
        2   -1    0    0  501    0  0.00000000000E+00  0.00000000000E+00  0.24215148953E+04  0.24215148953E+04  0.25500000920E-02 0.  1.
       -2   -1    0    0    0  501  0.00000000000E+00  0.00000000000E+00 -0.64537034632E+03  0.64537034633E+03  0.25500000920E-02 0. -1.
    10030    2    1    2    0    0  0.00000000000E+00  0.00000000000E+00  0.17761445490E+04  0.30668852417E+04  0.25002191157E+04 0.  0.
        4    1    3    3  502    0  0.93674938206E+03  0.39977289485E+03  0.17772468189E+04  0.20483958700E+04  0.12699999809E+01 0.  1.
       -4    1    3    3    0  502 -0.93674938206E+03 -0.39977289485E+03 -0.11022698640E+01  0.10184893716E+04  0.12699999809E+01 0. -1.
</event>
<event>
 5   0  0.9251138E-07  0.2500156E+04  0.7818609E-02  0.8402930E-01
       -2   -1    0    0    0  501  0.00000000000E+00  0.00000000000E+00  0.87792759482E+03  0.87792759482E+03  0.25500000920E-02 0. -1.
        2   -1    0    0  501    0  0.00000000000E+00  0.00000000000E+00 -0.17799814339E+04  0.17799814339E+04  0.25500000920E-02 0.  1.
    10030    2    1    2    0    0  0.00000000000E+00  0.00000000000E+00 -0.90205383911E+03  0.26579090287E+04  0.25001558504E+04 0.  0.
        5    1    3    3  502    0 -0.10395269547E+04 -0.64765080626E+03 -0.18502969864E+03  0.12386791093E+04  0.46999998093E+01 0. -1.
       -5    1    3    3    0  502  0.10395269547E+04  0.64765080626E+03 -0.71702414047E+03  0.14192299195E+04  0.46999998093E+01 0.  1.
</event>
<event>
 5   0  0.3805418E-07  0.2500403E+04  0.7818609E-02  0.8402842E-01
       -1   -1    0    0    0  501  0.00000000000E+00  0.00000000000E+00  0.96328350213E+03  0.96328350214E+03  0.50400001928E-02 0.  1.
        1   -1    0    0  501    0  0.00000000000E+00  0.00000000000E+00 -0.16225787553E+04  0.16225787553E+04  0.50400001928E-02 0. -1.
    10030    2    1    2    0    0  0.00000000000E+00  0.00000000000E+00 -0.65929525319E+03  0.25858622575E+04  0.25004026443E+04 0.  0.
        4    1    3    3  502    0 -0.11935980997E+04 -0.31086342038E+03 -0.54080557987E+03  0.13467682718E+04  0.12699999809E+01 0. -1.
       -4    1    3    3    0  502  0.11935980997E+04  0.31086342038E+03 -0.11848967332E+03  0.12390939857E+04  0.12699999809E+01 0.  1.
</event>
<event>
 5   0  0.9251138E-07  0.2500400E+04  0.7818609E-02  0.8402843E-01
        2   -1    0    0  501    0  0.00000000000E+00  0.00000000000E+00  0.14205170784E+04  0.14205170784E+04  0.25500000920E-02 0. -1.
       -2   -1    0    0    0  501  0.00000000000E+00  0.00000000000E+00 -0.11003035721E+04  0.11003035721E+04  0.25500000920E-02 0.  1.
    10030    2    1    2    0    0  0.00000000000E+00  0.00000000000E+00  0.32021350631E+03  0.25208206505E+04  0.25003999805E+04 0.  0.
        5    1    3    3  502    0 -0.85331682542E+03  0.70077960202E+03  0.75118522432E+03  0.13354935366E+04  0.46999998093E+01 0.  1.
       -5    1    3    3    0  502  0.85331682542E+03 -0.70077960202E+03 -0.43097171802E+03  0.11853271139E+04  0.46999998093E+01 0. -1.
</event>
<event>
 5   0  0.3873231E-07  0.2501468E+04  0.7818609E-02  0.8402463E-01
        1   -1    0    0  501    0  0.00000000000E+00  0.00000000000E+00  0.20436192698E+04  0.20436192698E+04  0.50400001928E-02 0. -1.
       -1   -1    0    0    0  501  0.00000000000E+00  0.00000000000E+00 -0.76547278332E+03  0.76547278333E+03  0.50400001928E-02 0.  1.
    10030    2    1    2    0    0  0.00000000000E+00  0.00000000000E+00  0.12781464865E+04  0.28090920531E+04  0.25014675137E+04 0.  0.
        2    1    3    3  502    0 -0.76851800755E+03 -0.74403590385E+03 -0.88808228723E+02  0.10733574687E+04  0.25500000920E-02 0.  1.
       -2    1    3    3    0  502  0.76851800755E+03  0.74403590385E+03  0.13669547152E+04  0.17357345844E+04  0.25500000920E-02 0. -1.
</event>
<event>
 5   0  0.9508784E-07  0.2502384E+04  0.7818609E-02  0.8402137E-01
        2   -1    0    0  501    0  0.00000000000E+00  0.00000000000E+00  0.16025107241E+04  0.16025107241E+04  0.25500000920E-02 0.  1.
       -2   -1    0    0    0  501  0.00000000000E+00  0.00000000000E+00 -0.97689267332E+03  0.97689267333E+03  0.25500000920E-02 0. -1.
    10030    2    1    2    0    0  0.00000000000E+00  0.00000000000E+00  0.62561805077E+03  0.25794033974E+04  0.25023836519E+04 0.  0.
        2    1    3    3  502    0  0.11421789567E+04 -0.51050042993E+03  0.33058889931E+03  0.12940140952E+04  0.25500000920E-02 0. -1.
       -2    1    3    3    0  502 -0.11421789567E+04  0.51050042993E+03  0.29502915146E+03  0.12853893023E+04  0.25500000920E-02 0.  1.
</event>
<event>
 5   0  0.3837524E-07  0.2498799E+04  0.7818609E-02  0.8403414E-01
        1   -1    0    0  501    0  0.00000000000E+00  0.00000000000E+00  0.12387022880E+04  0.12387022880E+04  0.50400001928E-02 0. -1.
       -1   -1    0    0    0  501  0.00000000000E+00  0.00000000000E+00 -0.12601887755E+04  0.12601887755E+04  0.50400001928E-02 0.  1.
    10030    2    1    2    0    0  0.00000000000E+00  0.00000000000E+00 -0.21486487549E+02  0.24988910635E+04  0.24987986870E+04 0.  0.
        5    1    3    3  502    0  0.72272005218E+03  0.99951884068E+03 -0.20978437472E+03  0.12511569688E+04  0.46999998093E+01 0. -1.
       -5    1    3    3    0  502 -0.72272005218E+03 -0.99951884068E+03  0.18829788717E+03  0.12477340947E+04  0.46999998093E+01 0.  1.
</event>
</LesHouchesEvents>
