<LesHouchesEvents version="3.0">
<header>
<!--
#*********************************************************************
#                                                                    *
#                        MadGraph5_aMC@NLO                           *
#                                                                    *
#                           Going Beyond                             *
#                                                                    *
#                   http://madgraph.hep.uiuc.edu                     *
#                   http://madgraph.phys.ucl.ac.be                   *
#                   http://amcatnlo.cern.ch                          *
#                                                                    *
#                     The MadGraph5_aMC@NLO team                     *
#                                                                    *
#....................................................................*
#                                                                    *
# This file contains all the information necessary to reproduce      *
# the events generated:                                              *
#                                                                    *
# 1. software version                                                *
# 2. proc_card          : code generation info including model       *
# 3. param_card         : model primary parameters in the LH format  *
# 4. run_card           : running parameters (collider and cuts)     *
# 5. pythia_card        : present only if pythia has been run        *
# 6. pgs_card           : present only if pgs has been run           *
# 7. delphes_cards      : present only if delphes has been run       *
#                                                                    *
#                                                                    *
#*********************************************************************
-->
<MGVersion>
#5.2.2.3
</MGVersion>
<MG5ProcCard>
#************************************************************
#*                     MadGraph5_aMC@NLO                    *
#*                                                          *
#*                *                       *                 *
#*                  *        * *        *                   *
#*                    * * * * 5 * * * *                     *
#*                  *        * *        *                   *
#*                *                       *                 *
#*                                                          *
#*                                                          *
#*         VERSION 2.2.3                 2015-02-10         *
#*                                                          *
#*    The MadGraph5_aMC@NLO Development Team - Find us at   *
#*    https://server06.fynu.ucl.ac.be/projects/madgraph     *
#*                                                          *
#************************************************************
#*                                                          *
#*               Command File for MadGraph5_aMC@NLO         *
#*                                                          *
#*     run as ./bin/mg5_aMC  filename                       *
#*                                                          *
#************************************************************
set group_subprocesses Auto
set ignore_six_quark_processes False
set loop_optimized_output True
set gauge unitary
set complex_mass_scheme False
import model sm
define p = g u c d s u~ c~ d~ s~
define j = g u c d s u~ c~ d~ s~
define l+ = e+ mu+
define l- = e- mu-
define vl = ve vm vt
define vl~ = ve~ vm~ vt~
import model Zprime_UFO
generate p p > zph, zph > j j
add process p p > zph, zph > b b~
output Dijet_signal
</MG5ProcCard>
<MGProcCard>
#*********************************************************************
#                        MadGraph/MadEvent                           *
#                   http://madgraph.hep.uiuc.edu                     *
#                                                                    *
#                          proc_card.dat                             *
#*********************************************************************
#                                                                    *
#            This Files is generated by MADGRAPH 5                   *
#                                                                    *
# WARNING: This Files is generated for MADEVENT (compatibility issue)*
#          This files is NOT a valid MG4 proc_card.dat               *
#          Running this in MG4 will NEVER reproduce the result of MG5*
#                                                                    *
#*********************************************************************
#*********************************************************************
# Process(es) requested : mg2 input                                  *
#*********************************************************************
# Begin PROCESS # This is TAG. Do not modify this line
p p > zph , zph > j j           #Process
# Be carefull the coupling are here in MG5 convention
          
end_coup           # End the couplings input

done               # this tells MG there are no more procs
# End PROCESS  # This is TAG. Do not modify this line
#*********************************************************************
# Model information                                                  *
#*********************************************************************
# Begin MODEL  # This is TAG. Do not modify this line
Zprime_UFO
# End   MODEL  # This is TAG. Do not modify this line
#*********************************************************************
# Start multiparticle definitions                                    *
#*********************************************************************
# Begin MULTIPARTICLES # This is TAG. Do not modify this line

# End  MULTIPARTICLES # This is TAG. Do not modify this line
</MGProcCard>
<MGRunCard>
#*********************************************************************
#                       MadGraph5_aMC@NLO                            *
#                                                                    *
#                     run_card.dat MadEvent                          *
#                                                                    *
#  This file is used to set the parameters of the run.               *
#                                                                    *
#  Some notation/conventions:                                        *
#                                                                    *
#   Lines starting with a '# ' are info or comments                  *
#                                                                    *
#   mind the format:   value    = variable     ! comment             *
#*********************************************************************
#
#*******************                                                 
# Running parameters
#*******************                                                 
#                                                                    
#*********************************************************************
# Tag name for the run (one word)                                    *
#*********************************************************************
  tag_1     = run_tag ! name of the run 
#*********************************************************************
# Run to generate the grid pack                                      *
#*********************************************************************
  .false.     = gridpack  !True = setting up the grid pack
#*********************************************************************
# Number of events and rnd seed                                      *
# Warning: Do not generate more than 1M events in a single run       *
# If you want to run Pythia, avoid more than 50k events in a run.    *
#*********************************************************************
  2000 = nevents ! Number of unweighted events requested 
 687 = iseed   ! rnd seed (0=assigned automatically=default))
#*********************************************************************
# Collider type and energy                                           *
# lpp: 0=No PDF, 1=proton, -1=antiproton, 2=photon from proton,      *
#                                         3=photon from electron     *
#*********************************************************************
        1     = lpp1    ! beam 1 type 
        1     = lpp2    ! beam 2 type
     4000     = ebeam1  ! beam 1 total energy in GeV
     4000     = ebeam2  ! beam 2 total energy in GeV
#*********************************************************************
# Beam polarization from -100 (left-handed) to 100 (right-handed)    *
#*********************************************************************
        0     = polbeam1 ! beam polarization for beam 1
        0     = polbeam2 ! beam polarization for beam 2
#*********************************************************************
# PDF CHOICE: this automatically fixes also alpha_s and its evol.    *
#*********************************************************************
 'nn23lo1'    = pdlabel     ! PDF set                                     
 230000    = lhaid     ! if pdlabel=lhapdf, this is the lhapdf number
#*********************************************************************
# Renormalization and factorization scales                           *
#*********************************************************************
 F        = fixed_ren_scale  ! if .true. use fixed ren scale
 F        = fixed_fac_scale  ! if .true. use fixed fac scale
 91.1880  = scale            ! fixed ren scale
 91.1880  = dsqrt_q2fact1    ! fixed fact scale for pdf1
 91.1880  = dsqrt_q2fact2    ! fixed fact scale for pdf2
 1        = scalefact        ! scale factor for event-by-event scales
#*********************************************************************
# Matching - Warning! ickkw > 1 is still beta
#*********************************************************************
 0        = ickkw            ! 0 no matching, 1 MLM, 2 CKKW matching
 1        = highestmult      ! for ickkw=2, highest mult group
 1        = ktscheme         ! for ickkw=1, 1 Durham kT, 2 Pythia pTE
 1        = alpsfact         ! scale factor for QCD emission vx
 F        = chcluster        ! cluster only according to channel diag
 T        = pdfwgt           ! for ickkw=1, perform pdf reweighting
 5        = asrwgtflavor     ! highest quark flavor for a_s reweight
 T        = clusinfo         ! include clustering tag in output
 3.0      = lhe_version       ! Change the way clustering information pass to shower.        
#*********************************************************************
#**********************************************************
#
#**********************************************************
# Automatic ptj and mjj cuts if xqcut > 0
# (turn off for VBF and single top processes)
#**********************************************************
   T  = auto_ptj_mjj  ! Automatic setting of ptj and mjj
#**********************************************************
#                                                                    
#**********************************
# BW cutoff (M+/-bwcutoff*Gamma)
#**********************************
  15  = bwcutoff      ! (M+/-bwcutoff*Gamma)
#**********************************************************
# Apply pt/E/eta/dr/mij cuts on decay products or not
# (note that etmiss/ptll/ptheavy/ht/sorted cuts always apply)
#**********************************************************
   T  = cut_decays    ! Cut decay products 
#*************************************************************
# Number of helicities to sum per event (0 = all helicities)
# 0 gives more stable result, but longer run time (needed for
# long decay chains e.g.).
# Use >=2 if most helicities contribute, e.g. pure QCD.
#*************************************************************
   0  = nhel          ! Number of helicities used per event
#*******************                                                 
# Standard Cuts
#*******************                                                 
#                                                                    
#*********************************************************************
# Minimum and maximum pt's (for max, -1 means no cut)                *
#*********************************************************************
 20  = ptj       ! minimum pt for the jets 
  0  = ptb       ! minimum pt for the b 
 10  = pta       ! minimum pt for the photons 
 10  = ptl       ! minimum pt for the charged leptons 
  0  = misset    ! minimum missing Et (sum of neutrino's momenta)
  0  = ptheavy   ! minimum pt for one heavy final state
 1.0 = ptonium   ! minimum pt for the quarkonium states
 -1  = ptjmax    ! maximum pt for the jets
 -1  = ptbmax    ! maximum pt for the b
 -1  = ptamax    ! maximum pt for the photons
 -1  = ptlmax    ! maximum pt for the charged leptons
 -1  = missetmax ! maximum missing Et (sum of neutrino's momenta)
#*********************************************************************
# Minimum and maximum E's (in the center of mass frame)              *
#*********************************************************************
  0  = ej     ! minimum E for the jets 
  0  = eb     ! minimum E for the b 
  0  = ea     ! minimum E for the photons 
  0  = el     ! minimum E for the charged leptons 
 -1   = ejmax ! maximum E for the jets
 -1   = ebmax ! maximum E for the b
 -1   = eamax ! maximum E for the photons
 -1   = elmax ! maximum E for the charged leptons
#*********************************************************************
# Maximum and minimum absolute rapidity (for max, -1 means no cut)   *
#*********************************************************************
   5  = etaj    ! max rap for the jets 
  -1  = etab    ! max rap for the b
 2.5  = etaa    ! max rap for the photons 
 2.5  = etal    ! max rap for the charged leptons 
 0.6  = etaonium ! max rap for the quarkonium states
   0  = etajmin ! min rap for the jets
   0  = etabmin ! min rap for the b
   0  = etaamin ! min rap for the photons
   0  = etalmin ! main rap for the charged leptons
#*********************************************************************
# Minimum and maximum DeltaR distance                                *
#*********************************************************************
 0.4 = drjj    ! min distance between jets 
 0   = drbb    ! min distance between b's 
 0.4 = drll    ! min distance between leptons 
 0.4 = draa    ! min distance between gammas 
 0   = drbj    ! min distance between b and jet 
 0.4 = draj    ! min distance between gamma and jet 
 0.4 = drjl    ! min distance between jet and lepton 
 0   = drab    ! min distance between gamma and b 
 0   = drbl    ! min distance between b and lepton 
 0.4 = dral    ! min distance between gamma and lepton 
 -1  = drjjmax ! max distance between jets
 -1  = drbbmax ! max distance between b's
 -1  = drllmax ! max distance between leptons
 -1  = draamax ! max distance between gammas
 -1  = drbjmax ! max distance between b and jet
 -1  = drajmax ! max distance between gamma and jet
 -1  = drjlmax ! max distance between jet and lepton
 -1  = drabmax ! max distance between gamma and b
 -1  = drblmax ! max distance between b and lepton
 -1  = dralmax ! maxdistance between gamma and lepton
#*********************************************************************
# Minimum and maximum invariant mass for pairs                       *
# WARNING: for four lepton final state mmll cut require to have      *
#          different lepton masses for each flavor!                  *           
#*********************************************************************
 0   = mmjj    ! min invariant mass of a jet pair 
 0   = mmbb    ! min invariant mass of a b pair 
 0   = mmaa    ! min invariant mass of gamma gamma pair
 0   = mmll    ! min invariant mass of l+l- (same flavour) lepton pair
 -1  = mmjjmax ! max invariant mass of a jet pair
 -1  = mmbbmax ! max invariant mass of a b pair
 -1  = mmaamax ! max invariant mass of gamma gamma pair
 -1  = mmllmax ! max invariant mass of l+l- (same flavour) lepton pair
#*********************************************************************
# Minimum and maximum invariant mass for all letpons                 *
#*********************************************************************
 0   = mmnl    ! min invariant mass for all letpons (l+- and vl) 
 -1  = mmnlmax ! max invariant mass for all letpons (l+- and vl) 
#*********************************************************************
# Minimum and maximum pt for 4-momenta sum of leptons                *
#*********************************************************************
 0   = ptllmin  ! Minimum pt for 4-momenta sum of leptons(l and vl)
 -1  = ptllmax  ! Maximum pt for 4-momenta sum of leptons(l and vl)
#*********************************************************************
# Inclusive cuts                                                     *
#*********************************************************************
 0  = xptj ! minimum pt for at least one jet  
 0  = xptb ! minimum pt for at least one b 
 0  = xpta ! minimum pt for at least one photon 
 0  = xptl ! minimum pt for at least one charged lepton 
#*********************************************************************
# Control the pt's of the jets sorted by pt                          *
#*********************************************************************
 0   = ptj1min ! minimum pt for the leading jet in pt
 0   = ptj2min ! minimum pt for the second jet in pt
 0   = ptj3min ! minimum pt for the third jet in pt
 0   = ptj4min ! minimum pt for the fourth jet in pt
 -1  = ptj1max ! maximum pt for the leading jet in pt 
 -1  = ptj2max ! maximum pt for the second jet in pt
 -1  = ptj3max ! maximum pt for the third jet in pt
 -1  = ptj4max ! maximum pt for the fourth jet in pt
 0   = cutuse  ! reject event if fails any (0) / all (1) jet pt cuts
#*********************************************************************
# Control the pt's of leptons sorted by pt                           *
#*********************************************************************
 0   = ptl1min ! minimum pt for the leading lepton in pt
 0   = ptl2min ! minimum pt for the second lepton in pt
 0   = ptl3min ! minimum pt for the third lepton in pt
 0   = ptl4min ! minimum pt for the fourth lepton in pt
 -1  = ptl1max ! maximum pt for the leading lepton in pt 
 -1  = ptl2max ! maximum pt for the second lepton in pt
 -1  = ptl3max ! maximum pt for the third lepton in pt
 -1  = ptl4max ! maximum pt for the fourth lepton in pt
#*********************************************************************
# Control the Ht(k)=Sum of k leading jets                            *
#*********************************************************************
 0   = htjmin ! minimum jet HT=Sum(jet pt)
 -1  = htjmax ! maximum jet HT=Sum(jet pt)
 0   = ihtmin  !inclusive Ht for all partons (including b)
 -1  = ihtmax  !inclusive Ht for all partons (including b)
 0   = ht2min ! minimum Ht for the two leading jets
 0   = ht3min ! minimum Ht for the three leading jets
 0   = ht4min ! minimum Ht for the four leading jets
 -1  = ht2max ! maximum Ht for the two leading jets
 -1  = ht3max ! maximum Ht for the three leading jets
 -1  = ht4max ! maximum Ht for the four leading jets
#***********************************************************************
# Photon-isolation cuts, according to hep-ph/9801442                   *
# When ptgmin=0, all the other parameters are ignored                  *
# When ptgmin>0, pta and draj are not going to be used                 *
#***********************************************************************
   0 = ptgmin ! Min photon transverse momentum
 0.4 = R0gamma ! Radius of isolation code
 1.0 = xn ! n parameter of eq.(3.4) in hep-ph/9801442
 1.0 = epsgamma ! epsilon_gamma parameter of eq.(3.4) in hep-ph/9801442
 .true. = isoEM ! isolate photons from EM energy (photons and leptons)
#*********************************************************************
# WBF cuts                                                           *
#*********************************************************************
 0   = xetamin ! minimum rapidity for two jets in the WBF case  
 0   = deltaeta ! minimum rapidity for two jets in the WBF case 
#*********************************************************************
# KT DURHAM CUT                                                      *
#*********************************************************************
 -1    =  ktdurham        
 0.4  =  dparameter 
#*********************************************************************
# maximal pdg code for quark to be considered as a light jet         *
# (otherwise b cuts are applied)                                     *
#*********************************************************************
 4 = maxjetflavor    ! Maximum jet pdg code
#*********************************************************************
# Jet measure cuts                                                   *
#*********************************************************************
 0   = xqcut   ! minimum kt jet measure between partons
#*********************************************************************
#
#*********************************************************************
# Store info for systematics studies                                 *
# WARNING: If use_syst is T, matched Pythia output is                *
#          meaningful ONLY if plotted taking matchscale              *
#          reweighting into account!                                 *
#*********************************************************************
   F  = use_syst      ! Enable systematics studies
#
#**************************************
# Parameter of the systematics study
#  will be used by SysCalc (if installed)
#**************************************                                  
#
0.5 1 2 = sys_scalefact  # factorization/renormalization scale factor
0.5 1 2 = sys_alpsfact  # \alpha_s emission scale factors
30 50 = sys_matchscale # variation of merging scale
# PDF sets and number of members (0 or none for all members).
CT10nlo.LHgrid = sys_pdf # matching scales
# MSTW2008nlo68cl.LHgrid 1  = sys_pdf
</MGRunCard>
<slha>
######################################################################
## PARAM_CARD AUTOMATICALY GENERATED BY MG5 FOLLOWING UFO MODEL   ####
######################################################################
##                                                                  ##
##  Width set on Auto will be computed following the information    ##
##        present in the decay.py files of the model.               ##
##        See  arXiv:1402.1178 for more details.                    ##
##                                                                  ##
######################################################################

###################################
## INFORMATION FOR CKMBLOCK
###################################
Block ckmblock 
    1 2.277360e-01 # cabi 

###################################
## INFORMATION FOR FRBLOCK
###################################
Block frblock 
    1 2.000000e-01 # gz 

###################################
## INFORMATION FOR MASS
###################################
Block mass 
    1 5.040000e-03 # MD 
    2 2.550000e-03 # MU 
    3 1.010000e-01 # MS 
    4 1.270000e+00 # MC 
    5 4.700000e+00 # MB 
    6 1.720000e+02 # MT 
   11 5.110000e-04 # Me 
   13 1.056600e-01 # MM 
   15 1.777000e+00 # MTA 
   23 9.118760e+01 # MZ 
   25 1.200000e+02 # MH 
  10030 2.600000e+03 # MZph 
  10031 3.000000e+02 # MZpl 
## Dependent parameters, given by model restrictions.
## Those values should be edited following the 
## analytical expression. MG5 ignores those values 
## but they are important for interfacing the output of MG5
## to external program such as Pythia.
  12 0.000000 # ve : 0.0 
  14 0.000000 # vm : 0.0 
  16 0.000000 # vt : 0.0 
  21 0.000000 # g : 0.0 
  22 0.000000 # a : 0.0 
  24 79.824360 # w+ : cmath.sqrt(MZ__exp__2/2. + cmath.sqrt(MZ__exp__4/4. - (aEW*cmath.pi*MZ__exp__2)/(Gf*sqrt__2))) 

###################################
## INFORMATION FOR SMINPUTS
###################################
Block sminputs 
    1 1.279000e+02 # aEWM1 
    2 1.166370e-05 # Gf 
    3 1.184000e-01 # aS 

###################################
## INFORMATION FOR YUKAWA
###################################
Block yukawa 
    1 5.040000e-03 # ymdo 
    2 2.550000e-03 # ymup 
    3 1.010000e-01 # yms 
    4 1.270000e+00 # ymc 
    5 4.700000e+00 # ymb 
    6 1.720000e+02 # ymt 
   11 5.110000e-04 # yme 
   13 1.056600e-01 # ymm 
   15 1.777000e+00 # ymtau 

###################################
## INFORMATION FOR DECAY
###################################
DECAY   6 1.508336e+00 # WT 
DECAY  23 2.495200e+00 # WZ 
DECAY  24 2.085000e+00 # WW 
DECAY  25 5.753088e-03 # WH 
## Dependent parameters, given by model restrictions.
## Those values should be edited following the 
## analytical expression. MG5 ignores those values 
## but they are important for interfacing the output of MG5
## to external program such as Pythia.
DECAY  1 0.000000 # d : 0.0 
DECAY  2 0.000000 # u : 0.0 
DECAY  3 0.000000 # s : 0.0 
DECAY  4 0.000000 # c : 0.0 
DECAY  5 0.000000 # b : 0.0 
DECAY  11 0.000000 # e- : 0.0 
DECAY  12 0.000000 # ve : 0.0 
DECAY  13 0.000000 # mu- : 0.0 
DECAY  14 0.000000 # vm : 0.0 
DECAY  15 0.000000 # ta- : 0.0 
DECAY  16 0.000000 # vt : 0.0 
DECAY  21 0.000000 # g : 0.0 
DECAY  22 0.000000 # a : 0.0 
DECAY  10030 0.308725 # zph : (gz__exp__2*MZph*(5 + cmath.sqrt(1 - (4*MT__exp__2)/MZph__exp__2)))/(144.*cmath.pi) 
DECAY  10031 0.132629 # zpl : (5*gz__exp__2*MZpl)/(144.*cmath.pi) 
#===========================================================
# QUANTUM NUMBERS OF NEW STATE(S) (NON SM PDG CODE)
#===========================================================

Block QNUMBERS 10030  # zph 
        1 0  # 3 times electric charge
        2 3  # number of spin states (2S+1)
        3 1  # colour rep (1: singlet, 3: triplet, 8: octet)
        4 0  # Particle/Antiparticle distinction (0=own anti)
Block QNUMBERS 10031  # zpl 
        1 0  # 3 times electric charge
        2 3  # number of spin states (2S+1)
        3 1  # colour rep (1: singlet, 3: triplet, 8: octet)
        4 0  # Particle/Antiparticle distinction (0=own anti)
</slha>
## END BANNER##
<MGGenerationInfo>
#  Number of Events        :         3922
#  Integrated weight (pb)  :  0.18357E-03
#  Max wgt                 :  0.71603E-07
#  Average wgt             :  0.46805E-07
</MGGenerationInfo>
</header>
<init>
     2212     2212  0.40000000000E+04  0.40000000000E+04 0 0  247000  247000 2   1
  0.18370795614E-03  0.40466388378E-06  0.71603200000E-07   0
</init>
<event>
 5   0  0.7160320E-07  0.2603220E+04  0.7818609E-02  0.8367108E-01
       -2   -1    0    0    0  501  0.00000000000E+00  0.00000000000E+00  0.16793861137E+04  0.16793861137E+04  0.25500000920E-02 0.  1.
        2   -1    0    0  501    0  0.00000000000E+00  0.00000000000E+00 -0.10088144806E+04  0.10088144806E+04  0.25500000920E-02 0. -1.
    10030    2    1    2    0    0  0.00000000000E+00  0.00000000000E+00  0.67057163309E+03  0.26882005943E+04  0.26032203364E+04 0.  0.
        1    1    3    3  502    0  0.11484484878E+04 -0.60221335719E+03  0.45117304544E+03  0.13730083662E+04  0.50400001928E-02 0.  1.
       -1    1    3    3    0  502 -0.11484484878E+04  0.60221335719E+03  0.21939858765E+03  0.13151922281E+04  0.50400001928E-02 0. -1.
</event>
<event>
 5   0  0.7160320E-07  0.2601071E+04  0.7818609E-02  0.8367837E-01
        2   -1    0    0  501    0  0.00000000000E+00  0.00000000000E+00  0.16395180118E+04  0.16395180118E+04  0.25500000920E-02 0.  1.
       -2   -1    0    0    0  501  0.00000000000E+00  0.00000000000E+00 -0.10316401619E+04  0.10316401619E+04  0.25500000920E-02 0. -1.
    10030    2    1    2    0    0  0.00000000000E+00  0.00000000000E+00  0.60787784989E+03  0.26711581738E+04  0.26010710311E+04 0.  0.
        1    1    3    3  502    0  0.73130485735E+03  0.10304769641E+04 -0.12091865763E+02  0.12636596778E+04  0.50400001928E-02 0. -1.
       -1    1    3    3    0  502 -0.73130485735E+03 -0.10304769641E+04  0.61996971566E+03  0.14074984960E+04  0.50400001928E-02 0.  1.
</event>
<event>
 5   0  0.6526351E-07  0.2600217E+04  0.7818609E-02  0.8368128E-01
        2   -1    0    0  501    0  0.00000000000E+00  0.00000000000E+00  0.23167295238E+04  0.23167295238E+04  0.25500000920E-02 0.  1.
       -2   -1    0    0    0  501  0.00000000000E+00  0.00000000000E+00 -0.72959820121E+03  0.72959820122E+03  0.25500000920E-02 0. -1.
    10030    2    1    2    0    0  0.00000000000E+00  0.00000000000E+00  0.15871313226E+04  0.30463277250E+04  0.26002166781E+04 0.  0.
        3    1    3    3  502    0 -0.88967229230E+03 -0.34090529135E+03 -0.24282313378E+03  0.98320714494E+03  0.10100000352E+00 0. -1.
       -3    1    3    3    0  502  0.88967229230E+03  0.34090529135E+03  0.18299544563E+04  0.20631205801E+04  0.10100000352E+00 0.  1.
</event>
<event>
 5   0  0.7160320E-07  0.2601451E+04  0.7818609E-02  0.8367709E-01
       -2   -1    0    0    0  501  0.00000000000E+00  0.00000000000E+00  0.82571689044E+03  0.82571689044E+03  0.25500000920E-02 0. -1.
        2   -1    0    0  501    0  0.00000000000E+00  0.00000000000E+00 -0.20489906603E+04  0.20489906603E+04  0.25500000920E-02 0.  1.
    10030    2    1    2    0    0  0.00000000000E+00  0.00000000000E+00 -0.12232737699E+04  0.28747075508E+04  0.26014505158E+04 0.  0.
        1    1    3    3  502    0 -0.89618086344E+03  0.74397229036E+03  0.28191241968E+02  0.11650878314E+04  0.50400001928E-02 0.  1.
       -1    1    3    3    0  502  0.89618086344E+03 -0.74397229036E+03 -0.12514650119E+04  0.17096197194E+04  0.50400001928E-02 0. -1.
</event>
<event>
 5   0  0.6526351E-07  0.2598159E+04  0.7818609E-02  0.8368827E-01
        2   -1    0    0  501    0  0.00000000000E+00  0.00000000000E+00  0.27700559073E+04  0.27700559073E+04  0.25500000920E-02 0. -1.
       -2   -1    0    0    0  501  0.00000000000E+00  0.00000000000E+00 -0.60923248358E+03  0.60923248359E+03  0.25500000920E-02 0.  1.
    10030    2    1    2    0    0  0.00000000000E+00  0.00000000000E+00  0.21608234237E+04  0.33792883909E+04  0.25981593793E+04 0.  0.
        3    1    3    3  502    0  0.96370278122E+03  0.86867910165E+03  0.11655181466E+04  0.17440639301E+04  0.10100000352E+00 0.  1.
       -3    1    3    3    0  502 -0.96370278122E+03 -0.86867910165E+03  0.99530527715E+03  0.16352244608E+04  0.10100000352E+00 0. -1.
</event>
<event>
 5   0  0.2623263E-07  0.2601502E+04  0.7818609E-02  0.8367691E-01
       -1   -1    0    0    0  501  0.00000000000E+00  0.00000000000E+00  0.82207268449E+03  0.82207268450E+03  0.50400001928E-02 0.  1.
        1   -1    0    0  501    0  0.00000000000E+00  0.00000000000E+00 -0.20581555100E+04  0.20581555100E+04  0.50400001928E-02 0. -1.
    10030    2    1    2    0    0  0.00000000000E+00  0.00000000000E+00 -0.12360828255E+04  0.28802281945E+04  0.26015022008E+04 0.  0.
        1    1    3    3  502    0 -0.15920597703E+03  0.10717984889E+04 -0.14147632793E+04  0.17820363858E+04  0.50400001928E-02 0. -1.
       -1    1    3    3    0  502  0.15920597703E+03 -0.10717984889E+04  0.17868045382E+03  0.10981918086E+04  0.50400001928E-02 0.  1.
</event>
<event>
 5   0  0.2641626E-07  0.2598005E+04  0.7818609E-02  0.8368879E-01
       -1   -1    0    0    0  501  0.00000000000E+00  0.00000000000E+00  0.65414453105E+03  0.65414453107E+03  0.50400001928E-02 0. -1.
        1   -1    0    0  501    0  0.00000000000E+00  0.00000000000E+00 -0.25795635623E+04  0.25795635623E+04  0.50400001928E-02 0.  1.
    10030    2    1    2    0    0  0.00000000000E+00  0.00000000000E+00 -0.19254190312E+04  0.32337080934E+04  0.25980049244E+04 0.  0.
        3    1    3    3  502    0  0.12008775594E+04 -0.20367753652E+03 -0.40078250068E+03  0.12822706714E+04  0.10100000352E+00 0. -1.
       -3    1    3    3    0  502 -0.12008775594E+04  0.20367753652E+03 -0.15246365306E+04  0.19514374220E+04  0.10100000352E+00 0.  1.
</event>
<event>
 5   0  0.7160320E-07  0.2598402E+04  0.7818609E-02  0.8368744E-01
       -2   -1    0    0    0  501  0.00000000000E+00  0.00000000000E+00  0.13242677669E+04  0.13242677669E+04  0.25500000920E-02 0. -1.
        2   -1    0    0  501    0  0.00000000000E+00  0.00000000000E+00 -0.12746091985E+04  0.12746091985E+04  0.25500000920E-02 0.  1.
    10030    2    1    2    0    0  0.00000000000E+00  0.00000000000E+00  0.49658568409E+02  0.25988769654E+04  0.25984024915E+04 0.  0.
        1    1    3    3  502    0 -0.90749372566E+03 -0.27982784139E+03 -0.86194154204E+03  0.12824943294E+04  0.50400001928E-02 0.  1.
       -1    1    3    3    0  502  0.90749372566E+03  0.27982784139E+03  0.91160011045E+03  0.13163826360E+04  0.50400001928E-02 0. -1.
</event>
<event>
 5   0  0.2793576E-07  0.2605682E+04  0.7818609E-02  0.8366274E-01
        1   -1    0    0  501    0  0.00000000000E+00  0.00000000000E+00  0.19012636960E+04  0.19012636960E+04  0.50400001928E-02 0. -1.
       -1   -1    0    0    0  501  0.00000000000E+00  0.00000000000E+00 -0.89277205060E+03  0.89277205062E+03  0.50400001928E-02 0.  1.
    10030    2    1    2    0    0  0.00000000000E+00  0.00000000000E+00  0.10084916454E+04  0.27940357466E+04  0.26056823203E+04 0.  0.
        2    1    3    3  502    0 -0.89840000561E+02  0.10398564149E+04  0.13403691055E+04  0.16988119166E+04  0.25500000920E-02 0. -1.
       -2    1    3    3    0  502  0.89840000561E+02 -0.10398564149E+04 -0.33187746007E+03  0.10952238300E+04  0.25500000920E-02 0.  1.
</event>
<event>
 5   0  0.7160320E-07  0.2599862E+04  0.7818609E-02  0.8368248E-01
       -2   -1    0    0    0  501  0.00000000000E+00  0.00000000000E+00  0.20049063220E+04  0.20049063220E+04  0.25500000920E-02 0. -1.
        2   -1    0    0  501    0  0.00000000000E+00  0.00000000000E+00 -0.84284238560E+03  0.84284238561E+03  0.25500000920E-02 0.  1.
    10030    2    1    2    0    0  0.00000000000E+00  0.00000000000E+00  0.11620639364E+04  0.28477487076E+04  0.25998615558E+04 0.  0.
        1    1    3    3  502    0 -0.10046301512E+04  0.74058726667E+03  0.18296922114E+03  0.12614392479E+04  0.50400001928E-02 0.  1.
       -1    1    3    3    0  502  0.10046301512E+04 -0.74058726667E+03  0.97909471524E+03  0.15863094597E+04  0.50400001928E-02 0. -1.
</event>
<event>
 5   0  0.2294625E-07  0.2600304E+04  0.7818609E-02  0.8368098E-01
        4   -1    0    0  501    0  0.00000000000E+00  0.00000000000E+00  0.96671623178E+03  0.96671706599E+03  0.12699999809E+01 0. -1.
       -4   -1    0    0    0  501  0.00000000000E+00  0.00000000000E+00 -0.17485932908E+04  0.17485937520E+04  0.12699999809E+01 0.  1.
    10030    2    1    2    0    0  0.00000000000E+00  0.00000000000E+00 -0.78187705907E+03  0.27153108180E+04  0.26003040405E+04 0.  0.
        3    1    3    3  502    0 -0.69127043896E+03  0.16515417327E+03 -0.15277882669E+04  0.16850126763E+04  0.10100000352E+00 0.  1.
       -3    1    3    3    0  502  0.69127043896E+03 -0.16515417327E+03  0.74591120780E+03  0.10302981417E+04  0.10100000352E+00 0. -1.
</event>
<event>
 5   0  0.6599814E-07  0.2599555E+04  0.7818609E-02  0.8368352E-01
       -2   -1    0    0    0  501  0.00000000000E+00  0.00000000000E+00  0.17239668276E+04  0.17239668276E+04  0.25500000920E-02 0. -1.
        2   -1    0    0  501    0  0.00000000000E+00  0.00000000000E+00 -0.97996205202E+03  0.97996205203E+03  0.25500000920E-02 0.  1.
    10030    2    1    2    0    0  0.00000000000E+00  0.00000000000E+00  0.74400477561E+03  0.27039288797E+04  0.25995554005E+04 0.  0.
        5    1    3    3  502    0 -0.55453893927E+03 -0.11748876159E+04  0.41263001713E+03  0.13631434137E+04  0.46999998093E+01 0.  1.
       -5    1    3    3    0  502  0.55453893927E+03  0.11748876159E+04  0.33137475849E+03  0.13407854660E+04  0.46999998093E+01 0. -1.
</event>
<event>
 5   0  0.2864801E-07  0.2600695E+04  0.7818609E-02  0.8367965E-01
       -1   -1    0    0    0  501  0.00000000000E+00  0.00000000000E+00  0.11613015669E+04  0.11613015669E+04  0.50400001928E-02 0.  1.
        1   -1    0    0  501    0  0.00000000000E+00  0.00000000000E+00 -0.14560418827E+04  0.14560418827E+04  0.50400001928E-02 0. -1.
    10030    2    1    2    0    0  0.00000000000E+00  0.00000000000E+00 -0.29474031587E+03  0.26173434496E+04  0.26006950762E+04 0.  0.
        5    1    3    3  502    0  0.16839126028E+03 -0.80898681430E+03  0.86308219098E+03  0.11948841955E+04  0.46999998093E+01 0.  1.
       -5    1    3    3    0  502 -0.16839126028E+03  0.80898681430E+03 -0.11578225068E+04  0.14224592541E+04  0.46999998093E+01 0. -1.
</event>
<event>
 5   0  0.2623263E-07  0.2600854E+04  0.7818609E-02  0.8367911E-01
       -1   -1    0    0    0  501  0.00000000000E+00  0.00000000000E+00  0.17321650503E+04  0.17321650504E+04  0.50400001928E-02 0.  1.
        1   -1    0    0  501    0  0.00000000000E+00  0.00000000000E+00 -0.97629849817E+03  0.97629849818E+03  0.50400001928E-02 0. -1.
    10030    2    1    2    0    0  0.00000000000E+00  0.00000000000E+00  0.75586655218E+03  0.27084635485E+04  0.26008538115E+04 0.  0.
        1    1    3    3  502    0 -0.21371573950E+03  0.49967949001E+02  0.17127380844E+04  0.17267434548E+04  0.50400001928E-02 0.  1.
       -1    1    3    3    0  502  0.21371573950E+03 -0.49967949001E+02 -0.95687153217E+03  0.98172009369E+03  0.50400001928E-02 0. -1.
</event>
<event>
 5   0  0.2641626E-07  0.2595342E+04  0.7818609E-02  0.8369785E-01
        1   -1    0    0  501    0  0.00000000000E+00  0.00000000000E+00  0.16092387339E+04  0.16092387339E+04  0.50400001928E-02 0. -1.
       -1   -1    0    0    0  501  0.00000000000E+00  0.00000000000E+00 -0.10464267880E+04  0.10464267880E+04  0.50400001928E-02 0.  1.
    10030    2    1    2    0    0  0.00000000000E+00  0.00000000000E+00  0.56281194587E+03  0.26556655219E+04  0.25953423816E+04 0.  0.
        3    1    3    3  502    0 -0.44055345327E+03 -0.10439337036E+04  0.92861462441E+03  0.14649948988E+04  0.10100000352E+00 0. -1.
       -3    1    3    3    0  502  0.44055345327E+03  0.10439337036E+04 -0.36580267854E+03  0.11906706230E+04  0.10100000352E+00 0.  1.
</event>
<event>
 5   0  0.2641626E-07  0.2600017E+04  0.7818609E-02  0.8368195E-01
        1   -1    0    0  501    0  0.00000000000E+00  0.00000000000E+00  0.10778453466E+04  0.10778453466E+04  0.50400001928E-02 0.  1.
       -1   -1    0    0    0  501  0.00000000000E+00  0.00000000000E+00 -0.15679633659E+04  0.15679633659E+04  0.50400001928E-02 0. -1.
    10030    2    1    2    0    0  0.00000000000E+00  0.00000000000E+00 -0.49011801928E+03  0.26458087125E+04  0.26000169365E+04 0.  0.
        3    1    3    3  502    0  0.11228662202E+04  0.33356291950E+03  0.32872375600E+03  0.12166150122E+04  0.10100000352E+00 0.  1.
       -3    1    3    3    0  502 -0.11228662202E+04 -0.33356291950E+03 -0.81884177529E+03  0.14291937003E+04  0.10100000352E+00 0. -1.
</event>
<event>
 5   0  0.7160320E-07  0.2601195E+04  0.7818609E-02  0.8367795E-01
       -2   -1    0    0    0  501  0.00000000000E+00  0.00000000000E+00  0.88473130617E+03  0.88473130617E+03  0.25500000920E-02 0.  1.
        2   -1    0    0  501    0  0.00000000000E+00  0.00000000000E+00 -0.19119405148E+04  0.19119405148E+04  0.25500000920E-02 0. -1.
    10030    2    1    2    0    0  0.00000000000E+00  0.00000000000E+00 -0.10272092086E+04  0.27966718209E+04  0.26011948246E+04 0.  0.
        1    1    3    3  502    0 -0.44353512434E+02  0.66977091029E+03  0.68411000677E+03  0.95841891036E+03  0.50400001928E-02 0.  1.
       -1    1    3    3    0  502  0.44353512434E+02 -0.66977091029E+03 -0.17113192154E+04  0.18382529106E+04  0.50400001928E-02 0. -1.
</event>
<event>
 5   0  0.2755061E-07  0.2599859E+04  0.7818609E-02  0.8368249E-01
        1   -1    0    0  501    0  0.00000000000E+00  0.00000000000E+00  0.13466601393E+04  0.13466601393E+04  0.50400001928E-02 0. -1.
       -1   -1    0    0    0  501  0.00000000000E+00  0.00000000000E+00 -0.12548207863E+04  0.12548207863E+04  0.50400001928E-02 0.  1.
    10030    2    1    2    0    0  0.00000000000E+00  0.00000000000E+00  0.91839353033E+02  0.26014809256E+04  0.25998593307E+04 0.  0.
        4    1    3    3  502    0  0.24310705336E+03 -0.48866817661E+03  0.12264512444E+04  0.13424164383E+04  0.12699999809E+01 0. -1.
       -4    1    3    3    0  502 -0.24310705336E+03  0.48866817661E+03 -0.11346118913E+04  0.12590644873E+04  0.12699999809E+01 0.  1.
</event>
<event>
 5   0  0.2623263E-07  0.2595006E+04  0.7818609E-02  0.8369900E-01
        1   -1    0    0  501    0  0.00000000000E+00  0.00000000000E+00  0.17898027123E+04  0.17898027123E+04  0.50400001928E-02 0. -1.
       -1   -1    0    0    0  501  0.00000000000E+00  0.00000000000E+00 -0.94061411688E+03  0.94061411689E+03  0.50400001928E-02 0.  1.
    10030    2    1    2    0    0  0.00000000000E+00  0.00000000000E+00  0.84918859547E+03  0.27304168292E+04  0.25950057400E+04 0.  0.
        1    1    3    3  502    0  0.64898583820E+03 -0.84307753962E+03 -0.35682404585E+03  0.11221790212E+04  0.50400001928E-02 0.  1.
       -1    1    3    3    0  502 -0.64898583820E+03  0.84307753962E+03  0.12060126413E+04  0.16082378080E+04  0.50400001928E-02 0. -1.
</event>
<event>
 5   0  0.6780984E-07  0.2600750E+04  0.7818609E-02  0.8367946E-01
        2   -1    0    0  501    0  0.00000000000E+00  0.00000000000E+00  0.12968735733E+04  0.12968735733E+04  0.25500000920E-02 0.  1.
       -2   -1    0    0    0  501  0.00000000000E+00  0.00000000000E+00 -0.13038858565E+04  0.13038858565E+04  0.25500000920E-02 0. -1.
    10030    2    1    2    0    0  0.00000000000E+00  0.00000000000E+00 -0.70122832304E+01  0.26007594298E+04  0.26007499763E+04 0.  0.
        2    1    3    3  502    0  0.64280931376E+03 -0.87585348308E+03 -0.71810790797E+03  0.13023064559E+04  0.25500000920E-02 0. -1.
       -2    1    3    3    0  502 -0.64280931376E+03  0.87585348308E+03  0.71109562474E+03  0.12984529738E+04  0.25500000920E-02 0.  1.
</event>
<event>
 5   0  0.2641626E-07  0.2601408E+04  0.7818609E-02  0.8367723E-01
        1   -1    0    0  501    0  0.00000000000E+00  0.00000000000E+00  0.12954277010E+04  0.12954277010E+04  0.50400001928E-02 0.  1.
       -1   -1    0    0    0  501  0.00000000000E+00  0.00000000000E+00 -0.13060014108E+04  0.13060014108E+04  0.50400001928E-02 0. -1.
    10030    2    1    2    0    0  0.00000000000E+00  0.00000000000E+00 -0.10573709813E+02  0.26014291119E+04  0.26014076229E+04 0.  0.
        3    1    3    3  502    0  0.10108110517E+04 -0.47862077859E+03  0.65880715131E+03  0.12980152945E+04  0.10100000352E+00 0.  1.
       -3    1    3    3    0  502 -0.10108110517E+04  0.47862077859E+03 -0.66938086112E+03  0.13034138174E+04  0.10100000352E+00 0. -1.
</event>
<event>
 5   0  0.6526351E-07  0.2602776E+04  0.7818609E-02  0.8367259E-01
       -2   -1    0    0    0  501  0.00000000000E+00  0.00000000000E+00  0.91176849951E+03  0.91176849952E+03  0.25500000920E-02 0.  1.
        2   -1    0    0  501    0  0.00000000000E+00  0.00000000000E+00 -0.18575006898E+04  0.18575006898E+04  0.25500000920E-02 0. -1.
    10030    2    1    2    0    0  0.00000000000E+00  0.00000000000E+00 -0.94573219033E+03  0.27692691894E+04  0.26027759157E+04 0.  0.
        3    1    3    3  502    0 -0.12295528823E+04 -0.24060394916E+03 -0.98325242523E+02  0.12567252739E+04  0.10100000352E+00 0. -1.
       -3    1    3    3    0  502  0.12295528823E+04  0.24060394916E+03 -0.84740694781E+03  0.15125439154E+04  0.10100000352E+00 0.  1.
</event>
<event>
 5   0  0.2623263E-07  0.2599835E+04  0.7818609E-02  0.8368257E-01
       -1   -1    0    0    0  501  0.00000000000E+00  0.00000000000E+00  0.19599827624E+04  0.19599827624E+04  0.50400001928E-02 0.  1.
        1   -1    0    0  501    0  0.00000000000E+00  0.00000000000E+00 -0.86214317509E+03  0.86214317510E+03  0.50400001928E-02 0. -1.
    10030    2    1    2    0    0  0.00000000000E+00  0.00000000000E+00  0.10978395873E+04  0.28221259375E+04  0.25998351963E+04 0.  0.
        1    1    3    3  502    0  0.19531716148E+03  0.38860301609E+03  0.18786594217E+04  0.19283470435E+04  0.50400001928E-02 0.  1.
       -1    1    3    3    0  502 -0.19531716148E+03 -0.38860301609E+03 -0.78081983432E+03  0.89377889401E+03  0.50400001928E-02 0. -1.
</event>
<event>
 5   0  0.6780984E-07  0.2599583E+04  0.7818609E-02  0.8368343E-01
       -2   -1    0    0    0  501  0.00000000000E+00  0.00000000000E+00  0.10701494016E+04  0.10701494016E+04  0.25500000920E-02 0. -1.
        2   -1    0    0  501    0  0.00000000000E+00  0.00000000000E+00 -0.15787124593E+04  0.15787124593E+04  0.25500000920E-02 0.  1.
    10030    2    1    2    0    0  0.00000000000E+00  0.00000000000E+00 -0.50856305767E+03  0.26488618609E+04  0.25995831924E+04 0.  0.
        2    1    3    3  502    0 -0.53390767325E+03 -0.11729836846E+04 -0.82231520009E+02  0.12913985251E+04  0.25500000920E-02 0. -1.
       -2    1    3    3    0  502  0.53390767325E+03  0.11729836846E+04 -0.42633153766E+03  0.13574633357E+04  0.25500000920E-02 0.  1.
</event>
<event>
 5   0  0.2793576E-07  0.2602285E+04  0.7818609E-02  0.8367426E-01
        1   -1    0    0  501    0  0.00000000000E+00  0.00000000000E+00  0.15273158322E+04  0.15273158322E+04  0.50400001928E-02 0.  1.
       -1   -1    0    0    0  501  0.00000000000E+00  0.00000000000E+00 -0.11084617663E+04  0.11084617664E+04  0.50400001928E-02 0. -1.
    10030    2    1    2    0    0  0.00000000000E+00  0.00000000000E+00  0.41885406585E+03  0.26357775986E+04  0.26022845387E+04 0.  0.
        2    1    3    3  502    0  0.32416092105E+03 -0.11697640890E+04 -0.26515758539E+03  0.12424720809E+04  0.25500000920E-02 0. -1.
       -2    1    3    3    0  502 -0.32416092105E+03  0.11697640890E+04  0.68401165125E+03  0.13933055177E+04  0.25500000920E-02 0.  1.
</event>
<event>
 5   0  0.6526351E-07  0.2601674E+04  0.7818609E-02  0.8367633E-01
        2   -1    0    0  501    0  0.00000000000E+00  0.00000000000E+00  0.18616148455E+04  0.18616148455E+04  0.25500000920E-02 0.  1.
       -2   -1    0    0    0  501  0.00000000000E+00  0.00000000000E+00 -0.90898307098E+03  0.90898307098E+03  0.25500000920E-02 0. -1.
    10030    2    1    2    0    0  0.00000000000E+00  0.00000000000E+00  0.95263177454E+03  0.27705979165E+04  0.26016735992E+04 0.  0.
        3    1    3    3  502    0 -0.69551012435E+03  0.49095287098E+02 -0.69318364630E+03  0.98318271852E+03  0.10100000352E+00 0. -1.
       -3    1    3    3    0  502  0.69551012435E+03 -0.49095287098E+02  0.16458154208E+04  0.17874151980E+04  0.10100000352E+00 0.  1.
</event>
<event>
 5   0  0.6599814E-07  0.2604095E+04  0.7818609E-02  0.8366812E-01
        2   -1    0    0  501    0  0.00000000000E+00  0.00000000000E+00  0.83147771265E+03  0.83147771266E+03  0.25500000920E-02 0.  1.
       -2   -1    0    0    0  501  0.00000000000E+00  0.00000000000E+00 -0.20389334391E+04  0.20389334391E+04  0.25500000920E-02 0. -1.
    10030    2    1    2    0    0  0.00000000000E+00  0.00000000000E+00 -0.12074557264E+04  0.28704111517E+04  0.26040950153E+04 0.  0.
        5    1    3    3  502    0 -0.19952644238E+03 -0.18702300516E+03  0.79945446682E+03  0.84494848375E+03  0.46999998093E+01 0.  1.
       -5    1    3    3    0  502  0.19952644238E+03  0.18702300516E+03 -0.20069101933E+04  0.20254626680E+04  0.46999998093E+01 0. -1.
</event>
<event>
 5   0  0.2793576E-07  0.2599065E+04  0.7818609E-02  0.8368519E-01
        1   -1    0    0  501    0  0.00000000000E+00  0.00000000000E+00  0.15901818672E+04  0.15901818672E+04  0.50400001928E-02 0. -1.
       -1   -1    0    0    0  501  0.00000000000E+00  0.00000000000E+00 -0.10620069566E+04  0.10620069566E+04  0.50400001928E-02 0.  1.
    10030    2    1    2    0    0  0.00000000000E+00  0.00000000000E+00  0.52817491058E+03  0.26521888238E+04  0.25990646050E+04 0.  0.
        2    1    3    3  502    0  0.59161518743E+03  0.96950320949E+03 -0.38035817767E+03  0.11977551280E+04  0.25500000920E-02 0. -1.
       -2    1    3    3    0  502 -0.59161518743E+03 -0.96950320949E+03  0.90853308825E+03  0.14544336959E+04  0.25500000920E-02 0.  1.
</event>
<event>
 5   0  0.6526351E-07  0.2600287E+04  0.7818609E-02  0.8368104E-01
        2   -1    0    0  501    0  0.00000000000E+00  0.00000000000E+00  0.11981212922E+04  0.11981212922E+04  0.25500000920E-02 0.  1.
       -2   -1    0    0    0  501  0.00000000000E+00  0.00000000000E+00 -0.14108527539E+04  0.14108527539E+04  0.25500000920E-02 0. -1.
    10030    2    1    2    0    0  0.00000000000E+00  0.00000000000E+00 -0.21273146169E+03  0.26089740461E+04  0.26002866954E+04 0.  0.
        3    1    3    3  502    0 -0.65108395978E+03  0.10804822443E+04 -0.42209228335E+03  0.13302308479E+04  0.10100000352E+00 0.  1.
       -3    1    3    3    0  502  0.65108395978E+03 -0.10804822443E+04  0.20936082167E+03  0.12787431981E+04  0.10100000352E+00 0. -1.
</event>
<event>
 5   0  0.7160320E-07  0.2600955E+04  0.7818609E-02  0.8367877E-01
        2   -1    0    0  501    0  0.00000000000E+00  0.00000000000E+00  0.14937478311E+04  0.14937478311E+04  0.25500000920E-02 0.  1.
       -2   -1    0    0    0  501  0.00000000000E+00  0.00000000000E+00 -0.11322139650E+04  0.11322139650E+04  0.25500000920E-02 0. -1.
    10030    2    1    2    0    0  0.00000000000E+00  0.00000000000E+00  0.36153386608E+03  0.26259617962E+04  0.26009553281E+04 0.  0.
        1    1    3    3  502    0 -0.10336652420E+03  0.10744132810E+04 -0.55159927684E+03  0.12121511040E+04  0.50400001928E-02 0. -1.
       -1    1    3    3    0  502  0.10336652420E+03 -0.10744132810E+04  0.91313314292E+03  0.14138106922E+04  0.50400001928E-02 0.  1.
</event>
<event>
 5   0  0.2864801E-07  0.2609919E+04  0.7818609E-02  0.8364840E-01
       -1   -1    0    0    0  501  0.00000000000E+00  0.00000000000E+00  0.10015148387E+04  0.10015148387E+04  0.50400001928E-02 0.  1.
        1   -1    0    0  501    0  0.00000000000E+00  0.00000000000E+00 -0.17003439320E+04  0.17003439320E+04  0.50400001928E-02 0. -1.
    10030    2    1    2    0    0  0.00000000000E+00  0.00000000000E+00 -0.69882909331E+03  0.27018587707E+04  0.26099192928E+04 0.  0.
        5    1    3    3  502    0  0.84445615193E+03 -0.34810902999E+03 -0.13142391149E+04  0.16004788753E+04  0.46999998093E+01 0. -1.
       -5    1    3    3    0  502 -0.84445615193E+03  0.34810902999E+03  0.61541002155E+03  0.11013798954E+04  0.46999998093E+01 0.  1.
</event>
<event>
 5   0  0.6526351E-07  0.2601019E+04  0.7818609E-02  0.8367855E-01
        2   -1    0    0  501    0  0.00000000000E+00  0.00000000000E+00  0.16907129506E+04  0.16907129506E+04  0.25500000920E-02 0.  1.
       -2   -1    0    0    0  501  0.00000000000E+00  0.00000000000E+00 -0.10003616966E+04  0.10003616966E+04  0.25500000920E-02 0. -1.
    10030    2    1    2    0    0  0.00000000000E+00  0.00000000000E+00  0.69035125403E+03  0.26910746473E+04  0.26010186280E+04 0.  0.
        3    1    3    3  502    0 -0.40297391025E+03 -0.12081035673E+04  0.72571975672E+02  0.12756053086E+04  0.10100000352E+00 0.  1.
       -3    1    3    3    0  502  0.40297391025E+03  0.12081035673E+04  0.61777927835E+03  0.14154693386E+04  0.10100000352E+00 0. -1.
</event>
<event>
 5   0  0.2755061E-07  0.2600362E+04  0.7818609E-02  0.8368078E-01
        1   -1    0    0  501    0  0.00000000000E+00  0.00000000000E+00  0.16109955978E+04  0.16109955978E+04  0.50400001928E-02 0.  1.
       -1   -1    0    0    0  501  0.00000000000E+00  0.00000000000E+00 -0.10493329473E+04  0.10493329473E+04  0.50400001928E-02 0. -1.
    10030    2    1    2    0    0  0.00000000000E+00  0.00000000000E+00  0.56166265049E+03  0.26603285451E+04  0.26003620968E+04 0.  0.
        4    1    3    3  502    0 -0.99909961785E+03 -0.79810652757E+02 -0.56645782628E+03  0.11512800999E+04  0.12699999809E+01 0. -1.
       -4    1    3    3    0  502  0.99909961785E+03  0.79810652757E+02  0.11281204768E+04  0.15090484451E+04  0.12699999809E+01 0.  1.
</event>
<event>
 5   0  0.2623263E-07  0.2600945E+04  0.7818609E-02  0.8367880E-01
        1   -1    0    0  501    0  0.00000000000E+00  0.00000000000E+00  0.19862422072E+04  0.19862422072E+04  0.50400001928E-02 0. -1.
       -1   -1    0    0    0  501  0.00000000000E+00  0.00000000000E+00 -0.85147168861E+03  0.85147168862E+03  0.50400001928E-02 0.  1.
    10030    2    1    2    0    0  0.00000000000E+00  0.00000000000E+00  0.11347705186E+04  0.28377138958E+04  0.26009452176E+04 0.  0.
        1    1    3    3  502    0 -0.31061810681E+03 -0.73446814100E+03  0.16881791932E+04  0.18670500922E+04  0.50400001928E-02 0. -1.
       -1    1    3    3    0  502  0.31061810681E+03  0.73446814100E+03 -0.55340867464E+03  0.97066380360E+03  0.50400001928E-02 0.  1.
</event>
<event>
 5   0  0.2641626E-07  0.2599640E+04  0.7818609E-02  0.8368324E-01
        1   -1    0    0  501    0  0.00000000000E+00  0.00000000000E+00  0.15382158386E+04  0.15382158386E+04  0.50400001928E-02 0.  1.
       -1   -1    0    0    0  501  0.00000000000E+00  0.00000000000E+00 -0.10983711304E+04  0.10983711305E+04  0.50400001928E-02 0. -1.
    10030    2    1    2    0    0  0.00000000000E+00  0.00000000000E+00  0.43984470814E+03  0.26365869691E+04  0.25996398747E+04 0.  0.
        3    1    3    3  502    0  0.90610949237E+03 -0.10860731058E+03 -0.71881430139E+03  0.11616901352E+04  0.10100000352E+00 0. -1.
       -3    1    3    3    0  502 -0.90610949237E+03  0.10860731058E+03  0.11586590095E+04  0.14748968339E+04  0.10100000352E+00 0.  1.
</event>
<event>
 5   0  0.6768478E-07  0.2600519E+04  0.7818609E-02  0.8368025E-01
        2   -1    0    0  501    0  0.00000000000E+00  0.00000000000E+00  0.13270306885E+04  0.13270306885E+04  0.25500000920E-02 0. -1.
       -2   -1    0    0    0  501  0.00000000000E+00  0.00000000000E+00 -0.12740288463E+04  0.12740288463E+04  0.25500000920E-02 0.  1.
    10030    2    1    2    0    0  0.00000000000E+00  0.00000000000E+00  0.53001842183E+02  0.26010595348E+04  0.26005194690E+04 0.  0.
        4    1    3    3  502    0  0.54539748137E+03 -0.31308514744E+02  0.12066761015E+04  0.13245782207E+04  0.12699999809E+01 0. -1.
       -4    1    3    3    0  502 -0.54539748137E+03  0.31308514744E+02 -0.11536742594E+04  0.12764813142E+04  0.12699999809E+01 0.  1.
</event>
<event>
 5   0  0.6768478E-07  0.2600627E+04  0.7818609E-02  0.8367988E-01
        2   -1    0    0  501    0  0.00000000000E+00  0.00000000000E+00  0.22033370027E+04  0.22033370027E+04  0.25500000920E-02 0.  1.
       -2   -1    0    0    0  501  0.00000000000E+00  0.00000000000E+00 -0.76738835648E+03  0.76738835648E+03  0.25500000920E-02 0. -1.
    10030    2    1    2    0    0  0.00000000000E+00  0.00000000000E+00  0.14359486462E+04  0.29707253591E+04  0.26006269715E+04 0.  0.
        4    1    3    3  502    0 -0.26895628735E+03  0.36000289387E+03 -0.67586724196E+03  0.81162658271E+03  0.12699999809E+01 0. -1.
       -4    1    3    3    0  502  0.26895628735E+03 -0.36000289387E+03  0.21118158881E+04  0.21590987764E+04  0.12699999809E+01 0.  1.
</event>
<event>
 5   0  0.2793576E-07  0.2614802E+04  0.7818609E-02  0.8363190E-01
        1   -1    0    0  501    0  0.00000000000E+00  0.00000000000E+00  0.24649106389E+04  0.24649106389E+04  0.50400001928E-02 0.  1.
       -1   -1    0    0    0  501  0.00000000000E+00  0.00000000000E+00 -0.69345228846E+03  0.69345228847E+03  0.50400001928E-02 0. -1.
    10030    2    1    2    0    0  0.00000000000E+00  0.00000000000E+00  0.17714583504E+04  0.31583629274E+04  0.26148024196E+04 0.  0.
        2    1    3    3  502    0 -0.55160764453E+03  0.10942725164E+04  0.14360692907E+04  0.18878554874E+04  0.25500000920E-02 0.  1.
       -2    1    3    3    0  502  0.55160764453E+03 -0.10942725164E+04  0.33538905975E+03  0.12705074400E+04  0.25500000920E-02 0. -1.
</event>
<event>
 5   0  0.2641626E-07  0.2601454E+04  0.7818609E-02  0.8367707E-01
        1   -1    0    0  501    0  0.00000000000E+00  0.00000000000E+00  0.18686045843E+04  0.18686045843E+04  0.50400001928E-02 0.  1.
       -1   -1    0    0    0  501  0.00000000000E+00  0.00000000000E+00 -0.90543021084E+03  0.90543021085E+03  0.50400001928E-02 0. -1.
    10030    2    1    2    0    0  0.00000000000E+00  0.00000000000E+00  0.96317437346E+03  0.27740347952E+04  0.26014542416E+04 0.  0.
        3    1    3    3  502    0 -0.35629914980E+03  0.16020881172E+03 -0.84139450103E+03  0.92766409010E+03  0.10100000352E+00 0. -1.
       -3    1    3    3    0  502  0.35629914980E+03 -0.16020881172E+03  0.18045688745E+04  0.18463707051E+04  0.10100000352E+00 0.  1.
</event>
<event>
 5   0  0.2864801E-07  0.2594988E+04  0.7818609E-02  0.8369906E-01
       -1   -1    0    0    0  501  0.00000000000E+00  0.00000000000E+00  0.13815142577E+04  0.13815142577E+04  0.50400001928E-02 0. -1.
        1   -1    0    0  501    0  0.00000000000E+00  0.00000000000E+00 -0.12185839173E+04  0.12185839173E+04  0.50400001928E-02 0.  1.
    10030    2    1    2    0    0  0.00000000000E+00  0.00000000000E+00  0.16293034042E+03  0.26000981750E+04  0.25949882898E+04 0.  0.
        5    1    3    3  502    0 -0.52610254884E+03  0.33147818893E+03  0.12224820382E+04  0.13715487980E+04  0.46999998093E+01 0. -1.
       -5    1    3    3    0  502  0.52610254884E+03 -0.33147818893E+03 -0.10595516977E+04  0.12285493770E+04  0.46999998093E+01 0.  1.
</event>
<event>
 5   0  0.6780984E-07  0.2600082E+04  0.7818609E-02  0.8368173E-01
        2   -1    0    0  501    0  0.00000000000E+00  0.00000000000E+00  0.29608753194E+04  0.29608753194E+04  0.25500000920E-02 0. -1.
       -2   -1    0    0    0  501  0.00000000000E+00  0.00000000000E+00 -0.57081326657E+03  0.57081326657E+03  0.25500000920E-02 0.  1.
    10030    2    1    2    0    0  0.00000000000E+00  0.00000000000E+00  0.23900620528E+04  0.35316885860E+04  0.26000822394E+04 0.  0.
        2    1    3    3  502    0  0.56351009280E+03 -0.43447061090E+03  0.26728941882E+04  0.27659847573E+04  0.25500000920E-02 0. -1.
       -2    1    3    3    0  502 -0.56351009280E+03  0.43447061090E+03 -0.28283213536E+03  0.76570382866E+03  0.25500000920E-02 0.  1.
</event>
<event>
 5   0  0.6526351E-07  0.2603931E+04  0.7818609E-02  0.8366867E-01
        2   -1    0    0  501    0  0.00000000000E+00  0.00000000000E+00  0.12949512469E+04  0.12949512469E+04  0.25500000920E-02 0. -1.
       -2   -1    0    0    0  501  0.00000000000E+00  0.00000000000E+00 -0.13090174894E+04  0.13090174894E+04  0.25500000920E-02 0.  1.
    10030    2    1    2    0    0  0.00000000000E+00  0.00000000000E+00 -0.14066242428E+02  0.26039687363E+04  0.26039307442E+04 0.  0.
        3    1    3    3  502    0  0.40168347562E+03 -0.62075545294E+03  0.10646293186E+04  0.12961954109E+04  0.10100000352E+00 0. -1.
       -3    1    3    3    0  502 -0.40168347562E+03  0.62075545294E+03 -0.10786955611E+04  0.13077733254E+04  0.10100000352E+00 0.  1.
</event>
<event>
 5   0  0.7160320E-07  0.2599848E+04  0.7818609E-02  0.8368253E-01
        2   -1    0    0  501    0  0.00000000000E+00  0.00000000000E+00  0.16247091360E+04  0.16247091360E+04  0.25500000920E-02 0.  1.
       -2   -1    0    0    0  501  0.00000000000E+00  0.00000000000E+00 -0.10400649390E+04  0.10400649391E+04  0.25500000920E-02 0. -1.
    10030    2    1    2    0    0  0.00000000000E+00  0.00000000000E+00  0.58464419693E+03  0.26647740750E+04  0.25998484637E+04 0.  0.
        1    1    3    3  502    0 -0.11281424584E+04 -0.34900515693E+03 -0.26465705042E+03  0.12101873245E+04  0.50400001928E-02 0. -1.
       -1    1    3    3    0  502  0.11281424584E+04  0.34900515693E+03  0.84930124736E+03  0.14545867505E+04  0.50400001928E-02 0.  1.
</event>
<event>
 5   0  0.6780984E-07  0.2599970E+04  0.7818609E-02  0.8368212E-01
       -2   -1    0    0    0  501  0.00000000000E+00  0.00000000000E+00  0.14798255379E+04  0.14798255379E+04  0.25500000920E-02 0.  1.
        2   -1    0    0  501    0  0.00000000000E+00  0.00000000000E+00 -0.11419998467E+04  0.11419998467E+04  0.25500000920E-02 0. -1.
    10030    2    1    2    0    0  0.00000000000E+00  0.00000000000E+00  0.33782569120E+03  0.26218253847E+04  0.25999696441E+04 0.  0.
        2    1    3    3  502    0  0.29303152094E+03  0.10931096354E+04  0.81398103944E+03  0.13940305879E+04  0.25500000920E-02 0.  1.
       -2    1    3    3    0  502 -0.29303152094E+03 -0.10931096354E+04 -0.47615534823E+03  0.12277947968E+04  0.25500000920E-02 0. -1.
</event>
<event>
 5   0  0.6526351E-07  0.2604778E+04  0.7818609E-02  0.8366580E-01
        2   -1    0    0  501    0  0.00000000000E+00  0.00000000000E+00  0.18911239959E+04  0.18911239959E+04  0.25500000920E-02 0.  1.
       -2   -1    0    0    0  501  0.00000000000E+00  0.00000000000E+00 -0.89693567657E+03  0.89693567657E+03  0.25500000920E-02 0. -1.
    10030    2    1    2    0    0  0.00000000000E+00  0.00000000000E+00  0.99418831934E+03  0.27880596725E+04  0.26047775957E+04 0.  0.
        3    1    3    3  502    0 -0.58393549833E+03 -0.27082072885E+03  0.17089672493E+04  0.18261691058E+04  0.10100000352E+00 0.  1.
       -3    1    3    3    0  502  0.58393549833E+03  0.27082072885E+03 -0.71477892999E+03  0.96189056672E+03  0.10100000352E+00 0. -1.
</event>
<event>
 5   0  0.2641626E-07  0.2599468E+04  0.7818609E-02  0.8368382E-01
       -1   -1    0    0    0  501  0.00000000000E+00  0.00000000000E+00  0.88683788286E+03  0.88683788287E+03  0.50400001928E-02 0.  1.
        1   -1    0    0  501    0  0.00000000000E+00  0.00000000000E+00 -0.19048667547E+04  0.19048667547E+04  0.50400001928E-02 0. -1.
    10030    2    1    2    0    0  0.00000000000E+00  0.00000000000E+00 -0.10180288718E+04  0.27917046376E+04  0.25994676377E+04 0.  0.
        3    1    3    3  502    0  0.79808883148E+03  0.47102016302E+03 -0.14877276454E+04  0.17527519317E+04  0.10100000352E+00 0. -1.
       -3    1    3    3    0  502 -0.79808883148E+03 -0.47102016302E+03  0.46969877360E+03  0.10389527059E+04  0.10100000352E+00 0.  1.
</event>
<event>
 5   0  0.6599814E-07  0.2599644E+04  0.7818609E-02  0.8368322E-01
       -2   -1    0    0    0  501  0.00000000000E+00  0.00000000000E+00  0.16585563470E+04  0.16585563470E+04  0.25500000920E-02 0. -1.
        2   -1    0    0  501    0  0.00000000000E+00  0.00000000000E+00 -0.10186796264E+04  0.10186796264E+04  0.25500000920E-02 0.  1.
    10030    2    1    2    0    0  0.00000000000E+00  0.00000000000E+00  0.63987672067E+03  0.26772359734E+04  0.25996442525E+04 0.  0.
        5    1    3    3  502    0  0.77030414151E+02 -0.21900156143E+03  0.16370238052E+04  0.16534099302E+04  0.46999998093E+01 0. -1.
       -5    1    3    3    0  502 -0.77030414151E+02  0.21900156143E+03 -0.99714708450E+03  0.10238260432E+04  0.46999998093E+01 0.  1.
</event>
<event>
 5   0  0.2864801E-07  0.2604724E+04  0.7818609E-02  0.8366598E-01
        1   -1    0    0  501    0  0.00000000000E+00  0.00000000000E+00  0.15125659962E+04  0.15125659962E+04  0.50400001928E-02 0. -1.
       -1   -1    0    0    0  501  0.00000000000E+00  0.00000000000E+00 -0.11213701215E+04  0.11213701215E+04  0.50400001928E-02 0.  1.
    10030    2    1    2    0    0  0.00000000000E+00  0.00000000000E+00  0.39119587464E+03  0.26339361177E+04  0.26047236436E+04 0.  0.
        5    1    3    3  502    0  0.51262064265E+03 -0.11187562266E+04 -0.23547967945E+03  0.12529438085E+04  0.46999998093E+01 0.  1.
       -5    1    3    3    0  502 -0.51262064265E+03  0.11187562266E+04  0.62667555409E+03  0.13809923092E+04  0.46999998093E+01 0. -1.
</event>
<event>
 5   0  0.2641626E-07  0.2602637E+04  0.7818609E-02  0.8367306E-01
       -1   -1    0    0    0  501  0.00000000000E+00  0.00000000000E+00  0.65227379579E+03  0.65227379581E+03  0.50400001928E-02 0. -1.
        1   -1    0    0  501    0  0.00000000000E+00  0.00000000000E+00 -0.25961954879E+04  0.25961954879E+04  0.50400001928E-02 0.  1.
    10030    2    1    2    0    0  0.00000000000E+00  0.00000000000E+00 -0.19439216921E+04  0.32484692837E+04  0.26026373436E+04 0.  0.
        3    1    3    3  502    0 -0.65885800152E+02  0.11322870497E+04 -0.17682494760E+04  0.21007429926E+04  0.10100000352E+00 0.  1.
       -3    1    3    3    0  502  0.65885800152E+02 -0.11322870497E+04 -0.17567221608E+03  0.11477262911E+04  0.10100000352E+00 0. -1.
</event>
<event>
 5   0  0.6526351E-07  0.2600680E+04  0.7818609E-02  0.8367970E-01
        2   -1    0    0  501    0  0.00000000000E+00  0.00000000000E+00  0.10055910626E+04  0.10055910626E+04  0.25500000920E-02 0.  1.
       -2   -1    0    0    0  501  0.00000000000E+00  0.00000000000E+00 -0.16814826760E+04  0.16814826760E+04  0.25500000920E-02 0. -1.
    10030    2    1    2    0    0  0.00000000000E+00  0.00000000000E+00 -0.67589161337E+03  0.26870737386E+04  0.26006798734E+04 0.  0.
        3    1    3    3  502    0 -0.47383324331E+03 -0.38378901035E+03 -0.15246075396E+04  0.16420231749E+04  0.10100000352E+00 0. -1.
       -3    1    3    3    0  502  0.47383324331E+03  0.38378901035E+03  0.84871592627E+03  0.10450505637E+04  0.10100000352E+00 0.  1.
</event>
<event>
 5   0  0.2623263E-07  0.2600427E+04  0.7818609E-02  0.8368056E-01
        1   -1    0    0  501    0  0.00000000000E+00  0.00000000000E+00  0.83542849296E+03  0.83542849297E+03  0.50400001928E-02 0. -1.
       -1   -1    0    0    0  501  0.00000000000E+00  0.00000000000E+00 -0.20235784703E+04  0.20235784703E+04  0.50400001928E-02 0.  1.
    10030    2    1    2    0    0  0.00000000000E+00  0.00000000000E+00 -0.11881499774E+04  0.28590069633E+04  0.26004269741E+04 0.  0.
        1    1    3    3  502    0 -0.76205497747E+03  0.95266074024E+02 -0.17475687047E+04  0.19088739589E+04  0.50400001928E-02 0.  1.
       -1    1    3    3    0  502  0.76205497747E+03 -0.95266074024E+02  0.55941872729E+03  0.95013300438E+03  0.50400001928E-02 0. -1.
</event>
<event>
 5   0  0.2641626E-07  0.2600068E+04  0.7818609E-02  0.8368178E-01
        1   -1    0    0  501    0  0.00000000000E+00  0.00000000000E+00  0.14859433791E+04  0.14859433791E+04  0.50400001928E-02 0.  1.
       -1   -1    0    0    0  501  0.00000000000E+00  0.00000000000E+00 -0.11373841472E+04  0.11373841472E+04  0.50400001928E-02 0. -1.
    10030    2    1    2    0    0  0.00000000000E+00  0.00000000000E+00  0.34855923187E+03  0.26233275263E+04  0.26000680322E+04 0.  0.
        3    1    3    3  502    0  0.77069946004E+02  0.12973796545E+04  0.20545405062E+03  0.13158058830E+04  0.10100000352E+00 0.  1.
       -3    1    3    3    0  502 -0.77069946004E+02 -0.12973796545E+04  0.14310518126E+03  0.13075216433E+04  0.10100000352E+00 0. -1.
</event>
<event>
 5   0  0.2755061E-07  0.2595636E+04  0.7818609E-02  0.8369685E-01
        1   -1    0    0  501    0  0.00000000000E+00  0.00000000000E+00  0.14146172678E+04  0.14146172678E+04  0.50400001928E-02 0. -1.
       -1   -1    0    0    0  501  0.00000000000E+00  0.00000000000E+00 -0.11906619776E+04  0.11906619776E+04  0.50400001928E-02 0.  1.
    10030    2    1    2    0    0  0.00000000000E+00  0.00000000000E+00  0.22395529020E+03  0.26052792454E+04  0.25956355628E+04 0.  0.
        4    1    3    3  502    0 -0.37401327339E+03  0.86569543338E+03  0.10069264440E+04  0.13795713061E+04  0.12699999809E+01 0. -1.
       -4    1    3    3    0  502  0.37401327339E+03 -0.86569543338E+03 -0.78297115380E+03  0.12257079394E+04  0.12699999809E+01 0.  1.
</event>
<event>
 5   0  0.2864801E-07  0.2597352E+04  0.7818609E-02  0.8369101E-01
        1   -1    0    0  501    0  0.00000000000E+00  0.00000000000E+00  0.14448055802E+04  0.14448055802E+04  0.50400001928E-02 0. -1.
       -1   -1    0    0    0  501  0.00000000000E+00  0.00000000000E+00 -0.11673263815E+04  0.11673263815E+04  0.50400001928E-02 0.  1.
    10030    2    1    2    0    0  0.00000000000E+00  0.00000000000E+00  0.27747919869E+03  0.26121319617E+04  0.25973522441E+04 0.  0.
        5    1    3    3  502    0  0.30288758754E+03 -0.12621627460E+04  0.96766129514E+02  0.13016072610E+04  0.46999998093E+01 0.  1.
       -5    1    3    3    0  502 -0.30288758754E+03  0.12621627460E+04  0.18071306918E+03  0.13105247008E+04  0.46999998093E+01 0. -1.
</event>
<event>
 5   0  0.6768478E-07  0.2601709E+04  0.7818609E-02  0.8367621E-01
       -2   -1    0    0    0  501  0.00000000000E+00  0.00000000000E+00  0.89212514590E+03  0.89212514591E+03  0.25500000920E-02 0. -1.
        2   -1    0    0  501    0  0.00000000000E+00  0.00000000000E+00 -0.18968442560E+04  0.18968442560E+04  0.25500000920E-02 0.  1.
    10030    2    1    2    0    0  0.00000000000E+00  0.00000000000E+00 -0.10047191101E+04  0.27889694019E+04  0.26017090219E+04 0.  0.
        4    1    3    3  502    0 -0.11174855787E+04  0.65449105186E+03 -0.37068403584E+03  0.13470489312E+04  0.12699999809E+01 0. -1.
       -4    1    3    3    0  502  0.11174855787E+04 -0.65449105186E+03 -0.63403507426E+03  0.14419204707E+04  0.12699999809E+01 0.  1.
</event>
<event>
 5   0  0.7160320E-07  0.2604648E+04  0.7818609E-02  0.8366624E-01
       -2   -1    0    0    0  501  0.00000000000E+00  0.00000000000E+00  0.69610017142E+03  0.69610017143E+03  0.25500000920E-02 0.  1.
        2   -1    0    0  501    0  0.00000000000E+00  0.00000000000E+00 -0.24364999506E+04  0.24364999506E+04  0.25500000920E-02 0. -1.
    10030    2    1    2    0    0  0.00000000000E+00  0.00000000000E+00 -0.17403997792E+04  0.31326001220E+04  0.26046481784E+04 0.  0.
        1    1    3    3  502    0  0.91236199618E+03  0.83758108347E+03 -0.13544274169E+04  0.18353256145E+04  0.50400001928E-02 0. -1.
       -1    1    3    3    0  502 -0.91236199618E+03 -0.83758108347E+03 -0.38597236225E+03  0.12972745075E+04  0.50400001928E-02 0.  1.
</event>
<event>
 5   0  0.2755061E-07  0.2599784E+04  0.7818609E-02  0.8368275E-01
        1   -1    0    0  501    0  0.00000000000E+00  0.00000000000E+00  0.14518030831E+04  0.14518030831E+04  0.50400001928E-02 0. -1.
       -1   -1    0    0    0  501  0.00000000000E+00  0.00000000000E+00 -0.11638762313E+04  0.11638762313E+04  0.50400001928E-02 0.  1.
    10030    2    1    2    0    0  0.00000000000E+00  0.00000000000E+00  0.28792685183E+03  0.26156793144E+04  0.25997839148E+04 0.  0.
        4    1    3    3  502    0  0.19346199264E+03  0.69711032301E+03  0.12305327423E+04  0.14274462469E+04  0.12699999809E+01 0. -1.
       -4    1    3    3    0  502 -0.19346199264E+03 -0.69711032301E+03 -0.94260589047E+03  0.11882330675E+04  0.12699999809E+01 0.  1.
</event>
<event>
 5   0  0.6780984E-07  0.2597553E+04  0.7818609E-02  0.8369033E-01
        2   -1    0    0  501    0  0.00000000000E+00  0.00000000000E+00  0.12903379712E+04  0.12903379712E+04  0.25500000920E-02 0.  1.
       -2   -1    0    0    0  501  0.00000000000E+00  0.00000000000E+00 -0.13072697493E+04  0.13072697493E+04  0.25500000920E-02 0. -1.
    10030    2    1    2    0    0  0.00000000000E+00  0.00000000000E+00 -0.16931778119E+02  0.25976077205E+04  0.25975525374E+04 0.  0.
        2    1    3    3  502    0  0.91276783571E+03 -0.85752822530E+03  0.33551818668E+03  0.12965616964E+04  0.25500000920E-02 0.  1.
       -2    1    3    3    0  502 -0.91276783571E+03  0.85752822530E+03 -0.35244996480E+03  0.13010460241E+04  0.25500000920E-02 0. -1.
</event>
<event>
 5   0  0.2864801E-07  0.2599246E+04  0.7818609E-02  0.8368457E-01
       -1   -1    0    0    0  501  0.00000000000E+00  0.00000000000E+00  0.11539190997E+04  0.11539190997E+04  0.50400001928E-02 0.  1.
        1   -1    0    0  501    0  0.00000000000E+00  0.00000000000E+00 -0.14637248320E+04  0.14637248320E+04  0.50400001928E-02 0. -1.
    10030    2    1    2    0    0  0.00000000000E+00  0.00000000000E+00 -0.30980573237E+03  0.26176439317E+04  0.25992460756E+04 0.  0.
        5    1    3    3  502    0 -0.16854475525E+01  0.12841667051E+04 -0.35609425397E+03  0.13326335487E+04  0.46999998093E+01 0.  1.
       -5    1    3    3    0  502  0.16854475525E+01 -0.12841667051E+04  0.46288521601E+02  0.12850103830E+04  0.46999998093E+01 0. -1.
</event>
<event>
 5   0  0.6780984E-07  0.2600230E+04  0.7818609E-02  0.8368123E-01
       -2   -1    0    0    0  501  0.00000000000E+00  0.00000000000E+00  0.10656540262E+04  0.10656540262E+04  0.25500000920E-02 0.  1.
        2   -1    0    0  501    0  0.00000000000E+00  0.00000000000E+00 -0.15861610701E+04  0.15861610701E+04  0.25500000920E-02 0. -1.
    10030    2    1    2    0    0  0.00000000000E+00  0.00000000000E+00 -0.52050704390E+03  0.26518150964E+04  0.26002299365E+04 0.  0.
        2    1    3    3  502    0 -0.29926159070E+03 -0.11909635643E+04 -0.69574640014E+03  0.14113875317E+04  0.25500000920E-02 0. -1.
       -2    1    3    3    0  502  0.29926159070E+03  0.11909635643E+04  0.17523935625E+03  0.12404275647E+04  0.25500000920E-02 0.  1.
</event>
<event>
 5   0  0.2755061E-07  0.2599963E+04  0.7818609E-02  0.8368214E-01
       -1   -1    0    0    0  501  0.00000000000E+00  0.00000000000E+00  0.92164767586E+03  0.92164767587E+03  0.50400001928E-02 0.  1.
        1   -1    0    0  501    0  0.00000000000E+00  0.00000000000E+00 -0.18336203309E+04  0.18336203309E+04  0.50400001928E-02 0. -1.
    10030    2    1    2    0    0  0.00000000000E+00  0.00000000000E+00 -0.91197265501E+03  0.27552680067E+04  0.25999630123E+04 0.  0.
        4    1    3    3  502    0  0.24235746835E+03 -0.31265521184E+03 -0.17682856017E+04  0.18119950348E+04  0.12699999809E+01 0. -1.
       -4    1    3    3    0  502 -0.24235746835E+03  0.31265521184E+03  0.85631294673E+03  0.94327297194E+03  0.12699999809E+01 0.  1.
</event>
<event>
 5   0  0.2755061E-07  0.2600319E+04  0.7818609E-02  0.8368093E-01
       -1   -1    0    0    0  501  0.00000000000E+00  0.00000000000E+00  0.94660438159E+03  0.94660438160E+03  0.50400001928E-02 0. -1.
        1   -1    0    0  501    0  0.00000000000E+00  0.00000000000E+00 -0.17857665690E+04  0.17857665690E+04  0.50400001928E-02 0.  1.
    10030    2    1    2    0    0  0.00000000000E+00  0.00000000000E+00 -0.83916218742E+03  0.27323709506E+04  0.26003187949E+04 0.  0.
        4    1    3    3  502    0 -0.86708961180E+03  0.20346857508E+03 -0.14148723561E+04  0.16718580242E+04  0.12699999809E+01 0.  1.
       -4    1    3    3    0  502  0.86708961180E+03 -0.20346857508E+03  0.57571016871E+03  0.10605129265E+04  0.12699999809E+01 0. -1.
</event>
<event>
 5   0  0.2793576E-07  0.2597870E+04  0.7818609E-02  0.8368925E-01
       -1   -1    0    0    0  501  0.00000000000E+00  0.00000000000E+00  0.82919366677E+03  0.82919366679E+03  0.50400001928E-02 0.  1.
        1   -1    0    0  501    0  0.00000000000E+00  0.00000000000E+00 -0.20347870388E+04  0.20347870388E+04  0.50400001928E-02 0. -1.
    10030    2    1    2    0    0  0.00000000000E+00  0.00000000000E+00 -0.12055933721E+04  0.28639807056E+04  0.25978703015E+04 0.  0.
        2    1    3    3  502    0 -0.10294820973E+04 -0.72018855104E+03 -0.96631182300E+03  0.15850121378E+04  0.25500000920E-02 0. -1.
       -2    1    3    3    0  502  0.10294820973E+04  0.72018855104E+03 -0.23928154906E+03  0.12789685678E+04  0.25500000920E-02 0.  1.
</event>
<event>
 5   0  0.6780984E-07  0.2600359E+04  0.7818609E-02  0.8368079E-01
       -2   -1    0    0    0  501  0.00000000000E+00  0.00000000000E+00  0.69744257256E+03  0.69744257257E+03  0.25500000920E-02 0.  1.
        2   -1    0    0  501    0  0.00000000000E+00  0.00000000000E+00 -0.24238071101E+04  0.24238071101E+04  0.25500000920E-02 0. -1.
    10030    2    1    2    0    0  0.00000000000E+00  0.00000000000E+00 -0.17263645375E+04  0.31212496827E+04  0.26003586416E+04 0.  0.
        2    1    3    3  502    0 -0.49897953060E+03  0.59752582446E+03 -0.21131527127E+04  0.22519840297E+04  0.25500000920E-02 0. -1.
       -2    1    3    3    0  502  0.49897953060E+03 -0.59752582446E+03  0.38678817521E+03  0.86926565292E+03  0.25500000920E-02 0.  1.
</event>
<event>
 5   0  0.2294625E-07  0.2598738E+04  0.7818609E-02  0.8368630E-01
       -3   -1    0    0    0  501  0.00000000000E+00  0.00000000000E+00  0.17047109832E+04  0.17047109862E+04  0.10100000352E+00 0.  1.
        3   -1    0    0  501    0  0.00000000000E+00  0.00000000000E+00 -0.99040785726E+03  0.99040786241E+03  0.10100000352E+00 0. -1.
    10030    2    1    2    0    0  0.00000000000E+00  0.00000000000E+00  0.71430312590E+03  0.26951188486E+04  0.25987375112E+04 0.  0.
        4    1    3    3  502    0  0.12557530617E+04 -0.19813075223E+03  0.63579062823E+03  0.14214087669E+04  0.12699999809E+01 0.  1.
       -4    1    3    3    0  502 -0.12557530617E+04  0.19813075223E+03  0.78512497673E+02  0.12737100816E+04  0.12699999809E+01 0. -1.
</event>
<event>
 5   0  0.6599814E-07  0.2600986E+04  0.7818609E-02  0.8367866E-01
       -2   -1    0    0    0  501  0.00000000000E+00  0.00000000000E+00  0.82368895367E+03  0.82368895367E+03  0.25500000920E-02 0. -1.
        2   -1    0    0  501    0  0.00000000000E+00  0.00000000000E+00 -0.20533020766E+04  0.20533020766E+04  0.25500000920E-02 0.  1.
    10030    2    1    2    0    0  0.00000000000E+00  0.00000000000E+00 -0.12296131230E+04  0.28769910303E+04  0.26009861507E+04 0.  0.
        5    1    3    3  502    0 -0.93509989195E+03 -0.88656927824E+03 -0.80906530596E+03  0.15215208353E+04  0.46999998093E+01 0.  1.
       -5    1    3    3    0  502  0.93509989195E+03  0.88656927824E+03 -0.42054781700E+03  0.13554701950E+04  0.46999998093E+01 0. -1.
</event>
<event>
 5   0  0.6599814E-07  0.2599249E+04  0.7818609E-02  0.8368456E-01
       -2   -1    0    0    0  501  0.00000000000E+00  0.00000000000E+00  0.12218711248E+04  0.12218711248E+04  0.25500000920E-02 0.  1.
        2   -1    0    0  501    0  0.00000000000E+00  0.00000000000E+00 -0.13823252712E+04  0.13823252713E+04  0.25500000920E-02 0. -1.
    10030    2    1    2    0    0  0.00000000000E+00  0.00000000000E+00 -0.16045414649E+03  0.26041963960E+04  0.25992486099E+04 0.  0.
        5    1    3    3  502    0 -0.53777297439E+03  0.51408178199E+03  0.98740982178E+03  0.12363171505E+04  0.46999998093E+01 0.  1.
       -5    1    3    3    0  502  0.53777297439E+03 -0.51408178199E+03 -0.11478639683E+04  0.13678792455E+04  0.46999998093E+01 0. -1.
</event>
<event>
 5   0  0.6768478E-07  0.2599854E+04  0.7818609E-02  0.8368251E-01
       -2   -1    0    0    0  501  0.00000000000E+00  0.00000000000E+00  0.10409745129E+04  0.10409745130E+04  0.25500000920E-02 0. -1.
        2   -1    0    0  501    0  0.00000000000E+00  0.00000000000E+00 -0.16232970128E+04  0.16232970128E+04  0.25500000920E-02 0.  1.
    10030    2    1    2    0    0  0.00000000000E+00  0.00000000000E+00 -0.58232249984E+03  0.26642715257E+04  0.25998544707E+04 0.  0.
        4    1    3    3  502    0 -0.21421865433E+03  0.32717748732E+03 -0.15615851109E+04  0.16098088121E+04  0.12699999809E+01 0.  1.
       -4    1    3    3    0  502  0.21421865433E+03 -0.32717748732E+03  0.97926261107E+03  0.10544627136E+04  0.12699999809E+01 0. -1.
</event>
<event>
 5   0  0.2755061E-07  0.2597080E+04  0.7818609E-02  0.8369194E-01
        1   -1    0    0  501    0  0.00000000000E+00  0.00000000000E+00  0.66782316939E+03  0.66782316941E+03  0.50400001928E-02 0.  1.
       -1   -1    0    0    0  501  0.00000000000E+00  0.00000000000E+00 -0.25249297092E+04  0.25249297092E+04  0.50400001928E-02 0. -1.
    10030    2    1    2    0    0  0.00000000000E+00  0.00000000000E+00 -0.18571065398E+04  0.31927528786E+04  0.25970803306E+04 0.  0.
        4    1    3    3  502    0  0.15233517591E+03 -0.73997283479E+03 -0.22269363968E+04  0.23515979951E+04  0.12699999809E+01 0. -1.
       -4    1    3    3    0  502 -0.15233517591E+03  0.73997283479E+03  0.36982985701E+03  0.84115488353E+03  0.12699999809E+01 0.  1.
</event>
<event>
 5   0  0.2793576E-07  0.2599856E+04  0.7818609E-02  0.8368250E-01
       -1   -1    0    0    0  501  0.00000000000E+00  0.00000000000E+00  0.14044725076E+04  0.14044725076E+04  0.50400001928E-02 0.  1.
        1   -1    0    0  501    0  0.00000000000E+00  0.00000000000E+00 -0.12031655254E+04  0.12031655254E+04  0.50400001928E-02 0. -1.
    10030    2    1    2    0    0  0.00000000000E+00  0.00000000000E+00  0.20130698226E+03  0.26076380330E+04  0.25998560749E+04 0.  0.
        2    1    3    3  502    0  0.11342077901E+04  0.24043148810E+03  0.69027216051E+03  0.13493369732E+04  0.25500000920E-02 0.  1.
       -2    1    3    3    0  502 -0.11342077901E+04 -0.24043148810E+03 -0.48896517826E+03  0.12583010598E+04  0.25500000920E-02 0. -1.
</event>
<event>
 5   0  0.6780984E-07  0.2597507E+04  0.7818609E-02  0.8369049E-01
        2   -1    0    0  501    0  0.00000000000E+00  0.00000000000E+00  0.21997057397E+04  0.21997057397E+04  0.25500000920E-02 0.  1.
       -2   -1    0    0    0  501  0.00000000000E+00  0.00000000000E+00 -0.76681174744E+03  0.76681174745E+03  0.25500000920E-02 0. -1.
    10030    2    1    2    0    0  0.00000000000E+00  0.00000000000E+00  0.14328939923E+04  0.29665174872E+04  0.25975066523E+04 0.  0.
        2    1    3    3  502    0 -0.68818064027E+03  0.10100585639E+04  0.12181097464E+04  0.17255730209E+04  0.25500000920E-02 0.  1.
       -2    1    3    3    0  502  0.68818064027E+03 -0.10100585639E+04  0.21478424586E+03  0.12409444663E+04  0.25500000920E-02 0. -1.
</event>
<event>
 5   0  0.2793576E-07  0.2599725E+04  0.7818609E-02  0.8368295E-01
        1   -1    0    0  501    0  0.00000000000E+00  0.00000000000E+00  0.10603989803E+04  0.10603989803E+04  0.50400001928E-02 0. -1.
       -1   -1    0    0    0  501  0.00000000000E+00  0.00000000000E+00 -0.15934022734E+04  0.15934022734E+04  0.50400001928E-02 0.  1.
    10030    2    1    2    0    0  0.00000000000E+00  0.00000000000E+00 -0.53300329305E+03  0.26538012537E+04  0.25997247131E+04 0.  0.
        2    1    3    3  502    0 -0.61986715016E+03  0.57013763077E+03  0.74422006856E+03  0.11239020030E+04  0.25500000920E-02 0. -1.
       -2    1    3    3    0  502  0.61986715016E+03 -0.57013763077E+03 -0.12772233616E+04  0.15298992507E+04  0.25500000920E-02 0.  1.
</event>
<event>
 5   0  0.6526351E-07  0.2599823E+04  0.7818609E-02  0.8368261E-01
       -2   -1    0    0    0  501  0.00000000000E+00  0.00000000000E+00  0.75664821807E+03  0.75664821808E+03  0.25500000920E-02 0. -1.
        2   -1    0    0  501    0  0.00000000000E+00  0.00000000000E+00 -0.22332302121E+04  0.22332302121E+04  0.25500000920E-02 0.  1.
    10030    2    1    2    0    0  0.00000000000E+00  0.00000000000E+00 -0.14765819940E+04  0.29898784302E+04  0.25998228098E+04 0.  0.
        3    1    3    3  502    0  0.75905918230E+03  0.22422872791E+03 -0.19241739604E+04  0.20805996263E+04  0.10100000352E+00 0.  1.
       -3    1    3    3    0  502 -0.75905918230E+03 -0.22422872791E+03  0.44759196640E+03  0.90927880391E+03  0.10100000352E+00 0. -1.
</event>
<event>
 5   0  0.6599814E-07  0.2598951E+04  0.7818609E-02  0.8368558E-01
       -2   -1    0    0    0  501  0.00000000000E+00  0.00000000000E+00  0.10008893443E+04  0.10008893443E+04  0.25500000920E-02 0.  1.
        2   -1    0    0  501    0  0.00000000000E+00  0.00000000000E+00 -0.16871364767E+04  0.16871364767E+04  0.25500000920E-02 0. -1.
    10030    2    1    2    0    0  0.00000000000E+00  0.00000000000E+00 -0.68624713247E+03  0.26880258210E+04  0.25989512669E+04 0.  0.
        5    1    3    3  502    0  0.48353822315E+03  0.11990552637E+04 -0.20798519255E+03  0.13095123783E+04  0.46999998093E+01 0.  1.
       -5    1    3    3    0  502 -0.48353822315E+03 -0.11990552637E+04 -0.47826193992E+03  0.13785134427E+04  0.46999998093E+01 0. -1.
</event>
<event>
 5   0  0.2864801E-07  0.2600264E+04  0.7818609E-02  0.8368111E-01
       -1   -1    0    0    0  501  0.00000000000E+00  0.00000000000E+00  0.11673697675E+04  0.11673697675E+04  0.50400001928E-02 0. -1.
        1   -1    0    0  501    0  0.00000000000E+00  0.00000000000E+00 -0.14479933564E+04  0.14479933564E+04  0.50400001928E-02 0.  1.
    10030    2    1    2    0    0  0.00000000000E+00  0.00000000000E+00 -0.28062358884E+03  0.26153631239E+04  0.26002643465E+04 0.  0.
        5    1    3    3  502    0 -0.77379312903E+03 -0.42953292041E+03 -0.10982428128E+04  0.14104657749E+04  0.46999998093E+01 0.  1.
       -5    1    3    3    0  502  0.77379312903E+03  0.42953292041E+03  0.81761922400E+03  0.12048973490E+04  0.46999998093E+01 0. -1.
</event>
<event>
 5   0  0.2641626E-07  0.2599564E+04  0.7818609E-02  0.8368349E-01
       -1   -1    0    0    0  501  0.00000000000E+00  0.00000000000E+00  0.10221753715E+04  0.10221753715E+04  0.50400001928E-02 0.  1.
        1   -1    0    0  501    0  0.00000000000E+00  0.00000000000E+00 -0.16527819877E+04  0.16527819877E+04  0.50400001928E-02 0. -1.
    10030    2    1    2    0    0  0.00000000000E+00  0.00000000000E+00 -0.63060661616E+03  0.26749573593E+04  0.25995638422E+04 0.  0.
        3    1    3    3  502    0  0.10029758098E+04  0.67382155395E+03 -0.80819122353E+03  0.14536743189E+04  0.10100000352E+00 0.  1.
       -3    1    3    3    0  502 -0.10029758098E+04 -0.67382155395E+03  0.17758460737E+03  0.12212830403E+04  0.10100000352E+00 0. -1.
</event>
<event>
 5   0  0.6526351E-07  0.2600227E+04  0.7818609E-02  0.8368124E-01
       -2   -1    0    0    0  501  0.00000000000E+00  0.00000000000E+00  0.10405185007E+04  0.10405185007E+04  0.25500000920E-02 0. -1.
        2   -1    0    0  501    0  0.00000000000E+00  0.00000000000E+00 -0.16244743958E+04  0.16244743958E+04  0.25500000920E-02 0.  1.
    10030    2    1    2    0    0  0.00000000000E+00  0.00000000000E+00 -0.58395589512E+03  0.26649928964E+04  0.26002274228E+04 0.  0.
        3    1    3    3  502    0 -0.10985095057E+02  0.77036354871E+03  0.78134795399E+03  0.10973082087E+04  0.10100000352E+00 0. -1.
       -3    1    3    3    0  502  0.10985095057E+02 -0.77036354871E+03 -0.13653038491E+04  0.15676846877E+04  0.10100000352E+00 0.  1.
</event>
<event>
 5   0  0.7160320E-07  0.2612870E+04  0.7818609E-02  0.8363843E-01
        2   -1    0    0  501    0  0.00000000000E+00  0.00000000000E+00  0.14514923915E+04  0.14514923915E+04  0.25500000920E-02 0.  1.
       -2   -1    0    0    0  501  0.00000000000E+00  0.00000000000E+00 -0.11758745359E+04  0.11758745359E+04  0.25500000920E-02 0. -1.
    10030    2    1    2    0    0  0.00000000000E+00  0.00000000000E+00  0.27561785561E+03  0.26273669274E+04  0.26128704080E+04 0.  0.
        1    1    3    3  502    0  0.33301012768E+03 -0.12353913812E+04 -0.12763545936E+03  0.12858376337E+04  0.50400001928E-02 0.  1.
       -1    1    3    3    0  502 -0.33301012768E+03  0.12353913812E+04  0.40325331497E+03  0.13415292937E+04  0.50400001928E-02 0. -1.
</event>
<event>
 5   0  0.7160320E-07  0.2603565E+04  0.7818609E-02  0.8366991E-01
       -2   -1    0    0    0  501  0.00000000000E+00  0.00000000000E+00  0.93526216862E+03  0.93526216863E+03  0.25500000920E-02 0.  1.
        2   -1    0    0  501    0  0.00000000000E+00  0.00000000000E+00 -0.18119388147E+04  0.18119388147E+04  0.25500000920E-02 0. -1.
    10030    2    1    2    0    0  0.00000000000E+00  0.00000000000E+00 -0.87667664612E+03  0.27472009834E+04  0.26035651137E+04 0.  0.
        1    1    3    3  502    0 -0.12714326101E+03  0.63901671266E+03  0.75083754227E+03  0.99411507523E+03  0.50400001928E-02 0.  1.
       -1    1    3    3    0  502  0.12714326101E+03 -0.63901671266E+03 -0.16275141884E+04  0.17530859081E+04  0.50400001928E-02 0. -1.
</event>
<event>
 5   0  0.6780984E-07  0.2600051E+04  0.7818609E-02  0.8368184E-01
       -2   -1    0    0    0  501  0.00000000000E+00  0.00000000000E+00  0.60699828915E+03  0.60699828916E+03  0.25500000920E-02 0. -1.
        2   -1    0    0  501    0  0.00000000000E+00  0.00000000000E+00 -0.27843021609E+04  0.27843021609E+04  0.25500000920E-02 0.  1.
    10030    2    1    2    0    0  0.00000000000E+00  0.00000000000E+00 -0.21773038717E+04  0.33913004501E+04  0.26000512673E+04 0.  0.
        2    1    3    3  502    0 -0.58136841015E+03  0.46904783240E+03 -0.24764340771E+04  0.25866427731E+04  0.25500000920E-02 0.  1.
       -2    1    3    3    0  502  0.58136841015E+03 -0.46904783240E+03  0.29913020532E+03  0.80465767699E+03  0.25500000920E-02 0. -1.
</event>
<event>
 5   0  0.2623263E-07  0.2599541E+04  0.7818609E-02  0.8368357E-01
        1   -1    0    0  501    0  0.00000000000E+00  0.00000000000E+00  0.15704634088E+04  0.15704634088E+04  0.50400001928E-02 0. -1.
       -1   -1    0    0    0  501  0.00000000000E+00  0.00000000000E+00 -0.10757359112E+04  0.10757359112E+04  0.50400001928E-02 0.  1.
    10030    2    1    2    0    0  0.00000000000E+00  0.00000000000E+00  0.49472749766E+03  0.26461993200E+04  0.25995414104E+04 0.  0.
        1    1    3    3  502    0  0.56377327381E+03 -0.53688573501E+03 -0.81214281264E+03  0.11250166865E+04  0.50400001928E-02 0.  1.
       -1    1    3    3    0  502 -0.56377327381E+03  0.53688573501E+03  0.13068703103E+04  0.15211826336E+04  0.50400001928E-02 0. -1.
</event>
<event>
 5   0  0.7160320E-07  0.2596552E+04  0.7818609E-02  0.8369373E-01
       -2   -1    0    0    0  501  0.00000000000E+00  0.00000000000E+00  0.11375821614E+04  0.11375821614E+04  0.25500000920E-02 0.  1.
        2   -1    0    0  501    0  0.00000000000E+00  0.00000000000E+00 -0.14816689973E+04  0.14816689973E+04  0.25500000920E-02 0. -1.
    10030    2    1    2    0    0  0.00000000000E+00  0.00000000000E+00 -0.34408683589E+03  0.26192511587E+04  0.25965517291E+04 0.  0.
        1    1    3    3  502    0 -0.12309485712E+04  0.41085934867E+03 -0.13323068175E+03  0.13045268123E+04  0.50400001928E-02 0.  1.
       -1    1    3    3    0  502  0.12309485712E+04 -0.41085934867E+03 -0.21085615413E+03  0.13147243465E+04  0.50400001928E-02 0. -1.
</event>
<event>
 5   0  0.6768478E-07  0.2598535E+04  0.7818609E-02  0.8368699E-01
       -2   -1    0    0    0  501  0.00000000000E+00  0.00000000000E+00  0.66765689595E+03  0.66765689595E+03  0.25500000920E-02 0.  1.
        2   -1    0    0  501    0  0.00000000000E+00  0.00000000000E+00 -0.25283891754E+04  0.25283891754E+04  0.25500000920E-02 0. -1.
    10030    2    1    2    0    0  0.00000000000E+00  0.00000000000E+00 -0.18607322795E+04  0.31960460714E+04  0.25985353325E+04 0.  0.
        4    1    3    3  502    0 -0.11011455767E+04  0.68947948348E+03 -0.91335393791E+03  0.15881185624E+04  0.12699999809E+01 0. -1.
       -4    1    3    3    0  502  0.11011455767E+04 -0.68947948348E+03 -0.94737834155E+03  0.16079275090E+04  0.12699999809E+01 0.  1.
</event>
<event>
 5   0  0.6526351E-07  0.2601379E+04  0.7818609E-02  0.8367733E-01
       -2   -1    0    0    0  501  0.00000000000E+00  0.00000000000E+00  0.88251091855E+03  0.88251091856E+03  0.25500000920E-02 0. -1.
        2   -1    0    0  501    0  0.00000000000E+00  0.00000000000E+00 -0.19170221509E+04  0.19170221509E+04  0.25500000920E-02 0.  1.
    10030    2    1    2    0    0  0.00000000000E+00  0.00000000000E+00 -0.10345112323E+04  0.27995330694E+04  0.26013788492E+04 0.  0.
        3    1    3    3  502    0  0.55644234615E+03  0.10713564066E+04 -0.10382392152E+04  0.15922855626E+04  0.10100000352E+00 0.  1.
       -3    1    3    3    0  502 -0.55644234615E+03 -0.10713564066E+04  0.37279829430E+01  0.12072475068E+04  0.10100000352E+00 0. -1.
</event>
<event>
 5   0  0.2864801E-07  0.2594029E+04  0.7818609E-02  0.8370232E-01
       -1   -1    0    0    0  501  0.00000000000E+00  0.00000000000E+00  0.15400929116E+04  0.15400929116E+04  0.50400001928E-02 0.  1.
        1   -1    0    0  501    0  0.00000000000E+00  0.00000000000E+00 -0.10923023498E+04  0.10923023498E+04  0.50400001928E-02 0. -1.
    10030    2    1    2    0    0  0.00000000000E+00  0.00000000000E+00  0.44779056177E+03  0.26323952614E+04  0.25940293801E+04 0.  0.
        5    1    3    3  502    0  0.76564678404E+03  0.93211784107E+03  0.70756423145E+03  0.13984734174E+04  0.46999998093E+01 0.  1.
       -5    1    3    3    0  502 -0.76564678404E+03 -0.93211784107E+03 -0.25977366968E+03  0.12339218440E+04  0.46999998093E+01 0. -1.
</event>
<event>
 5   0  0.2793576E-07  0.2599001E+04  0.7818609E-02  0.8368541E-01
       -1   -1    0    0    0  501  0.00000000000E+00  0.00000000000E+00  0.18066942239E+04  0.18066942239E+04  0.50400001928E-02 0. -1.
        1   -1    0    0  501    0  0.00000000000E+00  0.00000000000E+00 -0.93469163766E+03  0.93469163768E+03  0.50400001928E-02 0.  1.
    10030    2    1    2    0    0  0.00000000000E+00  0.00000000000E+00  0.87200258626E+03  0.27413858616E+04  0.25990013335E+04 0.  0.
        2    1    3    3  502    0  0.42289944301E+03  0.11690702679E+04  0.83505668023E+03  0.14976277540E+04  0.25500000920E-02 0.  1.
       -2    1    3    3    0  502 -0.42289944301E+03 -0.11690702679E+04  0.36945906031E+02  0.12437581076E+04  0.25500000920E-02 0. -1.
</event>
<event>
 5   0  0.7160320E-07  0.2599933E+04  0.7818609E-02  0.8368224E-01
       -2   -1    0    0    0  501  0.00000000000E+00  0.00000000000E+00  0.96803818936E+03  0.96803818937E+03  0.25500000920E-02 0.  1.
        2   -1    0    0  501    0  0.00000000000E+00  0.00000000000E+00 -0.17457084593E+04  0.17457084593E+04  0.25500000920E-02 0. -1.
    10030    2    1    2    0    0  0.00000000000E+00  0.00000000000E+00 -0.77767026994E+03  0.27137466487E+04  0.25999326577E+04 0.  0.
        1    1    3    3  502    0  0.32030944872E+02 -0.12053421410E+03 -0.17394494822E+04  0.17439148429E+04  0.50400001928E-02 0. -1.
       -1    1    3    3    0  502 -0.32030944872E+02  0.12053421410E+03  0.96177921228E+03  0.96983180573E+03  0.50400001928E-02 0.  1.
</event>
<event>
 5   0  0.6768478E-07  0.2603721E+04  0.7818609E-02  0.8366938E-01
       -2   -1    0    0    0  501  0.00000000000E+00  0.00000000000E+00  0.10884752928E+04  0.10884752928E+04  0.25500000920E-02 0.  1.
        2   -1    0    0  501    0  0.00000000000E+00  0.00000000000E+00 -0.15570781006E+04  0.15570781006E+04  0.25500000920E-02 0. -1.
    10030    2    1    2    0    0  0.00000000000E+00  0.00000000000E+00 -0.46860280785E+03  0.26455533934E+04  0.26037212151E+04 0.  0.
        4    1    3    3  502    0 -0.11113776056E+04 -0.79073666403E+02 -0.91848955248E+03  0.14439658922E+04  0.12699999809E+01 0. -1.
       -4    1    3    3    0  502  0.11113776056E+04  0.79073666403E+02  0.44988674463E+03  0.12015875012E+04  0.12699999809E+01 0.  1.
</event>
<event>
 5   0  0.6526351E-07  0.2611322E+04  0.7818609E-02  0.8364366E-01
       -2   -1    0    0    0  501  0.00000000000E+00  0.00000000000E+00  0.11051132746E+04  0.11051132746E+04  0.25500000920E-02 0. -1.
        2   -1    0    0  501    0  0.00000000000E+00  0.00000000000E+00 -0.15426025451E+04  0.15426025451E+04  0.25500000920E-02 0.  1.
    10030    2    1    2    0    0  0.00000000000E+00  0.00000000000E+00 -0.43748927057E+03  0.26477158197E+04  0.26113219258E+04 0.  0.
        3    1    3    3  502    0 -0.25235192538E+03 -0.88542341654E+03  0.71995205930E+03  0.11687545075E+04  0.10100000352E+00 0. -1.
       -3    1    3    3    0  502  0.25235192538E+03  0.88542341654E+03 -0.11574413299E+04  0.14789613122E+04  0.10100000352E+00 0.  1.
</event>
<event>
 5   0  0.2623263E-07  0.2592080E+04  0.7818609E-02  0.8370896E-01
       -1   -1    0    0    0  501  0.00000000000E+00  0.00000000000E+00  0.85649156247E+03  0.85649156249E+03  0.50400001928E-02 0.  1.
        1   -1    0    0  501    0  0.00000000000E+00  0.00000000000E+00 -0.19611635485E+04  0.19611635485E+04  0.50400001928E-02 0. -1.
    10030    2    1    2    0    0  0.00000000000E+00  0.00000000000E+00 -0.11046719860E+04  0.28176551110E+04  0.25920802703E+04 0.  0.
        1    1    3    3  502    0 -0.25527907911E+03  0.67277138150E+03 -0.17240715543E+04  0.18682107655E+04  0.50400001928E-02 0. -1.
       -1    1    3    3    0  502  0.25527907911E+03 -0.67277138150E+03  0.61939956826E+03  0.94944434549E+03  0.50400001928E-02 0.  1.
</event>
<event>
 5   0  0.6780984E-07  0.2599994E+04  0.7818609E-02  0.8368203E-01
       -2   -1    0    0    0  501  0.00000000000E+00  0.00000000000E+00  0.98267787091E+03  0.98267787091E+03  0.25500000920E-02 0. -1.
        2   -1    0    0  501    0  0.00000000000E+00  0.00000000000E+00 -0.17197826014E+04  0.17197826014E+04  0.25500000920E-02 0.  1.
    10030    2    1    2    0    0  0.00000000000E+00  0.00000000000E+00 -0.73710473051E+03  0.27024604723E+04  0.25999940809E+04 0.  0.
        2    1    3    3  502    0 -0.75583363173E+03  0.32263606865E+03  0.67842519181E+03  0.10656637615E+04  0.25500000920E-02 0. -1.
       -2    1    3    3    0  502  0.75583363173E+03 -0.32263606865E+03 -0.14155299223E+04  0.16367967108E+04  0.25500000920E-02 0.  1.
</event>
<event>
 5   0  0.2623263E-07  0.2600172E+04  0.7818609E-02  0.8368143E-01
        1   -1    0    0  501    0  0.00000000000E+00  0.00000000000E+00  0.26421469778E+04  0.26421469778E+04  0.50400001928E-02 0.  1.
       -1   -1    0    0    0  501  0.00000000000E+00  0.00000000000E+00 -0.63971595865E+03  0.63971595867E+03  0.50400001928E-02 0. -1.
    10030    2    1    2    0    0  0.00000000000E+00  0.00000000000E+00  0.20024310191E+04  0.32818629364E+04  0.26001719842E+04 0.  0.
        1    1    3    3  502    0 -0.14561180116E+02  0.61148078613E+03  0.24491978736E+04  0.25244189438E+04  0.50400001928E-02 0.  1.
       -1    1    3    3    0  502  0.14561180116E+02 -0.61148078613E+03 -0.44676685445E+03  0.75744399267E+03  0.50400001928E-02 0. -1.
</event>
<event>
 5   0  0.2793576E-07  0.2616177E+04  0.7818609E-02  0.8362727E-01
        1   -1    0    0  501    0  0.00000000000E+00  0.00000000000E+00  0.11565260925E+04  0.11565260925E+04  0.50400001928E-02 0. -1.
       -1   -1    0    0    0  501  0.00000000000E+00  0.00000000000E+00 -0.14795130311E+04  0.14795130311E+04  0.50400001928E-02 0.  1.
    10030    2    1    2    0    0  0.00000000000E+00  0.00000000000E+00 -0.32298693866E+03  0.26360391236E+04  0.26161769242E+04 0.  0.
        2    1    3    3  502    0 -0.33302614815E+03  0.89767717948E+03 -0.10595314546E+04  0.14280537935E+04  0.25500000920E-02 0.  1.
       -2    1    3    3    0  502  0.33302614815E+03 -0.89767717948E+03  0.73654451591E+03  0.12079853301E+04  0.25500000920E-02 0. -1.
</event>
<event>
 5   0  0.6599814E-07  0.2606793E+04  0.7818609E-02  0.8365897E-01
        2   -1    0    0  501    0  0.00000000000E+00  0.00000000000E+00  0.19501555084E+04  0.19501555084E+04  0.25500000920E-02 0. -1.
       -2   -1    0    0    0  501  0.00000000000E+00  0.00000000000E+00 -0.87113176671E+03  0.87113176671E+03  0.25500000920E-02 0.  1.
    10030    2    1    2    0    0  0.00000000000E+00  0.00000000000E+00  0.10790237417E+04  0.28212872751E+04  0.26067929825E+04 0.  0.
        5    1    3    3  502    0 -0.68710401957E+03 -0.23247427255E+03 -0.63248804961E+03  0.96240295303E+03  0.46999998093E+01 0.  1.
       -5    1    3    3    0  502  0.68710401957E+03  0.23247427255E+03  0.17115117913E+04  0.18588843221E+04  0.46999998093E+01 0. -1.
</event>
<event>
 5   0  0.2623263E-07  0.2599173E+04  0.7818609E-02  0.8368482E-01
        1   -1    0    0  501    0  0.00000000000E+00  0.00000000000E+00  0.16038822604E+04  0.16038822604E+04  0.50400001928E-02 0.  1.
       -1   -1    0    0    0  501  0.00000000000E+00  0.00000000000E+00 -0.10530231561E+04  0.10530231561E+04  0.50400001928E-02 0. -1.
    10030    2    1    2    0    0  0.00000000000E+00  0.00000000000E+00  0.55085910432E+03  0.26569054164E+04  0.25991730683E+04 0.  0.
        1    1    3    3  502    0 -0.42550189075E+03  0.11364459594E+04  0.75091067365E+03  0.14270347289E+04  0.50400001928E-02 0.  1.
       -1    1    3    3    0  502  0.42550189075E+03 -0.11364459594E+04 -0.20005156933E+03  0.12298706875E+04  0.50400001928E-02 0. -1.
</event>
<event>
 5   0  0.6768478E-07  0.2599197E+04  0.7818609E-02  0.8368474E-01
        2   -1    0    0  501    0  0.00000000000E+00  0.00000000000E+00  0.11065279753E+04  0.11065279753E+04  0.25500000920E-02 0. -1.
       -2   -1    0    0    0  501  0.00000000000E+00  0.00000000000E+00 -0.15263564061E+04  0.15263564061E+04  0.25500000920E-02 0.  1.
    10030    2    1    2    0    0  0.00000000000E+00  0.00000000000E+00 -0.41982843075E+03  0.26328843814E+04  0.25991968480E+04 0.  0.
        4    1    3    3  502    0  0.50573156937E+03 -0.37109600564E+02  0.10021782546E+04  0.11231671334E+04  0.12699999809E+01 0. -1.
       -4    1    3    3    0  502 -0.50573156937E+03  0.37109600564E+02 -0.14220066854E+04  0.15097172480E+04  0.12699999809E+01 0.  1.
</event>
<event>
 5   0  0.2294625E-07  0.2601823E+04  0.7818609E-02  0.8367582E-01
       -3   -1    0    0    0  501  0.00000000000E+00  0.00000000000E+00  0.12065613124E+04  0.12065613166E+04  0.10100000352E+00 0.  1.
        3   -1    0    0  501    0  0.00000000000E+00  0.00000000000E+00 -0.14026393063E+04  0.14026393099E+04  0.10100000352E+00 0. -1.
    10030    2    1    2    0    0  0.00000000000E+00  0.00000000000E+00 -0.19607799384E+03  0.26092006265E+04  0.26018226938E+04 0.  0.
        4    1    3    3  502    0  0.10782470805E+04 -0.44349206988E+03 -0.67679486556E+03  0.13480930553E+04  0.12699999809E+01 0. -1.
       -4    1    3    3    0  502 -0.10782470805E+04  0.44349206988E+03  0.48071687172E+03  0.12611075713E+04  0.12699999809E+01 0.  1.
</event>
<event>
 5   0  0.6526351E-07  0.2598585E+04  0.7818609E-02  0.8368682E-01
        2   -1    0    0  501    0  0.00000000000E+00  0.00000000000E+00  0.74632620036E+03  0.74632620036E+03  0.25500000920E-02 0. -1.
       -2   -1    0    0    0  501  0.00000000000E+00  0.00000000000E+00 -0.22619612973E+04  0.22619612973E+04  0.25500000920E-02 0.  1.
    10030    2    1    2    0    0  0.00000000000E+00  0.00000000000E+00 -0.15156350970E+04  0.30082874977E+04  0.25985849845E+04 0.  0.
        3    1    3    3  502    0 -0.77724767272E+03 -0.10235756926E+04 -0.97850306998E+03  0.16153295055E+04  0.10100000352E+00 0.  1.
       -3    1    3    3    0  502  0.77724767272E+03  0.10235756926E+04 -0.53713202700E+03  0.13929579922E+04  0.10100000352E+00 0. -1.
</event>
<event>
 5   0  0.6526351E-07  0.2598186E+04  0.7818609E-02  0.8368818E-01
       -2   -1    0    0    0  501  0.00000000000E+00  0.00000000000E+00  0.11428505472E+04  0.11428505472E+04  0.25500000920E-02 0. -1.
        2   -1    0    0  501    0  0.00000000000E+00  0.00000000000E+00 -0.14766960837E+04  0.14766960837E+04  0.25500000920E-02 0.  1.
    10030    2    1    2    0    0  0.00000000000E+00  0.00000000000E+00 -0.33384553643E+03  0.26195466309E+04  0.25981862345E+04 0.  0.
        3    1    3    3  502    0 -0.11445124379E+04  0.38292890741E+03  0.31775767770E+03  0.12480036941E+04  0.10100000352E+00 0. -1.
       -3    1    3    3    0  502  0.11445124379E+04 -0.38292890741E+03 -0.65160321413E+03  0.13715429368E+04  0.10100000352E+00 0.  1.
</event>
<event>
 5   0  0.2641626E-07  0.2600224E+04  0.7818609E-02  0.8368125E-01
        1   -1    0    0  501    0  0.00000000000E+00  0.00000000000E+00  0.17401656142E+04  0.17401656142E+04  0.50400001928E-02 0. -1.
       -1   -1    0    0    0  501  0.00000000000E+00  0.00000000000E+00 -0.97133907024E+03  0.97133907025E+03  0.50400001928E-02 0.  1.
    10030    2    1    2    0    0  0.00000000000E+00  0.00000000000E+00  0.76882654400E+03  0.27115046845E+04  0.26002237210E+04 0.  0.
        3    1    3    3  502    0  0.87385215438E+01 -0.18150698401E+03  0.17268574548E+04  0.17363921868E+04  0.10100000352E+00 0. -1.
       -3    1    3    3    0  502 -0.87385215438E+01  0.18150698401E+03 -0.95803091077E+03  0.97511249772E+03  0.10100000352E+00 0.  1.
</event>
<event>
 5   0  0.6780984E-07  0.2601423E+04  0.7818609E-02  0.8367718E-01
       -2   -1    0    0    0  501  0.00000000000E+00  0.00000000000E+00  0.12114172160E+04  0.12114172160E+04  0.25500000920E-02 0. -1.
        2   -1    0    0  501    0  0.00000000000E+00  0.00000000000E+00 -0.13965875474E+04  0.13965875474E+04  0.25500000920E-02 0.  1.
    10030    2    1    2    0    0  0.00000000000E+00  0.00000000000E+00 -0.18517033141E+03  0.26080047634E+04  0.26014228404E+04 0.  0.
        2    1    3    3  502    0 -0.26362144452E+03  0.71024970830E+03  0.96739751761E+03  0.12287428011E+04  0.25500000920E-02 0. -1.
       -2    1    3    3    0  502  0.26362144452E+03 -0.71024970830E+03 -0.11525678490E+04  0.13792619623E+04  0.25500000920E-02 0.  1.
</event>
<event>
 5   0  0.6768478E-07  0.2599484E+04  0.7818609E-02  0.8368376E-01
       -2   -1    0    0    0  501  0.00000000000E+00  0.00000000000E+00  0.18230877610E+04  0.18230877610E+04  0.25500000920E-02 0. -1.
        2   -1    0    0  501    0  0.00000000000E+00  0.00000000000E+00 -0.92663081923E+03  0.92663081923E+03  0.25500000920E-02 0.  1.
    10030    2    1    2    0    0  0.00000000000E+00  0.00000000000E+00  0.89645694181E+03  0.27497185803E+04  0.25994840300E+04 0.  0.
        4    1    3    3  502    0  0.10607155683E+03  0.12825161131E+04  0.25540525616E+03  0.13119955081E+04  0.12699999809E+01 0. -1.
       -4    1    3    3    0  502 -0.10607155683E+03 -0.12825161131E+04  0.64105168565E+03  0.14377230721E+04  0.12699999809E+01 0.  1.
</event>
<event>
 5   0  0.6768478E-07  0.2599588E+04  0.7818609E-02  0.8368341E-01
        2   -1    0    0  501    0  0.00000000000E+00  0.00000000000E+00  0.10338008528E+04  0.10338008528E+04  0.25500000920E-02 0.  1.
       -2   -1    0    0    0  501  0.00000000000E+00  0.00000000000E+00 -0.16342258980E+04  0.16342258980E+04  0.25500000920E-02 0. -1.
    10030    2    1    2    0    0  0.00000000000E+00  0.00000000000E+00 -0.60042504518E+03  0.26680267508E+04  0.25995877573E+04 0.  0.
        4    1    3    3  502    0  0.10289323035E+04 -0.64908400409E+03 -0.76991915485E+03  0.14397183223E+04  0.12699999809E+01 0.  1.
       -4    1    3    3    0  502 -0.10289323035E+04  0.64908400409E+03  0.16949410967E+03  0.12283084285E+04  0.12699999809E+01 0. -1.
</event>
<event>
 5   0  0.2755061E-07  0.2600470E+04  0.7818609E-02  0.8368042E-01
       -1   -1    0    0    0  501  0.00000000000E+00  0.00000000000E+00  0.11447598916E+04  0.11447598916E+04  0.50400001928E-02 0. -1.
        1   -1    0    0  501    0  0.00000000000E+00  0.00000000000E+00 -0.14768256387E+04  0.14768256387E+04  0.50400001928E-02 0.  1.
    10030    2    1    2    0    0  0.00000000000E+00  0.00000000000E+00 -0.33206574711E+03  0.26215855302E+04  0.26004697714E+04 0.  0.
        4    1    3    3  502    0 -0.53015904993E+03  0.78605813309E+03  0.73094078728E+03  0.11971767013E+04  0.12699999809E+01 0.  1.
       -4    1    3    3    0  502  0.53015904993E+03 -0.78605813309E+03 -0.10630065344E+04  0.14244088289E+04  0.12699999809E+01 0. -1.
</event>
<event>
 5   0  0.2641626E-07  0.2601767E+04  0.7818609E-02  0.8367601E-01
        1   -1    0    0  501    0  0.00000000000E+00  0.00000000000E+00  0.11336361745E+04  0.11336361745E+04  0.50400001928E-02 0.  1.
       -1   -1    0    0    0  501  0.00000000000E+00  0.00000000000E+00 -0.14928055674E+04  0.14928055674E+04  0.50400001928E-02 0. -1.
    10030    2    1    2    0    0  0.00000000000E+00  0.00000000000E+00 -0.35916939293E+03  0.26264417419E+04  0.26017673937E+04 0.  0.
        3    1    3    3  502    0 -0.69475766317E+03 -0.28380717853E+03  0.89306649519E+03  0.11665343973E+04  0.10100000352E+00 0.  1.
       -3    1    3    3    0  502  0.69475766317E+03  0.28380717853E+03 -0.12522358881E+04  0.14599073446E+04  0.10100000352E+00 0. -1.
</event>
<event>
 5   0  0.2623263E-07  0.2600725E+04  0.7818609E-02  0.8367955E-01
       -1   -1    0    0    0  501  0.00000000000E+00  0.00000000000E+00  0.15303808522E+04  0.15303808522E+04  0.50400001928E-02 0.  1.
        1   -1    0    0  501    0  0.00000000000E+00  0.00000000000E+00 -0.11049162419E+04  0.11049162419E+04  0.50400001928E-02 0. -1.
    10030    2    1    2    0    0  0.00000000000E+00  0.00000000000E+00  0.42546461027E+03  0.26352970941E+04  0.26007250219E+04 0.  0.
        1    1    3    3  502    0  0.94215119183E+03 -0.82302311487E+03  0.57231115103E+03  0.13757019915E+04  0.50400001928E-02 0.  1.
       -1    1    3    3    0  502 -0.94215119183E+03  0.82302311487E+03 -0.14684654077E+03  0.12595951026E+04  0.50400001928E-02 0. -1.
</event>
<event>
 5   0  0.2755061E-07  0.2608176E+04  0.7818609E-02  0.8365429E-01
        1   -1    0    0  501    0  0.00000000000E+00  0.00000000000E+00  0.21308465097E+04  0.21308465097E+04  0.50400001928E-02 0.  1.
       -1   -1    0    0    0  501  0.00000000000E+00  0.00000000000E+00 -0.79810802670E+03  0.79810802672E+03  0.50400001928E-02 0. -1.
    10030    2    1    2    0    0  0.00000000000E+00  0.00000000000E+00  0.13327384830E+04  0.29289545365E+04  0.26081761468E+04 0.  0.
        4    1    3    3  502    0  0.11184089093E+04 -0.19392144974E+03  0.13873600764E+04  0.17925438939E+04  0.12699999809E+01 0.  1.
       -4    1    3    3    0  502 -0.11184089093E+04  0.19392144974E+03 -0.54621593367E+02  0.11364106425E+04  0.12699999809E+01 0. -1.
</event>
<event>
 5   0  0.2623263E-07  0.2598890E+04  0.7818609E-02  0.8368578E-01
       -1   -1    0    0    0  501  0.00000000000E+00  0.00000000000E+00  0.12378494224E+04  0.12378494224E+04  0.50400001928E-02 0. -1.
        1   -1    0    0  501    0  0.00000000000E+00  0.00000000000E+00 -0.13641057538E+04  0.13641057538E+04  0.50400001928E-02 0.  1.
    10030    2    1    2    0    0  0.00000000000E+00  0.00000000000E+00 -0.12625633142E+03  0.26019551763E+04  0.25988901627E+04 0.  0.
        1    1    3    3  502    0  0.63417900685E+03 -0.82329359436E+03 -0.84415212953E+03  0.13388757123E+04  0.50400001928E-02 0.  1.
       -1    1    3    3    0  502 -0.63417900685E+03  0.82329359436E+03  0.71789579812E+03  0.12630794639E+04  0.50400001928E-02 0. -1.
</event>
<event>
 5   0  0.6780984E-07  0.2599951E+04  0.7818609E-02  0.8368218E-01
       -2   -1    0    0    0  501  0.00000000000E+00  0.00000000000E+00  0.10924138581E+04  0.10924138581E+04  0.25500000920E-02 0.  1.
        2   -1    0    0  501    0  0.00000000000E+00  0.00000000000E+00 -0.15469739621E+04  0.15469739621E+04  0.25500000920E-02 0. -1.
    10030    2    1    2    0    0  0.00000000000E+00  0.00000000000E+00 -0.45456010397E+03  0.26393878203E+04  0.25999506106E+04 0.  0.
        2    1    3    3  502    0  0.10857273665E+04  0.23772504901E+03  0.45720150220E+03  0.12018112693E+04  0.25500000920E-02 0.  1.
       -2    1    3    3    0  502 -0.10857273665E+04 -0.23772504901E+03 -0.91176160617E+03  0.14375765510E+04  0.25500000920E-02 0. -1.
</event>
<event>
 5   0  0.2755061E-07  0.2597526E+04  0.7818609E-02  0.8369042E-01
        1   -1    0    0  501    0  0.00000000000E+00  0.00000000000E+00  0.84455193448E+03  0.84455193450E+03  0.50400001928E-02 0. -1.
       -1   -1    0    0    0  501  0.00000000000E+00  0.00000000000E+00 -0.19972548908E+04  0.19972548908E+04  0.50400001928E-02 0.  1.
    10030    2    1    2    0    0  0.00000000000E+00  0.00000000000E+00 -0.11527029563E+04  0.28418068253E+04  0.25975261167E+04 0.  0.
        4    1    3    3  502    0 -0.12805895997E+04 -0.21275702739E+03 -0.53247237449E+03  0.14031050275E+04  0.12699999809E+01 0. -1.
       -4    1    3    3    0  502  0.12805895997E+04  0.21275702739E+03 -0.62023058180E+03  0.14387017978E+04  0.12699999809E+01 0.  1.
</event>
<event>
 5   0  0.6780984E-07  0.2599854E+04  0.7818609E-02  0.8368251E-01
        2   -1    0    0  501    0  0.00000000000E+00  0.00000000000E+00  0.11448000456E+04  0.11448000456E+04  0.25500000920E-02 0. -1.
       -2   -1    0    0    0  501  0.00000000000E+00  0.00000000000E+00 -0.14760741032E+04  0.14760741032E+04  0.25500000920E-02 0.  1.
    10030    2    1    2    0    0  0.00000000000E+00  0.00000000000E+00 -0.33127405758E+03  0.26208741487E+04  0.25998536117E+04 0.  0.
        2    1    3    3  502    0 -0.95579645772E+03  0.44500049353E+03 -0.93220445067E+03  0.14073298994E+04  0.25500000920E-02 0.  1.
       -2    1    3    3    0  502  0.95579645772E+03 -0.44500049353E+03  0.60093039309E+03  0.12135442494E+04  0.25500000920E-02 0. -1.
</event>
<event>
 5   0  0.2623263E-07  0.2599322E+04  0.7818609E-02  0.8368432E-01
       -1   -1    0    0    0  501  0.00000000000E+00  0.00000000000E+00  0.10449338546E+04  0.10449338546E+04  0.50400001928E-02 0. -1.
        1   -1    0    0  501    0  0.00000000000E+00  0.00000000000E+00 -0.16164838280E+04  0.16164838280E+04  0.50400001928E-02 0.  1.
    10030    2    1    2    0    0  0.00000000000E+00  0.00000000000E+00 -0.57154997336E+03  0.26614176827E+04  0.25993219711E+04 0.  0.
        1    1    3    3  502    0  0.22715820248E+03 -0.12705083513E+04 -0.12939670905E+03  0.12971259877E+04  0.50400001928E-02 0.  1.
       -1    1    3    3    0  502 -0.22715820248E+03  0.12705083513E+04 -0.44215326431E+03  0.13642916949E+04  0.50400001928E-02 0. -1.
</event>
<event>
 5   0  0.2641626E-07  0.2600238E+04  0.7818609E-02  0.8368120E-01
       -1   -1    0    0    0  501  0.00000000000E+00  0.00000000000E+00  0.80218834569E+03  0.80218834571E+03  0.50400001928E-02 0. -1.
        1   -1    0    0  501    0  0.00000000000E+00  0.00000000000E+00 -0.21071229278E+04  0.21071229278E+04  0.50400001928E-02 0.  1.
    10030    2    1    2    0    0  0.00000000000E+00  0.00000000000E+00 -0.13049345821E+04  0.29093112736E+04  0.26002380319E+04 0.  0.
        3    1    3    3  502    0 -0.21292581956E+03 -0.11480295830E+04 -0.12657270018E+02  0.11676769865E+04  0.10100000352E+00 0.  1.
       -3    1    3    3    0  502  0.21292581956E+03  0.11480295830E+04 -0.12922773121E+04  0.17416342870E+04  0.10100000352E+00 0. -1.
</event>
<event>
 5   0  0.6780984E-07  0.2601085E+04  0.7818609E-02  0.8367833E-01
       -2   -1    0    0    0  501  0.00000000000E+00  0.00000000000E+00  0.10205797515E+04  0.10205797515E+04  0.25500000920E-02 0. -1.
        2   -1    0    0  501    0  0.00000000000E+00  0.00000000000E+00 -0.16573036529E+04  0.16573036529E+04  0.25500000920E-02 0.  1.
    10030    2    1    2    0    0  0.00000000000E+00  0.00000000000E+00 -0.63672390140E+03  0.26778834043E+04  0.26010848123E+04 0.  0.
        2    1    3    3  502    0  0.29085280086E+02 -0.12054386492E+04 -0.82007192705E+03  0.14582339510E+04  0.25500000920E-02 0.  1.
       -2    1    3    3    0  502 -0.29085280086E+02  0.12054386492E+04  0.18334802565E+03  0.12196494533E+04  0.25500000920E-02 0. -1.
</event>
<event>
 5   0  0.6526351E-07  0.2599283E+04  0.7818609E-02  0.8368445E-01
       -2   -1    0    0    0  501  0.00000000000E+00  0.00000000000E+00  0.13268982238E+04  0.13268982238E+04  0.25500000920E-02 0. -1.
        2   -1    0    0  501    0  0.00000000000E+00  0.00000000000E+00 -0.12729445157E+04  0.12729445157E+04  0.25500000920E-02 0.  1.
    10030    2    1    2    0    0  0.00000000000E+00  0.00000000000E+00  0.53953708057E+02  0.25998427395E+04  0.25992828371E+04 0.  0.
        3    1    3    3  502    0  0.66395591903E+02  0.12645731602E+04 -0.26551416989E+03  0.12938513967E+04  0.10100000352E+00 0. -1.
       -3    1    3    3    0  502 -0.66395591903E+02 -0.12645731602E+04  0.31946787794E+03  0.13059913428E+04  0.10100000352E+00 0.  1.
</event>
<event>
 5   0  0.6599814E-07  0.2598292E+04  0.7818609E-02  0.8368782E-01
        2   -1    0    0  501    0  0.00000000000E+00  0.00000000000E+00  0.18224902742E+04  0.18224902742E+04  0.25500000920E-02 0.  1.
       -2   -1    0    0    0  501  0.00000000000E+00  0.00000000000E+00 -0.92608452159E+03  0.92608452160E+03  0.25500000920E-02 0. -1.
    10030    2    1    2    0    0  0.00000000000E+00  0.00000000000E+00  0.89640575257E+03  0.27485747958E+04  0.25982917724E+04 0.  0.
        5    1    3    3  502    0  0.53813470772E+03 -0.63686192093E+03 -0.60570220631E+03  0.10305723277E+04  0.46999998093E+01 0. -1.
       -5    1    3    3    0  502 -0.53813470772E+03  0.63686192093E+03  0.15021079589E+04  0.17180024680E+04  0.46999998093E+01 0.  1.
</event>
<event>
 5   0  0.2755061E-07  0.2605757E+04  0.7818609E-02  0.8366248E-01
       -1   -1    0    0    0  501  0.00000000000E+00  0.00000000000E+00  0.13943039947E+04  0.13943039947E+04  0.50400001928E-02 0. -1.
        1   -1    0    0  501    0  0.00000000000E+00  0.00000000000E+00 -0.12174482934E+04  0.12174482934E+04  0.50400001928E-02 0.  1.
    10030    2    1    2    0    0  0.00000000000E+00  0.00000000000E+00  0.17685570134E+03  0.26117522881E+04  0.26057574859E+04 0.  0.
        4    1    3    3  502    0  0.34258578552E+03  0.25950746556E+03  0.13212096145E+04  0.13893543837E+04  0.12699999809E+01 0. -1.
       -4    1    3    3    0  502 -0.34258578552E+03 -0.25950746556E+03 -0.11443539132E+04  0.12223979044E+04  0.12699999809E+01 0.  1.
</event>
<event>
 5   0  0.2623263E-07  0.2600855E+04  0.7818609E-02  0.8367911E-01
        1   -1    0    0  501    0  0.00000000000E+00  0.00000000000E+00  0.91852717614E+03  0.91852717615E+03  0.50400001928E-02 0. -1.
       -1   -1    0    0    0  501  0.00000000000E+00  0.00000000000E+00 -0.18411125930E+04  0.18411125930E+04  0.50400001928E-02 0.  1.
    10030    2    1    2    0    0  0.00000000000E+00  0.00000000000E+00 -0.92258541682E+03  0.27596397691E+04  0.26008552063E+04 0.  0.
        1    1    3    3  502    0 -0.34556890465E+03  0.87029953583E+02  0.86570825007E+03  0.93618526743E+03  0.50400001928E-02 0. -1.
       -1    1    3    3    0  502  0.34556890465E+03 -0.87029953583E+02 -0.17882936669E+04  0.18234545017E+04  0.50400001928E-02 0.  1.
</event>
<event>
 5   0  0.2641626E-07  0.2600706E+04  0.7818609E-02  0.8367961E-01
       -1   -1    0    0    0  501  0.00000000000E+00  0.00000000000E+00  0.12920585630E+04  0.12920585630E+04  0.50400001928E-02 0. -1.
        1   -1    0    0  501    0  0.00000000000E+00  0.00000000000E+00 -0.13087005461E+04  0.13087005461E+04  0.50400001928E-02 0.  1.
    10030    2    1    2    0    0  0.00000000000E+00  0.00000000000E+00 -0.16641983114E+02  0.26007591091E+04  0.26007058634E+04 0.  0.
        3    1    3    3  502    0  0.80793558057E+03 -0.19149930659E+03 -0.10090841296E+04  0.13067833323E+04  0.10100000352E+00 0.  1.
       -3    1    3    3    0  502 -0.80793558057E+03  0.19149930659E+03  0.99244214646E+03  0.12939757768E+04  0.10100000352E+00 0. -1.
</event>
<event>
 5   0  0.6526351E-07  0.2598562E+04  0.7818609E-02  0.8368690E-01
       -2   -1    0    0    0  501  0.00000000000E+00  0.00000000000E+00  0.12570332007E+04  0.12570332007E+04  0.25500000920E-02 0.  1.
        2   -1    0    0  501    0  0.00000000000E+00  0.00000000000E+00 -0.13429483316E+04  0.13429483316E+04  0.25500000920E-02 0. -1.
    10030    2    1    2    0    0  0.00000000000E+00  0.00000000000E+00 -0.85915130965E+02  0.25999815323E+04  0.25985616327E+04 0.  0.
        3    1    3    3  502    0 -0.20840030106E+03 -0.10250778566E+04  0.72812256057E+03  0.12745107967E+04  0.10100000352E+00 0.  1.
       -3    1    3    3    0  502  0.20840030106E+03  0.10250778566E+04 -0.81403769154E+03  0.13254707356E+04  0.10100000352E+00 0. -1.
</event>
<event>
 5   0  0.6780984E-07  0.2599444E+04  0.7818609E-02  0.8368390E-01
        2   -1    0    0  501    0  0.00000000000E+00  0.00000000000E+00  0.75705573280E+03  0.75705573280E+03  0.25500000920E-02 0. -1.
       -2   -1    0    0    0  501  0.00000000000E+00  0.00000000000E+00 -0.22313780019E+04  0.22313780019E+04  0.25500000920E-02 0.  1.
    10030    2    1    2    0    0  0.00000000000E+00  0.00000000000E+00 -0.14743222691E+04  0.29884337347E+04  0.25994441778E+04 0.  0.
        2    1    3    3  502    0 -0.16502313233E+03 -0.12300294524E+04 -0.11810372596E+04  0.17131999581E+04  0.25500000920E-02 0.  1.
       -2    1    3    3    0  502  0.16502313233E+03  0.12300294524E+04 -0.29328500948E+03  0.12752337765E+04  0.25500000920E-02 0. -1.
</event>
<event>
 5   0  0.2793576E-07  0.2603502E+04  0.7818609E-02  0.8367013E-01
        1   -1    0    0  501    0  0.00000000000E+00  0.00000000000E+00  0.12797178621E+04  0.12797178621E+04  0.50400001928E-02 0.  1.
       -1   -1    0    0    0  501  0.00000000000E+00  0.00000000000E+00 -0.13241632674E+04  0.13241632675E+04  0.50400001928E-02 0. -1.
    10030    2    1    2    0    0  0.00000000000E+00  0.00000000000E+00 -0.44445405328E+02  0.26038811296E+04  0.26035017847E+04 0.  0.
        2    1    3    3  502    0  0.56976747153E+03  0.11237230456E+04 -0.34963400800E+03  0.13075291180E+04  0.25500000920E-02 0. -1.
       -2    1    3    3    0  502 -0.56976747153E+03 -0.11237230456E+04  0.30518860268E+03  0.12963520116E+04  0.25500000920E-02 0.  1.
</event>
<event>
 5   0  0.2793576E-07  0.2600142E+04  0.7818609E-02  0.8368153E-01
       -1   -1    0    0    0  501  0.00000000000E+00  0.00000000000E+00  0.12690729765E+04  0.12690729765E+04  0.50400001928E-02 0. -1.
        1   -1    0    0  501    0  0.00000000000E+00  0.00000000000E+00 -0.13318265404E+04  0.13318265404E+04  0.50400001928E-02 0.  1.
    10030    2    1    2    0    0  0.00000000000E+00  0.00000000000E+00 -0.62753563897E+02  0.26008995169E+04  0.26001423590E+04 0.  0.
        2    1    3    3  502    0 -0.35374523427E+03 -0.95883978409E+02 -0.12790794315E+04  0.13305538772E+04  0.25500000920E-02 0.  1.
       -2    1    3    3    0  502  0.35374523427E+03  0.95883978409E+02  0.12163258676E+04  0.12703456397E+04  0.25500000920E-02 0. -1.
</event>
<event>
 5   0  0.6768478E-07  0.2599223E+04  0.7818609E-02  0.8368465E-01
       -2   -1    0    0    0  501  0.00000000000E+00  0.00000000000E+00  0.98569789479E+03  0.98569789480E+03  0.25500000920E-02 0.  1.
        2   -1    0    0  501    0  0.00000000000E+00  0.00000000000E+00 -0.17134967049E+04  0.17134967049E+04  0.25500000920E-02 0. -1.
    10030    2    1    2    0    0  0.00000000000E+00  0.00000000000E+00 -0.72779881008E+03  0.26991945997E+04  0.25992230337E+04 0.  0.
        4    1    3    3  502    0 -0.27253956625E+03 -0.65325982195E+03 -0.14957574797E+04  0.16547864700E+04  0.12699999809E+01 0. -1.
       -4    1    3    3    0  502  0.27253956625E+03  0.65325982195E+03  0.76795866966E+03  0.10444081297E+04  0.12699999809E+01 0.  1.
</event>
<event>
 5   0  0.2641626E-07  0.2600213E+04  0.7818609E-02  0.8368129E-01
       -1   -1    0    0    0  501  0.00000000000E+00  0.00000000000E+00  0.80568421494E+03  0.80568421495E+03  0.50400001928E-02 0.  1.
        1   -1    0    0  501    0  0.00000000000E+00  0.00000000000E+00 -0.20979401390E+04  0.20979401390E+04  0.50400001928E-02 0. -1.
    10030    2    1    2    0    0  0.00000000000E+00  0.00000000000E+00 -0.12922559241E+04  0.29036243540E+04  0.26002132635E+04 0.  0.
        3    1    3    3  502    0 -0.96925649399E+03 -0.46316446935E+03 -0.14639041402E+04  0.18157628751E+04  0.10100000352E+00 0. -1.
       -3    1    3    3    0  502  0.96925649399E+03  0.46316446935E+03  0.17164821614E+03  0.10878614788E+04  0.10100000352E+00 0.  1.
</event>
<event>
 5   0  0.7160320E-07  0.2600239E+04  0.7818609E-02  0.8368120E-01
       -2   -1    0    0    0  501  0.00000000000E+00  0.00000000000E+00  0.15975738925E+04  0.15975738925E+04  0.25500000920E-02 0.  1.
        2   -1    0    0  501    0  0.00000000000E+00  0.00000000000E+00 -0.10580484627E+04  0.10580484627E+04  0.25500000920E-02 0. -1.
    10030    2    1    2    0    0  0.00000000000E+00  0.00000000000E+00  0.53952542971E+03  0.26556223552E+04  0.26002389129E+04 0.  0.
        1    1    3    3  502    0  0.10387639261E+04  0.82436091819E+02  0.10638086200E+04  0.14891322922E+04  0.50400001928E-02 0.  1.
       -1    1    3    3    0  502 -0.10387639261E+04 -0.82436091819E+02 -0.52428319033E+03  0.11664900630E+04  0.50400001928E-02 0. -1.
</event>
<event>
 5   0  0.2793576E-07  0.2600204E+04  0.7818609E-02  0.8368132E-01
        1   -1    0    0  501    0  0.00000000000E+00  0.00000000000E+00  0.15048165717E+04  0.15048165717E+04  0.50400001928E-02 0. -1.
       -1   -1    0    0    0  501  0.00000000000E+00  0.00000000000E+00 -0.11232368036E+04  0.11232368036E+04  0.50400001928E-02 0.  1.
    10030    2    1    2    0    0  0.00000000000E+00  0.00000000000E+00  0.38157976813E+03  0.26280533753E+04  0.26002041120E+04 0.  0.
        2    1    3    3  502    0  0.17915306580E+03 -0.61778556004E+03 -0.95113869627E+03  0.11482245594E+04  0.25500000920E-02 0.  1.
       -2    1    3    3    0  502 -0.17915306580E+03  0.61778556004E+03  0.13327184644E+04  0.14798288160E+04  0.25500000920E-02 0. -1.
</event>
<event>
 5   0  0.2755061E-07  0.2600200E+04  0.7818609E-02  0.8368133E-01
        1   -1    0    0  501    0  0.00000000000E+00  0.00000000000E+00  0.56089128304E+03  0.56089128306E+03  0.50400001928E-02 0. -1.
       -1   -1    0    0    0  501  0.00000000000E+00  0.00000000000E+00 -0.30135263212E+04  0.30135263212E+04  0.50400001928E-02 0.  1.
    10030    2    1    2    0    0  0.00000000000E+00  0.00000000000E+00 -0.24526350382E+04  0.35744176043E+04  0.26002004883E+04 0.  0.
        4    1    3    3  502    0 -0.34207523916E+03  0.10481207663E+04 -0.27920438445E+03  0.11373343005E+04  0.12699999809E+01 0. -1.
       -4    1    3    3    0  502  0.34207523916E+03 -0.10481207663E+04 -0.21734306537E+04  0.24370833037E+04  0.12699999809E+01 0.  1.
</event>
<event>
 5   0  0.6768478E-07  0.2602023E+04  0.7818609E-02  0.8367514E-01
       -2   -1    0    0    0  501  0.00000000000E+00  0.00000000000E+00  0.74733704911E+03  0.74733704911E+03  0.25500000920E-02 0.  1.
        2   -1    0    0  501    0  0.00000000000E+00  0.00000000000E+00 -0.22648836502E+04  0.22648836503E+04  0.25500000920E-02 0. -1.
    10030    2    1    2    0    0  0.00000000000E+00  0.00000000000E+00 -0.15175466011E+04  0.30122206994E+04  0.26020234155E+04 0.  0.
        4    1    3    3  502    0  0.69275958112E+03  0.85823535423E+03  0.40040757883E+02  0.11036705286E+04  0.12699999809E+01 0.  1.
       -4    1    3    3    0  502 -0.69275958112E+03 -0.85823535423E+03 -0.15575873590E+04  0.19085501708E+04  0.12699999809E+01 0. -1.
</event>
<event>
 5   0  0.6780984E-07  0.2601054E+04  0.7818609E-02  0.8367843E-01
        2   -1    0    0  501    0  0.00000000000E+00  0.00000000000E+00  0.10614046079E+04  0.10614046079E+04  0.25500000920E-02 0.  1.
       -2   -1    0    0    0  501  0.00000000000E+00  0.00000000000E+00 -0.15935210118E+04  0.15935210118E+04  0.25500000920E-02 0. -1.
    10030    2    1    2    0    0  0.00000000000E+00  0.00000000000E+00 -0.53211640392E+03  0.26549256197E+04  0.26010540515E+04 0.  0.
        2    1    3    3  502    0 -0.79435619949E+03  0.85346369276E+03 -0.85415852514E+03  0.14453334676E+04  0.25500000920E-02 0. -1.
       -2    1    3    3    0  502  0.79435619949E+03 -0.85346369276E+03  0.32204212122E+03  0.12095921521E+04  0.25500000920E-02 0.  1.
</event>
<event>
 5   0  0.2864801E-07  0.2599799E+04  0.7818609E-02  0.8368269E-01
        1   -1    0    0  501    0  0.00000000000E+00  0.00000000000E+00  0.22249313412E+04  0.22249313412E+04  0.50400001928E-02 0.  1.
       -1   -1    0    0    0  501  0.00000000000E+00  0.00000000000E+00 -0.75945662982E+03  0.75945662984E+03  0.50400001928E-02 0. -1.
    10030    2    1    2    0    0  0.00000000000E+00  0.00000000000E+00  0.14654747114E+04  0.29843879710E+04  0.25997991138E+04 0.  0.
        5    1    3    3  502    0  0.95870978701E+03  0.12002968970E+02  0.17403351855E+04  0.19869718607E+04  0.46999998093E+01 0.  1.
       -5    1    3    3    0  502 -0.95870978701E+03 -0.12002968970E+02 -0.27486047419E+03  0.99741611037E+03  0.46999998093E+01 0. -1.
</event>
<event>
 5   0  0.6599814E-07  0.2599111E+04  0.7818609E-02  0.8368503E-01
        2   -1    0    0  501    0  0.00000000000E+00  0.00000000000E+00  0.83780966158E+03  0.83780966158E+03  0.25500000920E-02 0.  1.
       -2   -1    0    0    0  501  0.00000000000E+00  0.00000000000E+00 -0.20157850133E+04  0.20157850133E+04  0.25500000920E-02 0. -1.
    10030    2    1    2    0    0  0.00000000000E+00  0.00000000000E+00 -0.11779753517E+04  0.28535946749E+04  0.25991107401E+04 0.  0.
        5    1    3    3  502    0  0.24272968421E+03  0.11561200217E+04 -0.11835765395E+04  0.16722460103E+04  0.46999998093E+01 0. -1.
       -5    1    3    3    0  502 -0.24272968421E+03 -0.11561200217E+04  0.56011877240E+01  0.11813486646E+04  0.46999998093E+01 0.  1.
</event>
<event>
 5   0  0.6780984E-07  0.2606946E+04  0.7818609E-02  0.8365846E-01
        2   -1    0    0  501    0  0.00000000000E+00  0.00000000000E+00  0.23630700261E+04  0.23630700261E+04  0.25500000920E-02 0. -1.
       -2   -1    0    0    0  501  0.00000000000E+00  0.00000000000E+00 -0.71899755750E+03  0.71899755750E+03  0.25500000920E-02 0.  1.
    10030    2    1    2    0    0  0.00000000000E+00  0.00000000000E+00  0.16440724686E+04  0.30820675836E+04  0.26069457815E+04 0.  0.
        2    1    3    3  502    0  0.76624515739E+03 -0.96826610952E+03  0.13157177713E+04  0.18043791602E+04  0.25500000920E-02 0.  1.
       -2    1    3    3    0  502 -0.76624515739E+03  0.96826610952E+03  0.32835469734E+03  0.12776884234E+04  0.25500000920E-02 0. -1.
</event>
<event>
 5   0  0.6599814E-07  0.2600107E+04  0.7818609E-02  0.8368165E-01
        2   -1    0    0  501    0  0.00000000000E+00  0.00000000000E+00  0.95044399609E+03  0.95044399609E+03  0.25500000920E-02 0. -1.
       -2   -1    0    0    0  501  0.00000000000E+00  0.00000000000E+00 -0.17782626439E+04  0.17782626439E+04  0.25500000920E-02 0.  1.
    10030    2    1    2    0    0  0.00000000000E+00  0.00000000000E+00 -0.82781864779E+03  0.27287066400E+04  0.26001069619E+04 0.  0.
        5    1    3    3  502    0 -0.11217692896E+04 -0.34327370137E+03 -0.10019005300E+04  0.15427345641E+04  0.46999998093E+01 0.  1.
       -5    1    3    3    0  502  0.11217692896E+04  0.34327370137E+03  0.17408188224E+03  0.11859720759E+04  0.46999998093E+01 0. -1.
</event>
<event>
 5   0  0.2641626E-07  0.2601684E+04  0.7818609E-02  0.8367629E-01
        1   -1    0    0  501    0  0.00000000000E+00  0.00000000000E+00  0.17269520577E+04  0.17269520577E+04  0.50400001928E-02 0. -1.
       -1   -1    0    0    0  501  0.00000000000E+00  0.00000000000E+00 -0.97987095112E+03  0.97987095113E+03  0.50400001928E-02 0.  1.
    10030    2    1    2    0    0  0.00000000000E+00  0.00000000000E+00  0.74708110662E+03  0.27068230089E+04  0.26016841894E+04 0.  0.
        3    1    3    3  502    0 -0.13697970697E+03  0.40918427203E+03 -0.90324228807E+03  0.10010204043E+04  0.10100000352E+00 0.  1.
       -3    1    3    3    0  502  0.13697970697E+03 -0.40918427203E+03  0.16503233947E+04  0.17058026046E+04  0.10100000352E+00 0. -1.
</event>
<event>
 5   0  0.7160320E-07  0.2594347E+04  0.7818609E-02  0.8370124E-01
        2   -1    0    0  501    0  0.00000000000E+00  0.00000000000E+00  0.13590668902E+04  0.13590668902E+04  0.25500000920E-02 0.  1.
       -2   -1    0    0    0  501  0.00000000000E+00  0.00000000000E+00 -0.12380987568E+04  0.12380987568E+04  0.25500000920E-02 0. -1.
    10030    2    1    2    0    0  0.00000000000E+00  0.00000000000E+00  0.12096813343E+03  0.25971656470E+04  0.25943469523E+04 0.  0.
        1    1    3    3  502    0  0.80397227401E+03  0.35339186241E+03  0.10161949586E+04  0.13430969510E+04  0.50400001928E-02 0.  1.
       -1    1    3    3    0  502 -0.80397227401E+03 -0.35339186241E+03 -0.89522682518E+03  0.12540686960E+04  0.50400001928E-02 0. -1.
</event>
<event>
 5   0  0.2641626E-07  0.2603426E+04  0.7818609E-02  0.8367038E-01
        1   -1    0    0  501    0  0.00000000000E+00  0.00000000000E+00  0.12536045210E+04  0.12536045210E+04  0.50400001928E-02 0. -1.
       -1   -1    0    0    0  501  0.00000000000E+00  0.00000000000E+00 -0.13516674895E+04  0.13516674895E+04  0.50400001928E-02 0.  1.
    10030    2    1    2    0    0  0.00000000000E+00  0.00000000000E+00 -0.98062968507E+02  0.26052720104E+04  0.26034258012E+04 0.  0.
        3    1    3    3  502    0 -0.15452620914E+03 -0.78069430394E+03 -0.10798563945E+04  0.13414364646E+04  0.10100000352E+00 0.  1.
       -3    1    3    3    0  502  0.15452620914E+03  0.78069430394E+03  0.98179342599E+03  0.12638355459E+04  0.10100000352E+00 0. -1.
</event>
<event>
 5   0  0.6780984E-07  0.2600683E+04  0.7818609E-02  0.8367969E-01
        2   -1    0    0  501    0  0.00000000000E+00  0.00000000000E+00  0.12042994680E+04  0.12042994680E+04  0.25500000920E-02 0.  1.
       -2   -1    0    0    0  501  0.00000000000E+00  0.00000000000E+00 -0.14040426634E+04  0.14040426634E+04  0.25500000920E-02 0. -1.
    10030    2    1    2    0    0  0.00000000000E+00  0.00000000000E+00 -0.19974319544E+03  0.26083421314E+04  0.26006828584E+04 0.  0.
        2    1    3    3  502    0 -0.58198370292E+03 -0.10523224536E+04 -0.59610168731E+03  0.13421716725E+04  0.25500000920E-02 0.  1.
       -2    1    3    3    0  502  0.58198370292E+03  0.10523224536E+04  0.39635849187E+03  0.12661704589E+04  0.25500000920E-02 0. -1.
</event>
<event>
 5   0  0.6526351E-07  0.2592623E+04  0.7818609E-02  0.8370711E-01
       -2   -1    0    0    0  501  0.00000000000E+00  0.00000000000E+00  0.23687783005E+04  0.23687783005E+04  0.25500000920E-02 0.  1.
        2   -1    0    0  501    0  0.00000000000E+00  0.00000000000E+00 -0.70940489542E+03  0.70940489542E+03  0.25500000920E-02 0. -1.
    10030    2    1    2    0    0  0.00000000000E+00  0.00000000000E+00  0.16593734051E+04  0.30781831960E+04  0.25926225507E+04 0.  0.
        3    1    3    3  502    0 -0.79397059871E+03 -0.10088578598E+04  0.10428678403E+04  0.16540123444E+04  0.10100000352E+00 0. -1.
       -3    1    3    3    0  502  0.79397059871E+03  0.10088578598E+04  0.61650556480E+03  0.14241708516E+04  0.10100000352E+00 0.  1.
</event>
<event>
 5   0  0.7160320E-07  0.2598111E+04  0.7818609E-02  0.8368843E-01
        2   -1    0    0  501    0  0.00000000000E+00  0.00000000000E+00  0.12932364432E+04  0.12932364432E+04  0.25500000920E-02 0.  1.
       -2   -1    0    0    0  501  0.00000000000E+00  0.00000000000E+00 -0.13049004510E+04  0.13049004510E+04  0.25500000920E-02 0. -1.
    10030    2    1    2    0    0  0.00000000000E+00  0.00000000000E+00 -0.11664007757E+02  0.25981368942E+04  0.25981107120E+04 0.  0.
        1    1    3    3  502    0  0.69113709947E+03  0.16431969566E+03 -0.10934427826E+04  0.13039511384E+04  0.50400001928E-02 0. -1.
       -1    1    3    3    0  502 -0.69113709947E+03 -0.16431969566E+03  0.10817787748E+04  0.12941857557E+04  0.50400001928E-02 0.  1.
</event>
<event>
 5   0  0.6599814E-07  0.2600073E+04  0.7818609E-02  0.8368176E-01
        2   -1    0    0  501    0  0.00000000000E+00  0.00000000000E+00  0.13784308836E+04  0.13784308836E+04  0.25500000920E-02 0. -1.
       -2   -1    0    0    0  501  0.00000000000E+00  0.00000000000E+00 -0.12261007522E+04  0.12261007522E+04  0.25500000920E-02 0.  1.
    10030    2    1    2    0    0  0.00000000000E+00  0.00000000000E+00  0.15233013143E+03  0.26045316358E+04  0.26000731861E+04 0.  0.
        5    1    3    3  502    0 -0.98458844274E+03 -0.59902726732E+03 -0.52638528091E+03  0.12670247127E+04  0.46999998093E+01 0.  1.
       -5    1    3    3    0  502  0.98458844274E+03  0.59902726732E+03  0.67871541233E+03  0.13375069232E+04  0.46999998093E+01 0. -1.
</event>
<event>
 5   0  0.2755061E-07  0.2601454E+04  0.7818609E-02  0.8367708E-01
       -1   -1    0    0    0  501  0.00000000000E+00  0.00000000000E+00  0.91957597577E+03  0.91957597578E+03  0.50400001928E-02 0. -1.
        1   -1    0    0  501    0  0.00000000000E+00  0.00000000000E+00 -0.18398591848E+04  0.18398591848E+04  0.50400001928E-02 0.  1.
    10030    2    1    2    0    0  0.00000000000E+00  0.00000000000E+00 -0.92028320899E+03  0.27594351606E+04  0.26014536745E+04 0.  0.
        4    1    3    3  502    0 -0.53672788635E+03 -0.42415279479E+03 -0.16336283209E+04  0.17710803260E+04  0.12699999809E+01 0.  1.
       -4    1    3    3    0  502  0.53672788635E+03  0.42415279479E+03  0.71334511195E+03  0.98835483454E+03  0.12699999809E+01 0. -1.
</event>
<event>
 5   0  0.2864801E-07  0.2602517E+04  0.7818609E-02  0.8367347E-01
        1   -1    0    0  501    0  0.00000000000E+00  0.00000000000E+00  0.15730885049E+04  0.15730885049E+04  0.50400001928E-02 0.  1.
       -1   -1    0    0    0  501  0.00000000000E+00  0.00000000000E+00 -0.10764011055E+04  0.10764011055E+04  0.50400001928E-02 0. -1.
    10030    2    1    2    0    0  0.00000000000E+00  0.00000000000E+00  0.49668739942E+03  0.26494896104E+04  0.26025174010E+04 0.  0.
        5    1    3    3  502    0 -0.15034670114E+03  0.26303858584E+03  0.15366717087E+04  0.15662616188E+04  0.46999998093E+01 0.  1.
       -5    1    3    3    0  502  0.15034670114E+03 -0.26303858584E+03 -0.10399843093E+04  0.10832279916E+04  0.46999998093E+01 0. -1.
</event>
<event>
 5   0  0.6768478E-07  0.2600531E+04  0.7818609E-02  0.8368021E-01
        2   -1    0    0  501    0  0.00000000000E+00  0.00000000000E+00  0.27511883744E+04  0.27511883744E+04  0.25500000920E-02 0. -1.
       -2   -1    0    0    0  501  0.00000000000E+00  0.00000000000E+00 -0.61453105633E+03  0.61453105633E+03  0.25500000920E-02 0.  1.
    10030    2    1    2    0    0  0.00000000000E+00  0.00000000000E+00  0.21366573180E+04  0.33657194307E+04  0.26005312518E+04 0.  0.
        4    1    3    3  502    0  0.29151458819E+03 -0.45574243806E+03  0.25986073493E+04  0.26543254687E+04  0.12699999809E+01 0. -1.
       -4    1    3    3    0  502 -0.29151458819E+03  0.45574243806E+03 -0.46195003123E+03  0.71139396204E+03  0.12699999809E+01 0.  1.
</event>
<event>
 5   0  0.2755061E-07  0.2599360E+04  0.7818609E-02  0.8368419E-01
        1   -1    0    0  501    0  0.00000000000E+00  0.00000000000E+00  0.12170314402E+04  0.12170314402E+04  0.50400001928E-02 0. -1.
       -1   -1    0    0    0  501  0.00000000000E+00  0.00000000000E+00 -0.13879413565E+04  0.13879413565E+04  0.50400001928E-02 0.  1.
    10030    2    1    2    0    0  0.00000000000E+00  0.00000000000E+00 -0.17090991634E+03  0.26049727967E+04  0.25993601275E+04 0.  0.
        4    1    3    3  502    0 -0.13282737215E+03  0.12418907505E+04 -0.44571818766E+03  0.13261229440E+04  0.12699999809E+01 0.  1.
       -4    1    3    3    0  502  0.13282737215E+03 -0.12418907505E+04  0.27480827132E+03  0.12788498527E+04  0.12699999809E+01 0. -1.
</event>
<event>
 5   0  0.2623263E-07  0.2599746E+04  0.7818609E-02  0.8368287E-01
       -1   -1    0    0    0  501  0.00000000000E+00  0.00000000000E+00  0.80681565533E+03  0.80681565535E+03  0.50400001928E-02 0.  1.
        1   -1    0    0  501    0  0.00000000000E+00  0.00000000000E+00 -0.20942455113E+04  0.20942455113E+04  0.50400001928E-02 0. -1.
    10030    2    1    2    0    0  0.00000000000E+00  0.00000000000E+00 -0.12874298560E+04  0.29010611666E+04  0.25997461912E+04 0.  0.
        1    1    3    3  502    0  0.39097334075E+03 -0.74722928078E+03 -0.17475319799E+04  0.19403813471E+04  0.50400001928E-02 0. -1.
       -1    1    3    3    0  502 -0.39097334075E+03  0.74722928078E+03  0.46010212396E+03  0.96067981957E+03  0.50400001928E-02 0.  1.
</event>
<event>
 5   0  0.7160320E-07  0.2600481E+04  0.7818609E-02  0.8368038E-01
        2   -1    0    0  501    0  0.00000000000E+00  0.00000000000E+00  0.21250490505E+04  0.21250490505E+04  0.25500000920E-02 0.  1.
       -2   -1    0    0    0  501  0.00000000000E+00  0.00000000000E+00 -0.79556988342E+03  0.79556988342E+03  0.25500000920E-02 0. -1.
    10030    2    1    2    0    0  0.00000000000E+00  0.00000000000E+00  0.13294791671E+04  0.29206189339E+04  0.26004807443E+04 0.  0.
        1    1    3    3  502    0 -0.51071157078E+03  0.36909345758E+03 -0.61262834938E+03  0.87884571084E+03  0.50400001928E-02 0. -1.
       -1    1    3    3    0  502  0.51071157078E+03 -0.36909345758E+03  0.19421075165E+04  0.20417732231E+04  0.50400001928E-02 0.  1.
</event>
<event>
 5   0  0.2864801E-07  0.2599876E+04  0.7818609E-02  0.8368243E-01
        1   -1    0    0  501    0  0.00000000000E+00  0.00000000000E+00  0.18327853901E+04  0.18327853901E+04  0.50400001928E-02 0.  1.
       -1   -1    0    0    0  501  0.00000000000E+00  0.00000000000E+00 -0.92200616737E+03  0.92200616738E+03  0.50400001928E-02 0. -1.
    10030    2    1    2    0    0  0.00000000000E+00  0.00000000000E+00  0.91077922276E+03  0.27547915575E+04  0.25998764841E+04 0.  0.
        5    1    3    3  502    0 -0.11301855312E+04  0.34015550055E+03 -0.12185820804E+03  0.11865481922E+04  0.46999998093E+01 0. -1.
       -5    1    3    3    0  502  0.11301855312E+04 -0.34015550055E+03  0.10326374308E+04  0.15682433653E+04  0.46999998093E+01 0.  1.
</event>
<event>
 5   0  0.6768478E-07  0.2600591E+04  0.7818609E-02  0.8368000E-01
        2   -1    0    0  501    0  0.00000000000E+00  0.00000000000E+00  0.14501337938E+04  0.14501337938E+04  0.25500000920E-02 0. -1.
       -2   -1    0    0    0  501  0.00000000000E+00  0.00000000000E+00 -0.11659397269E+04  0.11659397269E+04  0.25500000920E-02 0.  1.
    10030    2    1    2    0    0  0.00000000000E+00  0.00000000000E+00  0.28419406688E+03  0.26160735207E+04  0.26005911632E+04 0.  0.
        4    1    3    3  502    0 -0.55080756337E+03  0.45300904685E+03 -0.95164812344E+03  0.11892190430E+04  0.12699999809E+01 0.  1.
       -4    1    3    3    0  502  0.55080756337E+03 -0.45300904685E+03  0.12358421903E+04  0.14268544777E+04  0.12699999809E+01 0. -1.
</event>
<event>
 5   0  0.7160320E-07  0.2599649E+04  0.7818609E-02  0.8368320E-01
        2   -1    0    0  501    0  0.00000000000E+00  0.00000000000E+00  0.23172395631E+04  0.23172395631E+04  0.25500000920E-02 0.  1.
       -2   -1    0    0    0  501  0.00000000000E+00  0.00000000000E+00 -0.72911920721E+03  0.72911920721E+03  0.25500000920E-02 0. -1.
    10030    2    1    2    0    0  0.00000000000E+00  0.00000000000E+00  0.15881203558E+04  0.30463587703E+04  0.25996491095E+04 0.  0.
        1    1    3    3  502    0 -0.47133608006E+03  0.64948562278E+03  0.19922887594E+04  0.21478369992E+04  0.50400001928E-02 0.  1.
       -1    1    3    3    0  502  0.47133608006E+03 -0.64948562278E+03 -0.40416840353E+03  0.89852177102E+03  0.50400001928E-02 0. -1.
</event>
<event>
 5   0  0.6526351E-07  0.2600610E+04  0.7818609E-02  0.8367994E-01
        2   -1    0    0  501    0  0.00000000000E+00  0.00000000000E+00  0.13567327193E+04  0.13567327193E+04  0.25500000920E-02 0.  1.
       -2   -1    0    0    0  501  0.00000000000E+00  0.00000000000E+00 -0.12462243859E+04  0.12462243859E+04  0.25500000920E-02 0. -1.
    10030    2    1    2    0    0  0.00000000000E+00  0.00000000000E+00  0.11050833339E+03  0.26029571053E+04  0.26006102361E+04 0.  0.
        3    1    3    3  502    0 -0.51740646388E+03 -0.56812515122E+03  0.11051611004E+04  0.13460522666E+04  0.10100000352E+00 0.  1.
       -3    1    3    3    0  502  0.51740646388E+03  0.56812515122E+03 -0.99465276704E+03  0.12569048387E+04  0.10100000352E+00 0. -1.
</event>
<event>
 5   0  0.6780984E-07  0.2598921E+04  0.7818609E-02  0.8368568E-01
       -2   -1    0    0    0  501  0.00000000000E+00  0.00000000000E+00  0.99661024672E+03  0.99661024672E+03  0.25500000920E-02 0. -1.
        2   -1    0    0  501    0  0.00000000000E+00  0.00000000000E+00 -0.16943411024E+04  0.16943411024E+04  0.25500000920E-02 0.  1.
    10030    2    1    2    0    0  0.00000000000E+00  0.00000000000E+00 -0.69773085565E+03  0.26909513491E+04  0.25989210870E+04 0.  0.
        2    1    3    3  502    0 -0.12264629148E+04  0.27641677694E+03 -0.68910497601E+03  0.14336956385E+04  0.25500000920E-02 0.  1.
       -2    1    3    3    0  502  0.12264629148E+04 -0.27641677694E+03 -0.86258796427E+01  0.12572557106E+04  0.25500000920E-02 0. -1.
</event>
<event>
 5   0  0.7160320E-07  0.2600159E+04  0.7818609E-02  0.8368147E-01
       -2   -1    0    0    0  501  0.00000000000E+00  0.00000000000E+00  0.11968186094E+04  0.11968186094E+04  0.25500000920E-02 0. -1.
        2   -1    0    0  501    0  0.00000000000E+00  0.00000000000E+00 -0.14122493570E+04  0.14122493570E+04  0.25500000920E-02 0.  1.
    10030    2    1    2    0    0  0.00000000000E+00  0.00000000000E+00 -0.21543074761E+03  0.26090679663E+04  0.26001586963E+04 0.  0.
        1    1    3    3  502    0 -0.96741707302E+03  0.58892083073E+03  0.53281564216E+03  0.12516453358E+04  0.50400001928E-02 0. -1.
       -1    1    3    3    0  502  0.96741707302E+03 -0.58892083073E+03 -0.74824638978E+03  0.13574226305E+04  0.50400001928E-02 0.  1.
</event>
<event>
 5   0  0.6599814E-07  0.2600506E+04  0.7818609E-02  0.8368029E-01
        2   -1    0    0  501    0  0.00000000000E+00  0.00000000000E+00  0.22946532972E+04  0.22946532972E+04  0.25500000920E-02 0. -1.
       -2   -1    0    0    0  501  0.00000000000E+00  0.00000000000E+00 -0.73678121447E+03  0.73678121447E+03  0.25500000920E-02 0.  1.
    10030    2    1    2    0    0  0.00000000000E+00  0.00000000000E+00  0.15578720827E+04  0.30314345117E+04  0.26005056763E+04 0.  0.
        5    1    3    3  502    0 -0.46140750510E+03  0.10829572313E+04  0.14226591201E+04  0.18465303443E+04  0.46999998093E+01 0. -1.
       -5    1    3    3    0  502  0.46140750510E+03 -0.10829572313E+04  0.13521296263E+03  0.11849041673E+04  0.46999998093E+01 0.  1.
</event>
<event>
 5   0  0.6780984E-07  0.2600117E+04  0.7818609E-02  0.8368161E-01
        2   -1    0    0  501    0  0.00000000000E+00  0.00000000000E+00  0.28869280458E+04  0.28869280458E+04  0.25500000920E-02 0.  1.
       -2   -1    0    0    0  501  0.00000000000E+00  0.00000000000E+00 -0.58545010763E+03  0.58545010763E+03  0.25500000920E-02 0. -1.
    10030    2    1    2    0    0  0.00000000000E+00  0.00000000000E+00  0.23014779382E+04  0.34723781534E+04  0.26001171782E+04 0.  0.
        2    1    3    3  502    0  0.11730289731E+04  0.16347772674E+03  0.43475971027E+03  0.12616409729E+04  0.25500000920E-02 0. -1.
       -2    1    3    3    0  502 -0.11730289731E+04 -0.16347772674E+03  0.18667182279E+04  0.22107371805E+04  0.25500000920E-02 0.  1.
</event>
<event>
 5   0  0.2641626E-07  0.2599904E+04  0.7818609E-02  0.8368234E-01
       -1   -1    0    0    0  501  0.00000000000E+00  0.00000000000E+00  0.11172966205E+04  0.11172966205E+04  0.50400001928E-02 0.  1.
        1   -1    0    0  501    0  0.00000000000E+00  0.00000000000E+00 -0.15124676154E+04  0.15124676154E+04  0.50400001928E-02 0. -1.
    10030    2    1    2    0    0  0.00000000000E+00  0.00000000000E+00 -0.39517099489E+03  0.26297642358E+04  0.25999038099E+04 0.  0.
        3    1    3    3  502    0 -0.11274461011E+04  0.28413330858E+03  0.39047680961E+03  0.12265148172E+04  0.10100000352E+00 0.  1.
       -3    1    3    3    0  502  0.11274461011E+04 -0.28413330858E+03 -0.78564780450E+03  0.14032494186E+04  0.10100000352E+00 0. -1.
</event>
<event>
 5   0  0.2623263E-07  0.2599766E+04  0.7818609E-02  0.8368281E-01
        1   -1    0    0  501    0  0.00000000000E+00  0.00000000000E+00  0.85947632706E+03  0.85947632707E+03  0.50400001928E-02 0.  1.
       -1   -1    0    0    0  501  0.00000000000E+00  0.00000000000E+00 -0.19659595417E+04  0.19659595417E+04  0.50400001928E-02 0. -1.
    10030    2    1    2    0    0  0.00000000000E+00  0.00000000000E+00 -0.11064832146E+04  0.28254358687E+04  0.25997659018E+04 0.  0.
        1    1    3    3  502    0  0.50072014754E+03  0.37669517249E+03 -0.17909943110E+04  0.18974405238E+04  0.50400001928E-02 0. -1.
       -1    1    3    3    0  502 -0.50072014754E+03 -0.37669517249E+03  0.68451109642E+03  0.92799534497E+03  0.50400001928E-02 0.  1.
</event>
<event>
 5   0  0.6780984E-07  0.2599329E+04  0.7818609E-02  0.8368429E-01
       -2   -1    0    0    0  501  0.00000000000E+00  0.00000000000E+00  0.10810462351E+04  0.10810462351E+04  0.25500000920E-02 0.  1.
        2   -1    0    0  501    0  0.00000000000E+00  0.00000000000E+00 -0.15624932156E+04  0.15624932156E+04  0.25500000920E-02 0. -1.
    10030    2    1    2    0    0  0.00000000000E+00  0.00000000000E+00 -0.48144698055E+03  0.26435394507E+04  0.25993286888E+04 0.  0.
        2    1    3    3  502    0 -0.11554687647E+04  0.52069288722E+03  0.52094193469E+02  0.12684411512E+04  0.25500000920E-02 0. -1.
       -2    1    3    3    0  502  0.11554687647E+04 -0.52069288722E+03 -0.53354117402E+03  0.13750982995E+04  0.25500000920E-02 0.  1.
</event>
<event>
 5   0  0.6599814E-07  0.2599676E+04  0.7818609E-02  0.8368311E-01
        2   -1    0    0  501    0  0.00000000000E+00  0.00000000000E+00  0.20231267654E+04  0.20231267654E+04  0.25500000920E-02 0.  1.
       -2   -1    0    0    0  501  0.00000000000E+00  0.00000000000E+00 -0.83513252306E+03  0.83513252306E+03  0.25500000920E-02 0. -1.
    10030    2    1    2    0    0  0.00000000000E+00  0.00000000000E+00  0.11879942423E+04  0.28582592885E+04  0.25996761029E+04 0.  0.
        5    1    3    3  502    0 -0.86242940318E+03  0.10667696147E+03  0.16567860824E+04  0.18708625450E+04  0.46999998093E+01 0.  1.
       -5    1    3    3    0  502  0.86242940318E+03 -0.10667696147E+03 -0.46879184007E+03  0.98739674341E+03  0.46999998093E+01 0. -1.
</event>
<event>
 5   0  0.6599814E-07  0.2600195E+04  0.7818609E-02  0.8368135E-01
        2   -1    0    0  501    0  0.00000000000E+00  0.00000000000E+00  0.16737764296E+04  0.16737764296E+04  0.25500000920E-02 0.  1.
       -2   -1    0    0    0  501  0.00000000000E+00  0.00000000000E+00 -0.10098438751E+04  0.10098438751E+04  0.25500000920E-02 0. -1.
    10030    2    1    2    0    0  0.00000000000E+00  0.00000000000E+00  0.66393255447E+03  0.26836203047E+04  0.26001945126E+04 0.  0.
        5    1    3    3  502    0 -0.72170514596E+03 -0.32420568500E+03 -0.73276433961E+03  0.10783938572E+04  0.46999998093E+01 0. -1.
       -5    1    3    3    0  502  0.72170514596E+03  0.32420568500E+03  0.13966968941E+04  0.16052264475E+04  0.46999998093E+01 0.  1.
</event>
<event>
 5   0  0.2755061E-07  0.2599932E+04  0.7818609E-02  0.8368224E-01
        1   -1    0    0  501    0  0.00000000000E+00  0.00000000000E+00  0.17008379436E+04  0.17008379436E+04  0.50400001928E-02 0. -1.
       -1   -1    0    0    0  501  0.00000000000E+00  0.00000000000E+00 -0.99357568279E+03  0.99357568280E+03  0.50400001928E-02 0.  1.
    10030    2    1    2    0    0  0.00000000000E+00  0.00000000000E+00  0.70726226085E+03  0.26944136264E+04  0.25999317077E+04 0.  0.
        4    1    3    3  502    0  0.97484450212E+03 -0.10494360656E+03  0.12382156853E+04  0.15794032607E+04  0.12699999809E+01 0. -1.
       -4    1    3    3    0  502 -0.97484450212E+03  0.10494360656E+03 -0.53095342442E+03  0.11150103657E+04  0.12699999809E+01 0.  1.
</event>
<event>
 5   0  0.2864801E-07  0.2600520E+04  0.7818609E-02  0.8368025E-01
       -1   -1    0    0    0  501  0.00000000000E+00  0.00000000000E+00  0.67409608042E+03  0.67409608044E+03  0.50400001928E-02 0. -1.
        1   -1    0    0  501    0  0.00000000000E+00  0.00000000000E+00 -0.25080634026E+04  0.25080634026E+04  0.50400001928E-02 0.  1.
    10030    2    1    2    0    0  0.00000000000E+00  0.00000000000E+00 -0.18339673222E+04  0.31821594831E+04  0.26005197244E+04 0.  0.
        5    1    3    3  502    0  0.14614064993E+02 -0.86903763732E+03  0.26637720831E+03  0.90907584562E+03  0.46999998093E+01 0. -1.
       -5    1    3    3    0  502 -0.14614064993E+02  0.86903763732E+03 -0.21003445305E+04  0.22730836375E+04  0.46999998093E+01 0.  1.
</event>
<event>
 5   0  0.7160320E-07  0.2599644E+04  0.7818609E-02  0.8368322E-01
       -2   -1    0    0    0  501  0.00000000000E+00  0.00000000000E+00  0.89592295197E+03  0.89592295197E+03  0.25500000920E-02 0. -1.
        2   -1    0    0  501    0  0.00000000000E+00  0.00000000000E+00 -0.18858068985E+04  0.18858068985E+04  0.25500000920E-02 0.  1.
    10030    2    1    2    0    0  0.00000000000E+00  0.00000000000E+00 -0.98988394651E+03  0.27817298505E+04  0.25996443475E+04 0.  0.
        1    1    3    3  502    0  0.15217622202E+03  0.30639499949E+03  0.84688538596E+03  0.91337306466E+03  0.50400001928E-02 0. -1.
       -1    1    3    3    0  502 -0.15217622202E+03 -0.30639499949E+03 -0.18367693325E+04  0.18683567858E+04  0.50400001928E-02 0.  1.
</event>
<event>
 5   0  0.6768478E-07  0.2600316E+04  0.7818609E-02  0.8368094E-01
       -2   -1    0    0    0  501  0.00000000000E+00  0.00000000000E+00  0.11965879863E+04  0.11965879863E+04  0.25500000920E-02 0.  1.
        2   -1    0    0  501    0  0.00000000000E+00  0.00000000000E+00 -0.14126921011E+04  0.14126921011E+04  0.25500000920E-02 0. -1.
    10030    2    1    2    0    0  0.00000000000E+00  0.00000000000E+00 -0.21610411482E+03  0.26092800873E+04  0.26003156704E+04 0.  0.
        4    1    3    3  502    0 -0.10848415814E+04 -0.51843341258E+03  0.38837999350E+03  0.12635248681E+04  0.12699999809E+01 0.  1.
       -4    1    3    3    0  502  0.10848415814E+04  0.51843341258E+03 -0.60448410832E+03  0.13457552192E+04  0.12699999809E+01 0. -1.
</event>
<event>
 5   0  0.6780984E-07  0.2599159E+04  0.7818609E-02  0.8368487E-01
       -2   -1    0    0    0  501  0.00000000000E+00  0.00000000000E+00  0.61980749995E+03  0.61980749996E+03  0.25500000920E-02 0. -1.
        2   -1    0    0  501    0  0.00000000000E+00  0.00000000000E+00 -0.27248902885E+04  0.27248902885E+04  0.25500000920E-02 0.  1.
    10030    2    1    2    0    0  0.00000000000E+00  0.00000000000E+00 -0.21050827886E+04  0.33446977885E+04  0.25991594313E+04 0.  0.
        2    1    3    3  502    0 -0.52955221610E+03  0.95714962544E+03 -0.14960037479E+03  0.11040567138E+04  0.25500000920E-02 0. -1.
       -2    1    3    3    0  502  0.52955221610E+03 -0.95714962544E+03 -0.19554824138E+04  0.22406410747E+04  0.25500000920E-02 0.  1.
</event>
<event>
 5   0  0.6780984E-07  0.2599671E+04  0.7818609E-02  0.8368313E-01
       -2   -1    0    0    0  501  0.00000000000E+00  0.00000000000E+00  0.10789664041E+04  0.10789664041E+04  0.25500000920E-02 0.  1.
        2   -1    0    0  501    0  0.00000000000E+00  0.00000000000E+00 -0.15659175630E+04  0.15659175630E+04  0.25500000920E-02 0. -1.
    10030    2    1    2    0    0  0.00000000000E+00  0.00000000000E+00 -0.48695115882E+03  0.26448839671E+04  0.25996710885E+04 0.  0.
        2    1    3    3  502    0  0.49842896981E+03  0.32368747490E+03 -0.14195942916E+04  0.15389778985E+04  0.25500000920E-02 0. -1.
       -2    1    3    3    0  502 -0.49842896981E+03 -0.32368747490E+03  0.93264313279E+03  0.11059060686E+04  0.25500000920E-02 0.  1.
</event>
<event>
 5   0  0.2793576E-07  0.2599366E+04  0.7818609E-02  0.8368417E-01
        1   -1    0    0  501    0  0.00000000000E+00  0.00000000000E+00  0.17323759933E+04  0.17323759933E+04  0.50400001928E-02 0.  1.
       -1   -1    0    0    0  501  0.00000000000E+00  0.00000000000E+00 -0.97506299016E+03  0.97506299018E+03  0.50400001928E-02 0. -1.
    10030    2    1    2    0    0  0.00000000000E+00  0.00000000000E+00  0.75731300313E+03  0.27074389835E+04  0.25993658582E+04 0.  0.
        2    1    3    3  502    0  0.16898893709E+03 -0.60551905860E+03 -0.80616398044E+03  0.10223066832E+04  0.25500000920E-02 0. -1.
       -2    1    3    3    0  502 -0.16898893709E+03  0.60551905860E+03  0.15634769836E+04  0.16851323003E+04  0.25500000920E-02 0.  1.
</event>
<event>
 5   0  0.2641626E-07  0.2600214E+04  0.7818609E-02  0.8368129E-01
        1   -1    0    0  501    0  0.00000000000E+00  0.00000000000E+00  0.21817505525E+04  0.21817505526E+04  0.50400001928E-02 0. -1.
       -1   -1    0    0    0  501  0.00000000000E+00  0.00000000000E+00 -0.77473488212E+03  0.77473488213E+03  0.50400001928E-02 0.  1.
    10030    2    1    2    0    0  0.00000000000E+00  0.00000000000E+00  0.14070156704E+04  0.29564854347E+04  0.26002140352E+04 0.  0.
        3    1    3    3  502    0 -0.32578794342E+02  0.42265578975E+03 -0.69394886479E+03  0.81318161047E+03  0.10100000352E+00 0.  1.
       -3    1    3    3    0  502  0.32578794342E+02 -0.42265578975E+03  0.21009645352E+04  0.21433038242E+04  0.10100000352E+00 0. -1.
</event>
<event>
 5   0  0.6599814E-07  0.2601295E+04  0.7818609E-02  0.8367762E-01
       -2   -1    0    0    0  501  0.00000000000E+00  0.00000000000E+00  0.11253455668E+04  0.11253455668E+04  0.25500000920E-02 0.  1.
        2   -1    0    0  501    0  0.00000000000E+00  0.00000000000E+00 -0.15032569062E+04  0.15032569062E+04  0.25500000920E-02 0. -1.
    10030    2    1    2    0    0  0.00000000000E+00  0.00000000000E+00 -0.37791133934E+03  0.26286024730E+04  0.26012946739E+04 0.  0.
        5    1    3    3  502    0  0.58075277461E+02 -0.47350550692E+03  0.10337387855E+04  0.11385157749E+04  0.46999998093E+01 0.  1.
       -5    1    3    3    0  502 -0.58075277461E+02  0.47350550692E+03 -0.14116501248E+04  0.14900866981E+04  0.46999998093E+01 0. -1.
</event>
<event>
 5   0  0.7160320E-07  0.2599379E+04  0.7818609E-02  0.8368412E-01
        2   -1    0    0  501    0  0.00000000000E+00  0.00000000000E+00  0.13820631920E+04  0.13820631920E+04  0.25500000920E-02 0. -1.
       -2   -1    0    0    0  501  0.00000000000E+00  0.00000000000E+00 -0.12222250945E+04  0.12222250945E+04  0.25500000920E-02 0.  1.
    10030    2    1    2    0    0  0.00000000000E+00  0.00000000000E+00  0.15983809758E+03  0.26042882865E+04  0.25993786300E+04 0.  0.
        1    1    3    3  502    0  0.29611470982E+03 -0.89362864252E+03  0.97767862073E+03  0.13572441039E+04  0.50400001928E-02 0. -1.
       -1    1    3    3    0  502 -0.29611470982E+03  0.89362864252E+03 -0.81784052315E+03  0.12470441826E+04  0.50400001928E-02 0.  1.
</event>
<event>
 5   0  0.2755061E-07  0.2601009E+04  0.7818609E-02  0.8367858E-01
       -1   -1    0    0    0  501  0.00000000000E+00  0.00000000000E+00  0.14194453884E+04  0.14194453884E+04  0.50400001928E-02 0.  1.
        1   -1    0    0  501    0  0.00000000000E+00  0.00000000000E+00 -0.11915303477E+04  0.11915303477E+04  0.50400001928E-02 0. -1.
    10030    2    1    2    0    0  0.00000000000E+00  0.00000000000E+00  0.22791504074E+03  0.26109757361E+04  0.26010092327E+04 0.  0.
        4    1    3    3  502    0 -0.36160057085E+03 -0.28473174829E+03 -0.11070434401E+04  0.11989053059E+04  0.12699999809E+01 0. -1.
       -4    1    3    3    0  502  0.36160057085E+03  0.28473174829E+03  0.13349584809E+04  0.14120704302E+04  0.12699999809E+01 0.  1.
</event>
<event>
 5   0  0.2641626E-07  0.2601747E+04  0.7818609E-02  0.8367608E-01
       -1   -1    0    0    0  501  0.00000000000E+00  0.00000000000E+00  0.78361982909E+03  0.78361982911E+03  0.50400001928E-02 0. -1.
        1   -1    0    0  501    0  0.00000000000E+00  0.00000000000E+00 -0.21595575513E+04  0.21595575513E+04  0.50400001928E-02 0.  1.
    10030    2    1    2    0    0  0.00000000000E+00  0.00000000000E+00 -0.13759377222E+04  0.29431773804E+04  0.26017471970E+04 0.  0.
        3    1    3    3  502    0  0.92117046541E+02  0.37002806660E+03 -0.20949156058E+04  0.21293373913E+04  0.10100000352E+00 0.  1.
       -3    1    3    3    0  502 -0.92117046541E+02 -0.37002806660E+03  0.71897788368E+03  0.81383998904E+03  0.10100000352E+00 0. -1.
</event>
<event>
 5   0  0.6599814E-07  0.2602741E+04  0.7818609E-02  0.8367271E-01
       -2   -1    0    0    0  501  0.00000000000E+00  0.00000000000E+00  0.72750093822E+03  0.72750093822E+03  0.25500000920E-02 0. -1.
        2   -1    0    0  501    0  0.00000000000E+00  0.00000000000E+00 -0.23279220893E+04  0.23279220893E+04  0.25500000920E-02 0.  1.
    10030    2    1    2    0    0  0.00000000000E+00  0.00000000000E+00 -0.16004211511E+04  0.30554230275E+04  0.26027412504E+04 0.  0.
        5    1    3    3  502    0  0.55657844537E+03  0.53091786821E+03 -0.20324908198E+04  0.21731761022E+04  0.46999998093E+01 0.  1.
       -5    1    3    3    0  502 -0.55657844537E+03 -0.53091786821E+03  0.43206966870E+03  0.88224692533E+03  0.46999998093E+01 0. -1.
</event>
<event>
 5   0  0.6599814E-07  0.2599481E+04  0.7818609E-02  0.8368377E-01
       -2   -1    0    0    0  501  0.00000000000E+00  0.00000000000E+00  0.14190611023E+04  0.14190611023E+04  0.25500000920E-02 0. -1.
        2   -1    0    0  501    0  0.00000000000E+00  0.00000000000E+00 -0.11904533306E+04  0.11904533306E+04  0.25500000920E-02 0.  1.
    10030    2    1    2    0    0  0.00000000000E+00  0.00000000000E+00  0.22860777173E+03  0.26095144329E+04  0.25994814988E+04 0.  0.
        5    1    3    3  502    0 -0.11301586404E+04 -0.48831501532E+01 -0.53006257379E+03  0.12483071817E+04  0.46999998093E+01 0.  1.
       -5    1    3    3    0  502  0.11301586404E+04  0.48831501532E+01  0.75867034551E+03  0.13612072513E+04  0.46999998093E+01 0. -1.
</event>
<event>
 5   0  0.6780984E-07  0.2599292E+04  0.7818609E-02  0.8368442E-01
        2   -1    0    0  501    0  0.00000000000E+00  0.00000000000E+00  0.15314540437E+04  0.15314540437E+04  0.25500000920E-02 0.  1.
       -2   -1    0    0    0  501  0.00000000000E+00  0.00000000000E+00 -0.11029256225E+04  0.11029256225E+04  0.25500000920E-02 0. -1.
    10030    2    1    2    0    0  0.00000000000E+00  0.00000000000E+00  0.42852842118E+03  0.26343796662E+04  0.25992921379E+04 0.  0.
        2    1    3    3  502    0  0.28057302794E+03  0.10771132741E+04  0.89428017465E+03  0.14278064505E+04  0.25500000920E-02 0.  1.
       -2    1    3    3    0  502 -0.28057302794E+03 -0.10771132741E+04 -0.46575175347E+03  0.12065732158E+04  0.25500000920E-02 0. -1.
</event>
<event>
 5   0  0.6768478E-07  0.2600306E+04  0.7818609E-02  0.8368097E-01
       -2   -1    0    0    0  501  0.00000000000E+00  0.00000000000E+00  0.92525179980E+03  0.92525179980E+03  0.25500000920E-02 0.  1.
        2   -1    0    0  501    0  0.00000000000E+00  0.00000000000E+00 -0.18269598131E+04  0.18269598131E+04  0.25500000920E-02 0. -1.
    10030    2    1    2    0    0  0.00000000000E+00  0.00000000000E+00 -0.90170801334E+03  0.27522116129E+04  0.26003060245E+04 0.  0.
        4    1    3    3  502    0  0.60265971634E+03  0.29046439486E+03 -0.16308019988E+04  0.17626925627E+04  0.12699999809E+01 0. -1.
       -4    1    3    3    0  502 -0.60265971634E+03 -0.29046439486E+03  0.72909398543E+03  0.98951905028E+03  0.12699999809E+01 0.  1.
</event>
<event>
 5   0  0.2623263E-07  0.2600164E+04  0.7818609E-02  0.8368145E-01
        1   -1    0    0  501    0  0.00000000000E+00  0.00000000000E+00  0.22033734137E+04  0.22033734137E+04  0.50400001928E-02 0.  1.
       -1   -1    0    0    0  501  0.00000000000E+00  0.00000000000E+00 -0.76710277280E+03  0.76710277281E+03  0.50400001928E-02 0. -1.
    10030    2    1    2    0    0  0.00000000000E+00  0.00000000000E+00  0.14362706409E+04  0.29704761865E+04  0.26001644988E+04 0.  0.
        1    1    3    3  502    0  0.67220209316E+03 -0.35424688114E+03 -0.48703090152E+03  0.90252180357E+03  0.50400001928E-02 0. -1.
       -1    1    3    3    0  502 -0.67220209316E+03  0.35424688114E+03  0.19233015424E+04  0.20679543829E+04  0.50400001928E-02 0.  1.
</event>
<event>
 5   0  0.2623263E-07  0.2599840E+04  0.7818609E-02  0.8368256E-01
       -1   -1    0    0    0  501  0.00000000000E+00  0.00000000000E+00  0.77326776043E+03  0.77326776044E+03  0.50400001928E-02 0. -1.
        1   -1    0    0  501    0  0.00000000000E+00  0.00000000000E+00 -0.21852609664E+04  0.21852609664E+04  0.50400001928E-02 0.  1.
    10030    2    1    2    0    0  0.00000000000E+00  0.00000000000E+00 -0.14119932060E+04  0.29585287269E+04  0.25998398824E+04 0.  0.
        1    1    3    3  502    0  0.10751874889E+04 -0.73057034273E+03 -0.71230092380E+03  0.14822731759E+04  0.50400001928E-02 0.  1.
       -1    1    3    3    0  502 -0.10751874889E+04  0.73057034273E+03 -0.69969228220E+03  0.14762555510E+04  0.50400001928E-02 0. -1.
</event>
<event>
 5   0  0.2641626E-07  0.2600288E+04  0.7818609E-02  0.8368103E-01
       -1   -1    0    0    0  501  0.00000000000E+00  0.00000000000E+00  0.67054745314E+03  0.67054745316E+03  0.50400001928E-02 0. -1.
        1   -1    0    0  501    0  0.00000000000E+00  0.00000000000E+00 -0.25208868752E+04  0.25208868752E+04  0.50400001928E-02 0.  1.
    10030    2    1    2    0    0  0.00000000000E+00  0.00000000000E+00 -0.18503394221E+04  0.31914343284E+04  0.26002878870E+04 0.  0.
        3    1    3    3  502    0 -0.98389218332E+03  0.27619940679E+03  0.61326988348E+02  0.10237631320E+04  0.10100000352E+00 0. -1.
       -3    1    3    3    0  502  0.98389218332E+03 -0.27619940679E+03 -0.19116664104E+04  0.21676711964E+04  0.10100000352E+00 0.  1.
</event>
<event>
 5   0  0.7160320E-07  0.2599451E+04  0.7818609E-02  0.8368388E-01
       -2   -1    0    0    0  501  0.00000000000E+00  0.00000000000E+00  0.12340945814E+04  0.12340945814E+04  0.25500000920E-02 0. -1.
        2   -1    0    0  501    0  0.00000000000E+00  0.00000000000E+00 -0.13688467197E+04  0.13688467197E+04  0.25500000920E-02 0.  1.
    10030    2    1    2    0    0  0.00000000000E+00  0.00000000000E+00 -0.13475213835E+03  0.26029413011E+04  0.25994509571E+04 0.  0.
        1    1    3    3  502    0 -0.48574094574E+03 -0.11414215221E+04  0.32108678681E+03  0.12813602468E+04  0.50400001928E-02 0. -1.
       -1    1    3    3    0  502  0.48574094574E+03  0.11414215221E+04 -0.45583892517E+03  0.13215810543E+04  0.50400001928E-02 0.  1.
</event>
<event>
 5   0  0.6768478E-07  0.2597767E+04  0.7818609E-02  0.8368960E-01
        2   -1    0    0  501    0  0.00000000000E+00  0.00000000000E+00  0.17549965817E+04  0.17549965817E+04  0.25500000920E-02 0. -1.
       -2   -1    0    0    0  501  0.00000000000E+00  0.00000000000E+00 -0.96131130702E+03  0.96131130702E+03  0.25500000920E-02 0.  1.
    10030    2    1    2    0    0  0.00000000000E+00  0.00000000000E+00  0.79368527472E+03  0.27163078888E+04  0.25977667777E+04 0.  0.
        4    1    3    3  502    0 -0.12391414047E+04  0.24884063576E+03  0.83670441800E+02  0.12666473221E+04  0.12699999809E+01 0.  1.
       -4    1    3    3    0  502  0.12391414047E+04 -0.24884063576E+03  0.71001483292E+03  0.14496605667E+04  0.12699999809E+01 0. -1.
</event>
<event>
 5   0  0.2755061E-07  0.2600269E+04  0.7818609E-02  0.8368110E-01
       -1   -1    0    0    0  501  0.00000000000E+00  0.00000000000E+00  0.91828912149E+03  0.91828912151E+03  0.50400001928E-02 0.  1.
        1   -1    0    0  501    0  0.00000000000E+00  0.00000000000E+00 -0.18407600159E+04  0.18407600159E+04  0.50400001928E-02 0. -1.
    10030    2    1    2    0    0  0.00000000000E+00  0.00000000000E+00 -0.92247089439E+03  0.27590491374E+04  0.26002691383E+04 0.  0.
        4    1    3    3  502    0  0.50041299573E+03  0.10785885642E+04 -0.10192595460E+04  0.15660964505E+04  0.12699999809E+01 0. -1.
       -4    1    3    3    0  502 -0.50041299573E+03 -0.10785885642E+04  0.96788651625E+02  0.11929526869E+04  0.12699999809E+01 0.  1.
</event>
<event>
 5   0  0.2864801E-07  0.2600497E+04  0.7818609E-02  0.8368033E-01
        1   -1    0    0  501    0  0.00000000000E+00  0.00000000000E+00  0.23470470993E+04  0.23470470993E+04  0.50400001928E-02 0. -1.
       -1   -1    0    0    0  501  0.00000000000E+00  0.00000000000E+00 -0.72032878123E+03  0.72032878125E+03  0.50400001928E-02 0.  1.
    10030    2    1    2    0    0  0.00000000000E+00  0.00000000000E+00  0.16267183180E+04  0.30673758805E+04  0.26004965499E+04 0.  0.
        5    1    3    3  502    0  0.50708639950E+03  0.10402316236E+04  0.15125805547E+04  0.19045053089E+04  0.46999998093E+01 0. -1.
       -5    1    3    3    0  502 -0.50708639950E+03 -0.10402316236E+04  0.11413776339E+03  0.11628705716E+04  0.46999998093E+01 0.  1.
</event>
<event>
 5   0  0.7160320E-07  0.2599400E+04  0.7818609E-02  0.8368405E-01
       -2   -1    0    0    0  501  0.00000000000E+00  0.00000000000E+00  0.14307902529E+04  0.14307902529E+04  0.25500000920E-02 0. -1.
        2   -1    0    0  501    0  0.00000000000E+00  0.00000000000E+00 -0.11806206365E+04  0.11806206365E+04  0.25500000920E-02 0.  1.
    10030    2    1    2    0    0  0.00000000000E+00  0.00000000000E+00  0.25016961645E+03  0.26114108894E+04  0.25994003148E+04 0.  0.
        1    1    3    3  502    0  0.67021958680E+03  0.33224626205E+03  0.11928402919E+04  0.14079949698E+04  0.50400001928E-02 0. -1.
       -1    1    3    3    0  502 -0.67021958680E+03 -0.33224626205E+03 -0.94267067542E+03  0.12034159196E+04  0.50400001928E-02 0.  1.
</event>
<event>
 5   0  0.2641626E-07  0.2599945E+04  0.7818609E-02  0.8368220E-01
        1   -1    0    0  501    0  0.00000000000E+00  0.00000000000E+00  0.17191805156E+04  0.17191805156E+04  0.50400001928E-02 0.  1.
       -1   -1    0    0    0  501  0.00000000000E+00  0.00000000000E+00 -0.98298455973E+03  0.98298455974E+03  0.50400001928E-02 0. -1.
    10030    2    1    2    0    0  0.00000000000E+00  0.00000000000E+00  0.73619595585E+03  0.27021650753E+04  0.25999445396E+04 0.  0.
        3    1    3    3  502    0 -0.90260930223E+03 -0.91196568870E+03  0.15122443300E+03  0.12919960562E+04  0.10100000352E+00 0.  1.
       -3    1    3    3    0  502  0.90260930223E+03  0.91196568870E+03  0.58497152286E+03  0.14101690192E+04  0.10100000352E+00 0. -1.
</event>
<event>
 5   0  0.6780984E-07  0.2599748E+04  0.7818609E-02  0.8368287E-01
        2   -1    0    0  501    0  0.00000000000E+00  0.00000000000E+00  0.14337342682E+04  0.14337342682E+04  0.25500000920E-02 0. -1.
       -2   -1    0    0    0  501  0.00000000000E+00  0.00000000000E+00 -0.11785119090E+04  0.11785119090E+04  0.25500000920E-02 0.  1.
    10030    2    1    2    0    0  0.00000000000E+00  0.00000000000E+00  0.25522235918E+03  0.26122461772E+04  0.25997483796E+04 0.  0.
        2    1    3    3  502    0  0.76800460074E+03 -0.72740881298E+03  0.88670187940E+03  0.13802879667E+04  0.25500000920E-02 0. -1.
       -2    1    3    3    0  502 -0.76800460074E+03  0.72740881298E+03 -0.63147952022E+03  0.12319582105E+04  0.25500000920E-02 0.  1.
</event>
<event>
 5   0  0.6780984E-07  0.2600004E+04  0.7818609E-02  0.8368200E-01
        2   -1    0    0  501    0  0.00000000000E+00  0.00000000000E+00  0.14566230892E+04  0.14566230892E+04  0.25500000920E-02 0. -1.
       -2   -1    0    0    0  501  0.00000000000E+00  0.00000000000E+00 -0.11602216531E+04  0.11602216531E+04  0.25500000920E-02 0.  1.
    10030    2    1    2    0    0  0.00000000000E+00  0.00000000000E+00  0.29640143609E+03  0.26168447424E+04  0.26000043450E+04 0.  0.
        2    1    3    3  502    0 -0.16801710087E+02  0.93042643404E+03  0.10618413278E+04  0.14119074517E+04  0.25500000920E-02 0. -1.
       -2    1    3    3    0  502  0.16801710087E+02 -0.93042643404E+03 -0.76543989173E+03  0.12049372907E+04  0.25500000920E-02 0.  1.
</event>
<event>
 5   0  0.6768478E-07  0.2598950E+04  0.7818609E-02  0.8368558E-01
        2   -1    0    0  501    0  0.00000000000E+00  0.00000000000E+00  0.75464957626E+03  0.75464957627E+03  0.25500000920E-02 0.  1.
       -2   -1    0    0    0  501  0.00000000000E+00  0.00000000000E+00 -0.22376421270E+04  0.22376421270E+04  0.25500000920E-02 0. -1.
    10030    2    1    2    0    0  0.00000000000E+00  0.00000000000E+00 -0.14829925508E+04  0.29922917033E+04  0.25989503135E+04 0.  0.
        4    1    3    3  502    0  0.97554541408E+03 -0.59735438789E+02 -0.17274795832E+04  0.19848033910E+04  0.12699999809E+01 0. -1.
       -4    1    3    3    0  502 -0.97554541408E+03  0.59735438789E+02  0.24448703241E+03  0.10074883123E+04  0.12699999809E+01 0.  1.
</event>
<event>
 5   0  0.6599814E-07  0.2600025E+04  0.7818609E-02  0.8368193E-01
       -2   -1    0    0    0  501  0.00000000000E+00  0.00000000000E+00  0.97041953203E+03  0.97041953203E+03  0.25500000920E-02 0.  1.
        2   -1    0    0  501    0  0.00000000000E+00  0.00000000000E+00 -0.17415486284E+04  0.17415486284E+04  0.25500000920E-02 0. -1.
    10030    2    1    2    0    0  0.00000000000E+00  0.00000000000E+00 -0.77112909642E+03  0.27119681605E+04  0.26000252345E+04 0.  0.
        5    1    3    3  502    0  0.25456794347E+03 -0.10567311906E+04 -0.11293765928E+04  0.15674818103E+04  0.46999998093E+01 0. -1.
       -5    1    3    3    0  502 -0.25456794347E+03  0.10567311906E+04  0.35824749641E+03  0.11444863502E+04  0.46999998093E+01 0.  1.
</event>
<event>
 5   0  0.7160320E-07  0.2600447E+04  0.7818609E-02  0.8368049E-01
        2   -1    0    0  501    0  0.00000000000E+00  0.00000000000E+00  0.17558905103E+04  0.17558905104E+04  0.25500000920E-02 0. -1.
       -2   -1    0    0    0  501  0.00000000000E+00  0.00000000000E+00 -0.96280573598E+03  0.96280573598E+03  0.25500000920E-02 0.  1.
    10030    2    1    2    0    0  0.00000000000E+00  0.00000000000E+00  0.79308477437E+03  0.27186962463E+04  0.26004472347E+04 0.  0.
        1    1    3    3  502    0 -0.26972048196E+02  0.88909393691E+03  0.13880153110E+04  0.16485757561E+04  0.50400001928E-02 0. -1.
       -1    1    3    3    0  502  0.26972048196E+02 -0.88909393691E+03 -0.59493053667E+03  0.10701204902E+04  0.50400001928E-02 0.  1.
</event>
<event>
 5   0  0.6599814E-07  0.2601794E+04  0.7818609E-02  0.8367592E-01
        2   -1    0    0  501    0  0.00000000000E+00  0.00000000000E+00  0.21985119525E+04  0.21985119525E+04  0.25500000920E-02 0.  1.
       -2   -1    0    0    0  501  0.00000000000E+00  0.00000000000E+00 -0.76976300206E+03  0.76976300207E+03  0.25500000920E-02 0. -1.
    10030    2    1    2    0    0  0.00000000000E+00  0.00000000000E+00  0.14287489504E+04  0.29682749546E+04  0.26017941199E+04 0.  0.
        5    1    3    3  502    0  0.59020136858E+03 -0.11413498775E+04  0.94620680781E+03  0.15957276119E+04  0.46999998093E+01 0. -1.
       -5    1    3    3    0  502 -0.59020136858E+03  0.11413498775E+04  0.48254214262E+03  0.13725473426E+04  0.46999998093E+01 0.  1.
</event>
<event>
 5   0  0.2755061E-07  0.2586978E+04  0.7818609E-02  0.8372638E-01
       -1   -1    0    0    0  501  0.00000000000E+00  0.00000000000E+00  0.10224576814E+04  0.10224576814E+04  0.50400001928E-02 0.  1.
        1   -1    0    0  501    0  0.00000000000E+00  0.00000000000E+00 -0.16363653742E+04  0.16363653743E+04  0.50400001928E-02 0. -1.
    10030    2    1    2    0    0  0.00000000000E+00  0.00000000000E+00 -0.61390769282E+03  0.26588230557E+04  0.25869784278E+04 0.  0.
        4    1    3    3  502    0  0.10443617598E+04 -0.72781462557E+03 -0.54290997844E+03  0.13838925074E+04  0.12699999809E+01 0.  1.
       -4    1    3    3    0  502 -0.10443617598E+04  0.72781462557E+03 -0.70997714383E+02  0.12749305483E+04  0.12699999809E+01 0. -1.
</event>
<event>
 5   0  0.2864801E-07  0.2599591E+04  0.7818609E-02  0.8368340E-01
        1   -1    0    0  501    0  0.00000000000E+00  0.00000000000E+00  0.11537929127E+04  0.11537929127E+04  0.50400001928E-02 0.  1.
       -1   -1    0    0    0  501  0.00000000000E+00  0.00000000000E+00 -0.14642735072E+04  0.14642735072E+04  0.50400001928E-02 0. -1.
    10030    2    1    2    0    0  0.00000000000E+00  0.00000000000E+00 -0.31048059455E+03  0.26180664199E+04  0.25995910408E+04 0.  0.
        5    1    3    3  502    0 -0.16437957427E+03  0.26258048880E+02 -0.14534853192E+04  0.14629941191E+04  0.46999998093E+01 0. -1.
       -5    1    3    3    0  502  0.16437957427E+03 -0.26258048880E+02  0.11430047246E+04  0.11550723008E+04  0.46999998093E+01 0.  1.
</event>
<event>
 5   0  0.6768478E-07  0.2600289E+04  0.7818609E-02  0.8368103E-01
        2   -1    0    0  501    0  0.00000000000E+00  0.00000000000E+00  0.11477064620E+04  0.11477064620E+04  0.25500000920E-02 0. -1.
       -2   -1    0    0    0  501  0.00000000000E+00  0.00000000000E+00 -0.14728293531E+04  0.14728293531E+04  0.25500000920E-02 0.  1.
    10030    2    1    2    0    0  0.00000000000E+00  0.00000000000E+00 -0.32512289111E+03  0.26205358150E+04  0.26002890346E+04 0.  0.
        4    1    3    3  502    0  0.10681342619E+04 -0.19178630405E+03  0.55903143728E+03  0.12207418026E+04  0.12699999809E+01 0. -1.
       -4    1    3    3    0  502 -0.10681342619E+04  0.19178630405E+03 -0.88415432839E+03  0.13997940124E+04  0.12699999809E+01 0.  1.
</event>
<event>
 5   0  0.6780984E-07  0.2599137E+04  0.7818609E-02  0.8368494E-01
        2   -1    0    0  501    0  0.00000000000E+00  0.00000000000E+00  0.23290973675E+04  0.23290973675E+04  0.25500000920E-02 0.  1.
       -2   -1    0    0    0  501  0.00000000000E+00  0.00000000000E+00 -0.72512144363E+03  0.72512144364E+03  0.25500000920E-02 0. -1.
    10030    2    1    2    0    0  0.00000000000E+00  0.00000000000E+00  0.16039759238E+04  0.30542188111E+04  0.25991371226E+04 0.  0.
        2    1    3    3  502    0  0.76833062496E+02 -0.12776471744E+04  0.10662990697E+04  0.16659169631E+04  0.25500000920E-02 0.  1.
       -2    1    3    3    0  502 -0.76833062496E+02  0.12776471744E+04  0.53767685416E+03  0.13883018481E+04  0.25500000920E-02 0. -1.
</event>
<event>
 5   0  0.2864801E-07  0.2601015E+04  0.7818609E-02  0.8367857E-01
        1   -1    0    0  501    0  0.00000000000E+00  0.00000000000E+00  0.16779478920E+04  0.16779478920E+04  0.50400001928E-02 0.  1.
       -1   -1    0    0    0  501  0.00000000000E+00  0.00000000000E+00 -0.10079691726E+04  0.10079691726E+04  0.50400001928E-02 0. -1.
    10030    2    1    2    0    0  0.00000000000E+00  0.00000000000E+00  0.66997871939E+03  0.26859170646E+04  0.26010149929E+04 0.  0.
        5    1    3    3  502    0  0.10717387884E+04 -0.46229957210E+03 -0.25727621837E+03  0.11952230200E+04  0.46999998093E+01 0. -1.
       -5    1    3    3    0  502 -0.10717387884E+04  0.46229957210E+03  0.92725493776E+03  0.14906940446E+04  0.46999998093E+01 0.  1.
</event>
<event>
 5   0  0.2755061E-07  0.2600214E+04  0.7818609E-02  0.8368129E-01
       -1   -1    0    0    0  501  0.00000000000E+00  0.00000000000E+00  0.73926910448E+03  0.73926910450E+03  0.50400001928E-02 0.  1.
        1   -1    0    0  501    0  0.00000000000E+00  0.00000000000E+00 -0.22864173318E+04  0.22864173318E+04  0.50400001928E-02 0. -1.
    10030    2    1    2    0    0  0.00000000000E+00  0.00000000000E+00 -0.15471482273E+04  0.30256864363E+04  0.26002136015E+04 0.  0.
        4    1    3    3  502    0  0.20000491502E+03  0.53492863743E+03  0.58549659095E+03  0.81789882265E+03  0.12699999809E+01 0.  1.
       -4    1    3    3    0  502 -0.20000491502E+03 -0.53492863743E+03 -0.21326448182E+04  0.22077876136E+04  0.12699999809E+01 0. -1.
</event>
<event>
 5   0  0.6599814E-07  0.2596695E+04  0.7818609E-02  0.8369325E-01
       -2   -1    0    0    0  501  0.00000000000E+00  0.00000000000E+00  0.79529368567E+03  0.79529368568E+03  0.25500000920E-02 0. -1.
        2   -1    0    0  501    0  0.00000000000E+00  0.00000000000E+00 -0.21196017247E+04  0.21196017247E+04  0.25500000920E-02 0.  1.
    10030    2    1    2    0    0  0.00000000000E+00  0.00000000000E+00 -0.13243080390E+04  0.29148954103E+04  0.25966947204E+04 0.  0.
        5    1    3    3  502    0  0.91432504692E+03  0.57389166283E+03  0.14758759271E+03  0.10895623523E+04  0.46999998093E+01 0. -1.
       -5    1    3    3    0  502 -0.91432504692E+03 -0.57389166283E+03 -0.14718956317E+04  0.18253330580E+04  0.46999998093E+01 0.  1.
</event>
<event>
 5   0  0.2793576E-07  0.2598119E+04  0.7818609E-02  0.8368841E-01
       -1   -1    0    0    0  501  0.00000000000E+00  0.00000000000E+00  0.13385691107E+04  0.13385691107E+04  0.50400001928E-02 0. -1.
        1   -1    0    0  501    0  0.00000000000E+00  0.00000000000E+00 -0.12607156113E+04  0.12607156113E+04  0.50400001928E-02 0.  1.
    10030    2    1    2    0    0  0.00000000000E+00  0.00000000000E+00  0.77853499485E+02  0.25992847220E+04  0.25981185305E+04 0.  0.
        2    1    3    3  502    0 -0.21694453597E+03 -0.35496658037E+02 -0.12419721261E+04  0.12612770141E+04  0.25500000920E-02 0.  1.
       -2    1    3    3    0  502  0.21694453597E+03  0.35496658037E+02  0.13198256256E+04  0.13380077079E+04  0.25500000920E-02 0. -1.
</event>
<event>
 5   0  0.2641626E-07  0.2612255E+04  0.7818609E-02  0.8364050E-01
       -1   -1    0    0    0  501  0.00000000000E+00  0.00000000000E+00  0.23882327848E+04  0.23882327848E+04  0.50400001928E-02 0. -1.
        1   -1    0    0  501    0  0.00000000000E+00  0.00000000000E+00 -0.71432276424E+03  0.71432276426E+03  0.50400001928E-02 0.  1.
    10030    2    1    2    0    0  0.00000000000E+00  0.00000000000E+00  0.16739100205E+04  0.31025555490E+04  0.26122549987E+04 0.  0.
        3    1    3    3  502    0  0.37199270626E+03 -0.12476778820E+04  0.71301110154E+03  0.14844067878E+04  0.10100000352E+00 0. -1.
       -3    1    3    3    0  502 -0.37199270626E+03  0.12476778820E+04  0.96089891899E+03  0.16181487612E+04  0.10100000352E+00 0.  1.
</event>
<event>
 5   0  0.2623263E-07  0.2599011E+04  0.7818609E-02  0.8368537E-01
        1   -1    0    0  501    0  0.00000000000E+00  0.00000000000E+00  0.10051785612E+04  0.10051785612E+04  0.50400001928E-02 0. -1.
       -1   -1    0    0    0  501  0.00000000000E+00  0.00000000000E+00 -0.16800146162E+04  0.16800146162E+04  0.50400001928E-02 0.  1.
    10030    2    1    2    0    0  0.00000000000E+00  0.00000000000E+00 -0.67483605496E+03  0.26851931774E+04  0.25990111002E+04 0.  0.
        1    1    3    3  502    0  0.15434631884E+02 -0.12167774324E+04 -0.80853100283E+03  0.14609955272E+04  0.50400001928E-02 0.  1.
       -1    1    3    3    0  502 -0.15434631884E+02  0.12167774324E+04  0.13369494787E+03  0.12241976503E+04  0.50400001928E-02 0. -1.
</event>
<event>
 5   0  0.7160320E-07  0.2597051E+04  0.7818609E-02  0.8369204E-01
        2   -1    0    0  501    0  0.00000000000E+00  0.00000000000E+00  0.20327385803E+04  0.20327385803E+04  0.25500000920E-02 0.  1.
       -2   -1    0    0    0  501  0.00000000000E+00  0.00000000000E+00 -0.82950590082E+03  0.82950590083E+03  0.25500000920E-02 0. -1.
    10030    2    1    2    0    0  0.00000000000E+00  0.00000000000E+00  0.12032326795E+04  0.28622444812E+04  0.25970511333E+04 0.  0.
        1    1    3    3  502    0 -0.66652099247E+03 -0.11143575996E+04  0.58926706869E+03  0.14259308439E+04  0.50400001928E-02 0. -1.
       -1    1    3    3    0  502  0.66652099247E+03  0.11143575996E+04  0.61396561081E+03  0.14363136373E+04  0.50400001928E-02 0.  1.
</event>
<event>
 5   0  0.6526351E-07  0.2599839E+04  0.7818609E-02  0.8368256E-01
        2   -1    0    0  501    0  0.00000000000E+00  0.00000000000E+00  0.17126845825E+04  0.17126845825E+04  0.25500000920E-02 0. -1.
       -2   -1    0    0    0  501  0.00000000000E+00  0.00000000000E+00 -0.98663272820E+03  0.98663272820E+03  0.25500000920E-02 0.  1.
    10030    2    1    2    0    0  0.00000000000E+00  0.00000000000E+00  0.72605185431E+03  0.26993173107E+04  0.25998389659E+04 0.  0.
        3    1    3    3  502    0 -0.10648504344E+04 -0.94804689394E+02  0.11308469060E+04  0.15561841510E+04  0.10100000352E+00 0. -1.
       -3    1    3    3    0  502  0.10648504344E+04  0.94804689394E+02 -0.40479505171E+03  0.11431331597E+04  0.10100000352E+00 0.  1.
</event>
<event>
 5   0  0.6599814E-07  0.2600407E+04  0.7818609E-02  0.8368063E-01
        2   -1    0    0  501    0  0.00000000000E+00  0.00000000000E+00  0.33554068245E+04  0.33554068245E+04  0.25500000920E-02 0. -1.
       -2   -1    0    0    0  501  0.00000000000E+00  0.00000000000E+00 -0.50382240270E+03  0.50382240271E+03  0.25500000920E-02 0.  1.
    10030    2    1    2    0    0  0.00000000000E+00  0.00000000000E+00  0.28515844218E+04  0.38592292273E+04  0.26004069900E+04 0.  0.
        5    1    3    3  502    0  0.10498298740E+04  0.75682991138E+03  0.16109926605E+04  0.20664592232E+04  0.46999998093E+01 0.  1.
       -5    1    3    3    0  502 -0.10498298740E+04 -0.75682991138E+03  0.12405917613E+04  0.17927700040E+04  0.46999998093E+01 0. -1.
</event>
<event>
 5   0  0.6768478E-07  0.2600153E+04  0.7818609E-02  0.8368149E-01
        2   -1    0    0  501    0  0.00000000000E+00  0.00000000000E+00  0.21579622458E+04  0.21579622458E+04  0.25500000920E-02 0.  1.
       -2   -1    0    0    0  501  0.00000000000E+00  0.00000000000E+00 -0.78323819894E+03  0.78323819895E+03  0.25500000920E-02 0. -1.
    10030    2    1    2    0    0  0.00000000000E+00  0.00000000000E+00  0.13747240468E+04  0.29412004447E+04  0.26001526592E+04 0.  0.
        4    1    3    3  502    0  0.42193963059E+03 -0.12297006848E+04  0.68718780133E+03  0.14705187905E+04  0.12699999809E+01 0. -1.
       -4    1    3    3    0  502 -0.42193963059E+03  0.12297006848E+04  0.68753624549E+03  0.14706816542E+04  0.12699999809E+01 0.  1.
</event>
<event>
 5   0  0.7160320E-07  0.2601387E+04  0.7818609E-02  0.8367730E-01
       -2   -1    0    0    0  501  0.00000000000E+00  0.00000000000E+00  0.10826913693E+04  0.10826913693E+04  0.25500000920E-02 0. -1.
        2   -1    0    0  501    0  0.00000000000E+00  0.00000000000E+00 -0.15625912728E+04  0.15625912728E+04  0.25500000920E-02 0.  1.
    10030    2    1    2    0    0  0.00000000000E+00  0.00000000000E+00 -0.47989990348E+03  0.26452826421E+04  0.26013873873E+04 0.  0.
        1    1    3    3  502    0  0.59894973184E+03  0.79579995351E+03 -0.10905852279E+04  0.14769612339E+04  0.50400001928E-02 0.  1.
       -1    1    3    3    0  502 -0.59894973184E+03 -0.79579995351E+03  0.61068532438E+03  0.11683214081E+04  0.50400001928E-02 0. -1.
</event>
<event>
 5   0  0.2793576E-07  0.2599395E+04  0.7818609E-02  0.8368407E-01
        1   -1    0    0  501    0  0.00000000000E+00  0.00000000000E+00  0.19745929164E+04  0.19745929164E+04  0.50400001928E-02 0. -1.
       -1   -1    0    0    0  501  0.00000000000E+00  0.00000000000E+00 -0.85547423619E+03  0.85547423620E+03  0.50400001928E-02 0.  1.
    10030    2    1    2    0    0  0.00000000000E+00  0.00000000000E+00  0.11191186802E+04  0.28300671526E+04  0.25993948272E+04 0.  0.
        2    1    3    3  502    0  0.17606002112E+03  0.10434067996E+04 -0.26207466125E+03  0.10901275194E+04  0.25500000920E-02 0.  1.
       -2    1    3    3    0  502 -0.17606002112E+03 -0.10434067996E+04  0.13811933414E+04  0.17399396331E+04  0.25500000920E-02 0. -1.
</event>
<event>
 5   0  0.2641626E-07  0.2598749E+04  0.7818609E-02  0.8368626E-01
        1   -1    0    0  501    0  0.00000000000E+00  0.00000000000E+00  0.13366989679E+04  0.13366989679E+04  0.50400001928E-02 0.  1.
       -1   -1    0    0    0  501  0.00000000000E+00  0.00000000000E+00 -0.12630926547E+04  0.12630926547E+04  0.50400001928E-02 0. -1.
    10030    2    1    2    0    0  0.00000000000E+00  0.00000000000E+00  0.73606313245E+02  0.25997916226E+04  0.25987494284E+04 0.  0.
        3    1    3    3  502    0 -0.32866082490E+03 -0.28963581814E+03  0.12605957497E+04  0.13345443040E+04  0.10100000352E+00 0.  1.
       -3    1    3    3    0  502  0.32866082490E+03  0.28963581814E+03 -0.11869894364E+04  0.12652473186E+04  0.10100000352E+00 0. -1.
</event>
<event>
 5   0  0.6526351E-07  0.2596981E+04  0.7818609E-02  0.8369227E-01
       -2   -1    0    0    0  501  0.00000000000E+00  0.00000000000E+00  0.12246520777E+04  0.12246520777E+04  0.25500000920E-02 0.  1.
        2   -1    0    0  501    0  0.00000000000E+00  0.00000000000E+00 -0.13767813764E+04  0.13767813764E+04  0.25500000920E-02 0. -1.
    10030    2    1    2    0    0  0.00000000000E+00  0.00000000000E+00 -0.15212929865E+03  0.26014334541E+04  0.25969814579E+04 0.  0.
        3    1    3    3  502    0 -0.99722066220E+03  0.37671172710E+03 -0.81876496654E+03  0.13441491194E+04  0.10100000352E+00 0. -1.
       -3    1    3    3    0  502  0.99722066220E+03 -0.37671172710E+03  0.66663566788E+03  0.12572843347E+04  0.10100000352E+00 0.  1.
</event>
<event>
 5   0  0.6526351E-07  0.2600191E+04  0.7818609E-02  0.8368136E-01
       -2   -1    0    0    0  501  0.00000000000E+00  0.00000000000E+00  0.16236035033E+04  0.16236035033E+04  0.25500000920E-02 0.  1.
        2   -1    0    0  501    0  0.00000000000E+00  0.00000000000E+00 -0.10410478301E+04  0.10410478301E+04  0.25500000920E-02 0. -1.
    10030    2    1    2    0    0  0.00000000000E+00  0.00000000000E+00  0.58255567313E+03  0.26646513334E+04  0.26001914576E+04 0.  0.
        3    1    3    3  502    0 -0.26212551768E+03  0.70875973912E+03  0.13754260764E+04  0.15693460602E+04  0.10100000352E+00 0.  1.
       -3    1    3    3    0  502  0.26212551768E+03 -0.70875973912E+03 -0.79287040331E+03  0.10953052732E+04  0.10100000352E+00 0. -1.
</event>
<event>
 5   0  0.2755061E-07  0.2601592E+04  0.7818609E-02  0.8367661E-01
        1   -1    0    0  501    0  0.00000000000E+00  0.00000000000E+00  0.98504973444E+03  0.98504973445E+03  0.50400001928E-02 0. -1.
       -1   -1    0    0    0  501  0.00000000000E+00  0.00000000000E+00 -0.17177512993E+04  0.17177512994E+04  0.50400001928E-02 0.  1.
    10030    2    1    2    0    0  0.00000000000E+00  0.00000000000E+00 -0.73270156491E+03  0.27028010338E+04  0.26015921750E+04 0.  0.
        4    1    3    3  502    0  0.27775473185E+03  0.48785922631E+03 -0.15854199591E+04  0.16818776339E+04  0.12699999809E+01 0.  1.
       -4    1    3    3    0  502 -0.27775473185E+03 -0.48785922631E+03  0.85271839421E+03  0.10209233999E+04  0.12699999809E+01 0. -1.
</event>
<event>
 5   0  0.2623263E-07  0.2600152E+04  0.7818609E-02  0.8368149E-01
       -1   -1    0    0    0  501  0.00000000000E+00  0.00000000000E+00  0.96160155576E+03  0.96160155578E+03  0.50400001928E-02 0. -1.
        1   -1    0    0  501    0  0.00000000000E+00  0.00000000000E+00 -0.17576906537E+04  0.17576906537E+04  0.50400001928E-02 0.  1.
    10030    2    1    2    0    0  0.00000000000E+00  0.00000000000E+00 -0.79608909793E+03  0.27192922095E+04  0.26001523549E+04 0.  0.
        1    1    3    3  502    0  0.22087556421E+03 -0.11462611712E+04  0.20045109963E+03  0.11844329153E+04  0.50400001928E-02 0. -1.
       -1    1    3    3    0  502 -0.22087556421E+03  0.11462611712E+04 -0.99654019756E+03  0.15348592942E+04  0.50400001928E-02 0.  1.
</event>
<event>
 5   0  0.6599814E-07  0.2601668E+04  0.7818609E-02  0.8367635E-01
        2   -1    0    0  501    0  0.00000000000E+00  0.00000000000E+00  0.21468939417E+04  0.21468939417E+04  0.25500000920E-02 0. -1.
       -2   -1    0    0    0  501  0.00000000000E+00  0.00000000000E+00 -0.78819423788E+03  0.78819423788E+03  0.25500000920E-02 0.  1.
    10030    2    1    2    0    0  0.00000000000E+00  0.00000000000E+00  0.13586997039E+04  0.29350881796E+04  0.26016682604E+04 0.  0.
        5    1    3    3  502    0 -0.69515736201E+03 -0.10994825563E+04  0.67206518034E+03  0.14641718977E+04  0.46999998093E+01 0.  1.
       -5    1    3    3    0  502  0.69515736201E+03  0.10994825563E+04  0.68663452352E+03  0.14709162819E+04  0.46999998093E+01 0. -1.
</event>
<event>
 5   0  0.2755061E-07  0.2609874E+04  0.7818609E-02  0.8364855E-01
       -1   -1    0    0    0  501  0.00000000000E+00  0.00000000000E+00  0.25897546255E+04  0.25897546255E+04  0.50400001928E-02 0. -1.
        1   -1    0    0  501    0  0.00000000000E+00  0.00000000000E+00 -0.65753759974E+03  0.65753759976E+03  0.50400001928E-02 0.  1.
    10030    2    1    2    0    0  0.00000000000E+00  0.00000000000E+00  0.19322170258E+04  0.32472922253E+04  0.26098743574E+04 0.  0.
        4    1    3    3  502    0 -0.10964391033E+04 -0.47322360241E+03  0.31156601061E+03  0.12341775711E+04  0.12699999809E+01 0.  1.
       -4    1    3    3    0  502  0.10964391033E+04  0.47322360241E+03  0.16206510152E+04  0.20131146542E+04  0.12699999809E+01 0. -1.
</event>
<event>
 5   0  0.2623263E-07  0.2600708E+04  0.7818609E-02  0.8367961E-01
       -1   -1    0    0    0  501  0.00000000000E+00  0.00000000000E+00  0.16756357241E+04  0.16756357241E+04  0.50400001928E-02 0.  1.
        1   -1    0    0  501    0  0.00000000000E+00  0.00000000000E+00 -0.10091220038E+04  0.10091220038E+04  0.50400001928E-02 0. -1.
    10030    2    1    2    0    0  0.00000000000E+00  0.00000000000E+00  0.66651372034E+03  0.26847577279E+04  0.26007082724E+04 0.  0.
        1    1    3    3  502    0 -0.11730440226E+04  0.39401513494E+03  0.74572009027E+03  0.14447763351E+04  0.50400001928E-02 0.  1.
       -1    1    3    3    0  502  0.11730440226E+04 -0.39401513494E+03 -0.79206369926E+02  0.12399813928E+04  0.50400001928E-02 0. -1.
</event>
<event>
 5   0  0.6768478E-07  0.2590594E+04  0.7818609E-02  0.8371403E-01
        2   -1    0    0  501    0  0.00000000000E+00  0.00000000000E+00  0.83365077770E+03  0.83365077770E+03  0.25500000920E-02 0. -1.
       -2   -1    0    0    0  501  0.00000000000E+00  0.00000000000E+00 -0.20125866756E+04  0.20125866756E+04  0.25500000920E-02 0.  1.
    10030    2    1    2    0    0  0.00000000000E+00  0.00000000000E+00 -0.11789358979E+04  0.28462374533E+04  0.25905940996E+04 0.  0.
        4    1    3    3  502    0  0.10795252786E+04  0.71230242922E+03 -0.66749178276E+03  0.14554368660E+04  0.12699999809E+01 0.  1.
       -4    1    3    3    0  502 -0.10795252786E+04 -0.71230242922E+03 -0.51144411511E+03  0.13908005873E+04  0.12699999809E+01 0. -1.
</event>
<event>
 5   0  0.2641626E-07  0.2600292E+04  0.7818609E-02  0.8368102E-01
        1   -1    0    0  501    0  0.00000000000E+00  0.00000000000E+00  0.10988277739E+04  0.10988277739E+04  0.50400001928E-02 0.  1.
       -1   -1    0    0    0  501  0.00000000000E+00  0.00000000000E+00 -0.15383480781E+04  0.15383480781E+04  0.50400001928E-02 0. -1.
    10030    2    1    2    0    0  0.00000000000E+00  0.00000000000E+00 -0.43952030423E+03  0.26371758520E+04  0.26002919791E+04 0.  0.
        3    1    3    3  502    0 -0.17792164281E+02 -0.77175515733E+03 -0.12807624529E+04  0.14954180201E+04  0.10100000352E+00 0. -1.
       -3    1    3    3    0  502  0.17792164281E+02  0.77175515733E+03  0.84124214863E+03  0.11417578319E+04  0.10100000352E+00 0.  1.
</event>
<event>
 5   0  0.2623263E-07  0.2601392E+04  0.7818609E-02  0.8367729E-01
        1   -1    0    0  501    0  0.00000000000E+00  0.00000000000E+00  0.13103669274E+04  0.13103669274E+04  0.50400001928E-02 0. -1.
       -1   -1    0    0    0  501  0.00000000000E+00  0.00000000000E+00 -0.12910964376E+04  0.12910964376E+04  0.50400001928E-02 0.  1.
    10030    2    1    2    0    0  0.00000000000E+00  0.00000000000E+00  0.19270489722E+02  0.26014633650E+04  0.26013919904E+04 0.  0.
        1    1    3    3  502    0 -0.98326516797E+03 -0.33284399409E+03  0.79337516470E+03  0.13065372811E+04  0.50400001928E-02 0. -1.
       -1    1    3    3    0  502  0.98326516797E+03  0.33284399409E+03 -0.77410467498E+03  0.12949260839E+04  0.50400001928E-02 0.  1.
</event>
<event>
 5   0  0.2623263E-07  0.2599963E+04  0.7818609E-02  0.8368214E-01
       -1   -1    0    0    0  501  0.00000000000E+00  0.00000000000E+00  0.10190072527E+04  0.10190072527E+04  0.50400001928E-02 0.  1.
        1   -1    0    0  501    0  0.00000000000E+00  0.00000000000E+00 -0.16584300858E+04  0.16584300858E+04  0.50400001928E-02 0. -1.
    10030    2    1    2    0    0  0.00000000000E+00  0.00000000000E+00 -0.63942283311E+03  0.26774373385E+04  0.25999632962E+04 0.  0.
        1    1    3    3  502    0  0.53519741113E+02 -0.71499640397E+03  0.79697541907E+03  0.10720326669E+04  0.50400001928E-02 0.  1.
       -1    1    3    3    0  502 -0.53519741113E+02  0.71499640397E+03 -0.14363982522E+04  0.16054046715E+04  0.50400001928E-02 0. -1.
</event>
<event>
 5   0  0.2864801E-07  0.2598925E+04  0.7818609E-02  0.8368566E-01
        1   -1    0    0  501    0  0.00000000000E+00  0.00000000000E+00  0.12431507281E+04  0.12431507281E+04  0.50400001928E-02 0. -1.
       -1   -1    0    0    0  501  0.00000000000E+00  0.00000000000E+00 -0.13583250900E+04  0.13583250900E+04  0.50400001928E-02 0.  1.
    10030    2    1    2    0    0  0.00000000000E+00  0.00000000000E+00 -0.11517436196E+03  0.26014758181E+04  0.25989250275E+04 0.  0.
        5    1    3    3  502    0  0.15764114121E+03 -0.66739190821E+03  0.10472706049E+04  0.12518228703E+04  0.46999998093E+01 0. -1.
       -5    1    3    3    0  502 -0.15764114121E+03  0.66739190821E+03 -0.11624449669E+04  0.13496529478E+04  0.46999998093E+01 0.  1.
</event>
<event>
 5   0  0.2864801E-07  0.2601089E+04  0.7818609E-02  0.8367831E-01
       -1   -1    0    0    0  501  0.00000000000E+00  0.00000000000E+00  0.15405072337E+04  0.15405072337E+04  0.50400001928E-02 0. -1.
        1   -1    0    0  501    0  0.00000000000E+00  0.00000000000E+00 -0.10979602207E+04  0.10979602207E+04  0.50400001928E-02 0.  1.
    10030    2    1    2    0    0  0.00000000000E+00  0.00000000000E+00  0.44254701296E+03  0.26384674544E+04  0.26010887431E+04 0.  0.
        5    1    3    3  502    0  0.33725812026E+03  0.23951696314E+03 -0.10294423941E+04  0.11094526344E+04  0.46999998093E+01 0.  1.
       -5    1    3    3    0  502 -0.33725812026E+03 -0.23951696314E+03  0.14719894070E+04  0.15290148200E+04  0.46999998093E+01 0. -1.
</event>
<event>
 5   0  0.2793576E-07  0.2599256E+04  0.7818609E-02  0.8368454E-01
       -1   -1    0    0    0  501  0.00000000000E+00  0.00000000000E+00  0.16422477143E+04  0.16422477143E+04  0.50400001928E-02 0.  1.
        1   -1    0    0  501    0  0.00000000000E+00  0.00000000000E+00 -0.10284883662E+04  0.10284883662E+04  0.50400001928E-02 0. -1.
    10030    2    1    2    0    0  0.00000000000E+00  0.00000000000E+00  0.61375934808E+03  0.26707360806E+04  0.25992557925E+04 0.  0.
        2    1    3    3  502    0  0.74766157064E+03  0.35615538608E+03 -0.72225724326E+03  0.10988630527E+04  0.25500000920E-02 0. -1.
       -2    1    3    3    0  502 -0.74766157064E+03 -0.35615538608E+03  0.13360165913E+04  0.15718730278E+04  0.25500000920E-02 0.  1.
</event>
<event>
 5   0  0.2793576E-07  0.2599599E+04  0.7818609E-02  0.8368337E-01
       -1   -1    0    0    0  501  0.00000000000E+00  0.00000000000E+00  0.15389138151E+04  0.15389138151E+04  0.50400001928E-02 0.  1.
        1   -1    0    0  501    0  0.00000000000E+00  0.00000000000E+00 -0.10978387067E+04  0.10978387067E+04  0.50400001928E-02 0. -1.
    10030    2    1    2    0    0  0.00000000000E+00  0.00000000000E+00  0.44107510838E+03  0.26367525218E+04  0.25995993172E+04 0.  0.
        2    1    3    3  502    0 -0.35676259671E+03  0.11739865996E+03 -0.10416007384E+04  0.11072461758E+04  0.25500000920E-02 0. -1.
       -2    1    3    3    0  502  0.35676259671E+03 -0.11739865996E+03  0.14826758467E+04  0.15295063459E+04  0.25500000920E-02 0.  1.
</event>
<event>
 5   0  0.2793576E-07  0.2601097E+04  0.7818609E-02  0.8367829E-01
       -1   -1    0    0    0  501  0.00000000000E+00  0.00000000000E+00  0.16650376244E+04  0.16650376244E+04  0.50400001928E-02 0. -1.
        1   -1    0    0  501    0  0.00000000000E+00  0.00000000000E+00 -0.10158484369E+04  0.10158484369E+04  0.50400001928E-02 0.  1.
    10030    2    1    2    0    0  0.00000000000E+00  0.00000000000E+00  0.64918918755E+03  0.26808860613E+04  0.26010965904E+04 0.  0.
        2    1    3    3  502    0  0.68759682889E+03 -0.36196241120E+02  0.14617645562E+04  0.16158140935E+04  0.25500000920E-02 0. -1.
       -2    1    3    3    0  502 -0.68759682889E+03  0.36196241120E+02 -0.81257536863E+03  0.10650719678E+04  0.25500000920E-02 0.  1.
</event>
<event>
 5   0  0.6599814E-07  0.2619260E+04  0.7818609E-02  0.8361688E-01
       -2   -1    0    0    0  501  0.00000000000E+00  0.00000000000E+00  0.11767494975E+04  0.11767494975E+04  0.25500000920E-02 0.  1.
        2   -1    0    0  501    0  0.00000000000E+00  0.00000000000E+00 -0.14575158189E+04  0.14575158189E+04  0.25500000920E-02 0. -1.
    10030    2    1    2    0    0  0.00000000000E+00  0.00000000000E+00 -0.28076632144E+03  0.26342653164E+04  0.26192602066E+04 0.  0.
        5    1    3    3  502    0 -0.12491457986E+04 -0.39335569509E+03 -0.13648947607E+03  0.13167176599E+04  0.46999998093E+01 0.  1.
       -5    1    3    3    0  502  0.12491457986E+04  0.39335569509E+03 -0.14427684537E+03  0.13175476565E+04  0.46999998093E+01 0. -1.
</event>
<event>
 5   0  0.2623263E-07  0.2604122E+04  0.7818609E-02  0.8366802E-01
        1   -1    0    0  501    0  0.00000000000E+00  0.00000000000E+00  0.16583711859E+04  0.16583711859E+04  0.50400001928E-02 0. -1.
       -1   -1    0    0    0  501  0.00000000000E+00  0.00000000000E+00 -0.10223059436E+04  0.10223059436E+04  0.50400001928E-02 0.  1.
    10030    2    1    2    0    0  0.00000000000E+00  0.00000000000E+00  0.63606524228E+03  0.26806771296E+04  0.26041219020E+04 0.  0.
        1    1    3    3  502    0 -0.20325012391E+03 -0.10254184854E+03 -0.10016605768E+04  0.10272046314E+04  0.50400001928E-02 0.  1.
       -1    1    3    3    0  502  0.20325012391E+03  0.10254184854E+03  0.16377258191E+04  0.16534724982E+04  0.50400001928E-02 0. -1.
</event>
<event>
 5   0  0.2294625E-07  0.2600162E+04  0.7818609E-02  0.8368146E-01
        3   -1    0    0  501    0  0.00000000000E+00  0.00000000000E+00  0.63696893134E+03  0.63696893935E+03  0.10100000352E+00 0.  1.
       -3   -1    0    0    0  501  0.00000000000E+00  0.00000000000E+00 -0.26535208163E+04  0.26535208182E+04  0.10100000352E+00 0. -1.
    10030    2    1    2    0    0  0.00000000000E+00  0.00000000000E+00 -0.20165518849E+04  0.32904897575E+04  0.26001617911E+04 0.  0.
        3    1    3    3  502    0 -0.12041604436E+04  0.28181753226E+03 -0.15157167702E+04  0.19562261712E+04  0.10100000352E+00 0. -1.
       -3    1    3    3    0  502  0.12041604436E+04 -0.28181753226E+03 -0.50083511475E+03  0.13342635863E+04  0.10100000352E+00 0.  1.
</event>
<event>
 5   0  0.6526351E-07  0.2598989E+04  0.7818609E-02  0.8368545E-01
        2   -1    0    0  501    0  0.00000000000E+00  0.00000000000E+00  0.14038576996E+04  0.14038576996E+04  0.25500000920E-02 0.  1.
       -2   -1    0    0    0  501  0.00000000000E+00  0.00000000000E+00 -0.12028896814E+04  0.12028896814E+04  0.25500000920E-02 0. -1.
    10030    2    1    2    0    0  0.00000000000E+00  0.00000000000E+00  0.20096801812E+03  0.26067473810E+04  0.25989889888E+04 0.  0.
        3    1    3    3  502    0  0.42564043651E+03 -0.57141676894E+03 -0.98949786544E+03  0.12193411913E+04  0.10100000352E+00 0. -1.
       -3    1    3    3    0  502 -0.42564043651E+03  0.57141676894E+03  0.11904658836E+04  0.13874061897E+04  0.10100000352E+00 0.  1.
</event>
<event>
 5   0  0.2755061E-07  0.2601379E+04  0.7818609E-02  0.8367733E-01
        1   -1    0    0  501    0  0.00000000000E+00  0.00000000000E+00  0.10882851324E+04  0.10882851324E+04  0.50400001928E-02 0. -1.
       -1   -1    0    0    0  501  0.00000000000E+00  0.00000000000E+00 -0.15545490426E+04  0.15545490426E+04  0.50400001928E-02 0.  1.
    10030    2    1    2    0    0  0.00000000000E+00  0.00000000000E+00 -0.46626391013E+03  0.26428341750E+04  0.26013785658E+04 0.  0.
        4    1    3    3  502    0 -0.10836903516E+03  0.12684869835E+04  0.37549554753E+02  0.12736619085E+04  0.12699999809E+01 0. -1.
       -4    1    3    3    0  502  0.10836903516E+03 -0.12684869835E+04 -0.50381346488E+03  0.13691722665E+04  0.12699999809E+01 0.  1.
</event>
<event>
 5   0  0.6768478E-07  0.2584887E+04  0.7818609E-02  0.8373353E-01
        2   -1    0    0  501    0  0.00000000000E+00  0.00000000000E+00  0.16607635330E+04  0.16607635330E+04  0.25500000920E-02 0.  1.
       -2   -1    0    0    0  501  0.00000000000E+00  0.00000000000E+00 -0.10058089566E+04  0.10058089566E+04  0.25500000920E-02 0. -1.
    10030    2    1    2    0    0  0.00000000000E+00  0.00000000000E+00  0.65495457646E+03  0.26665724896E+04  0.25848874918E+04 0.  0.
        4    1    3    3  502    0  0.56336979476E+02  0.10770718907E+04  0.10621275047E+04  0.15137285629E+04  0.12699999809E+01 0.  1.
       -4    1    3    3    0  502 -0.56336979476E+02 -0.10770718907E+04 -0.40717292823E+03  0.11528439267E+04  0.12699999809E+01 0. -1.
</event>
<event>
 5   0  0.7160320E-07  0.2599552E+04  0.7818609E-02  0.8368353E-01
        2   -1    0    0  501    0  0.00000000000E+00  0.00000000000E+00  0.80753044070E+03  0.80753044070E+03  0.25500000920E-02 0. -1.
       -2   -1    0    0    0  501  0.00000000000E+00  0.00000000000E+00 -0.20920787160E+04  0.20920787160E+04  0.25500000920E-02 0.  1.
    10030    2    1    2    0    0  0.00000000000E+00  0.00000000000E+00 -0.12845482753E+04  0.28996091567E+04  0.25995516902E+04 0.  0.
        1    1    3    3  502    0  0.68455821414E+03 -0.70609103650E+03  0.30566312006E+03  0.10298613709E+04  0.50400001928E-02 0. -1.
       -1    1    3    3    0  502 -0.68455821414E+03  0.70609103650E+03 -0.15902113954E+04  0.18697477858E+04  0.50400001928E-02 0.  1.
</event>
<event>
 5   0  0.2641626E-07  0.2598126E+04  0.7818609E-02  0.8368838E-01
        1   -1    0    0  501    0  0.00000000000E+00  0.00000000000E+00  0.21473654911E+04  0.21473654911E+04  0.50400001928E-02 0.  1.
       -1   -1    0    0    0  501  0.00000000000E+00  0.00000000000E+00 -0.78587701487E+03  0.78587701489E+03  0.50400001928E-02 0. -1.
    10030    2    1    2    0    0  0.00000000000E+00  0.00000000000E+00  0.13614884762E+04  0.29332425060E+04  0.25981263880E+04 0.  0.
        3    1    3    3  502    0  0.11810996219E+04 -0.54079839670E+03  0.66912343143E+03  0.14612273606E+04  0.10100000352E+00 0.  1.
       -3    1    3    3    0  502 -0.11810996219E+04  0.54079839670E+03  0.69236504478E+03  0.14720151454E+04  0.10100000352E+00 0. -1.
</event>
<event>
 5   0  0.6526351E-07  0.2597323E+04  0.7818609E-02  0.8369111E-01
       -2   -1    0    0    0  501  0.00000000000E+00  0.00000000000E+00  0.58476835300E+03  0.58476835301E+03  0.25500000920E-02 0.  1.
        2   -1    0    0  501    0  0.00000000000E+00  0.00000000000E+00 -0.28840847891E+04  0.28840847891E+04  0.25500000920E-02 0. -1.
    10030    2    1    2    0    0  0.00000000000E+00  0.00000000000E+00 -0.22993164361E+04  0.34688531421E+04  0.25973228617E+04 0.  0.
        3    1    3    3  502    0  0.10742259817E+04  0.40618757422E+03 -0.33994541352E+03  0.11977114425E+04  0.10100000352E+00 0.  1.
       -3    1    3    3    0  502 -0.10742259817E+04 -0.40618757422E+03 -0.19593710225E+04  0.22711416995E+04  0.10100000352E+00 0. -1.
</event>
<event>
 5   0  0.2755061E-07  0.2599982E+04  0.7818609E-02  0.8368207E-01
       -1   -1    0    0    0  501  0.00000000000E+00  0.00000000000E+00  0.10206865111E+04  0.10206865111E+04  0.50400001928E-02 0.  1.
        1   -1    0    0  501    0  0.00000000000E+00  0.00000000000E+00 -0.16557250089E+04  0.16557250090E+04  0.50400001928E-02 0. -1.
    10030    2    1    2    0    0  0.00000000000E+00  0.00000000000E+00 -0.63503849788E+03  0.26764115200E+04  0.25999816789E+04 0.  0.
        4    1    3    3  502    0  0.43717039013E+03 -0.96247998529E+03 -0.10963913311E+04  0.15230105830E+04  0.12699999809E+01 0. -1.
       -4    1    3    3    0  502 -0.43717039013E+03  0.96247998529E+03  0.46135283318E+03  0.11534009371E+04  0.12699999809E+01 0.  1.
</event>
<event>
 5   0  0.6780984E-07  0.2601197E+04  0.7818609E-02  0.8367795E-01
       -2   -1    0    0    0  501  0.00000000000E+00  0.00000000000E+00  0.11557994159E+04  0.11557994159E+04  0.25500000920E-02 0.  1.
        2   -1    0    0  501    0  0.00000000000E+00  0.00000000000E+00 -0.14635375610E+04  0.14635375610E+04  0.25500000920E-02 0. -1.
    10030    2    1    2    0    0  0.00000000000E+00  0.00000000000E+00 -0.30773814509E+03  0.26193369770E+04  0.26011965387E+04 0.  0.
        2    1    3    3  502    0 -0.53481228767E+03  0.29259408458E+02  0.10395863990E+04  0.11694529392E+04  0.25500000920E-02 0.  1.
       -2    1    3    3    0  502  0.53481228767E+03 -0.29259408458E+02 -0.13473245441E+04  0.14498840378E+04  0.25500000920E-02 0. -1.
</event>
<event>
 5   0  0.2755061E-07  0.2600996E+04  0.7818609E-02  0.8367863E-01
       -1   -1    0    0    0  501  0.00000000000E+00  0.00000000000E+00  0.13887497405E+04  0.13887497405E+04  0.50400001928E-02 0.  1.
        1   -1    0    0  501    0  0.00000000000E+00  0.00000000000E+00 -0.12178540845E+04  0.12178540846E+04  0.50400001928E-02 0. -1.
    10030    2    1    2    0    0  0.00000000000E+00  0.00000000000E+00  0.17089565593E+03  0.26066038250E+04  0.26009956124E+04 0.  0.
        4    1    3    3  502    0  0.11305531804E+04  0.62201859261E+03  0.24777024100E+03  0.13139441877E+04  0.12699999809E+01 0. -1.
       -4    1    3    3    0  502 -0.11305531804E+04 -0.62201859261E+03 -0.76874585064E+02  0.12926596373E+04  0.12699999809E+01 0.  1.
</event>
<event>
 5   0  0.2755061E-07  0.2597604E+04  0.7818609E-02  0.8369015E-01
        1   -1    0    0  501    0  0.00000000000E+00  0.00000000000E+00  0.13641831917E+04  0.13641831917E+04  0.50400001928E-02 0. -1.
       -1   -1    0    0    0  501  0.00000000000E+00  0.00000000000E+00 -0.12365545420E+04  0.12365545420E+04  0.50400001928E-02 0.  1.
    10030    2    1    2    0    0  0.00000000000E+00  0.00000000000E+00  0.12762864972E+03  0.26007377338E+04  0.25976042207E+04 0.  0.
        4    1    3    3  502    0 -0.11089049225E+00  0.63853973866E+03 -0.10685461592E+04  0.12447993884E+04  0.12699999809E+01 0.  1.
       -4    1    3    3    0  502  0.11089049225E+00 -0.63853973866E+03  0.11961748089E+04  0.13559383454E+04  0.12699999809E+01 0. -1.
</event>
<event>
 5   0  0.2793576E-07  0.2598991E+04  0.7818609E-02  0.8368544E-01
        1   -1    0    0  501    0  0.00000000000E+00  0.00000000000E+00  0.15339634306E+04  0.15339634306E+04  0.50400001928E-02 0.  1.
       -1   -1    0    0    0  501  0.00000000000E+00  0.00000000000E+00 -0.11008659268E+04  0.11008659269E+04  0.50400001928E-02 0. -1.
    10030    2    1    2    0    0  0.00000000000E+00  0.00000000000E+00  0.43309750378E+03  0.26348293575E+04  0.25989906301E+04 0.  0.
        2    1    3    3  502    0 -0.56396186103E+03  0.43552126555E+03 -0.88515466750E+03  0.11363232546E+04  0.25500000920E-02 0. -1.
       -2    1    3    3    0  502  0.56396186103E+03 -0.43552126555E+03  0.13182521713E+04  0.14985061029E+04  0.25500000920E-02 0.  1.
</event>
<event>
 5   0  0.6780984E-07  0.2593163E+04  0.7818609E-02  0.8370527E-01
       -2   -1    0    0    0  501  0.00000000000E+00  0.00000000000E+00  0.97842843368E+03  0.97842843369E+03  0.25500000920E-02 0. -1.
        2   -1    0    0  501    0  0.00000000000E+00  0.00000000000E+00 -0.17181877300E+04  0.17181877300E+04  0.25500000920E-02 0.  1.
    10030    2    1    2    0    0  0.00000000000E+00  0.00000000000E+00 -0.73975929631E+03  0.26966161637E+04  0.25931631105E+04 0.  0.
        2    1    3    3  502    0  0.10041175802E+04 -0.27231903830E+03  0.43475548115E+03  0.11275735461E+04  0.25500000920E-02 0. -1.
       -2    1    3    3    0  502 -0.10041175802E+04  0.27231903830E+03 -0.11745147775E+04  0.15690426176E+04  0.25500000920E-02 0.  1.
</event>
<event>
 5   0  0.7160320E-07  0.2602231E+04  0.7818609E-02  0.8367444E-01
        2   -1    0    0  501    0  0.00000000000E+00  0.00000000000E+00  0.16083162884E+04  0.16083162884E+04  0.25500000920E-02 0.  1.
       -2   -1    0    0    0  501  0.00000000000E+00  0.00000000000E+00 -0.10525924906E+04  0.10525924906E+04  0.25500000920E-02 0. -1.
    10030    2    1    2    0    0  0.00000000000E+00  0.00000000000E+00  0.55572379773E+03  0.26609087790E+04  0.26022310795E+04 0.  0.
        1    1    3    3  502    0  0.44325459790E+03  0.11383797752E+04 -0.18002829915E+03  0.12348252264E+04  0.50400001928E-02 0. -1.
       -1    1    3    3    0  502 -0.44325459790E+03 -0.11383797752E+04  0.73575209688E+03  0.14260835527E+04  0.50400001928E-02 0.  1.
</event>
<event>
 5   0  0.6599814E-07  0.2600217E+04  0.7818609E-02  0.8368128E-01
       -2   -1    0    0    0  501  0.00000000000E+00  0.00000000000E+00  0.11147823284E+04  0.11147823284E+04  0.25500000920E-02 0.  1.
        2   -1    0    0  501    0  0.00000000000E+00  0.00000000000E+00 -0.15162438981E+04  0.15162438981E+04  0.25500000920E-02 0. -1.
    10030    2    1    2    0    0  0.00000000000E+00  0.00000000000E+00 -0.40146156975E+03  0.26310262266E+04  0.26002168396E+04 0.  0.
        5    1    3    3  502    0 -0.73238542973E+03 -0.94478861850E+03 -0.71790911632E+03  0.13944280335E+04  0.46999998093E+01 0. -1.
       -5    1    3    3    0  502  0.73238542973E+03  0.94478861850E+03  0.31644754657E+03  0.12365981930E+04  0.46999998093E+01 0.  1.
</event>
<event>
 5   0  0.7160320E-07  0.2600116E+04  0.7818609E-02  0.8368162E-01
       -2   -1    0    0    0  501  0.00000000000E+00  0.00000000000E+00  0.18258158474E+04  0.18258158474E+04  0.25500000920E-02 0. -1.
        2   -1    0    0  501    0  0.00000000000E+00  0.00000000000E+00 -0.92569627478E+03  0.92569627478E+03  0.25500000920E-02 0.  1.
    10030    2    1    2    0    0  0.00000000000E+00  0.00000000000E+00  0.90011957262E+03  0.27515121222E+04  0.26001160962E+04 0.  0.
        1    1    3    3  502    0 -0.33133613186E+03  0.27368734907E+03  0.17484752112E+04  0.18005149157E+04  0.50400001928E-02 0. -1.
       -1    1    3    3    0  502  0.33133613186E+03 -0.27368734907E+03 -0.84835563857E+03  0.95099720653E+03  0.50400001928E-02 0.  1.
</event>
<event>
 5   0  0.2623263E-07  0.2601421E+04  0.7818609E-02  0.8367719E-01
        1   -1    0    0  501    0  0.00000000000E+00  0.00000000000E+00  0.19342111544E+04  0.19342111544E+04  0.50400001928E-02 0. -1.
       -1   -1    0    0    0  501  0.00000000000E+00  0.00000000000E+00 -0.87469670259E+03  0.87469670260E+03  0.50400001928E-02 0.  1.
    10030    2    1    2    0    0  0.00000000000E+00  0.00000000000E+00  0.10595144518E+04  0.28089078570E+04  0.26014212415E+04 0.  0.
        1    1    3    3  502    0 -0.69397132633E+03 -0.18649810317E+03  0.17004222816E+04  0.18460264570E+04  0.50400001928E-02 0. -1.
       -1    1    3    3    0  502  0.69397132633E+03  0.18649810317E+03 -0.64090782974E+03  0.96288140002E+03  0.50400001928E-02 0.  1.
</event>
<event>
 5   0  0.6599814E-07  0.2600726E+04  0.7818609E-02  0.8367955E-01
        2   -1    0    0  501    0  0.00000000000E+00  0.00000000000E+00  0.16021157226E+04  0.16021157226E+04  0.25500000920E-02 0.  1.
       -2   -1    0    0    0  501  0.00000000000E+00  0.00000000000E+00 -0.10554442050E+04  0.10554442050E+04  0.25500000920E-02 0. -1.
    10030    2    1    2    0    0  0.00000000000E+00  0.00000000000E+00  0.54667151752E+03  0.26575599276E+04  0.26007258642E+04 0.  0.
        5    1    3    3  502    0 -0.19990617991E+03 -0.53861267187E+03 -0.91871434013E+03  0.10835701269E+04  0.46999998093E+01 0. -1.
       -5    1    3    3    0  502  0.19990617991E+03  0.53861267187E+03  0.14653858577E+04  0.15739898008E+04  0.46999998093E+01 0.  1.
</event>
<event>
 5   0  0.6768478E-07  0.2600623E+04  0.7818609E-02  0.8367990E-01
       -2   -1    0    0    0  501  0.00000000000E+00  0.00000000000E+00  0.13281508916E+04  0.13281508916E+04  0.25500000920E-02 0.  1.
        2   -1    0    0  501    0  0.00000000000E+00  0.00000000000E+00 -0.12730555215E+04  0.12730555215E+04  0.25500000920E-02 0. -1.
    10030    2    1    2    0    0  0.00000000000E+00  0.00000000000E+00  0.55095370162E+02  0.26012064131E+04  0.26006228684E+04 0.  0.
        4    1    3    3  502    0 -0.15649706251E+02  0.12384572372E+04  0.42359987995E+03  0.13089918689E+04  0.12699999809E+01 0.  1.
       -4    1    3    3    0  502  0.15649706251E+02 -0.12384572372E+04 -0.36850450979E+03  0.12922145442E+04  0.12699999809E+01 0. -1.
</event>
<event>
 5   0  0.6768478E-07  0.2600038E+04  0.7818609E-02  0.8368188E-01
        2   -1    0    0  501    0  0.00000000000E+00  0.00000000000E+00  0.21921108032E+04  0.21921108032E+04  0.25500000920E-02 0.  1.
       -2   -1    0    0    0  501  0.00000000000E+00  0.00000000000E+00 -0.77096904282E+03  0.77096904282E+03  0.25500000920E-02 0. -1.
    10030    2    1    2    0    0  0.00000000000E+00  0.00000000000E+00  0.14211417604E+04  0.29630798460E+04  0.26000381287E+04 0.  0.
        4    1    3    3  502    0 -0.10517983489E+03  0.82513920151E+03  0.18491344699E+04  0.20276137206E+04  0.12699999809E+01 0.  1.
       -4    1    3    3    0  502  0.10517983489E+03 -0.82513920151E+03 -0.42799270947E+03  0.93546612541E+03  0.12699999809E+01 0. -1.
</event>
<event>
 5   0  0.2793576E-07  0.2599567E+04  0.7818609E-02  0.8368348E-01
        1   -1    0    0  501    0  0.00000000000E+00  0.00000000000E+00  0.27329124199E+04  0.27329124199E+04  0.50400001928E-02 0.  1.
       -1   -1    0    0    0  501  0.00000000000E+00  0.00000000000E+00 -0.61818200731E+03  0.61818200733E+03  0.50400001928E-02 0. -1.
    10030    2    1    2    0    0  0.00000000000E+00  0.00000000000E+00  0.21147304126E+04  0.33510944272E+04  0.25995671067E+04 0.  0.
        2    1    3    3  502    0 -0.62465777189E+03  0.56443764849E+03  0.23339294324E+04  0.24811315537E+04  0.25500000920E-02 0.  1.
       -2    1    3    3    0  502  0.62465777189E+03 -0.56443764849E+03 -0.21919901987E+03  0.86996287354E+03  0.25500000920E-02 0. -1.
</event>
<event>
 5   0  0.2641626E-07  0.2600633E+04  0.7818609E-02  0.8367986E-01
       -1   -1    0    0    0  501  0.00000000000E+00  0.00000000000E+00  0.65270528973E+03  0.65270528975E+03  0.50400001928E-02 0.  1.
        1   -1    0    0  501    0  0.00000000000E+00  0.00000000000E+00 -0.25904839231E+04  0.25904839231E+04  0.50400001928E-02 0. -1.
    10030    2    1    2    0    0  0.00000000000E+00  0.00000000000E+00 -0.19377786334E+04  0.32431892129E+04  0.26006326612E+04 0.  0.
        3    1    3    3  502    0 -0.77623395451E+03 -0.86668308737E+03 -0.24478543080E+03  0.11889485453E+04  0.10100000352E+00 0.  1.
       -3    1    3    3    0  502  0.77623395451E+03  0.86668308737E+03 -0.16929932026E+04  0.20542406676E+04  0.10100000352E+00 0. -1.
</event>
<event>
 5   0  0.2864801E-07  0.2603044E+04  0.7818609E-02  0.8367168E-01
       -1   -1    0    0    0  501  0.00000000000E+00  0.00000000000E+00  0.10035925165E+04  0.10035925166E+04  0.50400001928E-02 0. -1.
        1   -1    0    0  501    0  0.00000000000E+00  0.00000000000E+00 -0.16878953330E+04  0.16878953330E+04  0.50400001928E-02 0.  1.
    10030    2    1    2    0    0  0.00000000000E+00  0.00000000000E+00 -0.68430281643E+03  0.26914878495E+04  0.26030436991E+04 0.  0.
        5    1    3    3  502    0 -0.10488927565E+04 -0.14607452915E+03 -0.11244446852E+04  0.15446396741E+04  0.46999998093E+01 0.  1.
       -5    1    3    3    0  502  0.10488927565E+04  0.14607452915E+03  0.44014186877E+03  0.11468481754E+04  0.46999998093E+01 0. -1.
</event>
<event>
 5   0  0.6768478E-07  0.2600211E+04  0.7818609E-02  0.8368129E-01
        2   -1    0    0  501    0  0.00000000000E+00  0.00000000000E+00  0.18427508713E+04  0.18427508713E+04  0.25500000920E-02 0. -1.
       -2   -1    0    0    0  501  0.00000000000E+00  0.00000000000E+00 -0.91725620817E+03  0.91725620817E+03  0.25500000920E-02 0.  1.
    10030    2    1    2    0    0  0.00000000000E+00  0.00000000000E+00  0.92549466315E+03  0.27600070795E+04  0.26002112813E+04 0.  0.
        4    1    3    3  502    0  0.55483968376E+03  0.11391715081E+04  0.15380328543E+03  0.12764074048E+04  0.12699999809E+01 0.  1.
       -4    1    3    3    0  502 -0.55483968376E+03 -0.11391715081E+04  0.77169137772E+03  0.14835996747E+04  0.12699999809E+01 0. -1.
</event>
<event>
 5   0  0.6599814E-07  0.2599741E+04  0.7818609E-02  0.8368289E-01
        2   -1    0    0  501    0  0.00000000000E+00  0.00000000000E+00  0.23183632070E+04  0.23183632070E+04  0.25500000920E-02 0.  1.
       -2   -1    0    0    0  501  0.00000000000E+00  0.00000000000E+00 -0.72881743994E+03  0.72881743994E+03  0.25500000920E-02 0. -1.
    10030    2    1    2    0    0  0.00000000000E+00  0.00000000000E+00  0.15895457670E+04  0.30471806469E+04  0.25997411697E+04 0.  0.
        5    1    3    3  502    0 -0.94102437747E+03  0.54936764094E+03  0.16254914165E+04  0.19569302795E+04  0.46999998093E+01 0.  1.
       -5    1    3    3    0  502  0.94102437747E+03 -0.54936764094E+03 -0.35945649420E+02  0.10902503674E+04  0.46999998093E+01 0. -1.
</event>
<event>
 5   0  0.7160320E-07  0.2605037E+04  0.7818609E-02  0.8366492E-01
       -2   -1    0    0    0  501  0.00000000000E+00  0.00000000000E+00  0.12628340587E+04  0.12628340587E+04  0.25500000920E-02 0.  1.
        2   -1    0    0  501    0  0.00000000000E+00  0.00000000000E+00 -0.13434495471E+04  0.13434495471E+04  0.25500000920E-02 0. -1.
    10030    2    1    2    0    0  0.00000000000E+00  0.00000000000E+00 -0.80615488392E+02  0.26062836058E+04  0.26050365404E+04 0.  0.
        1    1    3    3  502    0 -0.42575584718E+03 -0.79597278794E+03 -0.97975305986E+03  0.13321999771E+04  0.50400001928E-02 0. -1.
       -1    1    3    3    0  502  0.42575584718E+03  0.79597278794E+03  0.89913757147E+03  0.12740836287E+04  0.50400001928E-02 0.  1.
</event>
<event>
 5   0  0.7160320E-07  0.2600962E+04  0.7818609E-02  0.8367874E-01
       -2   -1    0    0    0  501  0.00000000000E+00  0.00000000000E+00  0.93832589427E+03  0.93832589427E+03  0.25500000920E-02 0.  1.
        2   -1    0    0  501    0  0.00000000000E+00  0.00000000000E+00 -0.18024130750E+04  0.18024130750E+04  0.25500000920E-02 0. -1.
    10030    2    1    2    0    0  0.00000000000E+00  0.00000000000E+00 -0.86408718069E+03  0.27407389692E+04  0.26009620223E+04 0.  0.
        1    1    3    3  502    0  0.11512781267E+04  0.72145892607E+02 -0.10648184823E+04  0.15698677508E+04  0.50400001928E-02 0. -1.
       -1    1    3    3    0  502 -0.11512781267E+04 -0.72145892607E+02  0.20073130156E+03  0.11708712185E+04  0.50400001928E-02 0.  1.
</event>
<event>
 5   0  0.2294625E-07  0.2600693E+04  0.7818609E-02  0.8367966E-01
        3   -1    0    0  501    0  0.00000000000E+00  0.00000000000E+00  0.12779991890E+04  0.12779991930E+04  0.10100000352E+00 0. -1.
       -3   -1    0    0    0  501  0.00000000000E+00  0.00000000000E+00 -0.13230844709E+04  0.13230844748E+04  0.10100000352E+00 0.  1.
    10030    2    1    2    0    0  0.00000000000E+00  0.00000000000E+00 -0.45085281911E+02  0.26010836677E+04  0.26006929007E+04 0.  0.
        2    1    3    3  502    0  0.10089260887E+04  0.17804252389E+03  0.77837097527E+03  0.12866593830E+04  0.25500000920E-02 0. -1.
       -2    1    3    3    0  502 -0.10089260887E+04 -0.17804252389E+03 -0.82345625718E+03  0.13144242847E+04  0.25500000920E-02 0.  1.
</event>
<event>
 5   0  0.2294625E-07  0.2600919E+04  0.7818609E-02  0.8367889E-01
       -3   -1    0    0    0  501  0.00000000000E+00  0.00000000000E+00  0.15128812808E+04  0.15128812841E+04  0.10100000352E+00 0. -1.
        3   -1    0    0  501    0  0.00000000000E+00  0.00000000000E+00 -0.11178635776E+04  0.11178635822E+04  0.10100000352E+00 0.  1.
    10030    2    1    2    0    0  0.00000000000E+00  0.00000000000E+00  0.39501770315E+03  0.26307448663E+04  0.26009189849E+04 0.  0.
        2    1    3    3  502    0  0.46479997579E+03  0.69248056262E+03  0.12067620636E+04  0.14669161616E+04  0.25500000920E-02 0. -1.
       -2    1    3    3    0  502 -0.46479997579E+03 -0.69248056262E+03 -0.81174436045E+03  0.11638287047E+04  0.25500000920E-02 0.  1.
</event>
<event>
 5   0  0.6768478E-07  0.2599115E+04  0.7818609E-02  0.8368502E-01
       -2   -1    0    0    0  501  0.00000000000E+00  0.00000000000E+00  0.85627281092E+03  0.85627281092E+03  0.25500000920E-02 0. -1.
        2   -1    0    0  501    0  0.00000000000E+00  0.00000000000E+00 -0.19723263786E+04  0.19723263786E+04  0.25500000920E-02 0.  1.
    10030    2    1    2    0    0  0.00000000000E+00  0.00000000000E+00 -0.11160535677E+04  0.28285991895E+04  0.25991148126E+04 0.  0.
        4    1    3    3  502    0 -0.64524527412E+03  0.11104749545E+04 -0.77391452331E+03  0.14994803736E+04  0.12699999809E+01 0.  1.
       -4    1    3    3    0  502  0.64524527412E+03 -0.11104749545E+04 -0.34213904438E+03  0.13291188160E+04  0.12699999809E+01 0. -1.
</event>
<event>
 5   0  0.2755061E-07  0.2599838E+04  0.7818609E-02  0.8368256E-01
        1   -1    0    0  501    0  0.00000000000E+00  0.00000000000E+00  0.11003987220E+04  0.11003987220E+04  0.50400001928E-02 0. -1.
       -1   -1    0    0    0  501  0.00000000000E+00  0.00000000000E+00 -0.15356158731E+04  0.15356158731E+04  0.50400001928E-02 0.  1.
    10030    2    1    2    0    0  0.00000000000E+00  0.00000000000E+00 -0.43521715109E+03  0.26360145951E+04  0.25998382598E+04 0.  0.
        4    1    3    3  502    0  0.10419213650E+04 -0.67473074925E+03 -0.60888830502E+03  0.13826092347E+04  0.12699999809E+01 0.  1.
       -4    1    3    3    0  502 -0.10419213650E+04  0.67473074925E+03  0.17367115393E+03  0.12534053604E+04  0.12699999809E+01 0. -1.
</event>
<event>
 5   0  0.6768478E-07  0.2599832E+04  0.7818609E-02  0.8368258E-01
        2   -1    0    0  501    0  0.00000000000E+00  0.00000000000E+00  0.29824453381E+04  0.29824453381E+04  0.25500000920E-02 0.  1.
       -2   -1    0    0    0  501  0.00000000000E+00  0.00000000000E+00 -0.56657608308E+03  0.56657608309E+03  0.25500000920E-02 0. -1.
    10030    2    1    2    0    0  0.00000000000E+00  0.00000000000E+00  0.24158692550E+04  0.35490214212E+04  0.25998324544E+04 0.  0.
        4    1    3    3  502    0  0.41958287349E+03  0.64073728348E+03  0.26417318513E+04  0.27505168317E+04  0.12699999809E+01 0.  1.
       -4    1    3    3    0  502 -0.41958287349E+03 -0.64073728348E+03 -0.22586259630E+03  0.79850458951E+03  0.12699999809E+01 0. -1.
</event>
<event>
 5   0  0.2641626E-07  0.2600283E+04  0.7818609E-02  0.8368105E-01
       -1   -1    0    0    0  501  0.00000000000E+00  0.00000000000E+00  0.18699225647E+04  0.18699225647E+04  0.50400001928E-02 0. -1.
        1   -1    0    0  501    0  0.00000000000E+00  0.00000000000E+00 -0.90397769939E+03  0.90397769941E+03  0.50400001928E-02 0.  1.
    10030    2    1    2    0    0  0.00000000000E+00  0.00000000000E+00  0.96594486529E+03  0.27739002641E+04  0.26002832908E+04 0.  0.
        3    1    3    3  502    0  0.88391521006E+03  0.78855371202E+03  0.10547098182E+04  0.15860440934E+04  0.10100000352E+00 0. -1.
       -3    1    3    3    0  502 -0.88391521006E+03 -0.78855371202E+03 -0.88764952884E+02  0.11878561707E+04  0.10100000352E+00 0.  1.
</event>
<event>
 5   0  0.2755061E-07  0.2603188E+04  0.7818609E-02  0.8367119E-01
       -1   -1    0    0    0  501  0.00000000000E+00  0.00000000000E+00  0.94997765605E+03  0.94997765606E+03  0.50400001928E-02 0. -1.
        1   -1    0    0  501    0  0.00000000000E+00  0.00000000000E+00 -0.17833538737E+04  0.17833538737E+04  0.50400001928E-02 0.  1.
    10030    2    1    2    0    0  0.00000000000E+00  0.00000000000E+00 -0.83337621767E+03  0.27333315298E+04  0.26031875329E+04 0.  0.
        4    1    3    3  502    0 -0.10976441851E+03  0.12593607903E+04 -0.74219794955E+03  0.14659117425E+04  0.12699999809E+01 0.  1.
       -4    1    3    3    0  502  0.10976441851E+03 -0.12593607903E+04 -0.91178268126E+02  0.12674197873E+04  0.12699999809E+01 0. -1.
</event>
<event>
 5   0  0.2793576E-07  0.2601055E+04  0.7818609E-02  0.8367843E-01
       -1   -1    0    0    0  501  0.00000000000E+00  0.00000000000E+00  0.75031955781E+03  0.75031955783E+03  0.50400001928E-02 0.  1.
        1   -1    0    0  501    0  0.00000000000E+00  0.00000000000E+00 -0.22542011620E+04  0.22542011620E+04  0.50400001928E-02 0. -1.
    10030    2    1    2    0    0  0.00000000000E+00  0.00000000000E+00 -0.15038816041E+04  0.30045207198E+04  0.26010545700E+04 0.  0.
        2    1    3    3  502    0  0.89614943676E+03  0.19822071964E+03  0.31239470166E+03  0.96951829087E+03  0.25500000920E-02 0.  1.
       -2    1    3    3    0  502 -0.89614943676E+03 -0.19822071964E+03 -0.18162763058E+04  0.20350024289E+04  0.25500000920E-02 0. -1.
</event>
<event>
 5   0  0.7160320E-07  0.2599916E+04  0.7818609E-02  0.8368230E-01
       -2   -1    0    0    0  501  0.00000000000E+00  0.00000000000E+00  0.75917803512E+03  0.75917803512E+03  0.25500000920E-02 0. -1.
        2   -1    0    0  501    0  0.00000000000E+00  0.00000000000E+00 -0.22259481836E+04  0.22259481836E+04  0.25500000920E-02 0.  1.
    10030    2    1    2    0    0  0.00000000000E+00  0.00000000000E+00 -0.14667701485E+04  0.29851262188E+04  0.25999161281E+04 0.  0.
        1    1    3    3  502    0 -0.81376391521E+03  0.73750828087E+03 -0.15319655631E+04  0.18849532250E+04  0.50400001928E-02 0.  1.
       -1    1    3    3    0  502  0.81376391521E+03 -0.73750828087E+03  0.65195414542E+02  0.11001729937E+04  0.50400001928E-02 0. -1.
</event>
<event>
 5   0  0.2623263E-07  0.2591942E+04  0.7818609E-02  0.8370943E-01
        1   -1    0    0  501    0  0.00000000000E+00  0.00000000000E+00  0.11016407601E+04  0.11016407601E+04  0.50400001928E-02 0.  1.
       -1   -1    0    0    0  501  0.00000000000E+00  0.00000000000E+00 -0.15245817689E+04  0.15245817689E+04  0.50400001928E-02 0. -1.
    10030    2    1    2    0    0  0.00000000000E+00  0.00000000000E+00 -0.42294100884E+03  0.26262225290E+04  0.25919424521E+04 0.  0.
        1    1    3    3  502    0 -0.81276054609E+03  0.16560231510E+03  0.79745885195E+03  0.11506278515E+04  0.50400001928E-02 0.  1.
       -1    1    3    3    0  502  0.81276054609E+03 -0.16560231510E+03 -0.12203998608E+04  0.14755946775E+04  0.50400001928E-02 0. -1.
</event>
<event>
 5   0  0.7160320E-07  0.2599229E+04  0.7818609E-02  0.8368463E-01
       -2   -1    0    0    0  501  0.00000000000E+00  0.00000000000E+00  0.11377009737E+04  0.11377009737E+04  0.25500000920E-02 0. -1.
        2   -1    0    0  501    0  0.00000000000E+00  0.00000000000E+00 -0.14845707679E+04  0.14845707679E+04  0.25500000920E-02 0.  1.
    10030    2    1    2    0    0  0.00000000000E+00  0.00000000000E+00 -0.34686979416E+03  0.26222717416E+04  0.25992288150E+04 0.  0.
        1    1    3    3  502    0 -0.47150101927E+03 -0.10786241433E+04  0.38213244002E+03  0.12376463370E+04  0.50400001928E-02 0. -1.
       -1    1    3    3    0  502  0.47150101927E+03  0.10786241433E+04 -0.72900223418E+03  0.13846254046E+04  0.50400001928E-02 0.  1.
</event>
<event>
 5   0  0.6780984E-07  0.2599568E+04  0.7818609E-02  0.8368348E-01
       -2   -1    0    0    0  501  0.00000000000E+00  0.00000000000E+00  0.22768154787E+04  0.22768154787E+04  0.25500000920E-02 0.  1.
        2   -1    0    0  501    0  0.00000000000E+00  0.00000000000E+00 -0.74201805211E+03  0.74201805211E+03  0.25500000920E-02 0. -1.
    10030    2    1    2    0    0  0.00000000000E+00  0.00000000000E+00  0.15347974266E+04  0.30188335308E+04  0.25995677999E+04 0.  0.
        2    1    3    3  502    0 -0.43922171525E+03  0.13451955875E+03 -0.64461187387E+03  0.79154007781E+03  0.25500000920E-02 0. -1.
       -2    1    3    3    0  502  0.43922171525E+03 -0.13451955875E+03  0.21794093005E+04  0.22272934530E+04  0.25500000920E-02 0.  1.
</event>
<event>
 5   0  0.6768478E-07  0.2600819E+04  0.7818609E-02  0.8367923E-01
       -2   -1    0    0    0  501  0.00000000000E+00  0.00000000000E+00  0.15902444582E+04  0.15902444582E+04  0.25500000920E-02 0. -1.
        2   -1    0    0  501    0  0.00000000000E+00  0.00000000000E+00 -0.10633990596E+04  0.10633990596E+04  0.25500000920E-02 0.  1.
    10030    2    1    2    0    0  0.00000000000E+00  0.00000000000E+00  0.52684539865E+03  0.26536435178E+04  0.26008186875E+04 0.  0.
        4    1    3    3  502    0 -0.17576172312E+03 -0.11278773460E+04  0.89902260214E+03  0.14530116114E+04  0.12699999809E+01 0. -1.
       -4    1    3    3    0  502  0.17576172312E+03  0.11278773460E+04 -0.37217720350E+03  0.12006319064E+04  0.12699999809E+01 0.  1.
</event>
<event>
 5   0  0.2755061E-07  0.2600195E+04  0.7818609E-02  0.8368135E-01
        1   -1    0    0  501    0  0.00000000000E+00  0.00000000000E+00  0.16140713103E+04  0.16140713103E+04  0.50400001928E-02 0.  1.
       -1   -1    0    0    0  501  0.00000000000E+00  0.00000000000E+00 -0.10471985700E+04  0.10471985700E+04  0.50400001928E-02 0. -1.
    10030    2    1    2    0    0  0.00000000000E+00  0.00000000000E+00  0.56687274029E+03  0.26612698803E+04  0.26001947373E+04 0.  0.
        4    1    3    3  502    0  0.10061621091E+04 -0.19514681067E+02  0.11258791868E+04  0.15100823053E+04  0.12699999809E+01 0.  1.
       -4    1    3    3    0  502 -0.10061621091E+04  0.19514681067E+02 -0.55900644654E+03  0.11511875750E+04  0.12699999809E+01 0. -1.
</event>
<event>
 5   0  0.2623263E-07  0.2600450E+04  0.7818609E-02  0.8368048E-01
       -1   -1    0    0    0  501  0.00000000000E+00  0.00000000000E+00  0.74028807756E+03  0.74028807758E+03  0.50400001928E-02 0.  1.
        1   -1    0    0  501    0  0.00000000000E+00  0.00000000000E+00 -0.22836853834E+04  0.22836853834E+04  0.50400001928E-02 0. -1.
    10030    2    1    2    0    0  0.00000000000E+00  0.00000000000E+00 -0.15433973059E+04  0.30239734610E+04  0.26004500090E+04 0.  0.
        1    1    3    3  502    0  0.59864888212E+03  0.76793395904E+02  0.56752020054E+03  0.82846658819E+03  0.50400001928E-02 0.  1.
       -1    1    3    3    0  502 -0.59864888212E+03 -0.76793395904E+02 -0.21109175064E+04  0.21955068728E+04  0.50400001928E-02 0. -1.
</event>
<event>
 5   0  0.6768478E-07  0.2600901E+04  0.7818609E-02  0.8367895E-01
        2   -1    0    0  501    0  0.00000000000E+00  0.00000000000E+00  0.14247741953E+04  0.14247741953E+04  0.25500000920E-02 0.  1.
       -2   -1    0    0    0  501  0.00000000000E+00  0.00000000000E+00 -0.11869755341E+04  0.11869755341E+04  0.25500000920E-02 0. -1.
    10030    2    1    2    0    0  0.00000000000E+00  0.00000000000E+00  0.23779866121E+03  0.26117497294E+04  0.26009014679E+04 0.  0.
        4    1    3    3  502    0 -0.40659159252E+03  0.10104869421E+04  0.83233429545E+03  0.13708328037E+04  0.12699999809E+01 0.  1.
       -4    1    3    3    0  502  0.40659159252E+03 -0.10104869421E+04 -0.59453563424E+03  0.12409169257E+04  0.12699999809E+01 0. -1.
</event>
<event>
 5   0  0.6599814E-07  0.2599988E+04  0.7818609E-02  0.8368205E-01
       -2   -1    0    0    0  501  0.00000000000E+00  0.00000000000E+00  0.14566640702E+04  0.14566640702E+04  0.25500000920E-02 0. -1.
        2   -1    0    0  501    0  0.00000000000E+00  0.00000000000E+00 -0.11601745692E+04  0.11601745692E+04  0.25500000920E-02 0.  1.
    10030    2    1    2    0    0  0.00000000000E+00  0.00000000000E+00  0.29648950098E+03  0.26168386394E+04  0.25999881616E+04 0.  0.
        5    1    3    3  502    0 -0.26048737127E+03 -0.12391916898E+04  0.44428159816E+03  0.13419604849E+04  0.46999998093E+01 0. -1.
       -5    1    3    3    0  502  0.26048737127E+03  0.12391916898E+04 -0.14779209718E+03  0.12748781544E+04  0.46999998093E+01 0.  1.
</event>
<event>
 5   0  0.2793576E-07  0.2598548E+04  0.7818609E-02  0.8368695E-01
       -1   -1    0    0    0  501  0.00000000000E+00  0.00000000000E+00  0.88331822268E+03  0.88331822270E+03  0.50400001928E-02 0.  1.
        1   -1    0    0  501    0  0.00000000000E+00  0.00000000000E+00 -0.19111035043E+04  0.19111035043E+04  0.50400001928E-02 0. -1.
    10030    2    1    2    0    0  0.00000000000E+00  0.00000000000E+00 -0.10277852817E+04  0.27944217270E+04  0.25985477104E+04 0.  0.
        2    1    3    3  502    0  0.89183916083E+03 -0.57828753809E+02 -0.15280554775E+04  0.17702188553E+04  0.25500000920E-02 0. -1.
       -2    1    3    3    0  502 -0.89183916083E+03  0.57828753809E+02  0.50027019582E+03  0.10242028717E+04  0.25500000920E-02 0.  1.
</event>
<event>
 5   0  0.2641626E-07  0.2599965E+04  0.7818609E-02  0.8368213E-01
        1   -1    0    0  501    0  0.00000000000E+00  0.00000000000E+00  0.16394380588E+04  0.16394380588E+04  0.50400001928E-02 0. -1.
       -1   -1    0    0    0  501  0.00000000000E+00  0.00000000000E+00 -0.10308134515E+04  0.10308134515E+04  0.50400001928E-02 0.  1.
    10030    2    1    2    0    0  0.00000000000E+00  0.00000000000E+00  0.60862460730E+03  0.26702515104E+04  0.25999652336E+04 0.  0.
        3    1    3    3  502    0 -0.39374911059E+01  0.54347175063E+03  0.15171592360E+04  0.16115673132E+04  0.10100000352E+00 0. -1.
       -3    1    3    3    0  502  0.39374911059E+01 -0.54347175063E+03 -0.90853462869E+03  0.10586841971E+04  0.10100000352E+00 0.  1.
</event>
<event>
 5   0  0.6780984E-07  0.2599768E+04  0.7818609E-02  0.8368280E-01
       -2   -1    0    0    0  501  0.00000000000E+00  0.00000000000E+00  0.93620492602E+03  0.93620492602E+03  0.25500000920E-02 0.  1.
        2   -1    0    0  501    0  0.00000000000E+00  0.00000000000E+00 -0.18048375093E+04  0.18048375093E+04  0.25500000920E-02 0. -1.
    10030    2    1    2    0    0  0.00000000000E+00  0.00000000000E+00 -0.86863258329E+03  0.27410424353E+04  0.25997675026E+04 0.  0.
        2    1    3    3  502    0 -0.37145111491E+03  0.11943116442E+04 -0.80759115819E+03  0.14888115102E+04  0.25500000920E-02 0. -1.
       -2    1    3    3    0  502  0.37145111491E+03 -0.11943116442E+04 -0.61041425099E+02  0.12522309251E+04  0.25500000920E-02 0.  1.
</event>
<event>
 5   0  0.6768478E-07  0.2598663E+04  0.7818609E-02  0.8368656E-01
       -2   -1    0    0    0  501  0.00000000000E+00  0.00000000000E+00  0.94268237079E+03  0.94268237079E+03  0.25500000920E-02 0. -1.
        2   -1    0    0  501    0  0.00000000000E+00  0.00000000000E+00 -0.17909126172E+04  0.17909126172E+04  0.25500000920E-02 0.  1.
    10030    2    1    2    0    0  0.00000000000E+00  0.00000000000E+00 -0.84823024637E+03  0.27335949880E+04  0.25986625420E+04 0.  0.
        4    1    3    3  502    0 -0.12790724920E+04 -0.17318767191E+03 -0.58098842293E+03  0.14154750334E+04  0.12699999809E+01 0.  1.
       -4    1    3    3    0  502  0.12790724920E+04  0.17318767191E+03 -0.26724182344E+03  0.13181199546E+04  0.12699999809E+01 0. -1.
</event>
<event>
 5   0  0.2623263E-07  0.2598592E+04  0.7818609E-02  0.8368680E-01
       -1   -1    0    0    0  501  0.00000000000E+00  0.00000000000E+00  0.84011789764E+03  0.84011789766E+03  0.50400001928E-02 0. -1.
        1   -1    0    0  501    0  0.00000000000E+00  0.00000000000E+00 -0.20094445205E+04  0.20094445205E+04  0.50400001928E-02 0.  1.
    10030    2    1    2    0    0  0.00000000000E+00  0.00000000000E+00 -0.11693266228E+04  0.28495624181E+04  0.25985921619E+04 0.  0.
        1    1    3    3  502    0 -0.86038683197E+03 -0.60458014562E+03 -0.14215104389E+04  0.17681839782E+04  0.50400001928E-02 0.  1.
       -1    1    3    3    0  502  0.86038683197E+03  0.60458014562E+03  0.25218381604E+03  0.10813784399E+04  0.50400001928E-02 0. -1.
</event>
<event>
 5   0  0.2623263E-07  0.2601214E+04  0.7818609E-02  0.8367789E-01
       -1   -1    0    0    0  501  0.00000000000E+00  0.00000000000E+00  0.93030829534E+03  0.93030829535E+03  0.50400001928E-02 0.  1.
        1   -1    0    0  501    0  0.00000000000E+00  0.00000000000E+00 -0.18182987839E+04  0.18182987840E+04  0.50400001928E-02 0. -1.
    10030    2    1    2    0    0  0.00000000000E+00  0.00000000000E+00 -0.88799048860E+03  0.27486070793E+04  0.26012139029E+04 0.  0.
        1    1    3    3  502    0  0.38501793600E+03 -0.11806974751E+04 -0.35716785211E+02  0.12424013150E+04  0.50400001928E-02 0. -1.
       -1    1    3    3    0  502 -0.38501793600E+03  0.11806974751E+04 -0.85227370339E+03  0.15062057643E+04  0.50400001928E-02 0.  1.
</event>
<event>
 5   0  0.6526351E-07  0.2599414E+04  0.7818609E-02  0.8368400E-01
       -2   -1    0    0    0  501  0.00000000000E+00  0.00000000000E+00  0.25697994641E+04  0.25697994641E+04  0.25500000920E-02 0. -1.
        2   -1    0    0  501    0  0.00000000000E+00  0.00000000000E+00 -0.65734242949E+03  0.65734242950E+03  0.25500000920E-02 0.  1.
    10030    2    1    2    0    0  0.00000000000E+00  0.00000000000E+00  0.19124570346E+04  0.32271418936E+04  0.25994139517E+04 0.  0.
        3    1    3    3  502    0 -0.32553967552E+03  0.85589644428E+03  0.21012976358E+04  0.22921576229E+04  0.10100000352E+00 0. -1.
       -3    1    3    3    0  502  0.32553967552E+03 -0.85589644428E+03 -0.18884060118E+03  0.93498427074E+03  0.10100000352E+00 0.  1.
</event>
<event>
 5   0  0.2755061E-07  0.2596500E+04  0.7818609E-02  0.8369391E-01
       -1   -1    0    0    0  501  0.00000000000E+00  0.00000000000E+00  0.13451791914E+04  0.13451791914E+04  0.50400001928E-02 0. -1.
        1   -1    0    0  501    0  0.00000000000E+00  0.00000000000E+00 -0.12529580222E+04  0.12529580222E+04  0.50400001928E-02 0.  1.
    10030    2    1    2    0    0  0.00000000000E+00  0.00000000000E+00  0.92221169152E+02  0.25981372136E+04  0.25964999974E+04 0.  0.
        4    1    3    3  502    0  0.55587795723E+03 -0.45364545232E+03 -0.10365406618E+04  0.12606397805E+04  0.12699999809E+01 0.  1.
       -4    1    3    3    0  502 -0.55587795723E+03  0.45364545232E+03  0.11287618309E+04  0.13374974331E+04  0.12699999809E+01 0. -1.
</event>
<event>
 5   0  0.2623263E-07  0.2600025E+04  0.7818609E-02  0.8368193E-01
       -1   -1    0    0    0  501  0.00000000000E+00  0.00000000000E+00  0.97501448476E+03  0.97501448478E+03  0.50400001928E-02 0. -1.
        1   -1    0    0  501    0  0.00000000000E+00  0.00000000000E+00 -0.17333403670E+04  0.17333403670E+04  0.50400001928E-02 0.  1.
    10030    2    1    2    0    0  0.00000000000E+00  0.00000000000E+00 -0.75832588228E+03  0.27083548518E+04  0.26000245883E+04 0.  0.
        1    1    3    3  502    0  0.11380617021E+03 -0.92091011958E+03 -0.13275958167E+04  0.16197339118E+04  0.50400001928E-02 0.  1.
       -1    1    3    3    0  502 -0.11380617021E+03  0.92091011958E+03  0.56926993439E+03  0.10886209400E+04  0.50400001928E-02 0. -1.
</event>
<event>
 5   0  0.2623263E-07  0.2600047E+04  0.7818609E-02  0.8368185E-01
       -1   -1    0    0    0  501  0.00000000000E+00  0.00000000000E+00  0.14680304326E+04  0.14680304326E+04  0.50400001928E-02 0. -1.
        1   -1    0    0  501    0  0.00000000000E+00  0.00000000000E+00 -0.11512442889E+04  0.11512442889E+04  0.50400001928E-02 0.  1.
    10030    2    1    2    0    0  0.00000000000E+00  0.00000000000E+00  0.31678614367E+03  0.26192747215E+04  0.26000474238E+04 0.  0.
        1    1    3    3  502    0 -0.29595585532E+03 -0.81801133697E+03  0.11316269476E+04  0.14273443748E+04  0.50400001928E-02 0. -1.
       -1    1    3    3    0  502  0.29595585532E+03  0.81801133697E+03 -0.81484080394E+03  0.11919303467E+04  0.50400001928E-02 0.  1.
</event>
<event>
 5   0  0.2641626E-07  0.2600268E+04  0.7818609E-02  0.8368110E-01
        1   -1    0    0  501    0  0.00000000000E+00  0.00000000000E+00  0.28164531561E+04  0.28164531561E+04  0.50400001928E-02 0. -1.
       -1   -1    0    0    0  501  0.00000000000E+00  0.00000000000E+00 -0.60016937305E+03  0.60016937307E+03  0.50400001928E-02 0.  1.
    10030    2    1    2    0    0  0.00000000000E+00  0.00000000000E+00  0.22162837831E+04  0.34166225292E+04  0.26002683900E+04 0.  0.
        3    1    3    3  502    0 -0.53135336677E+03  0.11860117870E+04  0.11571040362E+04  0.17400718721E+04  0.10100000352E+00 0. -1.
       -3    1    3    3    0  502  0.53135336677E+03 -0.11860117870E+04  0.10591797468E+04  0.16765506571E+04  0.10100000352E+00 0.  1.
</event>
<event>
 5   0  0.6599814E-07  0.2599718E+04  0.7818609E-02  0.8368297E-01
       -2   -1    0    0    0  501  0.00000000000E+00  0.00000000000E+00  0.10321102283E+04  0.10321102283E+04  0.25500000920E-02 0.  1.
        2   -1    0    0  501    0  0.00000000000E+00  0.00000000000E+00 -0.16370665610E+04  0.16370665610E+04  0.25500000920E-02 0. -1.
    10030    2    1    2    0    0  0.00000000000E+00  0.00000000000E+00 -0.60495633268E+03  0.26691767893E+04  0.25997177863E+04 0.  0.
        5    1    3    3  502    0 -0.13364687216E+03  0.11719995317E+04  0.25815744031E+03  0.12075229781E+04  0.46999998093E+01 0.  1.
       -5    1    3    3    0  502  0.13364687216E+03 -0.11719995317E+04 -0.86311377299E+03  0.14616538112E+04  0.46999998093E+01 0. -1.
</event>
<event>
 5   0  0.2755061E-07  0.2605193E+04  0.7818609E-02  0.8366439E-01
       -1   -1    0    0    0  501  0.00000000000E+00  0.00000000000E+00  0.18544346490E+04  0.18544346490E+04  0.50400001928E-02 0. -1.
        1   -1    0    0  501    0  0.00000000000E+00  0.00000000000E+00 -0.91497321678E+03  0.91497321680E+03  0.50400001928E-02 0.  1.
    10030    2    1    2    0    0  0.00000000000E+00  0.00000000000E+00  0.93946143221E+03  0.27694078658E+04  0.26051933027E+04 0.  0.
        4    1    3    3  502    0 -0.93170699683E+03  0.90942562715E+03  0.42689793031E+03  0.13701738412E+04  0.12699999809E+01 0.  1.
       -4    1    3    3    0  502  0.93170699683E+03 -0.90942562715E+03  0.51256350191E+03  0.13992340246E+04  0.12699999809E+01 0. -1.
</event>
<event>
 5   0  0.2623263E-07  0.2599652E+04  0.7818609E-02  0.8368319E-01
       -1   -1    0    0    0  501  0.00000000000E+00  0.00000000000E+00  0.17058398101E+04  0.17058398101E+04  0.50400001928E-02 0.  1.
        1   -1    0    0  501    0  0.00000000000E+00  0.00000000000E+00 -0.99044900458E+03  0.99044900460E+03  0.50400001928E-02 0. -1.
    10030    2    1    2    0    0  0.00000000000E+00  0.00000000000E+00  0.71539080552E+03  0.26962888147E+04  0.25996517782E+04 0.  0.
        1    1    3    3  502    0 -0.69193145088E+03 -0.74144923123E+03  0.12009568126E+04  0.15718821078E+04  0.50400001928E-02 0.  1.
       -1    1    3    3    0  502  0.69193145088E+03  0.74144923123E+03 -0.48556600707E+03  0.11244067069E+04  0.50400001928E-02 0. -1.
</event>
<event>
 5   0  0.2623263E-07  0.2599176E+04  0.7818609E-02  0.8368481E-01
        1   -1    0    0  501    0  0.00000000000E+00  0.00000000000E+00  0.15079435539E+04  0.15079435539E+04  0.50400001928E-02 0. -1.
       -1   -1    0    0    0  501  0.00000000000E+00  0.00000000000E+00 -0.11200217652E+04  0.11200217652E+04  0.50400001928E-02 0.  1.
    10030    2    1    2    0    0  0.00000000000E+00  0.00000000000E+00  0.38792178874E+03  0.26279653191E+04  0.25991764858E+04 0.  0.
        1    1    3    3  502    0 -0.68863488122E+03 -0.95005221679E+03  0.75881899669E+03  0.13973630466E+04  0.50400001928E-02 0. -1.
       -1    1    3    3    0  502  0.68863488122E+03  0.95005221679E+03 -0.37089720795E+03  0.12306022725E+04  0.50400001928E-02 0.  1.
</event>
<event>
 5   0  0.6599814E-07  0.2601479E+04  0.7818609E-02  0.8367699E-01
       -2   -1    0    0    0  501  0.00000000000E+00  0.00000000000E+00  0.13811634058E+04  0.13811634058E+04  0.25500000920E-02 0.  1.
        2   -1    0    0  501    0  0.00000000000E+00  0.00000000000E+00 -0.12249989185E+04  0.12249989185E+04  0.25500000920E-02 0. -1.
    10030    2    1    2    0    0  0.00000000000E+00  0.00000000000E+00  0.15616448722E+03  0.26061623243E+04  0.26014793317E+04 0.  0.
        5    1    3    3  502    0 -0.11864704133E+04  0.52021784381E+03 -0.38587442610E+02  0.12960901695E+04  0.46999998093E+01 0.  1.
       -5    1    3    3    0  502  0.11864704133E+04 -0.52021784381E+03  0.19475192983E+03  0.13100721548E+04  0.46999998093E+01 0. -1.
</event>
<event>
 5   0  0.6768478E-07  0.2599440E+04  0.7818609E-02  0.8368391E-01
        2   -1    0    0  501    0  0.00000000000E+00  0.00000000000E+00  0.18500049468E+04  0.18500049468E+04  0.25500000920E-02 0. -1.
       -2   -1    0    0    0  501  0.00000000000E+00  0.00000000000E+00 -0.91311752495E+03  0.91311752496E+03  0.25500000920E-02 0.  1.
    10030    2    1    2    0    0  0.00000000000E+00  0.00000000000E+00  0.93688742183E+03  0.27631224717E+04  0.25994398921E+04 0.  0.
        4    1    3    3  502    0 -0.39341399806E+03  0.76392616758E+03 -0.56810722394E+03  0.10300996040E+04  0.12699999809E+01 0.  1.
       -4    1    3    3    0  502  0.39341399806E+03 -0.76392616758E+03  0.15049946458E+04  0.17330228677E+04  0.12699999809E+01 0. -1.
</event>
<event>
 5   0  0.2864801E-07  0.2600116E+04  0.7818609E-02  0.8368162E-01
       -1   -1    0    0    0  501  0.00000000000E+00  0.00000000000E+00  0.57398506164E+03  0.57398506166E+03  0.50400001928E-02 0.  1.
        1   -1    0    0  501    0  0.00000000000E+00  0.00000000000E+00 -0.29445912814E+04  0.29445912814E+04  0.50400001928E-02 0. -1.
    10030    2    1    2    0    0  0.00000000000E+00  0.00000000000E+00 -0.23706062197E+04  0.35185763430E+04  0.26001164652E+04 0.  0.
        5    1    3    3  502    0  0.41893010450E+02 -0.96097838139E+03 -0.17846293550E+01  0.96190423054E+03  0.46999998093E+01 0. -1.
       -5    1    3    3    0  502 -0.41893010450E+02  0.96097838139E+03 -0.23688215904E+04  0.25566721125E+04  0.46999998093E+01 0.  1.
</event>
<event>
 5   0  0.6768478E-07  0.2600825E+04  0.7818609E-02  0.8367921E-01
       -2   -1    0    0    0  501  0.00000000000E+00  0.00000000000E+00  0.76132978225E+03  0.76132978225E+03  0.25500000920E-02 0. -1.
        2   -1    0    0  501    0  0.00000000000E+00  0.00000000000E+00 -0.22212089143E+04  0.22212089143E+04  0.25500000920E-02 0.  1.
    10030    2    1    2    0    0  0.00000000000E+00  0.00000000000E+00 -0.14598791321E+04  0.29825386966E+04  0.26008248685E+04 0.  0.
        4    1    3    3  502    0  0.31964614025E+03  0.40996424319E+03  0.63698802582E+03  0.82219200532E+03  0.12699999809E+01 0. -1.
       -4    1    3    3    0  502 -0.31964614025E+03 -0.40996424319E+03 -0.20968671579E+04  0.21603466913E+04  0.12699999809E+01 0.  1.
</event>
<event>
 5   0  0.2641626E-07  0.2595485E+04  0.7818609E-02  0.8369737E-01
       -1   -1    0    0    0  501  0.00000000000E+00  0.00000000000E+00  0.10448612089E+04  0.10448612089E+04  0.50400001928E-02 0. -1.
        1   -1    0    0  501    0  0.00000000000E+00  0.00000000000E+00 -0.16118265180E+04  0.16118265180E+04  0.50400001928E-02 0.  1.
    10030    2    1    2    0    0  0.00000000000E+00  0.00000000000E+00 -0.56696530916E+03  0.26566877269E+04  0.25954845437E+04 0.  0.
        3    1    3    3  502    0 -0.95878252296E+02  0.58566905720E+03  0.89782612867E+03  0.10762400528E+04  0.10100000352E+00 0. -1.
       -3    1    3    3    0  502  0.95878252296E+02 -0.58566905720E+03 -0.14647914378E+04  0.15804476740E+04  0.10100000352E+00 0.  1.
</event>
<event>
 5   0  0.6780984E-07  0.2598439E+04  0.7818609E-02  0.8368732E-01
        2   -1    0    0  501    0  0.00000000000E+00  0.00000000000E+00  0.15494583829E+04  0.15494583829E+04  0.25500000920E-02 0.  1.
       -2   -1    0    0    0  501  0.00000000000E+00  0.00000000000E+00 -0.10893940601E+04  0.10893940601E+04  0.25500000920E-02 0. -1.
    10030    2    1    2    0    0  0.00000000000E+00  0.00000000000E+00  0.46006432276E+03  0.26388524430E+04  0.25984385764E+04 0.  0.
        2    1    3    3  502    0  0.11039847531E+04 -0.63846243301E+03  0.48199199006E+03  0.13633535462E+04  0.25500000920E-02 0.  1.
       -2    1    3    3    0  502 -0.11039847531E+04  0.63846243301E+03 -0.21927667300E+02  0.12754988969E+04  0.25500000920E-02 0. -1.
</event>
<event>
 5   0  0.7160320E-07  0.2599840E+04  0.7818609E-02  0.8368256E-01
        2   -1    0    0  501    0  0.00000000000E+00  0.00000000000E+00  0.20351059742E+04  0.20351059742E+04  0.25500000920E-02 0.  1.
       -2   -1    0    0    0  501  0.00000000000E+00  0.00000000000E+00 -0.83032120614E+03  0.83032120614E+03  0.25500000920E-02 0. -1.
    10030    2    1    2    0    0  0.00000000000E+00  0.00000000000E+00  0.12047847681E+04  0.28654271804E+04  0.25998397236E+04 0.  0.
        1    1    3    3  502    0  0.51848348874E+03  0.24718870405E+03 -0.68286640211E+03  0.89231939722E+03  0.50400001928E-02 0. -1.
       -1    1    3    3    0  502 -0.51848348874E+03 -0.24718870405E+03  0.18876511702E+04  0.19731077832E+04  0.50400001928E-02 0.  1.
</event>
<event>
 5   0  0.2755061E-07  0.2600448E+04  0.7818609E-02  0.8368049E-01
       -1   -1    0    0    0  501  0.00000000000E+00  0.00000000000E+00  0.15774818258E+04  0.15774818259E+04  0.50400001928E-02 0. -1.
        1   -1    0    0  501    0  0.00000000000E+00  0.00000000000E+00 -0.10716966979E+04  0.10716966979E+04  0.50400001928E-02 0.  1.
    10030    2    1    2    0    0  0.00000000000E+00  0.00000000000E+00  0.50578512797E+03  0.26491785237E+04  0.26004477028E+04 0.  0.
        4    1    3    3  502    0 -0.10851158222E+03  0.81794527761E+03 -0.77081189187E+03  0.11291420753E+04  0.12699999809E+01 0.  1.
       -4    1    3    3    0  502  0.10851158222E+03 -0.81794527761E+03  0.12765970198E+04  0.15200364484E+04  0.12699999809E+01 0. -1.
</event>
<event>
 5   0  0.7160320E-07  0.2599745E+04  0.7818609E-02  0.8368288E-01
        2   -1    0    0  501    0  0.00000000000E+00  0.00000000000E+00  0.10280353878E+04  0.10280353878E+04  0.25500000920E-02 0.  1.
       -2   -1    0    0    0  501  0.00000000000E+00  0.00000000000E+00 -0.16435898435E+04  0.16435898435E+04  0.25500000920E-02 0. -1.
    10030    2    1    2    0    0  0.00000000000E+00  0.00000000000E+00 -0.61555445562E+03  0.26716252313E+04  0.25997450045E+04 0.  0.
        1    1    3    3  502    0 -0.11851550998E+04  0.50940420857E+03 -0.47214730480E+03  0.13736842198E+04  0.50400001928E-02 0.  1.
       -1    1    3    3    0  502  0.11851550998E+04 -0.50940420857E+03 -0.14340715082E+03  0.12979410115E+04  0.50400001928E-02 0. -1.
</event>
<event>
 5   0  0.2793576E-07  0.2598257E+04  0.7818609E-02  0.8368793E-01
        1   -1    0    0  501    0  0.00000000000E+00  0.00000000000E+00  0.14619532199E+04  0.14619532199E+04  0.50400001928E-02 0.  1.
       -1   -1    0    0    0  501  0.00000000000E+00  0.00000000000E+00 -0.11544385070E+04  0.11544385070E+04  0.50400001928E-02 0. -1.
    10030    2    1    2    0    0  0.00000000000E+00  0.00000000000E+00  0.30751471294E+03  0.26163917269E+04  0.25982571793E+04 0.  0.
        2    1    3    3  502    0 -0.10615636777E+04 -0.61079688153E+03  0.59007684651E+03  0.13594781930E+04  0.25500000920E-02 0.  1.
       -2    1    3    3    0  502  0.10615636777E+04  0.61079688153E+03 -0.28256213357E+03  0.12569135339E+04  0.25500000920E-02 0. -1.
</event>
<event>
 5   0  0.6768478E-07  0.2600398E+04  0.7818609E-02  0.8368066E-01
        2   -1    0    0  501    0  0.00000000000E+00  0.00000000000E+00  0.20956332021E+04  0.20956332021E+04  0.25500000920E-02 0. -1.
       -2   -1    0    0    0  501  0.00000000000E+00  0.00000000000E+00 -0.80668579597E+03  0.80668579597E+03  0.25500000920E-02 0.  1.
    10030    2    1    2    0    0  0.00000000000E+00  0.00000000000E+00  0.12889474061E+04  0.29023189980E+04  0.26003980754E+04 0.  0.
        4    1    3    3  502    0  0.93119405441E+03 -0.64745006161E+03  0.13540588636E+04  0.17662930018E+04  0.12699999809E+01 0. -1.
       -4    1    3    3    0  502 -0.93119405441E+03  0.64745006161E+03 -0.65111457529E+02  0.11360259962E+04  0.12699999809E+01 0.  1.
</event>
<event>
 5   0  0.6526351E-07  0.2601585E+04  0.7818609E-02  0.8367663E-01
        2   -1    0    0  501    0  0.00000000000E+00  0.00000000000E+00  0.19856058387E+04  0.19856058387E+04  0.25500000920E-02 0.  1.
       -2   -1    0    0    0  501  0.00000000000E+00  0.00000000000E+00 -0.85216382517E+03  0.85216382517E+03  0.25500000920E-02 0. -1.
    10030    2    1    2    0    0  0.00000000000E+00  0.00000000000E+00  0.11334420135E+04  0.28377696639E+04  0.26015852604E+04 0.  0.
        3    1    3    3  502    0 -0.11068876910E+04  0.36949794097E+03 -0.60202628920E+02  0.11684833998E+04  0.10100000352E+00 0. -1.
       -3    1    3    3    0  502  0.11068876910E+04 -0.36949794097E+03  0.11936446425E+04  0.16692862641E+04  0.10100000352E+00 0.  1.
</event>
<event>
 5   0  0.2793576E-07  0.2600081E+04  0.7818609E-02  0.8368174E-01
        1   -1    0    0  501    0  0.00000000000E+00  0.00000000000E+00  0.13977149917E+04  0.13977149917E+04  0.50400001928E-02 0. -1.
       -1   -1    0    0    0  501  0.00000000000E+00  0.00000000000E+00 -0.12091912774E+04  0.12091912774E+04  0.50400001928E-02 0.  1.
    10030    2    1    2    0    0  0.00000000000E+00  0.00000000000E+00  0.18852371434E+03  0.26069062691E+04  0.26000805959E+04 0.  0.
        2    1    3    3  502    0  0.77833671049E+02  0.29461611111E+03 -0.11728786914E+04  0.12118172957E+04  0.25500000920E-02 0.  1.
       -2    1    3    3    0  502 -0.77833671049E+02 -0.29461611111E+03  0.13614024058E+04  0.13950889734E+04  0.25500000920E-02 0. -1.
</event>
<event>
 5   0  0.2755061E-07  0.2599788E+04  0.7818609E-02  0.8368273E-01
        1   -1    0    0  501    0  0.00000000000E+00  0.00000000000E+00  0.16405284144E+04  0.16405284144E+04  0.50400001928E-02 0.  1.
       -1   -1    0    0    0  501  0.00000000000E+00  0.00000000000E+00 -0.10299876245E+04  0.10299876245E+04  0.50400001928E-02 0. -1.
    10030    2    1    2    0    0  0.00000000000E+00  0.00000000000E+00  0.61054078991E+03  0.26705160390E+04  0.25997876564E+04 0.  0.
        4    1    3    3  502    0  0.55502150360E+03  0.14506259653E+03  0.15034650731E+04  0.16091926129E+04  0.12699999809E+01 0.  1.
       -4    1    3    3    0  502 -0.55502150360E+03 -0.14506259653E+03 -0.89292428319E+03  0.10613234261E+04  0.12699999809E+01 0. -1.
</event>
<event>
 5   0  0.2641626E-07  0.2597656E+04  0.7818609E-02  0.8368998E-01
       -1   -1    0    0    0  501  0.00000000000E+00  0.00000000000E+00  0.57657939404E+03  0.57657939406E+03  0.50400001928E-02 0.  1.
        1   -1    0    0  501    0  0.00000000000E+00  0.00000000000E+00 -0.29257958203E+04  0.29257958203E+04  0.50400001928E-02 0. -1.
    10030    2    1    2    0    0  0.00000000000E+00  0.00000000000E+00 -0.23492164262E+04  0.35023752143E+04  0.25976555439E+04 0.  0.
        3    1    3    3  502    0  0.42292248240E+03  0.12404365102E+03  0.47267342658E+03  0.64627426985E+03  0.10100000352E+00 0.  1.
       -3    1    3    3    0  502 -0.42292248240E+03 -0.12404365102E+03 -0.28218898528E+04  0.28561009445E+04  0.10100000352E+00 0. -1.
</event>
<event>
 5   0  0.2641626E-07  0.2600509E+04  0.7818609E-02  0.8368028E-01
       -1   -1    0    0    0  501  0.00000000000E+00  0.00000000000E+00  0.15863342292E+04  0.15863342292E+04  0.50400001928E-02 0. -1.
        1   -1    0    0  501    0  0.00000000000E+00  0.00000000000E+00 -0.10657664108E+04  0.10657664108E+04  0.50400001928E-02 0.  1.
    10030    2    1    2    0    0  0.00000000000E+00  0.00000000000E+00  0.52056781843E+03  0.26521006400E+04  0.26005089793E+04 0.  0.
        3    1    3    3  502    0  0.11932993793E+04 -0.44865145487E+03 -0.54417515195E+00  0.12748536555E+04  0.10100000352E+00 0.  1.
       -3    1    3    3    0  502 -0.11932993793E+04  0.44865145487E+03  0.52111199358E+03  0.13772469846E+04  0.10100000352E+00 0. -1.
</event>
<event>
 5   0  0.6526351E-07  0.2600326E+04  0.7818609E-02  0.8368090E-01
        2   -1    0    0  501    0  0.00000000000E+00  0.00000000000E+00  0.18201084912E+04  0.18201084912E+04  0.25500000920E-02 0. -1.
       -2   -1    0    0    0  501  0.00000000000E+00  0.00000000000E+00 -0.92874917601E+03  0.92874917601E+03  0.25500000920E-02 0.  1.
    10030    2    1    2    0    0  0.00000000000E+00  0.00000000000E+00  0.89135931522E+03  0.27488576672E+04  0.26003263345E+04 0.  0.
        3    1    3    3  502    0 -0.51182491171E+03 -0.77377328552E+03 -0.51724864194E+03  0.10621845440E+04  0.10100000352E+00 0.  1.
       -3    1    3    3    0  502  0.51182491171E+03  0.77377328552E+03  0.14086079572E+04  0.16866731233E+04  0.10100000352E+00 0. -1.
</event>
<event>
 5   0  0.6599814E-07  0.2600143E+04  0.7818609E-02  0.8368153E-01
       -2   -1    0    0    0  501  0.00000000000E+00  0.00000000000E+00  0.12511690137E+04  0.12511690137E+04  0.25500000920E-02 0.  1.
        2   -1    0    0  501    0  0.00000000000E+00  0.00000000000E+00 -0.13508853846E+04  0.13508853846E+04  0.25500000920E-02 0. -1.
    10030    2    1    2    0    0  0.00000000000E+00  0.00000000000E+00 -0.99716370839E+02  0.26020543983E+04  0.26001430224E+04 0.  0.
        5    1    3    3  502    0 -0.13395667155E+03 -0.55712677669E+03  0.11179740446E+04  0.12562733340E+04  0.46999998093E+01 0.  1.
       -5    1    3    3    0  502  0.13395667155E+03  0.55712677669E+03 -0.12176904155E+04  0.13457810643E+04  0.46999998093E+01 0. -1.
</event>
<event>
 5   0  0.6780984E-07  0.2598104E+04  0.7818609E-02  0.8368845E-01
       -2   -1    0    0    0  501  0.00000000000E+00  0.00000000000E+00  0.17560952850E+04  0.17560952850E+04  0.25500000920E-02 0.  1.
        2   -1    0    0  501    0  0.00000000000E+00  0.00000000000E+00 -0.96095961984E+03  0.96095961984E+03  0.25500000920E-02 0. -1.
    10030    2    1    2    0    0  0.00000000000E+00  0.00000000000E+00  0.79513566512E+03  0.27170549048E+04  0.25981044301E+04 0.  0.
        2    1    3    3  502    0 -0.40051411466E+03 -0.12009409373E+04  0.70222303032E+03  0.14476836240E+04  0.25500000920E-02 0.  1.
       -2    1    3    3    0  502  0.40051411466E+03  0.12009409373E+04  0.92912634804E+02  0.12693712808E+04  0.25500000920E-02 0. -1.
</event>
<event>
 5   0  0.2623263E-07  0.2601179E+04  0.7818609E-02  0.8367801E-01
        1   -1    0    0  501    0  0.00000000000E+00  0.00000000000E+00  0.19633694090E+04  0.19633694090E+04  0.50400001928E-02 0.  1.
       -1   -1    0    0    0  501  0.00000000000E+00  0.00000000000E+00 -0.86154591085E+03  0.86154591086E+03  0.50400001928E-02 0. -1.
    10030    2    1    2    0    0  0.00000000000E+00  0.00000000000E+00  0.11018234981E+04  0.28249153198E+04  0.26011788757E+04 0.  0.
        1    1    3    3  502    0  0.39722025459E+02  0.77067771116E+03  0.16878651222E+04  0.18559123483E+04  0.50400001928E-02 0.  1.
       -1    1    3    3    0  502 -0.39722025459E+02 -0.77067771116E+03 -0.58604162404E+03  0.96900297157E+03  0.50400001928E-02 0. -1.
</event>
<event>
 5   0  0.6780984E-07  0.2597447E+04  0.7818609E-02  0.8369069E-01
        2   -1    0    0  501    0  0.00000000000E+00  0.00000000000E+00  0.12881690243E+04  0.12881690243E+04  0.25500000920E-02 0.  1.
       -2   -1    0    0    0  501  0.00000000000E+00  0.00000000000E+00 -0.13093646302E+04  0.13093646303E+04  0.25500000920E-02 0. -1.
    10030    2    1    2    0    0  0.00000000000E+00  0.00000000000E+00 -0.21195605996E+02  0.25975336545E+04  0.25974471761E+04 0.  0.
        2    1    3    3  502    0 -0.22094184654E+02  0.10178444682E+04  0.79577105720E+03  0.12921869407E+04  0.25500000920E-02 0.  1.
       -2    1    3    3    0  502  0.22094184654E+02 -0.10178444682E+04 -0.81696666319E+03  0.13053467138E+04  0.25500000920E-02 0. -1.
</event>
<event>
 5   0  0.2623263E-07  0.2594782E+04  0.7818609E-02  0.8369976E-01
       -1   -1    0    0    0  501  0.00000000000E+00  0.00000000000E+00  0.10545238916E+04  0.10545238916E+04  0.50400001928E-02 0. -1.
        1   -1    0    0  501    0  0.00000000000E+00  0.00000000000E+00 -0.15961927617E+04  0.15961927617E+04  0.50400001928E-02 0.  1.
    10030    2    1    2    0    0  0.00000000000E+00  0.00000000000E+00 -0.54166887010E+03  0.26507166532E+04  0.25947819968E+04 0.  0.
        1    1    3    3  502    0  0.10701251281E+03  0.12579590672E+04 -0.57612557594E+03  0.13877439864E+04  0.50400001928E-02 0. -1.
       -1    1    3    3    0  502 -0.10701251281E+03 -0.12579590672E+04  0.34456705835E+02  0.12629726668E+04  0.50400001928E-02 0.  1.
</event>
<event>
 5   0  0.2864801E-07  0.2599347E+04  0.7818609E-02  0.8368423E-01
       -1   -1    0    0    0  501  0.00000000000E+00  0.00000000000E+00  0.10191334401E+04  0.10191334401E+04  0.50400001928E-02 0. -1.
        1   -1    0    0  501    0  0.00000000000E+00  0.00000000000E+00 -0.16574393337E+04  0.16574393337E+04  0.50400001928E-02 0.  1.
    10030    2    1    2    0    0  0.00000000000E+00  0.00000000000E+00 -0.63830589365E+03  0.26765727738E+04  0.25993474950E+04 0.  0.
        5    1    3    3  502    0  0.28026570300E+03 -0.16812055274E+03 -0.16144261327E+04  0.16471815967E+04  0.46999998093E+01 0.  1.
       -5    1    3    3    0  502 -0.28026570300E+03  0.16812055274E+03  0.97612023904E+03  0.10293911772E+04  0.46999998093E+01 0. -1.
</event>
<event>
 5   0  0.6768478E-07  0.2599957E+04  0.7818609E-02  0.8368216E-01
        2   -1    0    0  501    0  0.00000000000E+00  0.00000000000E+00  0.13682073857E+04  0.13682073857E+04  0.25500000920E-02 0.  1.
       -2   -1    0    0    0  501  0.00000000000E+00  0.00000000000E+00 -0.12351517628E+04  0.12351517628E+04  0.25500000920E-02 0. -1.
    10030    2    1    2    0    0  0.00000000000E+00  0.00000000000E+00  0.13305562294E+03  0.26033591485E+04  0.25999567414E+04 0.  0.
        4    1    3    3  502    0  0.87443337157E+02  0.56816360141E+02 -0.12309563622E+04  0.12353661864E+04  0.12699999809E+01 0. -1.
       -4    1    3    3    0  502 -0.87443337157E+02 -0.56816360141E+02  0.13640119851E+04  0.13679929621E+04  0.12699999809E+01 0.  1.
</event>
<event>
 5   0  0.2641626E-07  0.2599237E+04  0.7818609E-02  0.8368460E-01
       -1   -1    0    0    0  501  0.00000000000E+00  0.00000000000E+00  0.11415967294E+04  0.11415967294E+04  0.50400001928E-02 0. -1.
        1   -1    0    0  501    0  0.00000000000E+00  0.00000000000E+00 -0.14795144554E+04  0.14795144555E+04  0.50400001928E-02 0.  1.
    10030    2    1    2    0    0  0.00000000000E+00  0.00000000000E+00 -0.33791772602E+03  0.26211111849E+04  0.25992374755E+04 0.  0.
        3    1    3    3  502    0 -0.10629915647E+04 -0.65200485046E+03 -0.53802714869E+03  0.13581364492E+04  0.10100000352E+00 0.  1.
       -3    1    3    3    0  502  0.10629915647E+04  0.65200485046E+03  0.20010942267E+03  0.12629747357E+04  0.10100000352E+00 0. -1.
</event>
<event>
 5   0  0.2294625E-07  0.2599038E+04  0.7818609E-02  0.8368528E-01
       -3   -1    0    0    0  501  0.00000000000E+00  0.00000000000E+00  0.15551958458E+04  0.15551958491E+04  0.10100000352E+00 0. -1.
        3   -1    0    0  501    0  0.00000000000E+00  0.00000000000E+00 -0.10858754742E+04  0.10858754789E+04  0.10100000352E+00 0.  1.
    10030    2    1    2    0    0  0.00000000000E+00  0.00000000000E+00  0.46932037162E+03  0.26410713280E+04  0.25990375427E+04 0.  0.
        3    1    3    3  502    0  0.18313891458E+02  0.11791317382E+04  0.78944027112E+03  0.14191205046E+04  0.10100000352E+00 0. -1.
       -3    1    3    3    0  502 -0.18313891458E+02 -0.11791317382E+04 -0.32011989950E+03  0.12219508234E+04  0.10100000352E+00 0.  1.
</event>
<event>
 5   0  0.2623263E-07  0.2604755E+04  0.7818609E-02  0.8366588E-01
       -1   -1    0    0    0  501  0.00000000000E+00  0.00000000000E+00  0.17665347558E+04  0.17665347558E+04  0.50400001928E-02 0.  1.
        1   -1    0    0  501    0  0.00000000000E+00  0.00000000000E+00 -0.96017750317E+03  0.96017750319E+03  0.50400001928E-02 0. -1.
    10030    2    1    2    0    0  0.00000000000E+00  0.00000000000E+00  0.80635725260E+03  0.27267122590E+04  0.26047548300E+04 0.  0.
        1    1    3    3  502    0  0.35373348658E+03  0.71448759948E+03 -0.67487786263E+03  0.10445477676E+04  0.50400001928E-02 0. -1.
       -1    1    3    3    0  502 -0.35373348658E+03 -0.71448759948E+03  0.14812351152E+04  0.16821644914E+04  0.50400001928E-02 0.  1.
</event>
<event>
 5   0  0.2793576E-07  0.2598470E+04  0.7818609E-02  0.8368721E-01
       -1   -1    0    0    0  501  0.00000000000E+00  0.00000000000E+00  0.71877947966E+03  0.71877947968E+03  0.50400001928E-02 0. -1.
        1   -1    0    0  501    0  0.00000000000E+00  0.00000000000E+00 -0.23484414361E+04  0.23484414361E+04  0.50400001928E-02 0.  1.
    10030    2    1    2    0    0  0.00000000000E+00  0.00000000000E+00 -0.16296619565E+04  0.30672209158E+04  0.25984699448E+04 0.  0.
        2    1    3    3  502    0 -0.53328360312E+03 -0.13113305141E+03  0.57504301867E+03  0.79514888660E+03  0.25500000920E-02 0. -1.
       -2    1    3    3    0  502  0.53328360312E+03  0.13113305141E+03 -0.22047049751E+04  0.22720720292E+04  0.25500000920E-02 0.  1.
</event>
<event>
 5   0  0.2755061E-07  0.2600193E+04  0.7818609E-02  0.8368136E-01
        1   -1    0    0  501    0  0.00000000000E+00  0.00000000000E+00  0.20673979548E+04  0.20673979548E+04  0.50400001928E-02 0. -1.
       -1   -1    0    0    0  501  0.00000000000E+00  0.00000000000E+00 -0.81757401074E+03  0.81757401075E+03  0.50400001928E-02 0.  1.
    10030    2    1    2    0    0  0.00000000000E+00  0.00000000000E+00  0.12498239441E+04  0.28849719656E+04  0.26001929449E+04 0.  0.
        4    1    3    3  502    0  0.51595631821E+02 -0.75731319563E+03 -0.54618015329E+03  0.93514691800E+03  0.12699999809E+01 0.  1.
       -4    1    3    3    0  502 -0.51595631821E+02  0.75731319563E+03  0.17960040974E+04  0.19498250476E+04  0.12699999809E+01 0. -1.
</event>
<event>
 5   0  0.2294625E-07  0.2598917E+04  0.7818609E-02  0.8368569E-01
       -3   -1    0    0    0  501  0.00000000000E+00  0.00000000000E+00  0.10678940689E+04  0.10678940737E+04  0.10100000352E+00 0.  1.
        3   -1    0    0  501    0  0.00000000000E+00  0.00000000000E+00 -0.15812359902E+04  0.15812359934E+04  0.10100000352E+00 0. -1.
    10030    2    1    2    0    0  0.00000000000E+00  0.00000000000E+00 -0.51334192125E+03  0.26491300671E+04  0.25989171177E+04 0.  0.
        2    1    3    3  502    0  0.10351607130E+04  0.48101952742E+03  0.37633874433E+03  0.12019019669E+04  0.25500000920E-02 0.  1.
       -2    1    3    3    0  502 -0.10351607130E+04 -0.48101952742E+03 -0.88968066559E+03  0.14472281003E+04  0.25500000920E-02 0. -1.
</event>
<event>
 5   0  0.7160320E-07  0.2599948E+04  0.7818609E-02  0.8368219E-01
        2   -1    0    0  501    0  0.00000000000E+00  0.00000000000E+00  0.10032696339E+04  0.10032696339E+04  0.25500000920E-02 0.  1.
       -2   -1    0    0    0  501  0.00000000000E+00  0.00000000000E+00 -0.16844243517E+04  0.16844243517E+04  0.25500000920E-02 0. -1.
    10030    2    1    2    0    0  0.00000000000E+00  0.00000000000E+00 -0.68115471774E+03  0.26876939856E+04  0.25999475400E+04 0.  0.
        1    1    3    3  502    0  0.43611668658E+03  0.26686310931E+03  0.89496634223E+03  0.10307174381E+04  0.50400001928E-02 0.  1.
       -1    1    3    3    0  502 -0.43611668658E+03 -0.26686310931E+03 -0.15761210600E+04  0.16569765475E+04  0.50400001928E-02 0. -1.
</event>
<event>
 5   0  0.2793576E-07  0.2592587E+04  0.7818609E-02  0.8370724E-01
        1   -1    0    0  501    0  0.00000000000E+00  0.00000000000E+00  0.82586980643E+03  0.82586980644E+03  0.50400001928E-02 0.  1.
       -1   -1    0    0    0  501  0.00000000000E+00  0.00000000000E+00 -0.20346754270E+04  0.20346754270E+04  0.50400001928E-02 0. -1.
    10030    2    1    2    0    0  0.00000000000E+00  0.00000000000E+00 -0.12088056206E+04  0.28605452335E+04  0.25925871257E+04 0.  0.
        2    1    3    3  502    0  0.91892819156E+03 -0.23736110764E+03 -0.15786149009E+04  0.18419539413E+04  0.25500000920E-02 0. -1.
       -2    1    3    3    0  502 -0.91892819156E+03  0.23736110764E+03  0.36980928028E+03  0.10185912922E+04  0.25500000920E-02 0.  1.
</event>
<event>
 5   0  0.6526351E-07  0.2600441E+04  0.7818609E-02  0.8368051E-01
        2   -1    0    0  501    0  0.00000000000E+00  0.00000000000E+00  0.11056389218E+04  0.11056389218E+04  0.25500000920E-02 0.  1.
       -2   -1    0    0    0  501  0.00000000000E+00  0.00000000000E+00 -0.15290466354E+04  0.15290466354E+04  0.25500000920E-02 0. -1.
    10030    2    1    2    0    0  0.00000000000E+00  0.00000000000E+00 -0.42340771363E+03  0.26346855572E+04  0.26004410959E+04 0.  0.
        3    1    3    3  502    0 -0.12270883394E+04  0.25608524399E+03  0.13816666700E+03  0.12611167602E+04  0.10100000352E+00 0. -1.
       -3    1    3    3    0  502  0.12270883394E+04 -0.25608524399E+03 -0.56157438063E+03  0.13735687970E+04  0.10100000352E+00 0.  1.
</event>
<event>
 5   0  0.2755061E-07  0.2598990E+04  0.7818609E-02  0.8368544E-01
       -1   -1    0    0    0  501  0.00000000000E+00  0.00000000000E+00  0.19373310085E+04  0.19373310085E+04  0.50400001928E-02 0.  1.
        1   -1    0    0  501    0  0.00000000000E+00  0.00000000000E+00 -0.87165668598E+03  0.87165668599E+03  0.50400001928E-02 0. -1.
    10030    2    1    2    0    0  0.00000000000E+00  0.00000000000E+00  0.10656743225E+04  0.28089876945E+04  0.25989902089E+04 0.  0.
        4    1    3    3  502    0  0.77659715788E+03 -0.29661938543E+03 -0.54666458691E+03  0.99495225460E+03  0.12699999809E+01 0. -1.
       -4    1    3    3    0  502 -0.77659715788E+03  0.29661938543E+03  0.16123389094E+04  0.18140354399E+04  0.12699999809E+01 0.  1.
</event>
<event>
 5   0  0.7160320E-07  0.2600150E+04  0.7818609E-02  0.8368150E-01
       -2   -1    0    0    0  501  0.00000000000E+00  0.00000000000E+00  0.23337290689E+04  0.23337290689E+04  0.25500000920E-02 0.  1.
        2   -1    0    0  501    0  0.00000000000E+00  0.00000000000E+00 -0.72424619497E+03  0.72424619498E+03  0.25500000920E-02 0. -1.
    10030    2    1    2    0    0  0.00000000000E+00  0.00000000000E+00  0.16094828739E+04  0.30579752639E+04  0.26001495328E+04 0.  0.
        1    1    3    3  502    0 -0.90893390489E+02  0.11514048727E+04  0.15066529444E+04  0.18984198388E+04  0.50400001928E-02 0.  1.
       -1    1    3    3    0  502  0.90893390489E+02 -0.11514048727E+04  0.10282992949E+03  0.11595554251E+04  0.50400001928E-02 0. -1.
</event>
<event>
 5   0  0.2641626E-07  0.2600578E+04  0.7818609E-02  0.8368005E-01
        1   -1    0    0  501    0  0.00000000000E+00  0.00000000000E+00  0.19043900574E+04  0.19043900574E+04  0.50400001928E-02 0. -1.
       -1   -1    0    0    0  501  0.00000000000E+00  0.00000000000E+00 -0.88781801733E+03  0.88781801734E+03  0.50400001928E-02 0.  1.
    10030    2    1    2    0    0  0.00000000000E+00  0.00000000000E+00  0.10165720401E+04  0.27922080748E+04  0.26005782473E+04 0.  0.
        3    1    3    3  502    0  0.12515337974E+04 -0.18615284525E+03  0.82996617973E+03  0.15132196131E+04  0.10100000352E+00 0.  1.
       -3    1    3    3    0  502 -0.12515337974E+04  0.18615284525E+03  0.18660586037E+03  0.12789884617E+04  0.10100000352E+00 0. -1.
</event>
<event>
 5   0  0.6768478E-07  0.2599075E+04  0.7818609E-02  0.8368515E-01
        2   -1    0    0  501    0  0.00000000000E+00  0.00000000000E+00  0.22349625657E+04  0.22349625657E+04  0.25500000920E-02 0.  1.
       -2   -1    0    0    0  501  0.00000000000E+00  0.00000000000E+00 -0.75562687661E+03  0.75562687661E+03  0.25500000920E-02 0. -1.
    10030    2    1    2    0    0  0.00000000000E+00  0.00000000000E+00  0.14793356891E+04  0.29905894424E+04  0.25990750531E+04 0.  0.
        4    1    3    3  502    0 -0.89831809333E+03  0.79915067917E+03  0.17225262822E+03  0.12146150772E+04  0.12699999809E+01 0. -1.
       -4    1    3    3    0  502  0.89831809333E+03 -0.79915067917E+03  0.13070830609E+04  0.17759743652E+04  0.12699999809E+01 0.  1.
</event>
<event>
 5   0  0.6768478E-07  0.2599990E+04  0.7818609E-02  0.8368205E-01
       -2   -1    0    0    0  501  0.00000000000E+00  0.00000000000E+00  0.74444210236E+03  0.74444210237E+03  0.25500000920E-02 0. -1.
        2   -1    0    0  501    0  0.00000000000E+00  0.00000000000E+00 -0.22701387059E+04  0.22701387059E+04  0.25500000920E-02 0.  1.
    10030    2    1    2    0    0  0.00000000000E+00  0.00000000000E+00 -0.15256966035E+04  0.30145808082E+04  0.25999898699E+04 0.  0.
        4    1    3    3  502    0 -0.22357797726E+03  0.10596282686E+04  0.70983913905E+02  0.10852831466E+04  0.12699999809E+01 0. -1.
       -4    1    3    3    0  502  0.22357797726E+03 -0.10596282686E+04 -0.15966805174E+04  0.19292976616E+04  0.12699999809E+01 0.  1.
</event>
<event>
 5   0  0.6599814E-07  0.2599896E+04  0.7818609E-02  0.8368236E-01
       -2   -1    0    0    0  501  0.00000000000E+00  0.00000000000E+00  0.12698886167E+04  0.12698886167E+04  0.25500000920E-02 0.  1.
        2   -1    0    0  501    0  0.00000000000E+00  0.00000000000E+00 -0.13307192269E+04  0.13307192269E+04  0.25500000920E-02 0. -1.
    10030    2    1    2    0    0  0.00000000000E+00  0.00000000000E+00 -0.60830610169E+02  0.26006078436E+04  0.25998963043E+04 0.  0.
        5    1    3    3  502    0 -0.55142422038E+02 -0.11841936417E+04  0.50310468429E+03  0.12878243984E+04  0.46999998093E+01 0.  1.
       -5    1    3    3    0  502  0.55142422038E+02  0.11841936417E+04 -0.56393529446E+03  0.13127834452E+04  0.46999998093E+01 0. -1.
</event>
<event>
 5   0  0.6780984E-07  0.2599769E+04  0.7818609E-02  0.8368280E-01
        2   -1    0    0  501    0  0.00000000000E+00  0.00000000000E+00  0.15105976581E+04  0.15105976581E+04  0.25500000920E-02 0.  1.
       -2   -1    0    0    0  501  0.00000000000E+00  0.00000000000E+00 -0.11185639690E+04  0.11185639690E+04  0.25500000920E-02 0. -1.
    10030    2    1    2    0    0  0.00000000000E+00  0.00000000000E+00  0.39203368910E+03  0.26291616271E+04  0.25997693067E+04 0.  0.
        2    1    3    3  502    0  0.25521626400E+03 -0.43209401142E+03  0.14086814561E+04  0.14954009565E+04  0.25500000920E-02 0.  1.
       -2    1    3    3    0  502 -0.25521626400E+03  0.43209401142E+03 -0.10166477670E+04  0.11337606706E+04  0.25500000920E-02 0. -1.
</event>
<event>
 5   0  0.6526351E-07  0.2599881E+04  0.7818609E-02  0.8368242E-01
        2   -1    0    0  501    0  0.00000000000E+00  0.00000000000E+00  0.21045275545E+04  0.21045275545E+04  0.25500000920E-02 0.  1.
       -2   -1    0    0    0  501  0.00000000000E+00  0.00000000000E+00 -0.80295705449E+03  0.80295705449E+03  0.25500000920E-02 0. -1.
    10030    2    1    2    0    0  0.00000000000E+00  0.00000000000E+00  0.13015705001E+04  0.29074846090E+04  0.25998809560E+04 0.  0.
        3    1    3    3  502    0  0.49494817754E+03 -0.27812550035E+03 -0.65698196797E+03  0.86830455995E+03  0.10100000352E+00 0. -1.
       -3    1    3    3    0  502 -0.49494817754E+03  0.27812550035E+03  0.19585524680E+04  0.20391800491E+04  0.10100000352E+00 0.  1.
</event>
<event>
 5   0  0.6526351E-07  0.2599831E+04  0.7818609E-02  0.8368259E-01
        2   -1    0    0  501    0  0.00000000000E+00  0.00000000000E+00  0.13656247660E+04  0.13656247660E+04  0.25500000920E-02 0. -1.
       -2   -1    0    0    0  501  0.00000000000E+00  0.00000000000E+00 -0.12373680623E+04  0.12373680623E+04  0.25500000920E-02 0.  1.
    10030    2    1    2    0    0  0.00000000000E+00  0.00000000000E+00  0.12825670371E+03  0.26029928283E+04  0.25998311257E+04 0.  0.
        3    1    3    3  502    0 -0.11788538597E+04  0.52888898114E+03 -0.78735342381E+02  0.12944571222E+04  0.10100000352E+00 0.  1.
       -3    1    3    3    0  502  0.11788538597E+04 -0.52888898114E+03  0.20699204609E+03  0.13085357061E+04  0.10100000352E+00 0. -1.
</event>
<event>
 5   0  0.6780984E-07  0.2581719E+04  0.7818609E-02  0.8374437E-01
        2   -1    0    0  501    0  0.00000000000E+00  0.00000000000E+00  0.23549790252E+04  0.23549790252E+04  0.25500000920E-02 0.  1.
       -2   -1    0    0    0  501  0.00000000000E+00  0.00000000000E+00 -0.70757263781E+03  0.70757263782E+03  0.25500000920E-02 0. -1.
    10030    2    1    2    0    0  0.00000000000E+00  0.00000000000E+00  0.16474063874E+04  0.30625516630E+04  0.25817193658E+04 0.  0.
        2    1    3    3  502    0  0.60448870678E+03 -0.38350586587E+03 -0.45052237693E+03  0.84584499638E+03  0.25500000920E-02 0. -1.
       -2    1    3    3    0  502 -0.60448870678E+03  0.38350586587E+03  0.20979287643E+04  0.22167066667E+04  0.25500000920E-02 0.  1.
</event>
<event>
 5   0  0.6599814E-07  0.2600227E+04  0.7818609E-02  0.8368124E-01
       -2   -1    0    0    0  501  0.00000000000E+00  0.00000000000E+00  0.76916078068E+03  0.76916078068E+03  0.25500000920E-02 0. -1.
        2   -1    0    0  501    0  0.00000000000E+00  0.00000000000E+00 -0.21975840434E+04  0.21975840434E+04  0.25500000920E-02 0.  1.
    10030    2    1    2    0    0  0.00000000000E+00  0.00000000000E+00 -0.14284232628E+04  0.29667448241E+04  0.26002272658E+04 0.  0.
        5    1    3    3  502    0 -0.45925638072E+02  0.98686519921E+02  0.76394303205E+03  0.77167301344E+03  0.46999998093E+01 0. -1.
       -5    1    3    3    0  502  0.45925638072E+02 -0.98686519921E+02 -0.21923662948E+04  0.21950718107E+04  0.46999998093E+01 0.  1.
</event>
<event>
 5   0  0.6526351E-07  0.2600767E+04  0.7818609E-02  0.8367941E-01
       -2   -1    0    0    0  501  0.00000000000E+00  0.00000000000E+00  0.10914914357E+04  0.10914914357E+04  0.25500000920E-02 0.  1.
        2   -1    0    0  501    0  0.00000000000E+00  0.00000000000E+00 -0.15492540090E+04  0.15492540090E+04  0.25500000920E-02 0. -1.
    10030    2    1    2    0    0  0.00000000000E+00  0.00000000000E+00 -0.45776257327E+03  0.26407454447E+04  0.26007671811E+04 0.  0.
        3    1    3    3  502    0 -0.71307318204E+03 -0.10078012728E+04  0.18588371103E+03  0.12484748826E+04  0.10100000352E+00 0.  1.
       -3    1    3    3    0  502  0.71307318204E+03  0.10078012728E+04 -0.64364628430E+03  0.13922705620E+04  0.10100000352E+00 0. -1.
</event>
<event>
 5   0  0.2755061E-07  0.2597743E+04  0.7818609E-02  0.8368968E-01
        1   -1    0    0  501    0  0.00000000000E+00  0.00000000000E+00  0.18705588861E+04  0.18705588861E+04  0.50400001928E-02 0.  1.
       -1   -1    0    0    0  501  0.00000000000E+00  0.00000000000E+00 -0.90190524718E+03  0.90190524719E+03  0.50400001928E-02 0. -1.
    10030    2    1    2    0    0  0.00000000000E+00  0.00000000000E+00  0.96865363891E+03  0.27724641333E+04  0.25977427698E+04 0.  0.
        4    1    3    3  502    0  0.82433468188E+01  0.12026636866E+04  0.10078250594E+04  0.15691337926E+04  0.12699999809E+01 0.  1.
       -4    1    3    3    0  502 -0.82433468188E+01 -0.12026636866E+04 -0.39171420472E+02  0.12033303407E+04  0.12699999809E+01 0. -1.
</event>
<event>
 5   0  0.7160320E-07  0.2596285E+04  0.7818609E-02  0.8369464E-01
       -2   -1    0    0    0  501  0.00000000000E+00  0.00000000000E+00  0.10099366680E+04  0.10099366680E+04  0.25500000920E-02 0.  1.
        2   -1    0    0  501    0  0.00000000000E+00  0.00000000000E+00 -0.16685934000E+04  0.16685934000E+04  0.25500000920E-02 0. -1.
    10030    2    1    2    0    0  0.00000000000E+00  0.00000000000E+00 -0.65865673206E+03  0.26785300680E+04  0.25962847753E+04 0.  0.
        1    1    3    3  502    0  0.11782609485E+04 -0.94979944025E+01 -0.89136531631E+03  0.14774712186E+04  0.50400001928E-02 0. -1.
       -1    1    3    3    0  502 -0.11782609485E+04  0.94979944025E+01  0.23270858425E+03  0.12010588494E+04  0.50400001928E-02 0.  1.
</event>
<event>
 5   0  0.6780984E-07  0.2599353E+04  0.7818609E-02  0.8368421E-01
        2   -1    0    0  501    0  0.00000000000E+00  0.00000000000E+00  0.22879196864E+04  0.22879196864E+04  0.25500000920E-02 0.  1.
       -2   -1    0    0    0  501  0.00000000000E+00  0.00000000000E+00 -0.73829496350E+03  0.73829496350E+03  0.25500000920E-02 0. -1.
    10030    2    1    2    0    0  0.00000000000E+00  0.00000000000E+00  0.15496247229E+04  0.30262146499E+04  0.25993534437E+04 0.  0.
        2    1    3    3  502    0  0.83144402873E+03 -0.92991700801E+03  0.11995761745E+04  0.17306148656E+04  0.25500000920E-02 0.  1.
       -2    1    3    3    0  502 -0.83144402873E+03  0.92991700801E+03  0.35004854838E+03  0.12955997842E+04  0.25500000920E-02 0. -1.
</event>
<event>
 5   0  0.2793576E-07  0.2600647E+04  0.7818609E-02  0.8367981E-01
       -1   -1    0    0    0  501  0.00000000000E+00  0.00000000000E+00  0.10019273874E+04  0.10019273874E+04  0.50400001928E-02 0.  1.
        1   -1    0    0  501    0  0.00000000000E+00  0.00000000000E+00 -0.16875887685E+04  0.16875887685E+04  0.50400001928E-02 0. -1.
    10030    2    1    2    0    0  0.00000000000E+00  0.00000000000E+00 -0.68566138103E+03  0.26895161559E+04  0.26006471547E+04 0.  0.
        2    1    3    3  502    0  0.12934832916E+04 -0.12813031231E+03 -0.38047516315E+03  0.13543551057E+04  0.25500000920E-02 0. -1.
       -2    1    3    3    0  502 -0.12934832916E+04  0.12813031231E+03 -0.30518621788E+03  0.13351610502E+04  0.25500000920E-02 0.  1.
</event>
<event>
 5   0  0.6599814E-07  0.2599215E+04  0.7818609E-02  0.8368468E-01
       -2   -1    0    0    0  501  0.00000000000E+00  0.00000000000E+00  0.94002593993E+03  0.94002593993E+03  0.25500000920E-02 0.  1.
        2   -1    0    0  501    0  0.00000000000E+00  0.00000000000E+00 -0.17967373182E+04  0.17967373182E+04  0.25500000920E-02 0. -1.
    10030    2    1    2    0    0  0.00000000000E+00  0.00000000000E+00 -0.85671137831E+03  0.27367632582E+04  0.25992150249E+04 0.  0.
        5    1    3    3  502    0 -0.13720782883E+03  0.65082088655E+02 -0.17873541205E+04  0.17938000191E+04  0.46999998093E+01 0. -1.
       -5    1    3    3    0  502  0.13720782883E+03 -0.65082088655E+02  0.93064274220E+03  0.94296323904E+03  0.46999998093E+01 0.  1.
</event>
<event>
 5   0  0.2641626E-07  0.2600309E+04  0.7818609E-02  0.8368096E-01
        1   -1    0    0  501    0  0.00000000000E+00  0.00000000000E+00  0.13115096700E+04  0.13115096700E+04  0.50400001928E-02 0.  1.
       -1   -1    0    0    0  501  0.00000000000E+00  0.00000000000E+00 -0.12888974642E+04  0.12888974642E+04  0.50400001928E-02 0. -1.
    10030    2    1    2    0    0  0.00000000000E+00  0.00000000000E+00  0.22612205838E+02  0.26004071342E+04  0.26003088186E+04 0.  0.
        3    1    3    3  502    0  0.27476924908E+03 -0.69996367006E+03  0.10719847852E+04  0.13094268477E+04  0.10100000352E+00 0.  1.
       -3    1    3    3    0  502 -0.27476924908E+03  0.69996367006E+03 -0.10493725794E+04  0.12909802865E+04  0.10100000352E+00 0. -1.
</event>
<event>
 5   0  0.2641626E-07  0.2599501E+04  0.7818609E-02  0.8368371E-01
       -1   -1    0    0    0  501  0.00000000000E+00  0.00000000000E+00  0.94382227494E+03  0.94382227496E+03  0.50400001928E-02 0.  1.
        1   -1    0    0  501    0  0.00000000000E+00  0.00000000000E+00 -0.17899035326E+04  0.17899035327E+04  0.50400001928E-02 0. -1.
    10030    2    1    2    0    0  0.00000000000E+00  0.00000000000E+00 -0.84608125771E+03  0.27337258076E+04  0.25995005860E+04 0.  0.
        3    1    3    3  502    0 -0.39222831953E+01 -0.11507949909E+04 -0.10583938327E+04  0.15635031215E+04  0.10100000352E+00 0.  1.
       -3    1    3    3    0  502  0.39222831953E+01  0.11507949909E+04  0.21231257504E+03  0.11702226861E+04  0.10100000352E+00 0. -1.
</event>
<event>
 5   0  0.2755061E-07  0.2599305E+04  0.7818609E-02  0.8368437E-01
        1   -1    0    0  501    0  0.00000000000E+00  0.00000000000E+00  0.13549898725E+04  0.13549898725E+04  0.50400001928E-02 0. -1.
       -1   -1    0    0    0  501  0.00000000000E+00  0.00000000000E+00 -0.12465750615E+04  0.12465750615E+04  0.50400001928E-02 0.  1.
    10030    2    1    2    0    0  0.00000000000E+00  0.00000000000E+00  0.10841481098E+03  0.26015649340E+04  0.25993049715E+04 0.  0.
        4    1    3    3  502    0 -0.87351918137E+03 -0.87126633666E+03  0.46316293317E+03  0.13178248386E+04  0.12699999809E+01 0. -1.
       -4    1    3    3    0  502  0.87351918137E+03  0.87126633666E+03 -0.35474812219E+03  0.12837400955E+04  0.12699999809E+01 0.  1.
</event>
<event>
 5   0  0.6768478E-07  0.2599937E+04  0.7818609E-02  0.8368223E-01
        2   -1    0    0  501    0  0.00000000000E+00  0.00000000000E+00  0.22162753119E+04  0.22162753119E+04  0.25500000920E-02 0.  1.
       -2   -1    0    0    0  501  0.00000000000E+00  0.00000000000E+00 -0.76250372303E+03  0.76250372303E+03  0.25500000920E-02 0. -1.
    10030    2    1    2    0    0  0.00000000000E+00  0.00000000000E+00  0.14537715889E+04  0.29787790350E+04  0.25999370582E+04 0.  0.
        4    1    3    3  502    0  0.36495218223E+03 -0.27672521643E+03  0.21207750284E+04  0.21696670885E+04  0.12699999809E+01 0.  1.
       -4    1    3    3    0  502 -0.36495218223E+03  0.27672521643E+03 -0.66700343952E+03  0.80911194649E+03  0.12699999809E+01 0. -1.
</event>
<event>
 5   0  0.6780984E-07  0.2602589E+04  0.7818609E-02  0.8367322E-01
       -2   -1    0    0    0  501  0.00000000000E+00  0.00000000000E+00  0.65350663498E+03  0.65350663498E+03  0.25500000920E-02 0. -1.
        2   -1    0    0  501    0  0.00000000000E+00  0.00000000000E+00 -0.25912020957E+04  0.25912020957E+04  0.25500000920E-02 0.  1.
    10030    2    1    2    0    0  0.00000000000E+00  0.00000000000E+00 -0.19376954607E+04  0.32447087307E+04  0.26025892969E+04 0.  0.
        2    1    3    3  502    0 -0.46672299946E+03 -0.65178444664E+03  0.30909804947E+03  0.85918270892E+03  0.25500000920E-02 0. -1.
       -2    1    3    3    0  502  0.46672299946E+03  0.65178444664E+03 -0.22467935102E+04  0.23855260218E+04  0.25500000920E-02 0.  1.
</event>
<event>
 5   0  0.6768478E-07  0.2599865E+04  0.7818609E-02  0.8368247E-01
       -2   -1    0    0    0  501  0.00000000000E+00  0.00000000000E+00  0.16809458371E+04  0.16809458371E+04  0.25500000920E-02 0. -1.
        2   -1    0    0  501    0  0.00000000000E+00  0.00000000000E+00 -0.10052821874E+04  0.10052821874E+04  0.25500000920E-02 0.  1.
    10030    2    1    2    0    0  0.00000000000E+00  0.00000000000E+00  0.67566364968E+03  0.26862280245E+04  0.25998653104E+04 0.  0.
        4    1    3    3  502    0 -0.30691203266E+03  0.44460317546E+03 -0.88379574835E+03  0.10358395229E+04  0.12699999809E+01 0.  1.
       -4    1    3    3    0  502  0.30691203266E+03 -0.44460317546E+03  0.15594593980E+04  0.16503885017E+04  0.12699999809E+01 0. -1.
</event>
<event>
 5   0  0.7160320E-07  0.2599921E+04  0.7818609E-02  0.8368228E-01
       -2   -1    0    0    0  501  0.00000000000E+00  0.00000000000E+00  0.95714526479E+03  0.95714526479E+03  0.25500000920E-02 0. -1.
        2   -1    0    0  501    0  0.00000000000E+00  0.00000000000E+00 -0.17655602417E+04  0.17655602417E+04  0.25500000920E-02 0.  1.
    10030    2    1    2    0    0  0.00000000000E+00  0.00000000000E+00 -0.80841497692E+03  0.27227055065E+04  0.25999212489E+04 0.  0.
        1    1    3    3  502    0 -0.11831857590E+04  0.21265079531E+03 -0.92229210190E+03  0.15151803926E+04  0.50400001928E-02 0. -1.
       -1    1    3    3    0  502  0.11831857590E+04 -0.21265079531E+03  0.11387712498E+03  0.12075251139E+04  0.50400001928E-02 0.  1.
</event>
<event>
 5   0  0.6526351E-07  0.2598714E+04  0.7818609E-02  0.8368638E-01
        2   -1    0    0  501    0  0.00000000000E+00  0.00000000000E+00  0.15185920923E+04  0.15185920923E+04  0.25500000920E-02 0.  1.
       -2   -1    0    0    0  501  0.00000000000E+00  0.00000000000E+00 -0.11117719240E+04  0.11117719240E+04  0.25500000920E-02 0. -1.
    10030    2    1    2    0    0  0.00000000000E+00  0.00000000000E+00  0.40682016831E+03  0.26303640162E+04  0.25987135680E+04 0.  0.
        3    1    3    3  502    0  0.12687450267E+04  0.14149077000E+03 -0.41600995068E+02  0.12772878429E+04  0.10100000352E+00 0.  1.
       -3    1    3    3    0  502 -0.12687450267E+04 -0.14149077000E+03  0.44842116338E+03  0.13530761733E+04  0.10100000352E+00 0. -1.
</event>
<event>
 5   0  0.2623263E-07  0.2601219E+04  0.7818609E-02  0.8367787E-01
        1   -1    0    0  501    0  0.00000000000E+00  0.00000000000E+00  0.18000231794E+04  0.18000231794E+04  0.50400001928E-02 0.  1.
       -1   -1    0    0    0  501  0.00000000000E+00  0.00000000000E+00 -0.93975725816E+03  0.93975725817E+03  0.50400001928E-02 0. -1.
    10030    2    1    2    0    0  0.00000000000E+00  0.00000000000E+00  0.86026592121E+03  0.27397804375E+04  0.26012188279E+04 0.  0.
        1    1    3    3  502    0 -0.43842946853E+03  0.71520702050E+03 -0.61671332287E+03  0.10411900901E+04  0.50400001928E-02 0. -1.
       -1    1    3    3    0  502  0.43842946853E+03 -0.71520702050E+03  0.14769792441E+04  0.16985903475E+04  0.50400001928E-02 0.  1.
</event>
<event>
 5   0  0.6780984E-07  0.2600205E+04  0.7818609E-02  0.8368132E-01
       -2   -1    0    0    0  501  0.00000000000E+00  0.00000000000E+00  0.14130834268E+04  0.14130834268E+04  0.25500000920E-02 0. -1.
        2   -1    0    0  501    0  0.00000000000E+00  0.00000000000E+00 -0.11961544571E+04  0.11961544571E+04  0.25500000920E-02 0.  1.
    10030    2    1    2    0    0  0.00000000000E+00  0.00000000000E+00  0.21692896963E+03  0.26092378839E+04  0.26002046375E+04 0.  0.
        2    1    3    3  502    0  0.65977887593E+02 -0.86024233034E+03  0.10844151451E+04  0.13857583323E+04  0.25500000920E-02 0. -1.
       -2    1    3    3    0  502 -0.65977887593E+02  0.86024233034E+03 -0.86748617547E+03  0.12234795516E+04  0.25500000920E-02 0.  1.
</event>
<event>
 5   0  0.2793576E-07  0.2601384E+04  0.7818609E-02  0.8367731E-01
        1   -1    0    0  501    0  0.00000000000E+00  0.00000000000E+00  0.18784207699E+04  0.18784207699E+04  0.50400001928E-02 0.  1.
       -1   -1    0    0    0  501  0.00000000000E+00  0.00000000000E+00 -0.90065023507E+03  0.90065023509E+03  0.50400001928E-02 0. -1.
    10030    2    1    2    0    0  0.00000000000E+00  0.00000000000E+00  0.97777053483E+03  0.27790710050E+04  0.26013843299E+04 0.  0.
        2    1    3    3  502    0  0.75248472931E+02 -0.97005415284E+03 -0.43328674894E+03  0.10650844093E+04  0.25500000920E-02 0. -1.
       -2    1    3    3    0  502 -0.75248472931E+02  0.97005415284E+03  0.14110572838E+04  0.17139865957E+04  0.25500000920E-02 0.  1.
</event>
<event>
 5   0  0.6780984E-07  0.2603195E+04  0.7818609E-02  0.8367117E-01
        2   -1    0    0  501    0  0.00000000000E+00  0.00000000000E+00  0.14790119175E+04  0.14790119175E+04  0.25500000920E-02 0.  1.
       -2   -1    0    0    0  501  0.00000000000E+00  0.00000000000E+00 -0.11454648525E+04  0.11454648525E+04  0.25500000920E-02 0. -1.
    10030    2    1    2    0    0  0.00000000000E+00  0.00000000000E+00  0.33354706502E+03  0.26244767700E+04  0.26031950890E+04 0.  0.
        2    1    3    3  502    0 -0.18581923387E+03  0.37564523097E+03  0.14091293407E+04  0.14701304792E+04  0.25500000920E-02 0.  1.
       -2    1    3    3    0  502  0.18581923387E+03 -0.37564523097E+03 -0.10755822757E+04  0.11543462907E+04  0.25500000920E-02 0. -1.
</event>
<event>
 5   0  0.6768478E-07  0.2598216E+04  0.7818609E-02  0.8368808E-01
        2   -1    0    0  501    0  0.00000000000E+00  0.00000000000E+00  0.20795971455E+04  0.20795971455E+04  0.25500000920E-02 0. -1.
       -2   -1    0    0    0  501  0.00000000000E+00  0.00000000000E+00 -0.81154238606E+03  0.81154238607E+03  0.25500000920E-02 0.  1.
    10030    2    1    2    0    0  0.00000000000E+00  0.00000000000E+00  0.12680547594E+04  0.28911395315E+04  0.25982157181E+04 0.  0.
        4    1    3    3  502    0  0.10261627225E+04 -0.71757217193E+03  0.10191060725E+04  0.16144654084E+04  0.12699999809E+01 0. -1.
       -4    1    3    3    0  502 -0.10261627225E+04  0.71757217193E+03  0.24894868693E+03  0.12766741231E+04  0.12699999809E+01 0.  1.
</event>
<event>
 5   0  0.2623263E-07  0.2602841E+04  0.7818609E-02  0.8367237E-01
        1   -1    0    0  501    0  0.00000000000E+00  0.00000000000E+00  0.12612402646E+04  0.12612402646E+04  0.50400001928E-02 0. -1.
       -1   -1    0    0    0  501  0.00000000000E+00  0.00000000000E+00 -0.13428810210E+04  0.13428810210E+04  0.50400001928E-02 0.  1.
    10030    2    1    2    0    0  0.00000000000E+00  0.00000000000E+00 -0.81640756379E+02  0.26041212856E+04  0.26028412278E+04 0.  0.
        1    1    3    3  502    0 -0.12289499483E+04  0.16934631138E+03  0.35269158237E+03  0.12897238080E+04  0.50400001928E-02 0. -1.
       -1    1    3    3    0  502  0.12289499483E+04 -0.16934631138E+03 -0.43433233875E+03  0.13143974776E+04  0.50400001928E-02 0.  1.
</event>
<event>
 5   0  0.2641626E-07  0.2600213E+04  0.7818609E-02  0.8368129E-01
       -1   -1    0    0    0  501  0.00000000000E+00  0.00000000000E+00  0.72952718230E+03  0.72952718232E+03  0.50400001928E-02 0.  1.
        1   -1    0    0  501    0  0.00000000000E+00  0.00000000000E+00 -0.23169478919E+04  0.23169478919E+04  0.50400001928E-02 0. -1.
    10030    2    1    2    0    0  0.00000000000E+00  0.00000000000E+00 -0.15874207096E+04  0.30464750743E+04  0.26002126584E+04 0.  0.
        3    1    3    3  502    0  0.16144649479E+03 -0.87824780104E+02 -0.23016510350E+04  0.23089771891E+04  0.10100000352E+00 0. -1.
       -3    1    3    3    0  502 -0.16144649479E+03  0.87824780104E+02  0.71423032539E+03  0.73749788514E+03  0.10100000352E+00 0.  1.
</event>
<event>
 5   0  0.6526351E-07  0.2600346E+04  0.7818609E-02  0.8368084E-01
        2   -1    0    0  501    0  0.00000000000E+00  0.00000000000E+00  0.26215527602E+04  0.26215527602E+04  0.25500000920E-02 0.  1.
       -2   -1    0    0    0  501  0.00000000000E+00  0.00000000000E+00 -0.64482775561E+03  0.64482775561E+03  0.25500000920E-02 0. -1.
    10030    2    1    2    0    0  0.00000000000E+00  0.00000000000E+00  0.19767250046E+04  0.32663805158E+04  0.26003461174E+04 0.  0.
        3    1    3    3  502    0  0.28778870957E+03 -0.23429972256E+03 -0.57688769707E+03  0.68594323860E+03  0.10100000352E+00 0. -1.
       -3    1    3    3    0  502 -0.28778870957E+03  0.23429972256E+03  0.25536127017E+04  0.25804372772E+04  0.10100000352E+00 0.  1.
</event>
<event>
 5   0  0.2864801E-07  0.2598694E+04  0.7818609E-02  0.8368645E-01
        1   -1    0    0  501    0  0.00000000000E+00  0.00000000000E+00  0.19642375146E+04  0.19642375147E+04  0.50400001928E-02 0.  1.
       -1   -1    0    0    0  501  0.00000000000E+00  0.00000000000E+00 -0.85952068534E+03  0.85952068535E+03  0.50400001928E-02 0. -1.
    10030    2    1    2    0    0  0.00000000000E+00  0.00000000000E+00  0.11047168293E+04  0.28237582000E+04  0.25986941142E+04 0.  0.
        5    1    3    3  502    0  0.11099548257E+04 -0.93940199537E+02  0.12792131288E+04  0.16962407834E+04  0.46999998093E+01 0.  1.
       -5    1    3    3    0  502 -0.11099548257E+04  0.93940199537E+02 -0.17449629951E+03  0.11275174166E+04  0.46999998093E+01 0. -1.
</event>
<event>
 5   0  0.2755061E-07  0.2599432E+04  0.7818609E-02  0.8368394E-01
        1   -1    0    0  501    0  0.00000000000E+00  0.00000000000E+00  0.18337134614E+04  0.18337134614E+04  0.50400001928E-02 0. -1.
       -1   -1    0    0    0  501  0.00000000000E+00  0.00000000000E+00 -0.92122435634E+03  0.92122435635E+03  0.50400001928E-02 0.  1.
    10030    2    1    2    0    0  0.00000000000E+00  0.00000000000E+00  0.91248910507E+03  0.27549378178E+04  0.25994318635E+04 0.  0.
        4    1    3    3  502    0 -0.51147945103E+03 -0.89360419817E+03 -0.38437633496E+03  0.10990388854E+04  0.12699999809E+01 0.  1.
       -4    1    3    3    0  502  0.51147945103E+03  0.89360419817E+03  0.12968654400E+04  0.16558989324E+04  0.12699999809E+01 0. -1.
</event>
<event>
 5   0  0.6768478E-07  0.2599189E+04  0.7818609E-02  0.8368477E-01
        2   -1    0    0  501    0  0.00000000000E+00  0.00000000000E+00  0.13129301489E+04  0.13129301489E+04  0.25500000920E-02 0. -1.
       -2   -1    0    0    0  501  0.00000000000E+00  0.00000000000E+00 -0.12863940380E+04  0.12863940380E+04  0.25500000920E-02 0.  1.
    10030    2    1    2    0    0  0.00000000000E+00  0.00000000000E+00  0.26536110879E+02  0.25993241870E+04  0.25991887318E+04 0.  0.
        4    1    3    3  502    0  0.36161759144E+03  0.30996894738E+02  0.12612176233E+04  0.13124022235E+04  0.12699999809E+01 0. -1.
       -4    1    3    3    0  502 -0.36161759144E+03 -0.30996894738E+02 -0.12346815125E+04  0.12869219635E+04  0.12699999809E+01 0.  1.
</event>
<event>
 5   0  0.7160320E-07  0.2597800E+04  0.7818609E-02  0.8368949E-01
       -2   -1    0    0    0  501  0.00000000000E+00  0.00000000000E+00  0.13649722134E+04  0.13649722134E+04  0.25500000920E-02 0.  1.
        2   -1    0    0  501    0  0.00000000000E+00  0.00000000000E+00 -0.12360262511E+04  0.12360262511E+04  0.25500000920E-02 0. -1.
    10030    2    1    2    0    0  0.00000000000E+00  0.00000000000E+00  0.12894596224E+03  0.26009984645E+04  0.25978002139E+04 0.  0.
        1    1    3    3  502    0  0.51881085535E+03 -0.11621363546E+04 -0.19549235538E+03  0.12876113044E+04  0.50400001928E-02 0. -1.
       -1    1    3    3    0  502 -0.51881085535E+03  0.11621363546E+04  0.32443831762E+03  0.13133871601E+04  0.50400001928E-02 0.  1.
</event>
<event>
 5   0  0.2793576E-07  0.2600061E+04  0.7818609E-02  0.8368181E-01
       -1   -1    0    0    0  501  0.00000000000E+00  0.00000000000E+00  0.11141403281E+04  0.11141403281E+04  0.50400001928E-02 0.  1.
        1   -1    0    0  501    0  0.00000000000E+00  0.00000000000E+00 -0.15169352081E+04  0.15169352081E+04  0.50400001928E-02 0. -1.
    10030    2    1    2    0    0  0.00000000000E+00  0.00000000000E+00 -0.40279487996E+03  0.26310755362E+04  0.26000605304E+04 0.  0.
        2    1    3    3  502    0 -0.42244562727E+00  0.97598171431E+03 -0.10704421473E+04  0.14485809870E+04  0.25500000920E-02 0. -1.
       -2    1    3    3    0  502  0.42244562727E+00 -0.97598171431E+03  0.66764726738E+03  0.11824945492E+04  0.25500000920E-02 0.  1.
</event>
<event>
 5   0  0.6780984E-07  0.2599143E+04  0.7818609E-02  0.8368492E-01
       -2   -1    0    0    0  501  0.00000000000E+00  0.00000000000E+00  0.82748812892E+03  0.82748812893E+03  0.25500000920E-02 0.  1.
        2   -1    0    0  501    0  0.00000000000E+00  0.00000000000E+00 -0.20409790647E+04  0.20409790647E+04  0.25500000920E-02 0. -1.
    10030    2    1    2    0    0  0.00000000000E+00  0.00000000000E+00 -0.12134909358E+04  0.28684671936E+04  0.25991428952E+04 0.  0.
        2    1    3    3  502    0  0.81117655213E+03  0.78505560877E+03 -0.13173315497E+04  0.17348435432E+04  0.25500000920E-02 0. -1.
       -2    1    3    3    0  502 -0.81117655213E+03 -0.78505560877E+03  0.10384061396E+03  0.11336236504E+04  0.25500000920E-02 0.  1.
</event>
<event>
 5   0  0.7160320E-07  0.2603090E+04  0.7818609E-02  0.8367153E-01
        2   -1    0    0  501    0  0.00000000000E+00  0.00000000000E+00  0.10953445214E+04  0.10953445214E+04  0.25500000920E-02 0.  1.
       -2   -1    0    0    0  501  0.00000000000E+00  0.00000000000E+00 -0.15465624841E+04  0.15465624841E+04  0.25500000920E-02 0. -1.
    10030    2    1    2    0    0  0.00000000000E+00  0.00000000000E+00 -0.45121796268E+03  0.26419070055E+04  0.26030895060E+04 0.  0.
        1    1    3    3  502    0  0.19251928952E+02  0.20103570528E+03  0.10793456871E+04  0.10980770027E+04  0.50400001928E-02 0.  1.
       -1    1    3    3    0  502 -0.19251928952E+02 -0.20103570528E+03 -0.15305636498E+04  0.15438300028E+04  0.50400001928E-02 0. -1.
</event>
<event>
 5   0  0.6526351E-07  0.2600250E+04  0.7818609E-02  0.8368116E-01
       -2   -1    0    0    0  501  0.00000000000E+00  0.00000000000E+00  0.89361349057E+03  0.89361349058E+03  0.25500000920E-02 0. -1.
        2   -1    0    0  501    0  0.00000000000E+00  0.00000000000E+00 -0.18915616303E+04  0.18915616303E+04  0.25500000920E-02 0.  1.
    10030    2    1    2    0    0  0.00000000000E+00  0.00000000000E+00 -0.99794813970E+03  0.27851751209E+04  0.26002499811E+04 0.  0.
        3    1    3    3  502    0 -0.13846775725E+03 -0.73523466193E+03  0.63993321782E+03  0.98450894428E+03  0.10100000352E+00 0. -1.
       -3    1    3    3    0  502  0.13846775725E+03  0.73523466193E+03 -0.16378813575E+04  0.18006661766E+04  0.10100000352E+00 0.  1.
</event>
<event>
 5   0  0.6780984E-07  0.2603251E+04  0.7818609E-02  0.8367098E-01
        2   -1    0    0  501    0  0.00000000000E+00  0.00000000000E+00  0.27400516287E+04  0.27400516287E+04  0.25500000920E-02 0. -1.
       -2   -1    0    0    0  501  0.00000000000E+00  0.00000000000E+00 -0.61832020444E+03  0.61832020445E+03  0.25500000920E-02 0.  1.
    10030    2    1    2    0    0  0.00000000000E+00  0.00000000000E+00  0.21217314242E+04  0.33583718331E+04  0.26032512620E+04 0.  0.
        2    1    3    3  502    0 -0.45076280742E+03 -0.55231438693E+03  0.24657915076E+04  0.25667812625E+04  0.25500000920E-02 0. -1.
       -2    1    3    3    0  502  0.45076280742E+03  0.55231438693E+03 -0.34406008335E+03  0.79159057064E+03  0.25500000920E-02 0.  1.
</event>
<event>
 5   0  0.2864801E-07  0.2598538E+04  0.7818609E-02  0.8368698E-01
        1   -1    0    0  501    0  0.00000000000E+00  0.00000000000E+00  0.12215849646E+04  0.12215849646E+04  0.50400001928E-02 0.  1.
       -1   -1    0    0    0  501  0.00000000000E+00  0.00000000000E+00 -0.13818929497E+04  0.13818929497E+04  0.50400001928E-02 0. -1.
    10030    2    1    2    0    0  0.00000000000E+00  0.00000000000E+00 -0.16030798511E+03  0.26034779143E+04  0.25985377812E+04 0.  0.
        5    1    3    3  502    0  0.76996852190E+03 -0.66921104766E+03  0.72597655109E+03  0.12521018304E+04  0.46999998093E+01 0.  1.
       -5    1    3    3    0  502 -0.76996852190E+03  0.66921104766E+03 -0.88628453620E+03  0.13513760839E+04  0.46999998093E+01 0. -1.
</event>
<event>
 5   0  0.6768478E-07  0.2599860E+04  0.7818609E-02  0.8368249E-01
        2   -1    0    0  501    0  0.00000000000E+00  0.00000000000E+00  0.16279174104E+04  0.16279174104E+04  0.25500000920E-02 0.  1.
       -2   -1    0    0    0  501  0.00000000000E+00  0.00000000000E+00 -0.10380243727E+04  0.10380243727E+04  0.25500000920E-02 0. -1.
    10030    2    1    2    0    0  0.00000000000E+00  0.00000000000E+00  0.58989303778E+03  0.26659417831E+04  0.25998599568E+04 0.  0.
        4    1    3    3  502    0 -0.22048113257E+03  0.11148333032E+04  0.94213938766E+03  0.14761752818E+04  0.12699999809E+01 0.  1.
       -4    1    3    3    0  502  0.22048113257E+03 -0.11148333032E+04 -0.35224634988E+03  0.11897665013E+04  0.12699999809E+01 0. -1.
</event>
<event>
 5   0  0.2641626E-07  0.2601077E+04  0.7818609E-02  0.8367835E-01
       -1   -1    0    0    0  501  0.00000000000E+00  0.00000000000E+00  0.10732864832E+04  0.10732864832E+04  0.50400001928E-02 0. -1.
        1   -1    0    0  501    0  0.00000000000E+00  0.00000000000E+00 -0.15759078062E+04  0.15759078062E+04  0.50400001928E-02 0.  1.
    10030    2    1    2    0    0  0.00000000000E+00  0.00000000000E+00 -0.50262132301E+03  0.26491942894E+04  0.26010771209E+04 0.  0.
        3    1    3    3  502    0 -0.30005802236E+03 -0.11212835548E+04 -0.84875289361E+03  0.14379475344E+04  0.10100000352E+00 0.  1.
       -3    1    3    3    0  502  0.30005802236E+03  0.11212835548E+04  0.34613157060E+03  0.12112467550E+04  0.10100000352E+00 0. -1.
</event>
<event>
 5   0  0.2623263E-07  0.2599886E+04  0.7818609E-02  0.8368240E-01
       -1   -1    0    0    0  501  0.00000000000E+00  0.00000000000E+00  0.10452724440E+04  0.10452724440E+04  0.50400001928E-02 0.  1.
        1   -1    0    0  501    0  0.00000000000E+00  0.00000000000E+00 -0.16166617482E+04  0.16166617482E+04  0.50400001928E-02 0. -1.
    10030    2    1    2    0    0  0.00000000000E+00  0.00000000000E+00 -0.57138930421E+03  0.26619341923E+04  0.25998861335E+04 0.  0.
        1    1    3    3  502    0  0.27489862076E+03  0.64694653213E+03 -0.14052920855E+04  0.15712908428E+04  0.50400001928E-02 0.  1.
       -1    1    3    3    0  502 -0.27489862076E+03 -0.64694653213E+03  0.83390278127E+03  0.10906433495E+04  0.50400001928E-02 0. -1.
</event>
<event>
 5   0  0.6526351E-07  0.2587264E+04  0.7818609E-02  0.8372540E-01
        2   -1    0    0  501    0  0.00000000000E+00  0.00000000000E+00  0.16130131969E+04  0.16130131969E+04  0.25500000920E-02 0. -1.
       -2   -1    0    0    0  501  0.00000000000E+00  0.00000000000E+00 -0.10374895256E+04  0.10374895256E+04  0.25500000920E-02 0.  1.
    10030    2    1    2    0    0  0.00000000000E+00  0.00000000000E+00  0.57552367127E+03  0.26505027225E+04  0.25872644213E+04 0.  0.
        3    1    3    3  502    0 -0.11142030904E+04 -0.65489556643E+03  0.23028746632E+03  0.13127715174E+04  0.10100000352E+00 0. -1.
       -3    1    3    3    0  502  0.11142030904E+04  0.65489556643E+03  0.34523620495E+03  0.13377312051E+04  0.10100000352E+00 0.  1.
</event>
<event>
 5   0  0.2294625E-07  0.2599922E+04  0.7818609E-02  0.8368228E-01
        3   -1    0    0  501    0  0.00000000000E+00  0.00000000000E+00  0.63761505517E+03  0.63761506317E+03  0.10100000352E+00 0.  1.
       -3   -1    0    0    0  501  0.00000000000E+00  0.00000000000E+00 -0.26503427014E+04  0.26503427033E+04  0.10100000352E+00 0. -1.
    10030    2    1    2    0    0  0.00000000000E+00  0.00000000000E+00 -0.20127276462E+04  0.32879577665E+04  0.25999218635E+04 0.  0.
        3    1    3    3  502    0  0.77372579493E+02 -0.47544214347E+03 -0.25333138969E+04  0.25787033676E+04  0.10100000352E+00 0. -1.
       -3    1    3    3    0  502 -0.77372579493E+02  0.47544214347E+03  0.52058625061E+03  0.70925439891E+03  0.10100000352E+00 0.  1.
</event>
<event>
 5   0  0.2641626E-07  0.2600784E+04  0.7818609E-02  0.8367935E-01
        1   -1    0    0  501    0  0.00000000000E+00  0.00000000000E+00  0.73247985052E+03  0.73247985053E+03  0.50400001928E-02 0. -1.
       -1   -1    0    0    0  501  0.00000000000E+00  0.00000000000E+00 -0.23086230305E+04  0.23086230305E+04  0.50400001928E-02 0.  1.
    10030    2    1    2    0    0  0.00000000000E+00  0.00000000000E+00 -0.15761431800E+04  0.30411028811E+04  0.26007843835E+04 0.  0.
        3    1    3    3  502    0  0.11878806593E+04 -0.52585040324E+03 -0.71948292300E+03  0.14850032977E+04  0.10100000352E+00 0. -1.
       -3    1    3    3    0  502 -0.11878806593E+04  0.52585040324E+03 -0.85666025700E+03  0.15560995834E+04  0.10100000352E+00 0.  1.
</event>
<event>
 5   0  0.2755061E-07  0.2599969E+04  0.7818609E-02  0.8368212E-01
        1   -1    0    0  501    0  0.00000000000E+00  0.00000000000E+00  0.10557039904E+04  0.10557039905E+04  0.50400001928E-02 0. -1.
       -1   -1    0    0    0  501  0.00000000000E+00  0.00000000000E+00 -0.16007890781E+04  0.16007890781E+04  0.50400001928E-02 0.  1.
    10030    2    1    2    0    0  0.00000000000E+00  0.00000000000E+00 -0.54508508766E+03  0.26564930686E+04  0.25999687826E+04 0.  0.
        4    1    3    3  502    0  0.10650546683E+04 -0.35490948400E+03  0.39718907068E+03  0.11908244871E+04  0.12699999809E+01 0. -1.
       -4    1    3    3    0  502 -0.10650546683E+04  0.35490948400E+03 -0.94227415834E+03  0.14656685815E+04  0.12699999809E+01 0.  1.
</event>
<event>
 5   0  0.2864801E-07  0.2600147E+04  0.7818609E-02  0.8368151E-01
        1   -1    0    0  501    0  0.00000000000E+00  0.00000000000E+00  0.14716610625E+04  0.14716610626E+04  0.50400001928E-02 0. -1.
       -1   -1    0    0    0  501  0.00000000000E+00  0.00000000000E+00 -0.11484919966E+04  0.11484919966E+04  0.50400001928E-02 0.  1.
    10030    2    1    2    0    0  0.00000000000E+00  0.00000000000E+00  0.32316906593E+03  0.26201530592E+04  0.26001468821E+04 0.  0.
        5    1    3    3  502    0  0.10899889285E+04  0.33002404131E+03  0.79344750228E+03  0.13880103605E+04  0.46999998093E+01 0. -1.
       -5    1    3    3    0  502 -0.10899889285E+04 -0.33002404131E+03 -0.47027843634E+03  0.12321426986E+04  0.46999998093E+01 0.  1.
</event>
<event>
 5   0  0.2755061E-07  0.2599417E+04  0.7818609E-02  0.8368399E-01
       -1   -1    0    0    0  501  0.00000000000E+00  0.00000000000E+00  0.91889136713E+03  0.91889136714E+03  0.50400001928E-02 0.  1.
        1   -1    0    0  501    0  0.00000000000E+00  0.00000000000E+00 -0.18383479698E+04  0.18383479698E+04  0.50400001928E-02 0. -1.
    10030    2    1    2    0    0  0.00000000000E+00  0.00000000000E+00 -0.91945660265E+03  0.27572393369E+04  0.25994169186E+04 0.  0.
        4    1    3    3  502    0  0.46330073296E+03 -0.18359011029E+03 -0.17329779699E+04  0.18032102359E+04  0.12699999809E+01 0. -1.
       -4    1    3    3    0  502 -0.46330073296E+03  0.18359011029E+03  0.81352136725E+03  0.95402910104E+03  0.12699999809E+01 0.  1.
</event>
<event>
 5   0  0.6526351E-07  0.2599870E+04  0.7818609E-02  0.8368245E-01
        2   -1    0    0  501    0  0.00000000000E+00  0.00000000000E+00  0.15152806793E+04  0.15152806793E+04  0.25500000920E-02 0.  1.
       -2   -1    0    0    0  501  0.00000000000E+00  0.00000000000E+00 -0.11151930528E+04  0.11151930528E+04  0.25500000920E-02 0. -1.
    10030    2    1    2    0    0  0.00000000000E+00  0.00000000000E+00  0.40008762652E+03  0.26304737321E+04  0.25998696018E+04 0.  0.
        3    1    3    3  502    0  0.12011877555E+04  0.24182154263E+03  0.63932134972E+03  0.13820497389E+04  0.10100000352E+00 0.  1.
       -3    1    3    3    0  502 -0.12011877555E+04 -0.24182154263E+03 -0.23923372320E+03  0.12484239932E+04  0.10100000352E+00 0. -1.
</event>
<event>
 5   0  0.2623263E-07  0.2589742E+04  0.7818609E-02  0.8371694E-01
        1   -1    0    0  501    0  0.00000000000E+00  0.00000000000E+00  0.15668269196E+04  0.15668269197E+04  0.50400001928E-02 0.  1.
       -1   -1    0    0    0  501  0.00000000000E+00  0.00000000000E+00 -0.10701187311E+04  0.10701187311E+04  0.50400001928E-02 0. -1.
    10030    2    1    2    0    0  0.00000000000E+00  0.00000000000E+00  0.49670818854E+03  0.26369456508E+04  0.25897419448E+04 0.  0.
        1    1    3    3  502    0 -0.46918721995E+03 -0.20457863291E+03 -0.96273790875E+03  0.10903455165E+04  0.50400001928E-02 0. -1.
       -1    1    3    3    0  502  0.46918721995E+03  0.20457863291E+03  0.14594460973E+04  0.15466001343E+04  0.50400001928E-02 0.  1.
</event>
<event>
 5   0  0.6526351E-07  0.2600021E+04  0.7818609E-02  0.8368194E-01
       -2   -1    0    0    0  501  0.00000000000E+00  0.00000000000E+00  0.10898232021E+04  0.10898232021E+04  0.25500000920E-02 0.  1.
        2   -1    0    0  501    0  0.00000000000E+00  0.00000000000E+00 -0.15507358232E+04  0.15507358232E+04  0.25500000920E-02 0. -1.
    10030    2    1    2    0    0  0.00000000000E+00  0.00000000000E+00 -0.46091262115E+03  0.26405590253E+04  0.26000214464E+04 0.  0.
        3    1    3    3  502    0 -0.94757369644E+03 -0.52290836848E+03 -0.96189271260E+03  0.14479525796E+04  0.10100000352E+00 0. -1.
       -3    1    3    3    0  502  0.94757369644E+03  0.52290836848E+03  0.50098009145E+03  0.11926064457E+04  0.10100000352E+00 0.  1.
</event>
<event>
 5   0  0.6768478E-07  0.2600584E+04  0.7818609E-02  0.8368003E-01
       -2   -1    0    0    0  501  0.00000000000E+00  0.00000000000E+00  0.13533620746E+04  0.13533620746E+04  0.25500000920E-02 0.  1.
        2   -1    0    0  501    0  0.00000000000E+00  0.00000000000E+00 -0.12493031194E+04  0.12493031194E+04  0.25500000920E-02 0. -1.
    10030    2    1    2    0    0  0.00000000000E+00  0.00000000000E+00  0.10405895523E+03  0.26026651940E+04  0.26005841355E+04 0.  0.
        4    1    3    3  502    0 -0.28850689070E+03 -0.81218106526E+03  0.10264016814E+04  0.13402896453E+04  0.12699999809E+01 0.  1.
       -4    1    3    3    0  502  0.28850689070E+03  0.81218106526E+03 -0.92234272615E+03  0.12623755488E+04  0.12699999809E+01 0. -1.
</event>
<event>
 5   0  0.2755061E-07  0.2601797E+04  0.7818609E-02  0.8367591E-01
       -1   -1    0    0    0  501  0.00000000000E+00  0.00000000000E+00  0.11475024229E+04  0.11475024230E+04  0.50400001928E-02 0. -1.
        1   -1    0    0  501    0  0.00000000000E+00  0.00000000000E+00 -0.14748005871E+04  0.14748005872E+04  0.50400001928E-02 0.  1.
    10030    2    1    2    0    0  0.00000000000E+00  0.00000000000E+00 -0.32729816420E+03  0.26223030101E+04  0.26017972612E+04 0.  0.
        4    1    3    3  502    0 -0.58448202702E+03  0.99638922712E+03 -0.76663251350E+03  0.13864118275E+04  0.12699999809E+01 0.  1.
       -4    1    3    3    0  502  0.58448202702E+03 -0.99638922712E+03  0.43933434930E+03  0.12358911826E+04  0.12699999809E+01 0. -1.
</event>
<event>
 5   0  0.2623263E-07  0.2598943E+04  0.7818609E-02  0.8368560E-01
        1   -1    0    0  501    0  0.00000000000E+00  0.00000000000E+00  0.11844150899E+04  0.11844150899E+04  0.50400001928E-02 0. -1.
       -1   -1    0    0    0  501  0.00000000000E+00  0.00000000000E+00 -0.14257050202E+04  0.14257050202E+04  0.50400001928E-02 0.  1.
    10030    2    1    2    0    0  0.00000000000E+00  0.00000000000E+00 -0.24128993027E+03  0.26101201101E+04  0.25989432773E+04 0.  0.
        1    1    3    3  502    0 -0.97523743493E+03 -0.73845135651E+03  0.31967877883E+03  0.12643547691E+04  0.50400001928E-02 0. -1.
       -1    1    3    3    0  502  0.97523743493E+03  0.73845135651E+03 -0.56096870910E+03  0.13457653410E+04  0.50400001928E-02 0.  1.
</event>
<event>
 5   0  0.6780984E-07  0.2583331E+04  0.7818609E-02  0.8373885E-01
       -2   -1    0    0    0  501  0.00000000000E+00  0.00000000000E+00  0.71521998660E+03  0.71521998660E+03  0.25500000920E-02 0.  1.
        2   -1    0    0  501    0  0.00000000000E+00  0.00000000000E+00 -0.23327081670E+04  0.23327081670E+04  0.25500000920E-02 0. -1.
    10030    2    1    2    0    0  0.00000000000E+00  0.00000000000E+00 -0.16174881804E+04  0.30479281536E+04  0.25833307987E+04 0.  0.
        2    1    3    3  502    0  0.67716256527E+03  0.39804840108E+03 -0.20185349757E+04  0.21659813290E+04  0.25500000920E-02 0. -1.
       -2    1    3    3    0  502 -0.67716256527E+03 -0.39804840108E+03  0.40104679531E+03  0.88194682461E+03  0.25500000920E-02 0.  1.
</event>
<event>
 5   0  0.6526351E-07  0.2603491E+04  0.7818609E-02  0.8367017E-01
        2   -1    0    0  501    0  0.00000000000E+00  0.00000000000E+00  0.99018906545E+03  0.99018906545E+03  0.25500000920E-02 0.  1.
       -2   -1    0    0    0  501  0.00000000000E+00  0.00000000000E+00 -0.17113305089E+04  0.17113305089E+04  0.25500000920E-02 0. -1.
    10030    2    1    2    0    0  0.00000000000E+00  0.00000000000E+00 -0.72114144349E+03  0.27015195744E+04  0.26034905472E+04 0.  0.
        3    1    3    3  502    0 -0.38323788952E+03 -0.25655426221E+03 -0.16237184477E+04  0.16879434164E+04  0.10100000352E+00 0. -1.
       -3    1    3    3    0  502  0.38323788952E+03  0.25655426221E+03  0.90257700417E+03  0.10135761580E+04  0.10100000352E+00 0.  1.
</event>
<event>
 5   0  0.2755061E-07  0.2599380E+04  0.7818609E-02  0.8368412E-01
       -1   -1    0    0    0  501  0.00000000000E+00  0.00000000000E+00  0.86446820260E+03  0.86446820261E+03  0.50400001928E-02 0. -1.
        1   -1    0    0  501    0  0.00000000000E+00  0.00000000000E+00 -0.19540261380E+04  0.19540261380E+04  0.50400001928E-02 0.  1.
    10030    2    1    2    0    0  0.00000000000E+00  0.00000000000E+00 -0.10895579354E+04  0.28184943407E+04  0.25993795132E+04 0.  0.
        4    1    3    3  502    0  0.12566355222E+04  0.10112644494E+03 -0.88737580941E+03  0.15416863603E+04  0.12699999809E+01 0.  1.
       -4    1    3    3    0  502 -0.12566355222E+04 -0.10112644494E+03 -0.20218212604E+03  0.12768079803E+04  0.12699999809E+01 0. -1.
</event>
<event>
 5   0  0.2793576E-07  0.2600264E+04  0.7818609E-02  0.8368112E-01
        1   -1    0    0  501    0  0.00000000000E+00  0.00000000000E+00  0.22062304554E+04  0.22062304554E+04  0.50400001928E-02 0.  1.
       -1   -1    0    0    0  501  0.00000000000E+00  0.00000000000E+00 -0.76616778876E+03  0.76616778878E+03  0.50400001928E-02 0. -1.
    10030    2    1    2    0    0  0.00000000000E+00  0.00000000000E+00  0.14400626666E+04  0.29723982442E+04  0.26002636094E+04 0.  0.
        2    1    3    3  502    0 -0.65963051781E+02 -0.49893908937E+03  0.20903632232E+04  0.21500952872E+04  0.25500000920E-02 0.  1.
       -2    1    3    3    0  502  0.65963051781E+02  0.49893908937E+03 -0.65030055659E+03  0.82230295696E+03  0.25500000920E-02 0. -1.
</event>
<event>
 5   0  0.2623263E-07  0.2600268E+04  0.7818609E-02  0.8368110E-01
        1   -1    0    0  501    0  0.00000000000E+00  0.00000000000E+00  0.21783883173E+04  0.21783883173E+04  0.50400001928E-02 0. -1.
       -1   -1    0    0    0  501  0.00000000000E+00  0.00000000000E+00 -0.77596298341E+03  0.77596298342E+03  0.50400001928E-02 0.  1.
    10030    2    1    2    0    0  0.00000000000E+00  0.00000000000E+00  0.14024253338E+04  0.29543513007E+04  0.26002682152E+04 0.  0.
        1    1    3    3  502    0  0.30248653919E+03  0.62772457431E+03  0.19483196523E+04  0.20691751292E+04  0.50400001928E-02 0. -1.
       -1    1    3    3    0  502 -0.30248653919E+03 -0.62772457431E+03 -0.54589431848E+03  0.88517617149E+03  0.50400001928E-02 0.  1.
</event>
<event>
 5   0  0.6780984E-07  0.2598238E+04  0.7818609E-02  0.8368800E-01
        2   -1    0    0  501    0  0.00000000000E+00  0.00000000000E+00  0.14333612545E+04  0.14333612545E+04  0.25500000920E-02 0.  1.
       -2   -1    0    0    0  501  0.00000000000E+00  0.00000000000E+00 -0.11774493290E+04  0.11774493290E+04  0.25500000920E-02 0. -1.
    10030    2    1    2    0    0  0.00000000000E+00  0.00000000000E+00  0.25591192550E+03  0.26108105834E+04  0.25982380547E+04 0.  0.
        2    1    3    3  502    0  0.12676315175E+04 -0.11585688742E+03 -0.13291105401E+03  0.12798350795E+04  0.25500000920E-02 0.  1.
       -2    1    3    3    0  502 -0.12676315175E+04  0.11585688742E+03  0.38882297951E+03  0.13309755039E+04  0.25500000920E-02 0. -1.
</event>
<event>
 5   0  0.2864801E-07  0.2599813E+04  0.7818609E-02  0.8368265E-01
        1   -1    0    0  501    0  0.00000000000E+00  0.00000000000E+00  0.26886124011E+04  0.26886124011E+04  0.50400001928E-02 0. -1.
       -1   -1    0    0    0  501  0.00000000000E+00  0.00000000000E+00 -0.62848643061E+03  0.62848643064E+03  0.50400001928E-02 0.  1.
    10030    2    1    2    0    0  0.00000000000E+00  0.00000000000E+00  0.20601259705E+04  0.33170988317E+04  0.25998126173E+04 0.  0.
        5    1    3    3  502    0  0.53083964443E+03 -0.96147224656E+03  0.14286364361E+03  0.11075431006E+04  0.46999998093E+01 0.  1.
       -5    1    3    3    0  502 -0.53083964443E+03  0.96147224656E+03  0.19172623269E+04  0.22095557312E+04  0.46999998093E+01 0. -1.
</event>
<event>
 5   0  0.2641626E-07  0.2600656E+04  0.7818609E-02  0.8367978E-01
        1   -1    0    0  501    0  0.00000000000E+00  0.00000000000E+00  0.15994492792E+04  0.15994492792E+04  0.50400001928E-02 0. -1.
       -1   -1    0    0    0  501  0.00000000000E+00  0.00000000000E+00 -0.10571469054E+04  0.10571469054E+04  0.50400001928E-02 0.  1.
    10030    2    1    2    0    0  0.00000000000E+00  0.00000000000E+00  0.54230237383E+03  0.26565961846E+04  0.26006559602E+04 0.  0.
        3    1    3    3  502    0  0.47341440675E+03 -0.13138300555E+03 -0.95868503328E+03  0.10772463497E+04  0.10100000352E+00 0.  1.
       -3    1    3    3    0  502 -0.47341440675E+03  0.13138300555E+03  0.15009874071E+04  0.15793498350E+04  0.10100000352E+00 0. -1.
</event>
<event>
 5   0  0.6526351E-07  0.2600123E+04  0.7818609E-02  0.8368159E-01
        2   -1    0    0  501    0  0.00000000000E+00  0.00000000000E+00  0.17770069627E+04  0.17770069627E+04  0.25500000920E-02 0. -1.
       -2   -1    0    0    0  501  0.00000000000E+00  0.00000000000E+00 -0.95112767369E+03  0.95112767370E+03  0.25500000920E-02 0.  1.
    10030    2    1    2    0    0  0.00000000000E+00  0.00000000000E+00  0.82587928897E+03  0.27281346364E+04  0.26001234575E+04 0.  0.
        3    1    3    3  502    0 -0.95116807680E+03 -0.59839733237E+03  0.10988525497E+04  0.15717114919E+04  0.10100000352E+00 0. -1.
       -3    1    3    3    0  502  0.95116807680E+03  0.59839733237E+03 -0.27297326071E+03  0.11564231444E+04  0.10100000352E+00 0.  1.
</event>
<event>
 5   0  0.6526351E-07  0.2599005E+04  0.7818609E-02  0.8368539E-01
       -2   -1    0    0    0  501  0.00000000000E+00  0.00000000000E+00  0.24921002502E+04  0.24921002502E+04  0.25500000920E-02 0.  1.
        2   -1    0    0  501    0  0.00000000000E+00  0.00000000000E+00 -0.67762411387E+03  0.67762411387E+03  0.25500000920E-02 0. -1.
    10030    2    1    2    0    0  0.00000000000E+00  0.00000000000E+00  0.18144761363E+04  0.31697243641E+04  0.25990053665E+04 0.  0.
        3    1    3    3  502    0 -0.71917607963E+03 -0.39957533173E+03  0.21340235891E+04  0.22871229456E+04  0.10100000352E+00 0.  1.
       -3    1    3    3    0  502  0.71917607963E+03  0.39957533173E+03 -0.31954745272E+03  0.88260141852E+03  0.10100000352E+00 0. -1.
</event>
<event>
 5   0  0.2623263E-07  0.2591728E+04  0.7818609E-02  0.8371017E-01
       -1   -1    0    0    0  501  0.00000000000E+00  0.00000000000E+00  0.96376069045E+03  0.96376069046E+03  0.50400001928E-02 0. -1.
        1   -1    0    0  501    0  0.00000000000E+00  0.00000000000E+00 -0.17424067322E+04  0.17424067322E+04  0.50400001928E-02 0.  1.
    10030    2    1    2    0    0  0.00000000000E+00  0.00000000000E+00 -0.77864604174E+03  0.27061674227E+04  0.25917276981E+04 0.  0.
        1    1    3    3  502    0 -0.26208248549E+03  0.42741938715E+03  0.85838350791E+03  0.99408088625E+03  0.50400001928E-02 0. -1.
       -1    1    3    3    0  502  0.26208248549E+03 -0.42741938715E+03 -0.16370295497E+04  0.17120865364E+04  0.50400001928E-02 0.  1.
</event>
<event>
 5   0  0.7160320E-07  0.2599497E+04  0.7818609E-02  0.8368372E-01
       -2   -1    0    0    0  501  0.00000000000E+00  0.00000000000E+00  0.12148024236E+04  0.12148024236E+04  0.25500000920E-02 0. -1.
        2   -1    0    0  501    0  0.00000000000E+00  0.00000000000E+00 -0.13906350160E+04  0.13906350160E+04  0.25500000920E-02 0.  1.
    10030    2    1    2    0    0  0.00000000000E+00  0.00000000000E+00 -0.17583259241E+03  0.26054374396E+04  0.25994974805E+04 0.  0.
        1    1    3    3  502    0  0.35709393309E+03 -0.12444124067E+04 -0.20336836365E+03  0.13105102085E+04  0.50400001928E-02 0. -1.
       -1    1    3    3    0  502 -0.35709393309E+03  0.12444124067E+04  0.27535771246E+02  0.12949272311E+04  0.50400001928E-02 0.  1.
</event>
<event>
 5   0  0.2793576E-07  0.2597533E+04  0.7818609E-02  0.8369040E-01
        1   -1    0    0  501    0  0.00000000000E+00  0.00000000000E+00  0.48367302363E+03  0.48367302366E+03  0.50400001928E-02 0. -1.
       -1   -1    0    0    0  501  0.00000000000E+00  0.00000000000E+00 -0.34874673746E+04  0.34874673746E+04  0.50400001928E-02 0.  1.
    10030    2    1    2    0    0  0.00000000000E+00  0.00000000000E+00 -0.30037943509E+04  0.39711403982E+04  0.25975325907E+04 0.  0.
        2    1    3    3  502    0  0.72176411248E+02  0.10326580012E+03 -0.34781028725E+04  0.34803840092E+04  0.25500000920E-02 0.  1.
       -2    1    3    3    0  502 -0.72176411248E+02 -0.10326580012E+03  0.47430852153E+03  0.49075638907E+03  0.25500000920E-02 0. -1.
</event>
<event>
 5   0  0.2623263E-07  0.2600541E+04  0.7818609E-02  0.8368017E-01
       -1   -1    0    0    0  501  0.00000000000E+00  0.00000000000E+00  0.14304925989E+04  0.14304925989E+04  0.50400001928E-02 0. -1.
        1   -1    0    0  501    0  0.00000000000E+00  0.00000000000E+00 -0.11819029630E+04  0.11819029630E+04  0.50400001928E-02 0.  1.
    10030    2    1    2    0    0  0.00000000000E+00  0.00000000000E+00  0.24858963593E+03  0.26123955619E+04  0.26005410524E+04 0.  0.
        1    1    3    3  502    0  0.49231999007E+03 -0.32438610117E+02 -0.10842154205E+04  0.11911986880E+04  0.50400001928E-02 0.  1.
       -1    1    3    3    0  502 -0.49231999007E+03  0.32438610117E+02  0.13328050565E+04  0.14211968740E+04  0.50400001928E-02 0. -1.
</event>
<event>
 5   0  0.2294625E-07  0.2598317E+04  0.7818609E-02  0.8368773E-01
        4   -1    0    0  501    0  0.00000000000E+00  0.00000000000E+00  0.95513211767E+03  0.95513296201E+03  0.12699999809E+01 0.  1.
       -4   -1    0    0    0  501  0.00000000000E+00  0.00000000000E+00 -0.17670974103E+04  0.17670978667E+04  0.12699999809E+01 0. -1.
    10030    2    1    2    0    0  0.00000000000E+00  0.00000000000E+00 -0.81196529266E+03  0.27222308287E+04  0.25983173494E+04 0.  0.
        1    1    3    3  502    0 -0.49638376084E+03 -0.71589194648E+02 -0.16615905377E+04  0.17356281185E+04  0.50400001928E-02 0. -1.
       -1    1    3    3    0  502  0.49638376084E+03  0.71589194648E+02  0.84962524501E+03  0.98660271021E+03  0.50400001928E-02 0.  1.
</event>
<event>
 5   0  0.6526351E-07  0.2599636E+04  0.7818609E-02  0.8368325E-01
        2   -1    0    0  501    0  0.00000000000E+00  0.00000000000E+00  0.24636573574E+04  0.24636573574E+04  0.25500000920E-02 0.  1.
       -2   -1    0    0    0  501  0.00000000000E+00  0.00000000000E+00 -0.68578015767E+03  0.68578015768E+03  0.25500000920E-02 0. -1.
    10030    2    1    2    0    0  0.00000000000E+00  0.00000000000E+00  0.17778771997E+04  0.31494375150E+04  0.25996363830E+04 0.  0.
        3    1    3    3  502    0 -0.12065197853E+04 -0.47777881167E+03  0.97931242328E+03  0.16257353468E+04  0.10100000352E+00 0.  1.
       -3    1    3    3    0  502  0.12065197853E+04  0.47777881167E+03  0.79856477642E+03  0.15237021683E+04  0.10100000352E+00 0. -1.
</event>
<event>
 5   0  0.2755061E-07  0.2599185E+04  0.7818609E-02  0.8368478E-01
        1   -1    0    0  501    0  0.00000000000E+00  0.00000000000E+00  0.21626076559E+04  0.21626076559E+04  0.50400001928E-02 0. -1.
       -1   -1    0    0    0  501  0.00000000000E+00  0.00000000000E+00 -0.78097428885E+03  0.78097428886E+03  0.50400001928E-02 0.  1.
    10030    2    1    2    0    0  0.00000000000E+00  0.00000000000E+00  0.13816333671E+04  0.29435819448E+04  0.25991852386E+04 0.  0.
        4    1    3    3  502    0  0.12134550004E+04 -0.32501171175E+03  0.31378761170E+03  0.12948242849E+04  0.12699999809E+01 0.  1.
       -4    1    3    3    0  502 -0.12134550004E+04  0.32501171175E+03  0.10678457554E+04  0.16487576598E+04  0.12699999809E+01 0. -1.
</event>
<event>
 5   0  0.2793576E-07  0.2599641E+04  0.7818609E-02  0.8368323E-01
        1   -1    0    0  501    0  0.00000000000E+00  0.00000000000E+00  0.17822676771E+04  0.17822676771E+04  0.50400001928E-02 0. -1.
       -1   -1    0    0    0  501  0.00000000000E+00  0.00000000000E+00 -0.94796819482E+03  0.94796819484E+03  0.50400001928E-02 0.  1.
    10030    2    1    2    0    0  0.00000000000E+00  0.00000000000E+00  0.83429948231E+03  0.27302358720E+04  0.25996408003E+04 0.  0.
        2    1    3    3  502    0 -0.42075429785E+03 -0.10258069895E+04 -0.29532431641E+03  0.11474016780E+04  0.25500000920E-02 0. -1.
       -2    1    3    3    0  502  0.42075429785E+03  0.10258069895E+04  0.11296237987E+04  0.15828341939E+04  0.25500000920E-02 0.  1.
</event>
<event>
 5   0  0.6780984E-07  0.2604812E+04  0.7818609E-02  0.8366568E-01
       -2   -1    0    0    0  501  0.00000000000E+00  0.00000000000E+00  0.76885399696E+03  0.76885399696E+03  0.25500000920E-02 0.  1.
        2   -1    0    0  501    0  0.00000000000E+00  0.00000000000E+00 -0.22062205482E+04  0.22062205482E+04  0.25500000920E-02 0. -1.
    10030    2    1    2    0    0  0.00000000000E+00  0.00000000000E+00 -0.14373665512E+04  0.29750745451E+04  0.26048120751E+04 0.  0.
        2    1    3    3  502    0 -0.67355242876E+02 -0.65089143046E+02 -0.22023686753E+04  0.22043595685E+04  0.25500000920E-02 0. -1.
       -2    1    3    3    0  502  0.67355242876E+02  0.65089143046E+02  0.76500212411E+03  0.77071497662E+03  0.25500000920E-02 0.  1.
</event>
<event>
 5   0  0.2641626E-07  0.2599280E+04  0.7818609E-02  0.8368446E-01
        1   -1    0    0  501    0  0.00000000000E+00  0.00000000000E+00  0.17473058666E+04  0.17473058666E+04  0.50400001928E-02 0.  1.
       -1   -1    0    0    0  501  0.00000000000E+00  0.00000000000E+00 -0.96666778967E+03  0.96666778968E+03  0.50400001928E-02 0. -1.
    10030    2    1    2    0    0  0.00000000000E+00  0.00000000000E+00  0.78063807688E+03  0.27139736562E+04  0.25992801311E+04 0.  0.
        3    1    3    3  502    0  0.10130326338E+04 -0.69021658956E+03  0.84114686146E+03  0.14866613973E+04  0.10100000352E+00 0.  1.
       -3    1    3    3    0  502 -0.10130326338E+04  0.69021658956E+03 -0.60508784582E+02  0.12273122589E+04  0.10100000352E+00 0. -1.
</event>
<event>
 5   0  0.6599814E-07  0.2601495E+04  0.7818609E-02  0.8367694E-01
        2   -1    0    0  501    0  0.00000000000E+00  0.00000000000E+00  0.19739729512E+04  0.19739729512E+04  0.25500000920E-02 0.  1.
       -2   -1    0    0    0  501  0.00000000000E+00  0.00000000000E+00 -0.85712621623E+03  0.85712621623E+03  0.25500000920E-02 0. -1.
    10030    2    1    2    0    0  0.00000000000E+00  0.00000000000E+00  0.11168467349E+04  0.28310991674E+04  0.26014949291E+04 0.  0.
        5    1    3    3  502    0  0.12033520016E+04  0.29176364472E+02  0.10948968506E+04  0.16271842254E+04  0.46999998093E+01 0.  1.
       -5    1    3    3    0  502 -0.12033520016E+04 -0.29176364472E+02  0.21949884304E+02  0.12039149419E+04  0.46999998093E+01 0. -1.
</event>
<event>
 5   0  0.2641626E-07  0.2598621E+04  0.7818609E-02  0.8368670E-01
        1   -1    0    0  501    0  0.00000000000E+00  0.00000000000E+00  0.10422928279E+04  0.10422928279E+04  0.50400001928E-02 0. -1.
       -1   -1    0    0    0  501  0.00000000000E+00  0.00000000000E+00 -0.16197063287E+04  0.16197063287E+04  0.50400001928E-02 0.  1.
    10030    2    1    2    0    0  0.00000000000E+00  0.00000000000E+00 -0.57741350074E+03  0.26619991566E+04  0.25986213958E+04 0.  0.
        3    1    3    3  502    0 -0.10155447513E+04  0.52197000763E+03  0.34643462297E+03  0.11932312387E+04  0.10100000352E+00 0. -1.
       -3    1    3    3    0  502  0.10155447513E+04 -0.52197000763E+03 -0.92384812372E+03  0.14687679179E+04  0.10100000352E+00 0.  1.
</event>
<event>
 5   0  0.6780984E-07  0.2600113E+04  0.7818609E-02  0.8368163E-01
       -2   -1    0    0    0  501  0.00000000000E+00  0.00000000000E+00  0.96338955334E+03  0.96338955334E+03  0.25500000920E-02 0. -1.
        2   -1    0    0  501    0  0.00000000000E+00  0.00000000000E+00 -0.17543748834E+04  0.17543748834E+04  0.25500000920E-02 0.  1.
    10030    2    1    2    0    0  0.00000000000E+00  0.00000000000E+00 -0.79098533009E+03  0.27177644368E+04  0.26001126401E+04 0.  0.
        2    1    3    3  502    0 -0.55967014313E+03  0.10838599205E+04  0.74478223560E+02  0.12221006514E+04  0.25500000920E-02 0. -1.
       -2    1    3    3    0  502  0.55967014313E+03 -0.10838599205E+04 -0.86546355365E+03  0.14956637854E+04  0.25500000920E-02 0.  1.
</event>
<event>
 5   0  0.6780984E-07  0.2599444E+04  0.7818609E-02  0.8368390E-01
       -2   -1    0    0    0  501  0.00000000000E+00  0.00000000000E+00  0.75518202710E+03  0.75518202710E+03  0.25500000920E-02 0.  1.
        2   -1    0    0  501    0  0.00000000000E+00  0.00000000000E+00 -0.22369144311E+04  0.22369144311E+04  0.25500000920E-02 0. -1.
    10030    2    1    2    0    0  0.00000000000E+00  0.00000000000E+00 -0.14817324040E+04  0.29920964582E+04  0.25994442287E+04 0.  0.
        2    1    3    3  502    0 -0.92675477412E+02  0.95538160133E+03  0.26782275853E+03  0.99652986823E+03  0.25500000920E-02 0.  1.
       -2    1    3    3    0  502  0.92675477412E+02 -0.95538160133E+03 -0.17495551625E+04  0.19955665899E+04  0.25500000920E-02 0. -1.
</event>
<event>
 5   0  0.2623263E-07  0.2618965E+04  0.7818609E-02  0.8361787E-01
       -1   -1    0    0    0  501  0.00000000000E+00  0.00000000000E+00  0.12292772088E+04  0.12292772088E+04  0.50400001928E-02 0.  1.
        1   -1    0    0  501    0  0.00000000000E+00  0.00000000000E+00 -0.13949213422E+04  0.13949213422E+04  0.50400001928E-02 0. -1.
    10030    2    1    2    0    0  0.00000000000E+00  0.00000000000E+00 -0.16564413335E+03  0.26241985510E+04  0.26189654553E+04 0.  0.
        1    1    3    3  502    0  0.33094626944E+02  0.12466234384E+04 -0.48309463561E+03  0.13373652001E+04  0.50400001928E-02 0. -1.
       -1    1    3    3    0  502 -0.33094626944E+02 -0.12466234384E+04  0.31745050226E+03  0.12868333509E+04  0.50400001928E-02 0.  1.
</event>
<event>
 5   0  0.6526351E-07  0.2599624E+04  0.7818609E-02  0.8368329E-01
       -2   -1    0    0    0  501  0.00000000000E+00  0.00000000000E+00  0.10624306576E+04  0.10624306576E+04  0.25500000920E-02 0.  1.
        2   -1    0    0  501    0  0.00000000000E+00  0.00000000000E+00 -0.15902314320E+04  0.15902314320E+04  0.25500000920E-02 0. -1.
    10030    2    1    2    0    0  0.00000000000E+00  0.00000000000E+00 -0.52780077442E+03  0.26526620896E+04  0.25996235312E+04 0.  0.
        3    1    3    3  502    0  0.11431983139E+04  0.11253203310E+03  0.35673983635E+03  0.12028421195E+04  0.10100000352E+00 0. -1.
       -3    1    3    3    0  502 -0.11431983139E+04 -0.11253203310E+03 -0.88454061077E+03  0.14498199701E+04  0.10100000352E+00 0.  1.
</event>
<event>
 5   0  0.6780984E-07  0.2599594E+04  0.7818609E-02  0.8368339E-01
       -2   -1    0    0    0  501  0.00000000000E+00  0.00000000000E+00  0.88048234397E+03  0.88048234397E+03  0.25500000920E-02 0.  1.
        2   -1    0    0  501    0  0.00000000000E+00  0.00000000000E+00 -0.19188026596E+04  0.19188026596E+04  0.25500000920E-02 0. -1.
    10030    2    1    2    0    0  0.00000000000E+00  0.00000000000E+00 -0.10383203156E+04  0.27992850035E+04  0.25995937093E+04 0.  0.
        2    1    3    3  502    0  0.53724367736E+03 -0.43351354971E+03  0.66675988432E+03  0.95975700571E+03  0.25500000920E-02 0.  1.
       -2    1    3    3    0  502 -0.53724367736E+03  0.43351354971E+03 -0.17050801999E+04  0.18395279978E+04  0.25500000920E-02 0. -1.
</event>
<event>
 5   0  0.2641626E-07  0.2599628E+04  0.7818609E-02  0.8368327E-01
        1   -1    0    0  501    0  0.00000000000E+00  0.00000000000E+00  0.24411109441E+04  0.24411109441E+04  0.50400001928E-02 0.  1.
       -1   -1    0    0    0  501  0.00000000000E+00  0.00000000000E+00 -0.69210985181E+03  0.69210985183E+03  0.50400001928E-02 0. -1.
    10030    2    1    2    0    0  0.00000000000E+00  0.00000000000E+00  0.17490010923E+04  0.31332207960E+04  0.25996283841E+04 0.  0.
        3    1    3    3  502    0  0.93790217745E+02 -0.37554830110E+03 -0.62103072790E+03  0.73178706370E+03  0.10100000352E+00 0. -1.
       -3    1    3    3    0  502 -0.93790217745E+02  0.37554830110E+03  0.23700318202E+04  0.24014337323E+04  0.10100000352E+00 0.  1.
</event>
<event>
 5   0  0.2641626E-07  0.2602014E+04  0.7818609E-02  0.8367517E-01
        1   -1    0    0  501    0  0.00000000000E+00  0.00000000000E+00  0.10178227995E+04  0.10178227995E+04  0.50400001928E-02 0. -1.
       -1   -1    0    0    0  501  0.00000000000E+00  0.00000000000E+00 -0.16629805818E+04  0.16629805818E+04  0.50400001928E-02 0.  1.
    10030    2    1    2    0    0  0.00000000000E+00  0.00000000000E+00 -0.64515778231E+03  0.26808033813E+04  0.26020142592E+04 0.  0.
        3    1    3    3  502    0 -0.81042561289E+03  0.95046763856E+03  0.52365393071E+02  0.12501682089E+04  0.10100000352E+00 0. -1.
       -3    1    3    3    0  502  0.81042561289E+03 -0.95046763856E+03 -0.69752317538E+03  0.14306351723E+04  0.10100000352E+00 0.  1.
</event>
<event>
 5   0  0.2755061E-07  0.2600212E+04  0.7818609E-02  0.8368129E-01
       -1   -1    0    0    0  501  0.00000000000E+00  0.00000000000E+00  0.13770941272E+04  0.13770941272E+04  0.50400001928E-02 0. -1.
        1   -1    0    0  501    0  0.00000000000E+00  0.00000000000E+00 -0.12274222582E+04  0.12274222582E+04  0.50400001928E-02 0.  1.
    10030    2    1    2    0    0  0.00000000000E+00  0.00000000000E+00  0.14967186895E+03  0.26045163854E+04  0.26002122862E+04 0.  0.
        4    1    3    3  502    0 -0.95751398273E+03 -0.55753625100E+02  0.95397484969E+03  0.13527790361E+04  0.12699999809E+01 0. -1.
       -4    1    3    3    0  502  0.95751398273E+03  0.55753625100E+02 -0.80430298075E+03  0.12517373493E+04  0.12699999809E+01 0.  1.
</event>
<event>
 5   0  0.6526351E-07  0.2601577E+04  0.7818609E-02  0.8367666E-01
        2   -1    0    0  501    0  0.00000000000E+00  0.00000000000E+00  0.16785314625E+04  0.16785314625E+04  0.25500000920E-02 0. -1.
       -2   -1    0    0    0  501  0.00000000000E+00  0.00000000000E+00 -0.10080540159E+04  0.10080540159E+04  0.25500000920E-02 0.  1.
    10030    2    1    2    0    0  0.00000000000E+00  0.00000000000E+00  0.67047744657E+03  0.26865854784E+04  0.26015767385E+04 0.  0.
        3    1    3    3  502    0  0.72592968364E+03 -0.53655662755E+02  0.14485176729E+04  0.16211280932E+04  0.10100000352E+00 0. -1.
       -3    1    3    3    0  502 -0.72592968364E+03  0.53655662755E+02 -0.77804022629E+03  0.10654573852E+04  0.10100000352E+00 0.  1.
</event>
<event>
 5   0  0.6780984E-07  0.2598321E+04  0.7818609E-02  0.8368772E-01
       -2   -1    0    0    0  501  0.00000000000E+00  0.00000000000E+00  0.92531774581E+03  0.92531774581E+03  0.25500000920E-02 0. -1.
        2   -1    0    0  501    0  0.00000000000E+00  0.00000000000E+00 -0.18240418181E+04  0.18240418181E+04  0.25500000920E-02 0.  1.
    10030    2    1    2    0    0  0.00000000000E+00  0.00000000000E+00 -0.89872407229E+03  0.27493595639E+04  0.25983211991E+04 0.  0.
        2    1    3    3  502    0 -0.62511591221E+03  0.46260145833E+03  0.65182884640E+03  0.10147171320E+04  0.25500000920E-02 0. -1.
       -2    1    3    3    0  502  0.62511591221E+03 -0.46260145833E+03 -0.15505529187E+04  0.17346424319E+04  0.25500000920E-02 0.  1.
</event>
<event>
 5   0  0.6768478E-07  0.2600081E+04  0.7818609E-02  0.8368174E-01
        2   -1    0    0  501    0  0.00000000000E+00  0.00000000000E+00  0.20185267345E+04  0.20185267345E+04  0.25500000920E-02 0.  1.
       -2   -1    0    0    0  501  0.00000000000E+00  0.00000000000E+00 -0.83729658729E+03  0.83729658729E+03  0.25500000920E-02 0. -1.
    10030    2    1    2    0    0  0.00000000000E+00  0.00000000000E+00  0.11812301473E+04  0.28558233218E+04  0.26000811881E+04 0.  0.
        4    1    3    3  502    0  0.15158023743E+03  0.12172245770E+04  0.11756549434E+03  0.12322481477E+04  0.12699999809E+01 0. -1.
       -4    1    3    3    0  502 -0.15158023743E+03 -0.12172245770E+04  0.10636646529E+04  0.16235751741E+04  0.12699999809E+01 0.  1.
</event>
<event>
 5   0  0.2793576E-07  0.2600055E+04  0.7818609E-02  0.8368182E-01
       -1   -1    0    0    0  501  0.00000000000E+00  0.00000000000E+00  0.10801538951E+04  0.10801538951E+04  0.50400001928E-02 0. -1.
        1   -1    0    0  501    0  0.00000000000E+00  0.00000000000E+00 -0.15646583976E+04  0.15646583976E+04  0.50400001928E-02 0.  1.
    10030    2    1    2    0    0  0.00000000000E+00  0.00000000000E+00 -0.48450450244E+03  0.26448122927E+04  0.26000552784E+04 0.  0.
        2    1    3    3  502    0 -0.18022479203E+02  0.27818077702E+03 -0.15338985950E+04  0.15590234938E+04  0.25500000920E-02 0.  1.
       -2    1    3    3    0  502  0.18022479203E+02 -0.27818077702E+03  0.10493940925E+04  0.10857887989E+04  0.25500000920E-02 0. -1.
</event>
<event>
 5   0  0.2294625E-07  0.2600276E+04  0.7818609E-02  0.8368107E-01
       -3   -1    0    0    0  501  0.00000000000E+00  0.00000000000E+00  0.13291307741E+04  0.13291307779E+04  0.10100000352E+00 0. -1.
        3   -1    0    0  501    0  0.00000000000E+00  0.00000000000E+00 -0.12717776540E+04  0.12717776580E+04  0.10100000352E+00 0.  1.
    10030    2    1    2    0    0  0.00000000000E+00  0.00000000000E+00  0.57353120085E+02  0.26009084360E+04  0.26002760069E+04 0.  0.
        5    1    3    3  502    0 -0.26352768004E+03  0.11881030473E+04 -0.42892902557E+03  0.12903634713E+04  0.46999998093E+01 0.  1.
       -5    1    3    3    0  502  0.26352768004E+03 -0.11881030473E+04  0.48628214566E+03  0.13105449646E+04  0.46999998093E+01 0. -1.
</event>
<event>
 5   0  0.6526351E-07  0.2599419E+04  0.7818609E-02  0.8368399E-01
        2   -1    0    0  501    0  0.00000000000E+00  0.00000000000E+00  0.14241734529E+04  0.14241734529E+04  0.25500000920E-02 0. -1.
       -2   -1    0    0    0  501  0.00000000000E+00  0.00000000000E+00 -0.11861225301E+04  0.11861225301E+04  0.25500000920E-02 0.  1.
    10030    2    1    2    0    0  0.00000000000E+00  0.00000000000E+00  0.23805092285E+03  0.26102959830E+04  0.25994185652E+04 0.  0.
        3    1    3    3  502    0 -0.24484508712E+03 -0.40332996792E+03  0.13351340190E+04  0.14160533318E+04  0.10100000352E+00 0. -1.
       -3    1    3    3    0  502  0.24484508712E+03  0.40332996792E+03 -0.10970830962E+04  0.11942426511E+04  0.10100000352E+00 0.  1.
</event>
<event>
 5   0  0.6780984E-07  0.2586443E+04  0.7818609E-02  0.8372821E-01
        2   -1    0    0  501    0  0.00000000000E+00  0.00000000000E+00  0.17700934958E+04  0.17700934958E+04  0.25500000920E-02 0. -1.
       -2   -1    0    0    0  501  0.00000000000E+00  0.00000000000E+00 -0.94482123634E+03  0.94482123634E+03  0.25500000920E-02 0.  1.
    10030    2    1    2    0    0  0.00000000000E+00  0.00000000000E+00  0.82527225948E+03  0.27149147322E+04  0.25864430596E+04 0.  0.
        2    1    3    3  502    0  0.27883446023E+02 -0.81461515714E+03  0.14665219797E+04  0.16778146673E+04  0.25500000920E-02 0. -1.
       -2    1    3    3    0  502 -0.27883446023E+02  0.81461515714E+03 -0.64124972025E+03  0.10371000649E+04  0.25500000920E-02 0.  1.
</event>
<event>
 5   0  0.2623263E-07  0.2599851E+04  0.7818609E-02  0.8368252E-01
        1   -1    0    0  501    0  0.00000000000E+00  0.00000000000E+00  0.16061539999E+04  0.16061539999E+04  0.50400001928E-02 0. -1.
       -1   -1    0    0    0  501  0.00000000000E+00  0.00000000000E+00 -0.10520821125E+04  0.10520821125E+04  0.50400001928E-02 0.  1.
    10030    2    1    2    0    0  0.00000000000E+00  0.00000000000E+00  0.55407188741E+03  0.26582361123E+04  0.25998506827E+04 0.  0.
        1    1    3    3  502    0  0.12344279082E+04 -0.38708516221E+03  0.14706433718E+03  0.13020273049E+04  0.50400001928E-02 0. -1.
       -1    1    3    3    0  502 -0.12344279082E+04  0.38708516221E+03  0.40700755023E+03  0.13562088074E+04  0.50400001928E-02 0.  1.
</event>
<event>
 5   0  0.2641626E-07  0.2599174E+04  0.7818609E-02  0.8368482E-01
       -1   -1    0    0    0  501  0.00000000000E+00  0.00000000000E+00  0.13503436554E+04  0.13503436554E+04  0.50400001928E-02 0.  1.
        1   -1    0    0  501    0  0.00000000000E+00  0.00000000000E+00 -0.12507381085E+04  0.12507381086E+04  0.50400001928E-02 0. -1.
    10030    2    1    2    0    0  0.00000000000E+00  0.00000000000E+00  0.99605546853E+02  0.26010817640E+04  0.25991739222E+04 0.  0.
        3    1    3    3  502    0 -0.63430694522E+03 -0.69802013254E+02 -0.10831539441E+04  0.12571555586E+04  0.10100000352E+00 0. -1.
       -3    1    3    3    0  502  0.63430694522E+03  0.69802013254E+02  0.11827594909E+04  0.13439262053E+04  0.10100000352E+00 0.  1.
</event>
<event>
 5   0  0.2755061E-07  0.2600372E+04  0.7818609E-02  0.8368075E-01
       -1   -1    0    0    0  501  0.00000000000E+00  0.00000000000E+00  0.13635048093E+04  0.13635048093E+04  0.50400001928E-02 0. -1.
        1   -1    0    0  501    0  0.00000000000E+00  0.00000000000E+00 -0.12398074727E+04  0.12398074727E+04  0.50400001928E-02 0.  1.
    10030    2    1    2    0    0  0.00000000000E+00  0.00000000000E+00  0.12369733664E+03  0.26033122820E+04  0.26003718593E+04 0.  0.
        4    1    3    3  502    0  0.91362061281E+03  0.37235133130E+03  0.90964371686E+03  0.13419394333E+04  0.12699999809E+01 0. -1.
       -4    1    3    3    0  502 -0.91362061281E+03 -0.37235133130E+03 -0.78594638023E+03  0.12613728487E+04  0.12699999809E+01 0.  1.
</event>
<event>
 5   0  0.2641626E-07  0.2602327E+04  0.7818609E-02  0.8367411E-01
        1   -1    0    0  501    0  0.00000000000E+00  0.00000000000E+00  0.17172687677E+04  0.17172687677E+04  0.50400001928E-02 0.  1.
       -1   -1    0    0    0  501  0.00000000000E+00  0.00000000000E+00 -0.98588342264E+03  0.98588342265E+03  0.50400001928E-02 0. -1.
    10030    2    1    2    0    0  0.00000000000E+00  0.00000000000E+00  0.73138534509E+03  0.27031521904E+04  0.26023272741E+04 0.  0.
        3    1    3    3  502    0  0.71007536573E+03  0.94283472577E+03  0.93452479445E+03  0.15054836255E+04  0.10100000352E+00 0.  1.
       -3    1    3    3    0  502 -0.71007536573E+03 -0.94283472577E+03 -0.20313944936E+03  0.11976685648E+04  0.10100000352E+00 0. -1.
</event>
<event>
 5   0  0.6526351E-07  0.2600709E+04  0.7818609E-02  0.8367960E-01
        2   -1    0    0  501    0  0.00000000000E+00  0.00000000000E+00  0.13897949675E+04  0.13897949675E+04  0.25500000920E-02 0.  1.
       -2   -1    0    0    0  501  0.00000000000E+00  0.00000000000E+00 -0.12166702815E+04  0.12166702815E+04  0.25500000920E-02 0. -1.
    10030    2    1    2    0    0  0.00000000000E+00  0.00000000000E+00  0.17312468599E+03  0.26064652490E+04  0.26007093142E+04 0.  0.
        3    1    3    3  502    0 -0.85727031955E+03  0.82496271616E+03  0.61255372567E+03  0.13381696308E+04  0.10100000352E+00 0.  1.
       -3    1    3    3    0  502  0.85727031955E+03 -0.82496271616E+03 -0.43942903968E+03  0.12682956181E+04  0.10100000352E+00 0. -1.
</event>
<event>
 5   0  0.2793576E-07  0.2600611E+04  0.7818609E-02  0.8367994E-01
       -1   -1    0    0    0  501  0.00000000000E+00  0.00000000000E+00  0.74975350063E+03  0.74975350065E+03  0.50400001928E-02 0.  1.
        1   -1    0    0  501    0  0.00000000000E+00  0.00000000000E+00 -0.22551336628E+04  0.22551336628E+04  0.50400001928E-02 0. -1.
    10030    2    1    2    0    0  0.00000000000E+00  0.00000000000E+00 -0.15053801622E+04  0.30048871635E+04  0.26006109729E+04 0.  0.
        2    1    3    3  502    0 -0.26489181696E+03  0.97003735697E+03  0.19987966338E+03  0.10252277934E+04  0.25500000920E-02 0.  1.
       -2    1    3    3    0  502  0.26489181696E+03 -0.97003735697E+03 -0.17052598256E+04  0.19796593700E+04  0.25500000920E-02 0. -1.
</event>
<event>
 5   0  0.7160320E-07  0.2599655E+04  0.7818609E-02  0.8368318E-01
        2   -1    0    0  501    0  0.00000000000E+00  0.00000000000E+00  0.13914083000E+04  0.13914083000E+04  0.25500000920E-02 0. -1.
       -2   -1    0    0    0  501  0.00000000000E+00  0.00000000000E+00 -0.12142748558E+04  0.12142748558E+04  0.25500000920E-02 0.  1.
    10030    2    1    2    0    0  0.00000000000E+00  0.00000000000E+00  0.17713344420E+03  0.26056831558E+04  0.25996554486E+04 0.  0.
        1    1    3    3  502    0  0.24861177395E+03 -0.12603800008E+04 -0.10984820487E+03  0.12893533995E+04  0.50400001928E-02 0.  1.
       -1    1    3    3    0  502 -0.24861177395E+03  0.12603800008E+04  0.28698164907E+03  0.13163297564E+04  0.50400001928E-02 0. -1.
</event>
<event>
 5   0  0.2793576E-07  0.2599522E+04  0.7818609E-02  0.8368364E-01
        1   -1    0    0  501    0  0.00000000000E+00  0.00000000000E+00  0.13936510592E+04  0.13936510593E+04  0.50400001928E-02 0.  1.
       -1   -1    0    0    0  501  0.00000000000E+00  0.00000000000E+00 -0.12121959030E+04  0.12121959031E+04  0.50400001928E-02 0. -1.
    10030    2    1    2    0    0  0.00000000000E+00  0.00000000000E+00  0.18145515619E+03  0.26058469623E+04  0.25995215747E+04 0.  0.
        2    1    3    3  502    0 -0.11014006424E+04  0.63327344932E+03 -0.18427454792E+03  0.12837740244E+04  0.25500000920E-02 0.  1.
       -2    1    3    3    0  502  0.11014006424E+04 -0.63327344932E+03  0.36572970411E+03  0.13220729379E+04  0.25500000920E-02 0. -1.
</event>
<event>
 5   0  0.2641626E-07  0.2588115E+04  0.7818609E-02  0.8372249E-01
        1   -1    0    0  501    0  0.00000000000E+00  0.00000000000E+00  0.10882717822E+04  0.10882717822E+04  0.50400001928E-02 0. -1.
       -1   -1    0    0    0  501  0.00000000000E+00  0.00000000000E+00 -0.15387561586E+04  0.15387561586E+04  0.50400001928E-02 0.  1.
    10030    2    1    2    0    0  0.00000000000E+00  0.00000000000E+00 -0.45048437641E+03  0.26270279408E+04  0.25881150725E+04 0.  0.
        3    1    3    3  502    0 -0.75466552478E+03 -0.59309683198E+03 -0.11062208291E+04  0.14645847328E+04  0.10100000352E+00 0.  1.
       -3    1    3    3    0  502  0.75466552478E+03  0.59309683198E+03  0.65573645272E+03  0.11624432081E+04  0.10100000352E+00 0. -1.
</event>
<event>
 5   0  0.6768478E-07  0.2600132E+04  0.7818609E-02  0.8368156E-01
       -2   -1    0    0    0  501  0.00000000000E+00  0.00000000000E+00  0.12683146349E+04  0.12683146349E+04  0.25500000920E-02 0. -1.
        2   -1    0    0  501    0  0.00000000000E+00  0.00000000000E+00 -0.13326118869E+04  0.13326118869E+04  0.25500000920E-02 0.  1.
    10030    2    1    2    0    0  0.00000000000E+00  0.00000000000E+00 -0.64297252037E+02  0.26009265217E+04  0.26001316572E+04 0.  0.
        4    1    3    3  502    0 -0.99575798910E+03  0.55215786880E+03  0.59554400750E+03  0.12849461322E+04  0.12699999809E+01 0. -1.
       -4    1    3    3    0  502  0.99575798910E+03 -0.55215786880E+03 -0.65984125954E+03  0.13159803895E+04  0.12699999809E+01 0.  1.
</event>
<event>
 5   0  0.2755061E-07  0.2599531E+04  0.7818609E-02  0.8368360E-01
       -1   -1    0    0    0  501  0.00000000000E+00  0.00000000000E+00  0.11229219407E+04  0.11229219407E+04  0.50400001928E-02 0.  1.
        1   -1    0    0  501    0  0.00000000000E+00  0.00000000000E+00 -0.15044596274E+04  0.15044596274E+04  0.50400001928E-02 0. -1.
    10030    2    1    2    0    0  0.00000000000E+00  0.00000000000E+00 -0.38153768671E+03  0.26273815681E+04  0.25995312843E+04 0.  0.
        4    1    3    3  502    0  0.57399709226E+03  0.94669334723E+03  0.49747304575E+03  0.12137470905E+04  0.12699999809E+01 0.  1.
       -4    1    3    3    0  502 -0.57399709226E+03 -0.94669334723E+03 -0.87901073246E+03  0.14136344776E+04  0.12699999809E+01 0. -1.
</event>
<event>
 5   0  0.6780984E-07  0.2599990E+04  0.7818609E-02  0.8368205E-01
        2   -1    0    0  501    0  0.00000000000E+00  0.00000000000E+00  0.78515507030E+03  0.78515507030E+03  0.25500000920E-02 0. -1.
       -2   -1    0    0    0  501  0.00000000000E+00  0.00000000000E+00 -0.21524249424E+04  0.21524249424E+04  0.25500000920E-02 0.  1.
    10030    2    1    2    0    0  0.00000000000E+00  0.00000000000E+00 -0.13672698721E+04  0.29375800127E+04  0.25999902746E+04 0.  0.
        2    1    3    3  502    0  0.78332480006E+03  0.10362646058E+04 -0.62663348916E+03  0.14422592018E+04  0.25500000920E-02 0.  1.
       -2    1    3    3    0  502 -0.78332480006E+03 -0.10362646058E+04 -0.74063638291E+03  0.14953208108E+04  0.25500000920E-02 0. -1.
</event>
<event>
 5   0  0.2864801E-07  0.2598546E+04  0.7818609E-02  0.8368695E-01
       -1   -1    0    0    0  501  0.00000000000E+00  0.00000000000E+00  0.61623765103E+03  0.61623765105E+03  0.50400001928E-02 0.  1.
        1   -1    0    0  501    0  0.00000000000E+00  0.00000000000E+00 -0.27393814803E+04  0.27393814803E+04  0.50400001928E-02 0. -1.
    10030    2    1    2    0    0  0.00000000000E+00  0.00000000000E+00 -0.21231438293E+04  0.33556191314E+04  0.25985457539E+04 0.  0.
        5    1    3    3  502    0 -0.35973563635E+03  0.50224579666E+03 -0.25375670484E+04  0.26116908668E+04  0.46999998093E+01 0. -1.
       -5    1    3    3    0  502  0.35973563635E+03 -0.50224579666E+03  0.41442321913E+03  0.74392826460E+03  0.46999998093E+01 0.  1.
</event>
<event>
 5   0  0.6526351E-07  0.2599767E+04  0.7818609E-02  0.8368280E-01
       -2   -1    0    0    0  501  0.00000000000E+00  0.00000000000E+00  0.87989156809E+03  0.87989156809E+03  0.25500000920E-02 0.  1.
        2   -1    0    0  501    0  0.00000000000E+00  0.00000000000E+00 -0.19203472161E+04  0.19203472161E+04  0.25500000920E-02 0. -1.
    10030    2    1    2    0    0  0.00000000000E+00  0.00000000000E+00 -0.10404556480E+04  0.28002387842E+04  0.25997671613E+04 0.  0.
        3    1    3    3  502    0  0.57135266273E+03  0.43889376039E+03  0.64515776322E+03  0.96710917055E+03  0.10100000352E+00 0.  1.
       -3    1    3    3    0  502 -0.57135266273E+03 -0.43889376039E+03 -0.16856134113E+04  0.18331296137E+04  0.10100000352E+00 0. -1.
</event>
<event>
 5   0  0.2793576E-07  0.2598940E+04  0.7818609E-02  0.8368561E-01
        1   -1    0    0  501    0  0.00000000000E+00  0.00000000000E+00  0.15316736720E+04  0.15316736720E+04  0.50400001928E-02 0. -1.
       -1   -1    0    0    0  501  0.00000000000E+00  0.00000000000E+00 -0.11024688819E+04  0.11024688819E+04  0.50400001928E-02 0.  1.
    10030    2    1    2    0    0  0.00000000000E+00  0.00000000000E+00  0.42920479005E+03  0.26341425539E+04  0.25989402153E+04 0.  0.
        2    1    3    3  502    0 -0.12978808911E+04 -0.64061337857E+02  0.21955717637E+03  0.13178786045E+04  0.25500000920E-02 0.  1.
       -2    1    3    3    0  502  0.12978808911E+04  0.64061337857E+02  0.20964761368E+03  0.13162639494E+04  0.25500000920E-02 0. -1.
</event>
<event>
 5   0  0.6780984E-07  0.2600405E+04  0.7818609E-02  0.8368064E-01
        2   -1    0    0  501    0  0.00000000000E+00  0.00000000000E+00  0.99853871348E+03  0.99853871349E+03  0.25500000920E-02 0.  1.
       -2   -1    0    0    0  501  0.00000000000E+00  0.00000000000E+00 -0.16930008388E+04  0.16930008388E+04  0.25500000920E-02 0. -1.
    10030    2    1    2    0    0  0.00000000000E+00  0.00000000000E+00 -0.69446212533E+03  0.26915395523E+04  0.26004052604E+04 0.  0.
        2    1    3    3  502    0 -0.98252920673E+03  0.90758487825E+02 -0.12236200999E+04  0.15718927744E+04  0.25500000920E-02 0. -1.
       -2    1    3    3    0  502  0.98252920673E+03 -0.90758487825E+02  0.52915797461E+03  0.11196467779E+04  0.25500000920E-02 0.  1.
</event>
<event>
 5   0  0.7160320E-07  0.2601305E+04  0.7818609E-02  0.8367758E-01
        2   -1    0    0  501    0  0.00000000000E+00  0.00000000000E+00  0.13729006773E+04  0.13729006773E+04  0.25500000920E-02 0.  1.
       -2   -1    0    0    0  501  0.00000000000E+00  0.00000000000E+00 -0.12322063144E+04  0.12322063144E+04  0.25500000920E-02 0. -1.
    10030    2    1    2    0    0  0.00000000000E+00  0.00000000000E+00  0.14069436287E+03  0.26051069916E+04  0.26013049675E+04 0.  0.
        1    1    3    3  502    0  0.11585829535E+04  0.30173856859E+03  0.57935795887E+03  0.13300437092E+04  0.50400001928E-02 0.  1.
       -1    1    3    3    0  502 -0.11585829535E+04 -0.30173856859E+03 -0.43866359600E+03  0.12750632825E+04  0.50400001928E-02 0. -1.
</event>
<event>
 5   0  0.2641626E-07  0.2600167E+04  0.7818609E-02  0.8368144E-01
       -1   -1    0    0    0  501  0.00000000000E+00  0.00000000000E+00  0.10544599720E+04  0.10544599720E+04  0.50400001928E-02 0.  1.
        1   -1    0    0  501    0  0.00000000000E+00  0.00000000000E+00 -0.16029219925E+04  0.16029219925E+04  0.50400001928E-02 0. -1.
    10030    2    1    2    0    0  0.00000000000E+00  0.00000000000E+00 -0.54846202049E+03  0.26573819644E+04  0.26001669787E+04 0.  0.
        3    1    3    3  502    0  0.83109497255E+03  0.99206843243E+03 -0.14782249421E+03  0.13026012928E+04  0.10100000352E+00 0. -1.
       -3    1    3    3    0  502 -0.83109497255E+03 -0.99206843243E+03 -0.40063952628E+03  0.13547806716E+04  0.10100000352E+00 0.  1.
</event>
<event>
 5   0  0.2755061E-07  0.2602460E+04  0.7818609E-02  0.8367366E-01
        1   -1    0    0  501    0  0.00000000000E+00  0.00000000000E+00  0.10849343681E+04  0.10849343682E+04  0.50400001928E-02 0. -1.
       -1   -1    0    0    0  501  0.00000000000E+00  0.00000000000E+00 -0.15606471488E+04  0.15606471488E+04  0.50400001928E-02 0.  1.
    10030    2    1    2    0    0  0.00000000000E+00  0.00000000000E+00 -0.47571278068E+03  0.26455815170E+04  0.26024601656E+04 0.  0.
        4    1    3    3  502    0 -0.11118900185E+04  0.56311061689E+03 -0.61795704637E+03  0.13911382046E+04  0.12699999809E+01 0.  1.
       -4    1    3    3    0  502  0.11118900185E+04 -0.56311061689E+03  0.14224426569E+03  0.12544433124E+04  0.12699999809E+01 0. -1.
</event>
<event>
 5   0  0.6780984E-07  0.2601136E+04  0.7818609E-02  0.8367815E-01
       -2   -1    0    0    0  501  0.00000000000E+00  0.00000000000E+00  0.13269246821E+04  0.13269246821E+04  0.25500000920E-02 0. -1.
        2   -1    0    0  501    0  0.00000000000E+00  0.00000000000E+00 -0.12747350058E+04  0.12747350058E+04  0.25500000920E-02 0.  1.
    10030    2    1    2    0    0  0.00000000000E+00  0.00000000000E+00  0.52189676307E+02  0.26016596879E+04  0.26011361689E+04 0.  0.
        2    1    3    3  502    0  0.28374118453E+03 -0.62118579013E+03  0.11331583800E+04  0.13230377016E+04  0.25500000920E-02 0. -1.
       -2    1    3    3    0  502 -0.28374118453E+03  0.62118579013E+03 -0.10809687037E+04  0.12786219863E+04  0.25500000920E-02 0.  1.
</event>
<event>
 5   0  0.6768478E-07  0.2596874E+04  0.7818609E-02  0.8369264E-01
       -2   -1    0    0    0  501  0.00000000000E+00  0.00000000000E+00  0.18202993594E+04  0.18202993594E+04  0.25500000920E-02 0.  1.
        2   -1    0    0  501    0  0.00000000000E+00  0.00000000000E+00 -0.92618756638E+03  0.92618756638E+03  0.25500000920E-02 0. -1.
    10030    2    1    2    0    0  0.00000000000E+00  0.00000000000E+00  0.89411179301E+03  0.27464869258E+04  0.25968739929E+04 0.  0.
        4    1    3    3  502    0 -0.30115844086E+03 -0.46531962176E+03  0.16888924046E+04  0.17775201614E+04  0.12699999809E+01 0.  1.
       -4    1    3    3    0  502  0.30115844086E+03  0.46531962176E+03 -0.79478061163E+03  0.96896676435E+03  0.12699999809E+01 0. -1.
</event>
<event>
 5   0  0.6526351E-07  0.2600406E+04  0.7818609E-02  0.8368063E-01
        2   -1    0    0  501    0  0.00000000000E+00  0.00000000000E+00  0.17575156626E+04  0.17575156626E+04  0.25500000920E-02 0.  1.
       -2   -1    0    0    0  501  0.00000000000E+00  0.00000000000E+00 -0.96188472059E+03  0.96188472060E+03  0.25500000920E-02 0. -1.
    10030    2    1    2    0    0  0.00000000000E+00  0.00000000000E+00  0.79563094202E+03  0.27194003832E+04  0.26004057084E+04 0.  0.
        3    1    3    3  502    0  0.78116858882E+03  0.53005097450E+03  0.13327910679E+04  0.16332514934E+04  0.10100000352E+00 0.  1.
       -3    1    3    3    0  502 -0.78116858882E+03 -0.53005097450E+03 -0.53716012592E+03  0.10861488898E+04  0.10100000352E+00 0. -1.
</event>
<event>
 5   0  0.6599814E-07  0.2599345E+04  0.7818609E-02  0.8368424E-01
        2   -1    0    0  501    0  0.00000000000E+00  0.00000000000E+00  0.91949979429E+03  0.91949979429E+03  0.25500000920E-02 0. -1.
       -2   -1    0    0    0  501  0.00000000000E+00  0.00000000000E+00 -0.18370304399E+04  0.18370304399E+04  0.25500000920E-02 0.  1.
    10030    2    1    2    0    0  0.00000000000E+00  0.00000000000E+00 -0.91753064565E+03  0.27565302342E+04  0.25993453881E+04 0.  0.
        5    1    3    3  502    0  0.11320103020E+04 -0.43553160082E+03  0.36364368884E+02  0.12134576864E+04  0.46999998093E+01 0. -1.
       -5    1    3    3    0  502 -0.11320103020E+04  0.43553160082E+03 -0.95389501454E+03  0.15430725479E+04  0.46999998093E+01 0.  1.
</event>
<event>
 5   0  0.2755061E-07  0.2600006E+04  0.7818609E-02  0.8368199E-01
       -1   -1    0    0    0  501  0.00000000000E+00  0.00000000000E+00  0.86779088524E+03  0.86779088525E+03  0.50400001928E-02 0.  1.
        1   -1    0    0  501    0  0.00000000000E+00  0.00000000000E+00 -0.19474822796E+04  0.19474822796E+04  0.50400001928E-02 0. -1.
    10030    2    1    2    0    0  0.00000000000E+00  0.00000000000E+00 -0.10796913944E+04  0.28152731649E+04  0.26000056703E+04 0.  0.
        4    1    3    3  502    0 -0.22135532865E+02 -0.61495762746E+03 -0.17797962855E+04  0.18831726677E+04  0.12699999809E+01 0. -1.
       -4    1    3    3    0  502  0.22135532865E+02  0.61495762746E+03  0.70010489114E+03  0.93210049720E+03  0.12699999809E+01 0.  1.
</event>
<event>
 5   0  0.2864801E-07  0.2605640E+04  0.7818609E-02  0.8366288E-01
        1   -1    0    0  501    0  0.00000000000E+00  0.00000000000E+00  0.22404314412E+04  0.22404314412E+04  0.50400001928E-02 0.  1.
       -1   -1    0    0    0  501  0.00000000000E+00  0.00000000000E+00 -0.75759493041E+03  0.75759493042E+03  0.50400001928E-02 0. -1.
    10030    2    1    2    0    0  0.00000000000E+00  0.00000000000E+00  0.14828365108E+04  0.29980263716E+04  0.26056396541E+04 0.  0.
        5    1    3    3  502    0  0.51338784105E+03 -0.11453208297E+04  0.11432869342E+04  0.16977791323E+04  0.46999998093E+01 0.  1.
       -5    1    3    3    0  502 -0.51338784105E+03  0.11453208297E+04  0.33954957663E+03  0.13002472393E+04  0.46999998093E+01 0. -1.
</event>
<event>
 5   0  0.2623263E-07  0.2599154E+04  0.7818609E-02  0.8368489E-01
       -1   -1    0    0    0  501  0.00000000000E+00  0.00000000000E+00  0.11194554686E+04  0.11194554686E+04  0.50400001928E-02 0. -1.
        1   -1    0    0  501    0  0.00000000000E+00  0.00000000000E+00 -0.15086802732E+04  0.15086802732E+04  0.50400001928E-02 0.  1.
    10030    2    1    2    0    0  0.00000000000E+00  0.00000000000E+00 -0.38922480461E+03  0.26281357419E+04  0.25991540026E+04 0.  0.
        1    1    3    3  502    0 -0.55784710579E+02 -0.21097145381E+03  0.11007970201E+04  0.11222187700E+04  0.50400001928E-02 0. -1.
       -1    1    3    3    0  502  0.55784710579E+02  0.21097145381E+03 -0.14900218247E+04  0.15059169719E+04  0.50400001928E-02 0.  1.
</event>
<event>
 5   0  0.6768478E-07  0.2601486E+04  0.7818609E-02  0.8367697E-01
       -2   -1    0    0    0  501  0.00000000000E+00  0.00000000000E+00  0.10286668565E+04  0.10286668565E+04  0.25500000920E-02 0.  1.
        2   -1    0    0  501    0  0.00000000000E+00  0.00000000000E+00 -0.16447813593E+04  0.16447813593E+04  0.25500000920E-02 0. -1.
    10030    2    1    2    0    0  0.00000000000E+00  0.00000000000E+00 -0.61611450279E+03  0.26734482158E+04  0.26014857836E+04 0.  0.
        4    1    3    3  502    0 -0.39416692837E+03  0.87279829628E+03  0.59651072448E+03  0.11282602052E+04  0.12699999809E+01 0.  1.
       -4    1    3    3    0  502  0.39416692837E+03 -0.87279829628E+03 -0.12126252273E+04  0.15451880106E+04  0.12699999809E+01 0. -1.
</event>
<event>
 5   0  0.6768478E-07  0.2599476E+04  0.7818609E-02  0.8368379E-01
       -2   -1    0    0    0  501  0.00000000000E+00  0.00000000000E+00  0.16289494953E+04  0.16289494953E+04  0.25500000920E-02 0.  1.
        2   -1    0    0  501    0  0.00000000000E+00  0.00000000000E+00 -0.10370605497E+04  0.10370605497E+04  0.25500000920E-02 0. -1.
    10030    2    1    2    0    0  0.00000000000E+00  0.00000000000E+00  0.59188894557E+03  0.26660100450E+04  0.25994763004E+04 0.  0.
        4    1    3    3  502    0  0.12510616382E+04  0.38548753100E+02 -0.63272179609E+02  0.12532542481E+04  0.12699999809E+01 0.  1.
       -4    1    3    3    0  502 -0.12510616382E+04 -0.38548753100E+02  0.65516112518E+03  0.14127557969E+04  0.12699999809E+01 0. -1.
</event>
<event>
 5   0  0.2294625E-07  0.2600132E+04  0.7818609E-02  0.8368156E-01
        3   -1    0    0  501    0  0.00000000000E+00  0.00000000000E+00  0.23720856055E+04  0.23720856076E+04  0.10100000352E+00 0. -1.
       -3   -1    0    0    0  501  0.00000000000E+00  0.00000000000E+00 -0.71252560804E+03  0.71252561520E+03  0.10100000352E+00 0.  1.
    10030    2    1    2    0    0  0.00000000000E+00  0.00000000000E+00  0.16595599975E+04  0.30846112228E+04  0.26001321141E+04 0.  0.
        4    1    3    3  502    0  0.25043051086E+03  0.10211803471E+03  0.23383435205E+04  0.23539319376E+04  0.12699999809E+01 0. -1.
       -4    1    3    3    0  502 -0.25043051086E+03 -0.10211803471E+03 -0.67878352310E+03  0.73067928526E+03  0.12699999809E+01 0.  1.
</event>
<event>
 5   0  0.6780984E-07  0.2599898E+04  0.7818609E-02  0.8368236E-01
       -2   -1    0    0    0  501  0.00000000000E+00  0.00000000000E+00  0.11948575404E+04  0.11948575404E+04  0.25500000920E-02 0. -1.
        2   -1    0    0  501    0  0.00000000000E+00  0.00000000000E+00 -0.14142835050E+04  0.14142835050E+04  0.25500000920E-02 0.  1.
    10030    2    1    2    0    0  0.00000000000E+00  0.00000000000E+00 -0.21942596459E+03  0.26091410454E+04  0.25998979289E+04 0.  0.
        2    1    3    3  502    0 -0.56555340735E+02 -0.61746266819E+03 -0.12563197560E+04  0.14009989231E+04  0.25500000920E-02 0.  1.
       -2    1    3    3    0  502  0.56555340735E+02  0.61746266819E+03  0.10368937914E+04  0.12081421223E+04  0.25500000920E-02 0. -1.
</event>
<event>
 5   0  0.2793576E-07  0.2599940E+04  0.7818609E-02  0.8368222E-01
        1   -1    0    0  501    0  0.00000000000E+00  0.00000000000E+00  0.12764832790E+04  0.12764832790E+04  0.50400001928E-02 0. -1.
       -1   -1    0    0    0  501  0.00000000000E+00  0.00000000000E+00 -0.13238884594E+04  0.13238884594E+04  0.50400001928E-02 0.  1.
    10030    2    1    2    0    0  0.00000000000E+00  0.00000000000E+00 -0.47405180393E+02  0.26003717384E+04  0.25999396006E+04 0.  0.
        2    1    3    3  502    0  0.27124020531E+03 -0.29997112168E+03 -0.12593704251E+04  0.13227122856E+04  0.25500000920E-02 0.  1.
       -2    1    3    3    0  502 -0.27124020531E+03  0.29997112168E+03  0.12119652447E+04  0.12776594528E+04  0.25500000920E-02 0. -1.
</event>
<event>
 5   0  0.2641626E-07  0.2600573E+04  0.7818609E-02  0.8368007E-01
        1   -1    0    0  501    0  0.00000000000E+00  0.00000000000E+00  0.18986946204E+04  0.18986946204E+04  0.50400001928E-02 0. -1.
       -1   -1    0    0    0  501  0.00000000000E+00  0.00000000000E+00 -0.89047767191E+03  0.89047767192E+03  0.50400001928E-02 0.  1.
    10030    2    1    2    0    0  0.00000000000E+00  0.00000000000E+00  0.10082169485E+04  0.27891722923E+04  0.26005731409E+04 0.  0.
        3    1    3    3  502    0 -0.74050414761E+03  0.97679176556E+03  0.38731969422E+02  0.12263640249E+04  0.10100000352E+00 0.  1.
       -3    1    3    3    0  502  0.74050414761E+03 -0.97679176556E+03  0.96948497905E+03  0.15628082674E+04  0.10100000352E+00 0. -1.
</event>
<event>
 5   0  0.6599814E-07  0.2599978E+04  0.7818609E-02  0.8368209E-01
       -2   -1    0    0    0  501  0.00000000000E+00  0.00000000000E+00  0.15314836762E+04  0.15314836762E+04  0.25500000920E-02 0. -1.
        2   -1    0    0  501    0  0.00000000000E+00  0.00000000000E+00 -0.11034863440E+04  0.11034863440E+04  0.25500000920E-02 0.  1.
    10030    2    1    2    0    0  0.00000000000E+00  0.00000000000E+00  0.42799733225E+03  0.26349700202E+04  0.25999779405E+04 0.  0.
        5    1    3    3  502    0 -0.10371813966E+04 -0.76785674260E+03  0.37295345718E+03  0.13433039857E+04  0.46999998093E+01 0.  1.
       -5    1    3    3    0  502  0.10371813966E+04  0.76785674260E+03  0.55043875070E+02  0.12916660346E+04  0.46999998093E+01 0. -1.
</event>
<event>
 5   0  0.7160320E-07  0.2599684E+04  0.7818609E-02  0.8368308E-01
        2   -1    0    0  501    0  0.00000000000E+00  0.00000000000E+00  0.89244033047E+03  0.89244033047E+03  0.25500000920E-02 0. -1.
       -2   -1    0    0    0  501  0.00000000000E+00  0.00000000000E+00 -0.18932241686E+04  0.18932241686E+04  0.25500000920E-02 0.  1.
    10030    2    1    2    0    0  0.00000000000E+00  0.00000000000E+00 -0.10007838381E+04  0.27856644990E+04  0.25996842906E+04 0.  0.
        1    1    3    3  502    0 -0.72239346243E+03 -0.10783729716E+04 -0.42577534780E+03  0.13660253391E+04  0.50400001928E-02 0.  1.
       -1    1    3    3    0  502  0.72239346243E+03  0.10783729716E+04 -0.57500849031E+03  0.14196391599E+04  0.50400001928E-02 0. -1.
</event>
<event>
 5   0  0.2755061E-07  0.2596731E+04  0.7818609E-02  0.8369312E-01
        1   -1    0    0  501    0  0.00000000000E+00  0.00000000000E+00  0.15252994876E+04  0.15252994876E+04  0.50400001928E-02 0.  1.
       -1   -1    0    0    0  501  0.00000000000E+00  0.00000000000E+00 -0.11051949145E+04  0.11051949145E+04  0.50400001928E-02 0. -1.
    10030    2    1    2    0    0  0.00000000000E+00  0.00000000000E+00  0.42010457306E+03  0.26304944021E+04  0.25967312042E+04 0.  0.
        4    1    3    3  502    0  0.39096055012E+03 -0.76390094104E+03 -0.77696582847E+03  0.11576149234E+04  0.12699999809E+01 0. -1.
       -4    1    3    3    0  502 -0.39096055012E+03  0.76390094104E+03  0.11970704015E+04  0.14728794786E+04  0.12699999809E+01 0.  1.
</event>
<event>
 5   0  0.2755061E-07  0.2599768E+04  0.7818609E-02  0.8368280E-01
        1   -1    0    0  501    0  0.00000000000E+00  0.00000000000E+00  0.22878586556E+04  0.22878586556E+04  0.50400001928E-02 0.  1.
       -1   -1    0    0    0  501  0.00000000000E+00  0.00000000000E+00 -0.73855026463E+03  0.73855026465E+03  0.50400001928E-02 0. -1.
    10030    2    1    2    0    0  0.00000000000E+00  0.00000000000E+00  0.15493083910E+04  0.30264089203E+04  0.25997681555E+04 0.  0.
        4    1    3    3  502    0 -0.10300270894E+04  0.76908055269E+03  0.54995948105E+03  0.13981765787E+04  0.12699999809E+01 0. -1.
       -4    1    3    3    0  502  0.10300270894E+04 -0.76908055269E+03  0.99934890992E+03  0.16282323416E+04  0.12699999809E+01 0.  1.
</event>
<event>
 5   0  0.2864801E-07  0.2599860E+04  0.7818609E-02  0.8368249E-01
       -1   -1    0    0    0  501  0.00000000000E+00  0.00000000000E+00  0.78793425627E+03  0.78793425628E+03  0.50400001928E-02 0. -1.
        1   -1    0    0  501    0  0.00000000000E+00  0.00000000000E+00 -0.21446182030E+04  0.21446182030E+04  0.50400001928E-02 0.  1.
    10030    2    1    2    0    0  0.00000000000E+00  0.00000000000E+00 -0.13566839467E+04  0.29325524593E+04  0.25998601107E+04 0.  0.
        5    1    3    3  502    0 -0.10989688242E+04  0.24711210564E+03  0.53532228632E+02  0.11276899657E+04  0.46999998093E+01 0. -1.
       -5    1    3    3    0  502  0.10989688242E+04 -0.24711210564E+03 -0.14102161754E+04  0.18048624935E+04  0.46999998093E+01 0.  1.
</event>
<event>
 5   0  0.6768478E-07  0.2600703E+04  0.7818609E-02  0.8367963E-01
       -2   -1    0    0    0  501  0.00000000000E+00  0.00000000000E+00  0.14076952010E+04  0.14076952010E+04  0.25500000920E-02 0. -1.
        2   -1    0    0  501    0  0.00000000000E+00  0.00000000000E+00 -0.12011931027E+04  0.12011931027E+04  0.25500000920E-02 0.  1.
    10030    2    1    2    0    0  0.00000000000E+00  0.00000000000E+00  0.20650209833E+03  0.26088883037E+04  0.26007028021E+04 0.  0.
        4    1    3    3  502    0  0.10980825206E+04 -0.59964002506E+03 -0.25220694780E+03  0.12763084812E+04  0.12699999809E+01 0. -1.
       -4    1    3    3    0  502 -0.10980825206E+04  0.59964002506E+03  0.45870904613E+03  0.13325798226E+04  0.12699999809E+01 0.  1.
</event>
<event>
 5   0  0.2864801E-07  0.2599628E+04  0.7818609E-02  0.8368328E-01
        1   -1    0    0  501    0  0.00000000000E+00  0.00000000000E+00  0.26484708683E+04  0.26484708683E+04  0.50400001928E-02 0. -1.
       -1   -1    0    0    0  501  0.00000000000E+00  0.00000000000E+00 -0.63792140739E+03  0.63792140741E+03  0.50400001928E-02 0.  1.
    10030    2    1    2    0    0  0.00000000000E+00  0.00000000000E+00  0.20105494609E+04  0.32863922757E+04  0.25996278686E+04 0.  0.
        5    1    3    3  502    0  0.93819598960E+03 -0.78571398414E+03  0.15591174233E+04  0.19820260870E+04  0.46999998093E+01 0. -1.
       -5    1    3    3    0  502 -0.93819598960E+03  0.78571398414E+03  0.45143203760E+03  0.13043661887E+04  0.46999998093E+01 0.  1.
</event>
<event>
 5   0  0.6526351E-07  0.2599995E+04  0.7818609E-02  0.8368203E-01
       -2   -1    0    0    0  501  0.00000000000E+00  0.00000000000E+00  0.78503478912E+03  0.78503478912E+03  0.25500000920E-02 0. -1.
        2   -1    0    0  501    0  0.00000000000E+00  0.00000000000E+00 -0.21527620398E+04  0.21527620398E+04  0.25500000920E-02 0.  1.
    10030    2    1    2    0    0  0.00000000000E+00  0.00000000000E+00 -0.13677272506E+04  0.29377968289E+04  0.25999946876E+04 0.  0.
        3    1    3    3  502    0  0.80717419842E+03  0.48359968706E+03 -0.16973963056E+04  0.19407609519E+04  0.10100000352E+00 0.  1.
       -3    1    3    3    0  502 -0.80717419842E+03 -0.48359968706E+03  0.32966905499E+03  0.99703587696E+03  0.10100000352E+00 0. -1.
</event>
<event>
 5   0  0.6526351E-07  0.2597014E+04  0.7818609E-02  0.8369216E-01
       -2   -1    0    0    0  501  0.00000000000E+00  0.00000000000E+00  0.85769315601E+03  0.85769315601E+03  0.25500000920E-02 0. -1.
        2   -1    0    0  501    0  0.00000000000E+00  0.00000000000E+00 -0.19658788924E+04  0.19658788924E+04  0.25500000920E-02 0.  1.
    10030    2    1    2    0    0  0.00000000000E+00  0.00000000000E+00 -0.11081857364E+04  0.28235720484E+04  0.25970143408E+04 0.  0.
        3    1    3    3  502    0  0.11266345946E+04 -0.48578380666E+03 -0.10164303472E+04  0.15932426298E+04  0.10100000352E+00 0.  1.
       -3    1    3    3    0  502 -0.11266345946E+04  0.48578380666E+03 -0.91755389232E+02  0.12303294186E+04  0.10100000352E+00 0. -1.
</event>
<event>
 5   0  0.2294625E-07  0.2601385E+04  0.7818609E-02  0.8367731E-01
       -3   -1    0    0    0  501  0.00000000000E+00  0.00000000000E+00  0.13926258530E+04  0.13926258567E+04  0.10100000352E+00 0. -1.
        3   -1    0    0  501    0  0.00000000000E+00  0.00000000000E+00 -0.12148284240E+04  0.12148284282E+04  0.10100000352E+00 0.  1.
    10030    2    1    2    0    0  0.00000000000E+00  0.00000000000E+00  0.17779742907E+03  0.26074542848E+04  0.26013853851E+04 0.  0.
        3    1    3    3  502    0  0.80949098642E+03  0.94014608755E+03  0.48051617169E+03  0.13304308041E+04  0.10100000352E+00 0.  1.
       -3    1    3    3    0  502 -0.80949098642E+03 -0.94014608755E+03 -0.30271874261E+03  0.12770234807E+04  0.10100000352E+00 0. -1.
</event>
<event>
 5   0  0.2864801E-07  0.2599749E+04  0.7818609E-02  0.8368286E-01
       -1   -1    0    0    0  501  0.00000000000E+00  0.00000000000E+00  0.85855414686E+03  0.85855414688E+03  0.50400001928E-02 0.  1.
        1   -1    0    0  501    0  0.00000000000E+00  0.00000000000E+00 -0.19680458787E+04  0.19680458787E+04  0.50400001928E-02 0. -1.
    10030    2    1    2    0    0  0.00000000000E+00  0.00000000000E+00 -0.11094917318E+04  0.28266000256E+04  0.25997491805E+04 0.  0.
        5    1    3    3  502    0 -0.10617863233E+04 -0.34630821478E+03  0.16836889645E+03  0.11294643647E+04  0.46999998093E+01 0.  1.
       -5    1    3    3    0  502  0.10617863233E+04  0.34630821478E+03 -0.12778606283E+04  0.16971356608E+04  0.46999998093E+01 0. -1.
</event>
<event>
 5   0  0.6526351E-07  0.2600087E+04  0.7818609E-02  0.8368172E-01
        2   -1    0    0  501    0  0.00000000000E+00  0.00000000000E+00  0.20321652942E+04  0.20321652942E+04  0.25500000920E-02 0. -1.
       -2   -1    0    0    0  501  0.00000000000E+00  0.00000000000E+00 -0.83168115511E+03  0.83168115511E+03  0.25500000920E-02 0.  1.
    10030    2    1    2    0    0  0.00000000000E+00  0.00000000000E+00  0.12004841391E+04  0.28638464494E+04  0.26000873672E+04 0.  0.
        3    1    3    3  502    0  0.96031880366E+03  0.31740751487E+03  0.14998945477E+04  0.18090448860E+04  0.10100000352E+00 0. -1.
       -3    1    3    3    0  502 -0.96031880366E+03 -0.31740751487E+03 -0.29941040854E+03  0.10548015634E+04  0.10100000352E+00 0.  1.
</event>
<event>
 5   0  0.6780984E-07  0.2603340E+04  0.7818609E-02  0.8367067E-01
       -2   -1    0    0    0  501  0.00000000000E+00  0.00000000000E+00  0.11269830077E+04  0.11269830077E+04  0.25500000920E-02 0.  1.
        2   -1    0    0  501    0  0.00000000000E+00  0.00000000000E+00 -0.15034344514E+04  0.15034344514E+04  0.25500000920E-02 0. -1.
    10030    2    1    2    0    0  0.00000000000E+00  0.00000000000E+00 -0.37645144364E+03  0.26304174591E+04  0.26033402236E+04 0.  0.
        2    1    3    3  502    0  0.29082474943E+03  0.41513025385E+03 -0.13996256480E+04  0.14885778841E+04  0.25500000920E-02 0. -1.
       -2    1    3    3    0  502 -0.29082474943E+03 -0.41513025385E+03  0.10231742043E+04  0.11418395750E+04  0.25500000920E-02 0.  1.
</event>
<event>
 5   0  0.7160320E-07  0.2600207E+04  0.7818609E-02  0.8368131E-01
       -2   -1    0    0    0  501  0.00000000000E+00  0.00000000000E+00  0.12592370874E+04  0.12592370874E+04  0.25500000920E-02 0.  1.
        2   -1    0    0  501    0  0.00000000000E+00  0.00000000000E+00 -0.13422958959E+04  0.13422958959E+04  0.25500000920E-02 0. -1.
    10030    2    1    2    0    0  0.00000000000E+00  0.00000000000E+00 -0.83058808449E+02  0.26015329833E+04  0.26002067413E+04 0.  0.
        1    1    3    3  502    0  0.30152446500E+01 -0.65267538013E+03  0.10834437299E+04  0.12648496193E+04  0.50400001928E-02 0.  1.
       -1    1    3    3    0  502 -0.30152446500E+01  0.65267538013E+03 -0.11665025384E+04  0.13366833640E+04  0.50400001928E-02 0. -1.
</event>
<event>
 5   0  0.2623263E-07  0.2601028E+04  0.7818609E-02  0.8367852E-01
       -1   -1    0    0    0  501  0.00000000000E+00  0.00000000000E+00  0.97592191285E+03  0.97592191286E+03  0.50400001928E-02 0. -1.
        1   -1    0    0  501    0  0.00000000000E+00  0.00000000000E+00 -0.17330653473E+04  0.17330653473E+04  0.50400001928E-02 0.  1.
    10030    2    1    2    0    0  0.00000000000E+00  0.00000000000E+00 -0.75714343448E+03  0.27089872602E+04  0.26010278344E+04 0.  0.
        1    1    3    3  502    0  0.41336633488E+03  0.56906841197E+03  0.76073630590E+03  0.10360648201E+04  0.50400001928E-02 0. -1.
       -1    1    3    3    0  502 -0.41336633488E+03 -0.56906841197E+03 -0.15178797404E+04  0.16729224401E+04  0.50400001928E-02 0.  1.
</event>
<event>
 5   0  0.6768478E-07  0.2598032E+04  0.7818609E-02  0.8368870E-01
       -2   -1    0    0    0  501  0.00000000000E+00  0.00000000000E+00  0.12631082598E+04  0.12631082598E+04  0.25500000920E-02 0. -1.
        2   -1    0    0  501    0  0.00000000000E+00  0.00000000000E+00 -0.13359447759E+04  0.13359447759E+04  0.25500000920E-02 0.  1.
    10030    2    1    2    0    0  0.00000000000E+00  0.00000000000E+00 -0.72836516103E+02  0.25990530356E+04  0.25980322408E+04 0.  0.
        4    1    3    3  502    0  0.55704265833E+03  0.95667358510E+03 -0.71633255765E+03  0.13185806072E+04  0.12699999809E+01 0.  1.
       -4    1    3    3    0  502 -0.55704265833E+03 -0.95667358510E+03  0.64349604155E+03  0.12804724284E+04  0.12699999809E+01 0. -1.
</event>
<event>
 5   0  0.6768478E-07  0.2599471E+04  0.7818609E-02  0.8368381E-01
        2   -1    0    0  501    0  0.00000000000E+00  0.00000000000E+00  0.72038045892E+03  0.72038045893E+03  0.25500000920E-02 0.  1.
       -2   -1    0    0    0  501  0.00000000000E+00  0.00000000000E+00 -0.23450279824E+04  0.23450279824E+04  0.25500000920E-02 0. -1.
    10030    2    1    2    0    0  0.00000000000E+00  0.00000000000E+00 -0.16246475235E+04  0.30654084413E+04  0.25994709725E+04 0.  0.
        4    1    3    3  502    0  0.47170780150E+03 -0.72820778378E+03 -0.19535216340E+04  0.21375320380E+04  0.12699999809E+01 0. -1.
       -4    1    3    3    0  502 -0.47170780150E+03  0.72820778378E+03  0.32887411048E+03  0.92787640330E+03  0.12699999809E+01 0.  1.
</event>
<event>
 5   0  0.6599814E-07  0.2598562E+04  0.7818609E-02  0.8368690E-01
        2   -1    0    0  501    0  0.00000000000E+00  0.00000000000E+00  0.11948101045E+04  0.11948101045E+04  0.25500000920E-02 0.  1.
       -2   -1    0    0    0  501  0.00000000000E+00  0.00000000000E+00 -0.14128860997E+04  0.14128860997E+04  0.25500000920E-02 0. -1.
    10030    2    1    2    0    0  0.00000000000E+00  0.00000000000E+00 -0.21807599522E+03  0.26076962041E+04  0.25985615932E+04 0.  0.
        5    1    3    3  502    0 -0.30425215637E+03 -0.93730253982E+03 -0.95877491704E+03  0.13749097634E+04  0.46999998093E+01 0. -1.
       -5    1    3    3    0  502  0.30425215637E+03  0.93730253982E+03  0.74069892182E+03  0.12327864408E+04  0.46999998093E+01 0.  1.
</event>
<event>
 5   0  0.2755061E-07  0.2598989E+04  0.7818609E-02  0.8368545E-01
       -1   -1    0    0    0  501  0.00000000000E+00  0.00000000000E+00  0.91442235887E+03  0.91442235888E+03  0.50400001928E-02 0.  1.
        1   -1    0    0  501    0  0.00000000000E+00  0.00000000000E+00 -0.18467243501E+04  0.18467243501E+04  0.50400001928E-02 0. -1.
    10030    2    1    2    0    0  0.00000000000E+00  0.00000000000E+00 -0.93230199122E+03  0.27611467090E+04  0.25989890622E+04 0.  0.
        4    1    3    3  502    0  0.56373356965E+03  0.10519836058E+04 -0.10122449453E+04  0.15649621358E+04  0.12699999809E+01 0. -1.
       -4    1    3    3    0  502 -0.56373356965E+03 -0.10519836058E+04  0.79942954031E+02  0.11961845732E+04  0.12699999809E+01 0.  1.
</event>
<event>
 5   0  0.2793576E-07  0.2601793E+04  0.7818609E-02  0.8367592E-01
       -1   -1    0    0    0  501  0.00000000000E+00  0.00000000000E+00  0.99732361421E+03  0.99732361422E+03  0.50400001928E-02 0. -1.
        1   -1    0    0  501    0  0.00000000000E+00  0.00000000000E+00 -0.16968729651E+04  0.16968729651E+04  0.50400001928E-02 0.  1.
    10030    2    1    2    0    0  0.00000000000E+00  0.00000000000E+00 -0.69954935089E+03  0.26941965793E+04  0.26017928268E+04 0.  0.
        2    1    3    3  502    0 -0.46468278545E+03  0.11342789693E+04 -0.80092273689E+03  0.14642390863E+04  0.25500000920E-02 0.  1.
       -2    1    3    3    0  502  0.46468278545E+03 -0.11342789693E+04  0.10137338600E+03  0.12299574931E+04  0.25500000920E-02 0. -1.
</event>
<event>
 5   0  0.6526351E-07  0.2600078E+04  0.7818609E-02  0.8368175E-01
       -2   -1    0    0    0  501  0.00000000000E+00  0.00000000000E+00  0.61073869147E+03  0.61073869147E+03  0.25500000920E-02 0. -1.
        2   -1    0    0  501    0  0.00000000000E+00  0.00000000000E+00 -0.27673079665E+04  0.27673079665E+04  0.25500000920E-02 0.  1.
    10030    2    1    2    0    0  0.00000000000E+00  0.00000000000E+00 -0.21565692751E+04  0.33780466580E+04  0.26000784960E+04 0.  0.
        3    1    3    3  502    0  0.12057842276E+04 -0.47988796943E+03 -0.97854147684E+03  0.16253465780E+04  0.10100000352E+00 0.  1.
       -3    1    3    3    0  502 -0.12057842276E+04  0.47988796943E+03 -0.11780277982E+04  0.17527000800E+04  0.10100000352E+00 0. -1.
</event>
<event>
 5   0  0.6768478E-07  0.2600205E+04  0.7818609E-02  0.8368132E-01
        2   -1    0    0  501    0  0.00000000000E+00  0.00000000000E+00  0.11762113960E+04  0.11762113960E+04  0.25500000920E-02 0. -1.
       -2   -1    0    0    0  501  0.00000000000E+00  0.00000000000E+00 -0.14370428781E+04  0.14370428781E+04  0.25500000920E-02 0.  1.
    10030    2    1    2    0    0  0.00000000000E+00  0.00000000000E+00 -0.26083148211E+03  0.26132542741E+04  0.26002047687E+04 0.  0.
        4    1    3    3  502    0  0.22702218411E+03 -0.94729572918E+03 -0.99575741206E+03  0.13929977413E+04  0.12699999809E+01 0.  1.
       -4    1    3    3    0  502 -0.22702218411E+03  0.94729572918E+03  0.73492592995E+03  0.12202565329E+04  0.12699999809E+01 0. -1.
</event>
<event>
 5   0  0.6768478E-07  0.2600710E+04  0.7818609E-02  0.8367960E-01
        2   -1    0    0  501    0  0.00000000000E+00  0.00000000000E+00  0.11517906327E+04  0.11517906327E+04  0.25500000920E-02 0.  1.
       -2   -1    0    0    0  501  0.00000000000E+00  0.00000000000E+00 -0.14680821560E+04  0.14680821560E+04  0.25500000920E-02 0. -1.
    10030    2    1    2    0    0  0.00000000000E+00  0.00000000000E+00 -0.31629152333E+03  0.26198727887E+04  0.26007101148E+04 0.  0.
        4    1    3    3  502    0  0.70029202302E+02  0.52227112312E+03 -0.13557072549E+04  0.14545153795E+04  0.12699999809E+01 0. -1.
       -4    1    3    3    0  502 -0.70029202302E+02 -0.52227112312E+03  0.10394157316E+04  0.11653574092E+04  0.12699999809E+01 0.  1.
</event>
<event>
 5   0  0.2641626E-07  0.2597120E+04  0.7818609E-02  0.8369180E-01
       -1   -1    0    0    0  501  0.00000000000E+00  0.00000000000E+00  0.12395461148E+04  0.12395461148E+04  0.50400001928E-02 0.  1.
        1   -1    0    0  501    0  0.00000000000E+00  0.00000000000E+00 -0.13603832223E+04  0.13603832223E+04  0.50400001928E-02 0. -1.
    10030    2    1    2    0    0  0.00000000000E+00  0.00000000000E+00 -0.12083710746E+03  0.25999293371E+04  0.25971197414E+04 0.  0.
        3    1    3    3  502    0 -0.20723379731E+03 -0.40196891246E+03 -0.12789999099E+04  0.13566007641E+04  0.10100000352E+00 0. -1.
       -3    1    3    3    0  502  0.20723379731E+03  0.40196891246E+03  0.11581628024E+04  0.12433285730E+04  0.10100000352E+00 0.  1.
</event>
<event>
 5   0  0.2623263E-07  0.2599433E+04  0.7818609E-02  0.8368394E-01
       -1   -1    0    0    0  501  0.00000000000E+00  0.00000000000E+00  0.73524981650E+03  0.73524981652E+03  0.50400001928E-02 0.  1.
        1   -1    0    0  501    0  0.00000000000E+00  0.00000000000E+00 -0.22975357732E+04  0.22975357732E+04  0.50400001928E-02 0. -1.
    10030    2    1    2    0    0  0.00000000000E+00  0.00000000000E+00 -0.15622859567E+04  0.30327855897E+04  0.25994328271E+04 0.  0.
        1    1    3    3  502    0 -0.38072450178E+03 -0.24761081871E+03 -0.22019456211E+04  0.22482941939E+04  0.50400001928E-02 0. -1.
       -1    1    3    3    0  502  0.38072450178E+03  0.24761081871E+03  0.63965966445E+03  0.78449139584E+03  0.50400001928E-02 0.  1.
</event>
<event>
 5   0  0.2755061E-07  0.2599724E+04  0.7818609E-02  0.8368295E-01
        1   -1    0    0  501    0  0.00000000000E+00  0.00000000000E+00  0.55507576968E+03  0.55507576970E+03  0.50400001928E-02 0. -1.
       -1   -1    0    0    0  501  0.00000000000E+00  0.00000000000E+00 -0.30439820675E+04  0.30439820675E+04  0.50400001928E-02 0.  1.
    10030    2    1    2    0    0  0.00000000000E+00  0.00000000000E+00 -0.24889062978E+04  0.35990578372E+04  0.25997235923E+04 0.  0.
        4    1    3    3  502    0 -0.16698203660E+03  0.58525345509E+03  0.34564028965E+03  0.69990958700E+03  0.12699999809E+01 0. -1.
       -4    1    3    3    0  502  0.16698203660E+03 -0.58525345509E+03 -0.28345465875E+04  0.28991482502E+04  0.12699999809E+01 0.  1.
</event>
<event>
 5   0  0.7160320E-07  0.2600006E+04  0.7818609E-02  0.8368199E-01
       -2   -1    0    0    0  501  0.00000000000E+00  0.00000000000E+00  0.18573670142E+04  0.18573670142E+04  0.25500000920E-02 0.  1.
        2   -1    0    0  501    0  0.00000000000E+00  0.00000000000E+00 -0.90989455316E+03  0.90989455317E+03  0.25500000920E-02 0. -1.
    10030    2    1    2    0    0  0.00000000000E+00  0.00000000000E+00  0.94747246107E+03  0.27672615674E+04  0.26000062534E+04 0.  0.
        1    1    3    3  502    0  0.90449802397E+03 -0.58631298798E+03 -0.29973761920E+03  0.11188039308E+04  0.50400001928E-02 0.  1.
       -1    1    3    3    0  502 -0.90449802397E+03  0.58631298798E+03  0.12472100803E+04  0.16484576366E+04  0.50400001928E-02 0. -1.
</event>
<event>
 5   0  0.6768478E-07  0.2600498E+04  0.7818609E-02  0.8368032E-01
       -2   -1    0    0    0  501  0.00000000000E+00  0.00000000000E+00  0.14026262623E+04  0.14026262623E+04  0.25500000920E-02 0. -1.
        2   -1    0    0  501    0  0.00000000000E+00  0.00000000000E+00 -0.12053446419E+04  0.12053446419E+04  0.25500000920E-02 0.  1.
    10030    2    1    2    0    0  0.00000000000E+00  0.00000000000E+00  0.19728162037E+03  0.26079709041E+04  0.26004984520E+04 0.  0.
        4    1    3    3  502    0  0.95790135450E+03 -0.70774304393E+03 -0.42455859171E+03  0.12644077000E+04  0.12699999809E+01 0.  1.
       -4    1    3    3    0  502 -0.95790135450E+03  0.70774304393E+03  0.62184021209E+03  0.13435632041E+04  0.12699999809E+01 0. -1.
</event>
<event>
 5   0  0.2864801E-07  0.2600700E+04  0.7818609E-02  0.8367963E-01
        1   -1    0    0  501    0  0.00000000000E+00  0.00000000000E+00  0.21081236272E+04  0.21081236272E+04  0.50400001928E-02 0.  1.
       -1   -1    0    0    0  501  0.00000000000E+00  0.00000000000E+00 -0.80209253039E+03  0.80209253041E+03  0.50400001928E-02 0. -1.
    10030    2    1    2    0    0  0.00000000000E+00  0.00000000000E+00  0.13060310968E+04  0.29102161576E+04  0.26007000708E+04 0.  0.
        5    1    3    3  502    0  0.71682805790E+03  0.10779808751E+04  0.79007925814E+03  0.15166187905E+04  0.46999998093E+01 0. -1.
       -5    1    3    3    0  502 -0.71682805790E+03 -0.10779808751E+04  0.51595183865E+03  0.13935973671E+04  0.46999998093E+01 0.  1.
</event>
<event>
 5   0  0.7160320E-07  0.2601141E+04  0.7818609E-02  0.8367814E-01
       -2   -1    0    0    0  501  0.00000000000E+00  0.00000000000E+00  0.13925429741E+04  0.13925429741E+04  0.25500000920E-02 0. -1.
        2   -1    0    0  501    0  0.00000000000E+00  0.00000000000E+00 -0.12146723566E+04  0.12146723566E+04  0.25500000920E-02 0.  1.
    10030    2    1    2    0    0  0.00000000000E+00  0.00000000000E+00  0.17787061744E+03  0.26072153307E+04  0.26011408697E+04 0.  0.
        1    1    3    3  502    0  0.12522397377E+04 -0.19563373749E+03 -0.20347621640E+03  0.12836586347E+04  0.50400001928E-02 0.  1.
       -1    1    3    3    0  502 -0.12522397377E+04  0.19563373749E+03  0.38134683385E+03  0.13235566960E+04  0.50400001928E-02 0. -1.
</event>
<event>
 5   0  0.2641626E-07  0.2599420E+04  0.7818609E-02  0.8368398E-01
       -1   -1    0    0    0  501  0.00000000000E+00  0.00000000000E+00  0.75464403132E+03  0.75464403134E+03  0.50400001928E-02 0. -1.
        1   -1    0    0  501    0  0.00000000000E+00  0.00000000000E+00 -0.22384682213E+04  0.22384682213E+04  0.50400001928E-02 0.  1.
    10030    2    1    2    0    0  0.00000000000E+00  0.00000000000E+00 -0.14838241900E+04  0.29931122527E+04  0.25994204605E+04 0.  0.
        3    1    3    3  502    0  0.12229273870E+04 -0.82227563536E+02 -0.24407126453E+03  0.12497533991E+04  0.10100000352E+00 0. -1.
       -3    1    3    3    0  502 -0.12229273870E+04  0.82227563536E+02 -0.12397529255E+04  0.17433588536E+04  0.10100000352E+00 0.  1.
</event>
<event>
 5   0  0.2294625E-07  0.2599901E+04  0.7818609E-02  0.8368235E-01
       -3   -1    0    0    0  501  0.00000000000E+00  0.00000000000E+00  0.55201163108E+03  0.55201164032E+03  0.10100000352E+00 0. -1.
        3   -1    0    0  501    0  0.00000000000E+00  0.00000000000E+00 -0.30612960826E+04  0.30612960843E+04  0.10100000352E+00 0.  1.
    10030    2    1    2    0    0  0.00000000000E+00  0.00000000000E+00 -0.25092844515E+04  0.36133077246E+04  0.25999008162E+04 0.  0.
        2    1    3    3  502    0  0.29617509333E+03 -0.12033544276E+04 -0.70909206160E+03  0.14277930929E+04  0.25500000920E-02 0. -1.
       -2    1    3    3    0  502 -0.29617509333E+03  0.12033544276E+04 -0.18001923899E+04  0.21855146316E+04  0.25500000920E-02 0.  1.
</event>
<event>
 5   0  0.2864801E-07  0.2600372E+04  0.7818609E-02  0.8368075E-01
       -1   -1    0    0    0  501  0.00000000000E+00  0.00000000000E+00  0.13748238799E+04  0.13748238799E+04  0.50400001928E-02 0. -1.
        1   -1    0    0  501    0  0.00000000000E+00  0.00000000000E+00 -0.12296004674E+04  0.12296004674E+04  0.50400001928E-02 0.  1.
    10030    2    1    2    0    0  0.00000000000E+00  0.00000000000E+00  0.14522341248E+03  0.26044243473E+04  0.26003723467E+04 0.  0.
        5    1    3    3  502    0  0.34561442413E+02 -0.16382395929E+03 -0.12187496575E+04  0.12302055115E+04  0.46999998093E+01 0.  1.
       -5    1    3    3    0  502 -0.34561442413E+02  0.16382395929E+03  0.13639730700E+04  0.13742188358E+04  0.46999998093E+01 0. -1.
</event>
<event>
 5   0  0.6599814E-07  0.2603888E+04  0.7818609E-02  0.8366882E-01
        2   -1    0    0  501    0  0.00000000000E+00  0.00000000000E+00  0.10303073291E+04  0.10303073291E+04  0.25500000920E-02 0.  1.
       -2   -1    0    0    0  501  0.00000000000E+00  0.00000000000E+00 -0.16451966847E+04  0.16451966847E+04  0.25500000920E-02 0. -1.
    10030    2    1    2    0    0  0.00000000000E+00  0.00000000000E+00 -0.61488935556E+03  0.26755040138E+04  0.26038880176E+04 0.  0.
        5    1    3    3  502    0  0.11396614941E+04 -0.37977946179E+03  0.20833275173E+03  0.12192150697E+04  0.46999998093E+01 0.  1.
       -5    1    3    3    0  502 -0.11396614941E+04  0.37977946179E+03 -0.82322210729E+03  0.14562889441E+04  0.46999998093E+01 0. -1.
</event>
<event>
 5   0  0.6599814E-07  0.2599249E+04  0.7818609E-02  0.8368456E-01
        2   -1    0    0  501    0  0.00000000000E+00  0.00000000000E+00  0.23014219653E+04  0.23014219653E+04  0.25500000920E-02 0. -1.
       -2   -1    0    0    0  501  0.00000000000E+00  0.00000000000E+00 -0.73390439556E+03  0.73390439556E+03  0.25500000920E-02 0.  1.
    10030    2    1    2    0    0  0.00000000000E+00  0.00000000000E+00  0.15675175698E+04  0.30353263609E+04  0.25992488887E+04 0.  0.
        5    1    3    3  502    0 -0.76383222343E+02 -0.12635615722E+04  0.44014963528E+03  0.13402149211E+04  0.46999998093E+01 0. -1.
       -5    1    3    3    0  502  0.76383222343E+02  0.12635615722E+04  0.11273679345E+04  0.16951114397E+04  0.46999998093E+01 0.  1.
</event>
<event>
 5   0  0.6768478E-07  0.2599841E+04  0.7818609E-02  0.8368255E-01
        2   -1    0    0  501    0  0.00000000000E+00  0.00000000000E+00  0.18946306752E+04  0.18946306752E+04  0.25500000920E-02 0. -1.
       -2   -1    0    0    0  501  0.00000000000E+00  0.00000000000E+00 -0.89188535143E+03  0.89188535144E+03  0.25500000920E-02 0.  1.
    10030    2    1    2    0    0  0.00000000000E+00  0.00000000000E+00  0.10027453238E+04  0.27865160267E+04  0.25998410302E+04 0.  0.
        4    1    3    3  502    0  0.48218328740E+03 -0.63610875509E+03 -0.59828656712E+03  0.99753872117E+03  0.12699999809E+01 0.  1.
       -4    1    3    3    0  502 -0.48218328740E+03  0.63610875509E+03  0.16010318909E+04  0.17889773055E+04  0.12699999809E+01 0. -1.
</event>
<event>
 5   0  0.2623263E-07  0.2599881E+04  0.7818609E-02  0.8368242E-01
        1   -1    0    0  501    0  0.00000000000E+00  0.00000000000E+00  0.13112833192E+04  0.13112833192E+04  0.50400001928E-02 0.  1.
       -1   -1    0    0    0  501  0.00000000000E+00  0.00000000000E+00 -0.12886956481E+04  0.12886956481E+04  0.50400001928E-02 0. -1.
    10030    2    1    2    0    0  0.00000000000E+00  0.00000000000E+00  0.22587671026E+02  0.25999789673E+04  0.25998808487E+04 0.  0.
        1    1    3    3  502    0  0.14378227624E+03 -0.78301553435E+03  0.10389796576E+04  0.13089176441E+04  0.50400001928E-02 0.  1.
       -1    1    3    3    0  502 -0.14378227624E+03  0.78301553435E+03 -0.10163919866E+04  0.12910613233E+04  0.50400001928E-02 0. -1.
</event>
<event>
 5   0  0.6599814E-07  0.2600067E+04  0.7818609E-02  0.8368179E-01
        2   -1    0    0  501    0  0.00000000000E+00  0.00000000000E+00  0.10330703290E+04  0.10330703290E+04  0.25500000920E-02 0.  1.
       -2   -1    0    0    0  501  0.00000000000E+00  0.00000000000E+00 -0.16359839660E+04  0.16359839660E+04  0.25500000920E-02 0. -1.
    10030    2    1    2    0    0  0.00000000000E+00  0.00000000000E+00 -0.60291363696E+03  0.26690542950E+04  0.26000665330E+04 0.  0.
        5    1    3    3  502    0 -0.87146428168E+03 -0.23829778611E+03 -0.12610476027E+04  0.15512894557E+04  0.46999998093E+01 0. -1.
       -5    1    3    3    0  502  0.87146428168E+03  0.23829778611E+03  0.65813396573E+03  0.11177648393E+04  0.46999998093E+01 0.  1.
</event>
<event>
 5   0  0.2864801E-07  0.2605665E+04  0.7818609E-02  0.8366280E-01
        1   -1    0    0  501    0  0.00000000000E+00  0.00000000000E+00  0.18705007231E+04  0.18705007231E+04  0.50400001928E-02 0. -1.
       -1   -1    0    0    0  501  0.00000000000E+00  0.00000000000E+00 -0.90744257690E+03  0.90744257692E+03  0.50400001928E-02 0.  1.
    10030    2    1    2    0    0  0.00000000000E+00  0.00000000000E+00  0.96305814616E+03  0.27779433000E+04  0.26056645957E+04 0.  0.
        5    1    3    3  502    0 -0.12926984897E+04  0.16144036594E+03  0.49725309420E+03  0.13944228580E+04  0.46999998093E+01 0. -1.
       -5    1    3    3    0  502  0.12926984897E+04 -0.16144036594E+03  0.46580505196E+03  0.13835204420E+04  0.46999998093E+01 0.  1.
</event>
<event>
 5   0  0.6526351E-07  0.2595822E+04  0.7818609E-02  0.8369622E-01
        2   -1    0    0  501    0  0.00000000000E+00  0.00000000000E+00  0.16428722098E+04  0.16428722098E+04  0.25500000920E-02 0.  1.
       -2   -1    0    0    0  501  0.00000000000E+00  0.00000000000E+00 -0.10253832157E+04  0.10253832157E+04  0.25500000920E-02 0. -1.
    10030    2    1    2    0    0  0.00000000000E+00  0.00000000000E+00  0.61748899407E+03  0.26682554255E+04  0.25958224820E+04 0.  0.
        3    1    3    3  502    0  0.47406858521E+03 -0.72666282001E+03  0.13009743674E+04  0.15637500415E+04  0.10100000352E+00 0.  1.
       -3    1    3    3    0  502 -0.47406858521E+03  0.72666282001E+03 -0.68348537338E+03  0.11045053840E+04  0.10100000352E+00 0. -1.
</event>
<event>
 5   0  0.6599814E-07  0.2599864E+04  0.7818609E-02  0.8368247E-01
        2   -1    0    0  501    0  0.00000000000E+00  0.00000000000E+00  0.21579411382E+04  0.21579411382E+04  0.25500000920E-02 0. -1.
       -2   -1    0    0    0  501  0.00000000000E+00  0.00000000000E+00 -0.78307190161E+03  0.78307190161E+03  0.25500000920E-02 0.  1.
    10030    2    1    2    0    0  0.00000000000E+00  0.00000000000E+00  0.13748692366E+04  0.29410130398E+04  0.25998638969E+04 0.  0.
        5    1    3    3  502    0 -0.39067367416E+02  0.52144941287E+03  0.20337101897E+04  0.20998654660E+04  0.46999998093E+01 0. -1.
       -5    1    3    3    0  502  0.39067367416E+02 -0.52144941287E+03 -0.65884095316E+03  0.84114757382E+03  0.46999998093E+01 0.  1.
</event>
<event>
 5   0  0.2755061E-07  0.2599676E+04  0.7818609E-02  0.8368311E-01
        1   -1    0    0  501    0  0.00000000000E+00  0.00000000000E+00  0.17781259280E+04  0.17781259280E+04  0.50400001928E-02 0. -1.
       -1   -1    0    0    0  501  0.00000000000E+00  0.00000000000E+00 -0.95020185126E+03  0.95020185128E+03  0.50400001928E-02 0.  1.
    10030    2    1    2    0    0  0.00000000000E+00  0.00000000000E+00  0.82792407675E+03  0.27283277793E+04  0.25996757864E+04 0.  0.
        4    1    3    3  502    0  0.25553284266E+03 -0.29822573550E+03  0.17143706110E+04  0.17587790730E+04  0.12699999809E+01 0. -1.
       -4    1    3    3    0  502 -0.25553284266E+03  0.29822573550E+03 -0.88644653421E+03  0.96954870630E+03  0.12699999809E+01 0.  1.
</event>
<event>
 5   0  0.6526351E-07  0.2599682E+04  0.7818609E-02  0.8368309E-01
        2   -1    0    0  501    0  0.00000000000E+00  0.00000000000E+00  0.19940885282E+04  0.19940885282E+04  0.25500000920E-02 0. -1.
       -2   -1    0    0    0  501  0.00000000000E+00  0.00000000000E+00 -0.84729770195E+03  0.84729770196E+03  0.25500000920E-02 0.  1.
    10030    2    1    2    0    0  0.00000000000E+00  0.00000000000E+00  0.11467908262E+04  0.28413862302E+04  0.25996820017E+04 0.  0.
        3    1    3    3  502    0 -0.27384333405E+03  0.12378947959E+04  0.26000905982E+03  0.12942095729E+04  0.10100000352E+00 0.  1.
       -3    1    3    3    0  502  0.27384333405E+03 -0.12378947959E+04  0.88678176642E+03  0.15471766572E+04  0.10100000352E+00 0. -1.
</event>
<event>
 5   0  0.6780984E-07  0.2600093E+04  0.7818609E-02  0.8368170E-01
       -2   -1    0    0    0  501  0.00000000000E+00  0.00000000000E+00  0.90335426615E+03  0.90335426615E+03  0.25500000920E-02 0.  1.
        2   -1    0    0  501    0  0.00000000000E+00  0.00000000000E+00 -0.18709389093E+04  0.18709389093E+04  0.25500000920E-02 0. -1.
    10030    2    1    2    0    0  0.00000000000E+00  0.00000000000E+00 -0.96758464320E+03  0.27742931755E+04  0.26000928026E+04 0.  0.
        2    1    3    3  502    0  0.49364080484E+03 -0.74720740299E+03 -0.14893325533E+04  0.17378468291E+04  0.25500000920E-02 0. -1.
       -2    1    3    3    0  502 -0.49364080484E+03  0.74720740299E+03  0.52174791005E+03  0.10364463464E+04  0.25500000920E-02 0.  1.
</event>
<event>
 5   0  0.6768478E-07  0.2600136E+04  0.7818609E-02  0.8368155E-01
        2   -1    0    0  501    0  0.00000000000E+00  0.00000000000E+00  0.18550675520E+04  0.18550675520E+04  0.25500000920E-02 0. -1.
       -2   -1    0    0    0  501  0.00000000000E+00  0.00000000000E+00 -0.91111303121E+03  0.91111303121E+03  0.25500000920E-02 0.  1.
    10030    2    1    2    0    0  0.00000000000E+00  0.00000000000E+00  0.94395452083E+03  0.27661805832E+04  0.26001355506E+04 0.  0.
        4    1    3    3  502    0  0.10951712381E+03  0.11097841422E+04 -0.23894863632E+03  0.11404880124E+04  0.12699999809E+01 0.  1.
       -4    1    3    3    0  502 -0.10951712381E+03 -0.11097841422E+04  0.11829031571E+04  0.16256925708E+04  0.12699999809E+01 0. -1.
</event>
<event>
 5   0  0.6599814E-07  0.2598861E+04  0.7818609E-02  0.8368588E-01
       -2   -1    0    0    0  501  0.00000000000E+00  0.00000000000E+00  0.19421196771E+04  0.19421196771E+04  0.25500000920E-02 0. -1.
        2   -1    0    0  501    0  0.00000000000E+00  0.00000000000E+00 -0.86942067669E+03  0.86942067669E+03  0.25500000920E-02 0.  1.
    10030    2    1    2    0    0  0.00000000000E+00  0.00000000000E+00  0.10726990004E+04  0.28115403538E+04  0.25988605225E+04 0.  0.
        5    1    3    3  502    0  0.18519865075E+03  0.98348260357E+03  0.14330082324E+04  0.17478762130E+04  0.46999998093E+01 0. -1.
       -5    1    3    3    0  502 -0.18519865075E+03 -0.98348260357E+03 -0.36030923200E+03  0.10636641408E+04  0.46999998093E+01 0.  1.
</event>
<event>
 5   0  0.7160320E-07  0.2598990E+04  0.7818609E-02  0.8368544E-01
        2   -1    0    0  501    0  0.00000000000E+00  0.00000000000E+00  0.24825991061E+04  0.24825991062E+04  0.25500000920E-02 0.  1.
       -2   -1    0    0    0  501  0.00000000000E+00  0.00000000000E+00 -0.68020934632E+03  0.68020934632E+03  0.25500000920E-02 0. -1.
    10030    2    1    2    0    0  0.00000000000E+00  0.00000000000E+00  0.18023897598E+04  0.31628084525E+04  0.25989898924E+04 0.  0.
        1    1    3    3  502    0 -0.43122037011E+03  0.28926184372E+03 -0.54847543083E+03  0.75528055720E+03  0.50400001928E-02 0. -1.
       -1    1    3    3    0  502  0.43122037011E+03 -0.28926184372E+03  0.23508651907E+04  0.24075278953E+04  0.50400001928E-02 0.  1.
</event>
<event>
 5   0  0.7160320E-07  0.2601261E+04  0.7818609E-02  0.8367773E-01
        2   -1    0    0  501    0  0.00000000000E+00  0.00000000000E+00  0.22308819574E+04  0.22308819574E+04  0.25500000920E-02 0.  1.
       -2   -1    0    0    0  501  0.00000000000E+00  0.00000000000E+00 -0.75828290207E+03  0.75828290207E+03  0.25500000920E-02 0. -1.
    10030    2    1    2    0    0  0.00000000000E+00  0.00000000000E+00  0.14725990553E+04  0.29891648595E+04  0.26012609595E+04 0.  0.
        1    1    3    3  502    0  0.49108027433E+03  0.25432570971E+03  0.20890445613E+04  0.21610063817E+04  0.50400001928E-02 0.  1.
       -1    1    3    3    0  502 -0.49108027433E+03 -0.25432570971E+03 -0.61644550599E+03  0.82815847779E+03  0.50400001928E-02 0. -1.
</event>
<event>
 5   0  0.2623263E-07  0.2591159E+04  0.7818609E-02  0.8371210E-01
        1   -1    0    0  501    0  0.00000000000E+00  0.00000000000E+00  0.12633859361E+04  0.12633859361E+04  0.50400001928E-02 0. -1.
       -1   -1    0    0    0  501  0.00000000000E+00  0.00000000000E+00 -0.13285934346E+04  0.13285934346E+04  0.50400001928E-02 0.  1.
    10030    2    1    2    0    0  0.00000000000E+00  0.00000000000E+00 -0.65207498527E+02  0.25919793707E+04  0.25911590149E+04 0.  0.
        1    1    3    3  502    0  0.12536737987E+04 -0.30871112606E+03 -0.13999558537E+03  0.12986913863E+04  0.50400001928E-02 0. -1.
       -1    1    3    3    0  502 -0.12536737987E+04  0.30871112606E+03  0.74788086846E+02  0.12932879845E+04  0.50400001928E-02 0.  1.
</event>
<event>
 5   0  0.2793576E-07  0.2600388E+04  0.7818609E-02  0.8368070E-01
        1   -1    0    0  501    0  0.00000000000E+00  0.00000000000E+00  0.16199986761E+04  0.16199986761E+04  0.50400001928E-02 0.  1.
       -1   -1    0    0    0  501  0.00000000000E+00  0.00000000000E+00 -0.10435218922E+04  0.10435218922E+04  0.50400001928E-02 0. -1.
    10030    2    1    2    0    0  0.00000000000E+00  0.00000000000E+00  0.57647678396E+03  0.26635205683E+04  0.26003877279E+04 0.  0.
        2    1    3    3  502    0 -0.76483682857E+03 -0.61808093902E+03 -0.58300322847E+03  0.11431938532E+04  0.25500000920E-02 0. -1.
       -2    1    3    3    0  502  0.76483682857E+03  0.61808093902E+03  0.11594800124E+04  0.15203267151E+04  0.25500000920E-02 0.  1.
</event>
<event>
 5   0  0.7160320E-07  0.2597977E+04  0.7818609E-02  0.8368889E-01
        2   -1    0    0  501    0  0.00000000000E+00  0.00000000000E+00  0.33427977848E+04  0.33427977848E+04  0.25500000920E-02 0. -1.
       -2   -1    0    0    0  501  0.00000000000E+00  0.00000000000E+00 -0.50477810407E+03  0.50477810408E+03  0.25500000920E-02 0.  1.
    10030    2    1    2    0    0  0.00000000000E+00  0.00000000000E+00  0.28380196807E+04  0.38475758889E+04  0.25979770038E+04 0.  0.
        1    1    3    3  502    0  0.73282913976E+03  0.52617501420E+03  0.28031386041E+04  0.29447384820E+04  0.50400001928E-02 0. -1.
       -1    1    3    3    0  502 -0.73282913976E+03 -0.52617501420E+03  0.34881076595E+02  0.90283740683E+03  0.50400001928E-02 0.  1.
</event>
<event>
 5   0  0.2864801E-07  0.2591043E+04  0.7818609E-02  0.8371250E-01
       -1   -1    0    0    0  501  0.00000000000E+00  0.00000000000E+00  0.15635150201E+04  0.15635150201E+04  0.50400001928E-02 0. -1.
        1   -1    0    0  501    0  0.00000000000E+00  0.00000000000E+00 -0.10734633473E+04  0.10734633473E+04  0.50400001928E-02 0.  1.
    10030    2    1    2    0    0  0.00000000000E+00  0.00000000000E+00  0.49005167283E+03  0.26369783674E+04  0.25910430849E+04 0.  0.
        5    1    3    3  502    0 -0.19056842887E+03  0.11160757999E+04 -0.39574919500E+03  0.11994086179E+04  0.46999998093E+01 0.  1.
       -5    1    3    3    0  502  0.19056842887E+03 -0.11160757999E+04  0.88580086784E+03  0.14375697495E+04  0.46999998093E+01 0. -1.
</event>
<event>
 5   0  0.6599814E-07  0.2599642E+04  0.7818609E-02  0.8368323E-01
       -2   -1    0    0    0  501  0.00000000000E+00  0.00000000000E+00  0.51054871787E+03  0.51054871787E+03  0.25500000920E-02 0. -1.
        2   -1    0    0  501    0  0.00000000000E+00  0.00000000000E+00 -0.33092524342E+04  0.33092524342E+04  0.25500000920E-02 0.  1.
    10030    2    1    2    0    0  0.00000000000E+00  0.00000000000E+00 -0.27987037163E+04  0.38198011521E+04  0.25996419657E+04 0.  0.
        5    1    3    3  502    0 -0.81323493574E+03 -0.16936324539E+03 -0.28683245868E+04  0.29861920559E+04  0.46999998093E+01 0.  1.
       -5    1    3    3    0  502  0.81323493574E+03  0.16936324539E+03  0.69620870466E+02  0.83360909616E+03  0.46999998093E+01 0. -1.
</event>
<event>
 5   0  0.2641626E-07  0.2599841E+04  0.7818609E-02  0.8368255E-01
        1   -1    0    0  501    0  0.00000000000E+00  0.00000000000E+00  0.18409231933E+04  0.18409231933E+04  0.50400001928E-02 0. -1.
       -1   -1    0    0    0  501  0.00000000000E+00  0.00000000000E+00 -0.91790546139E+03  0.91790546141E+03  0.50400001928E-02 0.  1.
    10030    2    1    2    0    0  0.00000000000E+00  0.00000000000E+00  0.92301773194E+03  0.27588286547E+04  0.25998411130E+04 0.  0.
        3    1    3    3  502    0  0.40850894584E+03  0.61033163644E+03 -0.67665315536E+03  0.99862093315E+03  0.10100000352E+00 0.  1.
       -3    1    3    3    0  502 -0.40850894584E+03 -0.61033163644E+03  0.15996708873E+04  0.17602077216E+04  0.10100000352E+00 0. -1.
</event>
<event>
 5   0  0.6780984E-07  0.2600758E+04  0.7818609E-02  0.8367944E-01
       -2   -1    0    0    0  501  0.00000000000E+00  0.00000000000E+00  0.14117888701E+04  0.14117888701E+04  0.25500000920E-02 0. -1.
        2   -1    0    0  501    0  0.00000000000E+00  0.00000000000E+00 -0.11977606745E+04  0.11977606745E+04  0.25500000920E-02 0.  1.
    10030    2    1    2    0    0  0.00000000000E+00  0.00000000000E+00  0.21402819556E+03  0.26095495446E+04  0.26007577275E+04 0.  0.
        2    1    3    3  502    0  0.12511108140E+04 -0.35401725644E+03  0.12654016570E+03  0.13063762476E+04  0.25500000920E-02 0. -1.
       -2    1    3    3    0  502 -0.12511108140E+04  0.35401725644E+03  0.87488029858E+02  0.13031732970E+04  0.25500000920E-02 0.  1.
</event>
<event>
 5   0  0.2755061E-07  0.2600186E+04  0.7818609E-02  0.8368138E-01
       -1   -1    0    0    0  501  0.00000000000E+00  0.00000000000E+00  0.18765058013E+04  0.18765058013E+04  0.50400001928E-02 0.  1.
        1   -1    0    0  501    0  0.00000000000E+00  0.00000000000E+00 -0.90073909929E+03  0.90073909931E+03  0.50400001928E-02 0. -1.
    10030    2    1    2    0    0  0.00000000000E+00  0.00000000000E+00  0.97576670199E+03  0.27772449006E+04  0.26001862589E+04 0.  0.
        4    1    3    3  502    0 -0.58107444037E+03  0.86610700752E+03  0.13169144619E+04  0.16798970703E+04  0.12699999809E+01 0.  1.
       -4    1    3    3    0  502  0.58107444037E+03 -0.86610700752E+03 -0.34114775995E+03  0.10973478303E+04  0.12699999809E+01 0. -1.
</event>
<event>
 5   0  0.2864801E-07  0.2600285E+04  0.7818609E-02  0.8368105E-01
       -1   -1    0    0    0  501  0.00000000000E+00  0.00000000000E+00  0.10087064723E+04  0.10087064723E+04  0.50400001928E-02 0. -1.
        1   -1    0    0  501    0  0.00000000000E+00  0.00000000000E+00 -0.16757799820E+04  0.16757799820E+04  0.50400001928E-02 0.  1.
    10030    2    1    2    0    0  0.00000000000E+00  0.00000000000E+00 -0.66707350971E+03  0.26844864542E+04  0.26002846874E+04 0.  0.
        5    1    3    3  502    0  0.97436545498E+03 -0.49509487017E+03 -0.10604985027E+04  0.15228874333E+04  0.46999998093E+01 0.  1.
       -5    1    3    3    0  502 -0.97436545498E+03  0.49509487017E+03  0.39342499298E+03  0.11615990209E+04  0.46999998093E+01 0. -1.
</event>
<event>
 5   0  0.2623263E-07  0.2599940E+04  0.7818609E-02  0.8368222E-01
        1   -1    0    0  501    0  0.00000000000E+00  0.00000000000E+00  0.14109769414E+04  0.14109769414E+04  0.50400001928E-02 0.  1.
       -1   -1    0    0    0  501  0.00000000000E+00  0.00000000000E+00 -0.11976961917E+04  0.11976961917E+04  0.50400001928E-02 0. -1.
    10030    2    1    2    0    0  0.00000000000E+00  0.00000000000E+00  0.21328074976E+03  0.26086731331E+04  0.25999397757E+04 0.  0.
        1    1    3    3  502    0  0.11775627453E+04  0.44651323954E+03  0.43004841338E+03  0.13307778666E+04  0.50400001928E-02 0.  1.
       -1    1    3    3    0  502 -0.11775627453E+04 -0.44651323954E+03 -0.21676766362E+03  0.12778952665E+04  0.50400001928E-02 0. -1.
</event>
<event>
 5   0  0.2793576E-07  0.2597689E+04  0.7818609E-02  0.8368987E-01
        1   -1    0    0  501    0  0.00000000000E+00  0.00000000000E+00  0.14309060793E+04  0.14309060793E+04  0.50400001928E-02 0.  1.
       -1   -1    0    0    0  501  0.00000000000E+00  0.00000000000E+00 -0.11789713673E+04  0.11789713673E+04  0.50400001928E-02 0. -1.
    10030    2    1    2    0    0  0.00000000000E+00  0.00000000000E+00  0.25193471199E+03  0.26098774466E+04  0.25976892015E+04 0.  0.
        2    1    3    3  502    0 -0.30079120772E+02 -0.99301583581E+03 -0.71462550406E+03  0.12237952503E+04  0.25500000920E-02 0. -1.
       -2    1    3    3    0  502  0.30079120772E+02  0.99301583581E+03  0.96656021605E+03  0.13860821963E+04  0.25500000920E-02 0.  1.
</event>
<event>
 5   0  0.6526351E-07  0.2599886E+04  0.7818609E-02  0.8368240E-01
       -2   -1    0    0    0  501  0.00000000000E+00  0.00000000000E+00  0.10285832021E+04  0.10285832021E+04  0.25500000920E-02 0. -1.
        2   -1    0    0  501    0  0.00000000000E+00  0.00000000000E+00 -0.16428932327E+04  0.16428932327E+04  0.25500000920E-02 0.  1.
    10030    2    1    2    0    0  0.00000000000E+00  0.00000000000E+00 -0.61431003061E+03  0.26714764349E+04  0.25998864453E+04 0.  0.
        3    1    3    3  502    0  0.12651009471E+04  0.35879104195E+02 -0.61211797771E+03  0.14058649100E+04  0.10100000352E+00 0.  1.
       -3    1    3    3    0  502 -0.12651009471E+04 -0.35879104195E+02 -0.21920528986E+01  0.12656115248E+04  0.10100000352E+00 0. -1.
</event>
<event>
 5   0  0.7160320E-07  0.2601714E+04  0.7818609E-02  0.8367619E-01
        2   -1    0    0  501    0  0.00000000000E+00  0.00000000000E+00  0.25179672406E+04  0.25179672406E+04  0.25500000920E-02 0.  1.
       -2   -1    0    0    0  501  0.00000000000E+00  0.00000000000E+00 -0.67206156602E+03  0.67206156602E+03  0.25500000920E-02 0. -1.
    10030    2    1    2    0    0  0.00000000000E+00  0.00000000000E+00  0.18459056746E+04  0.31900288066E+04  0.26017140557E+04 0.  0.
        1    1    3    3  502    0 -0.17336120416E+03  0.28345487499E+03  0.24650605280E+04  0.24873528459E+04  0.50400001928E-02 0.  1.
       -1    1    3    3    0  502  0.17336120416E+03 -0.28345487499E+03 -0.61915485341E+03  0.70267596073E+03  0.50400001928E-02 0. -1.
</event>
<event>
 5   0  0.2793576E-07  0.2601493E+04  0.7818609E-02  0.8367694E-01
        1   -1    0    0  501    0  0.00000000000E+00  0.00000000000E+00  0.15089821834E+04  0.15089821834E+04  0.50400001928E-02 0. -1.
       -1   -1    0    0    0  501  0.00000000000E+00  0.00000000000E+00 -0.11212470741E+04  0.11212470742E+04  0.50400001928E-02 0.  1.
    10030    2    1    2    0    0  0.00000000000E+00  0.00000000000E+00  0.38773510927E+03  0.26302292576E+04  0.26014933082E+04 0.  0.
        2    1    3    3  502    0 -0.29055920497E+03 -0.43946344619E+03  0.13962851963E+04  0.14923689629E+04  0.25500000920E-02 0. -1.
       -2    1    3    3    0  502  0.29055920497E+03  0.43946344619E+03 -0.10085500870E+04  0.11378602947E+04  0.25500000920E-02 0.  1.
</event>
<event>
 5   0  0.2755061E-07  0.2599833E+04  0.7818609E-02  0.8368258E-01
        1   -1    0    0  501    0  0.00000000000E+00  0.00000000000E+00  0.14149545510E+04  0.14149545510E+04  0.50400001928E-02 0.  1.
       -1   -1    0    0    0  501  0.00000000000E+00  0.00000000000E+00 -0.11942313887E+04  0.11942313887E+04  0.50400001928E-02 0. -1.
    10030    2    1    2    0    0  0.00000000000E+00  0.00000000000E+00  0.22072316229E+03  0.26091859397E+04  0.25998331781E+04 0.  0.
        4    1    3    3  502    0 -0.45383134927E+03 -0.28775724941E+02  0.13325234941E+04  0.14079813249E+04  0.12699999809E+01 0.  1.
       -4    1    3    3    0  502  0.45383134927E+03  0.28775724941E+02 -0.11118003318E+04  0.12012046148E+04  0.12699999809E+01 0. -1.
</event>
<event>
 5   0  0.2641626E-07  0.2600447E+04  0.7818609E-02  0.8368049E-01
        1   -1    0    0  501    0  0.00000000000E+00  0.00000000000E+00  0.16098224497E+04  0.16098224497E+04  0.50400001928E-02 0.  1.
       -1   -1    0    0    0  501  0.00000000000E+00  0.00000000000E+00 -0.10501663057E+04  0.10501663057E+04  0.50400001928E-02 0. -1.
    10030    2    1    2    0    0  0.00000000000E+00  0.00000000000E+00  0.55965614404E+03  0.26599887555E+04  0.26004471115E+04 0.  0.
        3    1    3    3  502    0  0.84764391387E+03  0.35415632435E+03  0.12210344350E+04  0.15280222539E+04  0.10100000352E+00 0.  1.
       -3    1    3    3    0  502 -0.84764391387E+03 -0.35415632435E+03 -0.66137829091E+03  0.11319665016E+04  0.10100000352E+00 0. -1.
</event>
<event>
 5   0  0.2755061E-07  0.2600160E+04  0.7818609E-02  0.8368147E-01
        1   -1    0    0  501    0  0.00000000000E+00  0.00000000000E+00  0.16518486426E+04  0.16518486426E+04  0.50400001928E-02 0.  1.
       -1   -1    0    0    0  501  0.00000000000E+00  0.00000000000E+00 -0.10232221041E+04  0.10232221041E+04  0.50400001928E-02 0. -1.
    10030    2    1    2    0    0  0.00000000000E+00  0.00000000000E+00  0.62862653851E+03  0.26750707467E+04  0.26001600287E+04 0.  0.
        4    1    3    3  502    0  0.12166279742E+04  0.45557727733E+02  0.78346339156E+03  0.14477830062E+04  0.12699999809E+01 0.  1.
       -4    1    3    3    0  502 -0.12166279742E+04 -0.45557727733E+02 -0.15483685305E+03  0.12272877406E+04  0.12699999809E+01 0. -1.
</event>
<event>
 5   0  0.6780984E-07  0.2603214E+04  0.7818609E-02  0.8367110E-01
        2   -1    0    0  501    0  0.00000000000E+00  0.00000000000E+00  0.14897477513E+04  0.14897477513E+04  0.25500000920E-02 0.  1.
       -2   -1    0    0    0  501  0.00000000000E+00  0.00000000000E+00 -0.11372269139E+04  0.11372269139E+04  0.25500000920E-02 0. -1.
    10030    2    1    2    0    0  0.00000000000E+00  0.00000000000E+00  0.35252083745E+03  0.26269746652E+04  0.26032143498E+04 0.  0.
        2    1    3    3  502    0 -0.12056577453E+04 -0.46759955031E+03  0.26850612659E+02  0.12934376265E+04  0.25500000920E-02 0. -1.
       -2    1    3    3    0  502  0.12056577453E+04  0.46759955031E+03  0.32567022479E+03  0.13335370387E+04  0.25500000920E-02 0.  1.
</event>
<event>
 5   0  0.7160320E-07  0.2599253E+04  0.7818609E-02  0.8368455E-01
       -2   -1    0    0    0  501  0.00000000000E+00  0.00000000000E+00  0.60217665925E+03  0.60217665926E+03  0.25500000920E-02 0.  1.
        2   -1    0    0  501    0  0.00000000000E+00  0.00000000000E+00 -0.28048721603E+04  0.28048721603E+04  0.25500000920E-02 0. -1.
    10030    2    1    2    0    0  0.00000000000E+00  0.00000000000E+00 -0.22026955011E+04  0.34070488196E+04  0.25992526212E+04 0.  0.
        1    1    3    3  502    0 -0.86389503737E+03 -0.43533864053E+03  0.36235905120E+02  0.96806374190E+03  0.50400001928E-02 0.  1.
       -1    1    3    3    0  502  0.86389503737E+03  0.43533864053E+03 -0.22389314062E+04  0.24389850777E+04  0.50400001928E-02 0. -1.
</event>
<event>
 5   0  0.2623263E-07  0.2597334E+04  0.7818609E-02  0.8369107E-01
       -1   -1    0    0    0  501  0.00000000000E+00  0.00000000000E+00  0.71105793443E+03  0.71105793445E+03  0.50400001928E-02 0.  1.
        1   -1    0    0  501    0  0.00000000000E+00  0.00000000000E+00 -0.23718686810E+04  0.23718686811E+04  0.50400001928E-02 0. -1.
    10030    2    1    2    0    0  0.00000000000E+00  0.00000000000E+00 -0.16608107466E+04  0.30829266155E+04  0.25973340525E+04 0.  0.
        1    1    3    3  502    0 -0.75022732328E+03  0.41450998817E+03  0.32764026524E+03  0.91760978107E+03  0.50400001928E-02 0.  1.
       -1    1    3    3    0  502  0.75022732328E+03 -0.41450998817E+03 -0.19884510119E+04  0.21653168344E+04  0.50400001928E-02 0. -1.
</event>
<event>
 5   0  0.6780984E-07  0.2599918E+04  0.7818609E-02  0.8368229E-01
       -2   -1    0    0    0  501  0.00000000000E+00  0.00000000000E+00  0.79066554230E+03  0.79066554231E+03  0.25500000920E-02 0.  1.
        2   -1    0    0  501    0  0.00000000000E+00  0.00000000000E+00 -0.21373054998E+04  0.21373054998E+04  0.25500000920E-02 0. -1.
    10030    2    1    2    0    0  0.00000000000E+00  0.00000000000E+00 -0.13466399575E+04  0.29279710421E+04  0.25999183157E+04 0.  0.
        2    1    3    3  502    0  0.58185214617E+03 -0.10437353086E+04 -0.96920845250E+02  0.11988865520E+04  0.25500000920E-02 0. -1.
       -2    1    3    3    0  502 -0.58185214617E+03  0.10437353086E+04 -0.12497191122E+04  0.17290844901E+04  0.25500000920E-02 0.  1.
</event>
<event>
 5   0  0.2641626E-07  0.2592154E+04  0.7818609E-02  0.8370871E-01
        1   -1    0    0  501    0  0.00000000000E+00  0.00000000000E+00  0.11683144374E+04  0.11683144374E+04  0.50400001928E-02 0. -1.
       -1   -1    0    0    0  501  0.00000000000E+00  0.00000000000E+00 -0.14378113976E+04  0.14378113976E+04  0.50400001928E-02 0.  1.
    10030    2    1    2    0    0  0.00000000000E+00  0.00000000000E+00 -0.26949696017E+03  0.26061258350E+04  0.25921541730E+04 0.  0.
        3    1    3    3  502    0  0.90610224302E+03 -0.27049463569E+03 -0.10258820484E+04  0.13952141807E+04  0.10100000352E+00 0.  1.
       -3    1    3    3    0  502 -0.90610224302E+03  0.27049463569E+03  0.75638508819E+03  0.12109116543E+04  0.10100000352E+00 0. -1.
</event>
<event>
 5   0  0.7160320E-07  0.2594677E+04  0.7818609E-02  0.8370011E-01
       -2   -1    0    0    0  501  0.00000000000E+00  0.00000000000E+00  0.86110606097E+03  0.86110606097E+03  0.25500000920E-02 0. -1.
        2   -1    0    0  501    0  0.00000000000E+00  0.00000000000E+00 -0.19545645800E+04  0.19545645800E+04  0.25500000920E-02 0.  1.
    10030    2    1    2    0    0  0.00000000000E+00  0.00000000000E+00 -0.10934585190E+04  0.28156706410E+04  0.25946771718E+04 0.  0.
        1    1    3    3  502    0 -0.24350221415E+03  0.80960648676E+03 -0.16145799489E+04  0.18225324148E+04  0.50400001928E-02 0.  1.
       -1    1    3    3    0  502  0.24350221415E+03 -0.80960648676E+03  0.52112142981E+03  0.99313822619E+03  0.50400001928E-02 0. -1.
</event>
<event>
 5   0  0.2641626E-07  0.2601117E+04  0.7818609E-02  0.8367822E-01
       -1   -1    0    0    0  501  0.00000000000E+00  0.00000000000E+00  0.74896568979E+03  0.74896568981E+03  0.50400001928E-02 0.  1.
        1   -1    0    0  501    0  0.00000000000E+00  0.00000000000E+00 -0.22583851256E+04  0.22583851256E+04  0.50400001928E-02 0. -1.
    10030    2    1    2    0    0  0.00000000000E+00  0.00000000000E+00 -0.15094194358E+04  0.30073508154E+04  0.26011174318E+04 0.  0.
        3    1    3    3  502    0  0.84726758751E+03  0.33297776512E+03 -0.18285956710E+04  0.20426695022E+04  0.10100000352E+00 0. -1.
       -3    1    3    3    0  502 -0.84726758751E+03 -0.33297776512E+03  0.31917623514E+03  0.96468131328E+03  0.10100000352E+00 0.  1.
</event>
<event>
 5   0  0.6599814E-07  0.2599532E+04  0.7818609E-02  0.8368360E-01
        2   -1    0    0  501    0  0.00000000000E+00  0.00000000000E+00  0.16550344184E+04  0.16550344184E+04  0.25500000920E-02 0.  1.
       -2   -1    0    0    0  501  0.00000000000E+00  0.00000000000E+00 -0.10207590674E+04  0.10207590674E+04  0.25500000920E-02 0. -1.
    10030    2    1    2    0    0  0.00000000000E+00  0.00000000000E+00  0.63427535099E+03  0.26757934858E+04  0.25995317959E+04 0.  0.
        5    1    3    3  502    0  0.92349226535E+03  0.90141047621E+03  0.47657023022E+03  0.13756889493E+04  0.46999998093E+01 0.  1.
       -5    1    3    3    0  502 -0.92349226535E+03 -0.90141047621E+03  0.15770512077E+03  0.13001045365E+04  0.46999998093E+01 0. -1.
</event>
<event>
 5   0  0.7160320E-07  0.2600803E+04  0.7818609E-02  0.8367929E-01
        2   -1    0    0  501    0  0.00000000000E+00  0.00000000000E+00  0.17107472695E+04  0.17107472695E+04  0.25500000920E-02 0. -1.
       -2   -1    0    0    0  501  0.00000000000E+00  0.00000000000E+00 -0.98848257978E+03  0.98848257979E+03  0.25500000920E-02 0.  1.
    10030    2    1    2    0    0  0.00000000000E+00  0.00000000000E+00  0.72226468967E+03  0.26992298492E+04  0.26008028563E+04 0.  0.
        1    1    3    3  502    0  0.30689456505E+03  0.19514071595E+02 -0.95020374121E+03  0.99872529901E+03  0.50400001928E-02 0.  1.
       -1    1    3    3    0  502 -0.30689456505E+03 -0.19514071595E+02  0.16724684309E+04  0.17005045502E+04  0.50400001928E-02 0. -1.
</event>
<event>
 5   0  0.2793576E-07  0.2600454E+04  0.7818609E-02  0.8368047E-01
        1   -1    0    0  501    0  0.00000000000E+00  0.00000000000E+00  0.14793499102E+04  0.14793499102E+04  0.50400001928E-02 0.  1.
       -1   -1    0    0    0  501  0.00000000000E+00  0.00000000000E+00 -0.11427925518E+04  0.11427925518E+04  0.50400001928E-02 0. -1.
    10030    2    1    2    0    0  0.00000000000E+00  0.00000000000E+00  0.33655735847E+03  0.26221424620E+04  0.26004538518E+04 0.  0.
        2    1    3    3  502    0  0.90917961945E+02  0.11772614509E+04  0.71722664878E+03  0.13815298278E+04  0.25500000920E-02 0. -1.
       -2    1    3    3    0  502 -0.90917961945E+02 -0.11772614509E+04 -0.38066929032E+03  0.12406126342E+04  0.25500000920E-02 0.  1.
</event>
<event>
 5   0  0.6780984E-07  0.2600117E+04  0.7818609E-02  0.8368162E-01
       -2   -1    0    0    0  501  0.00000000000E+00  0.00000000000E+00  0.94736759679E+03  0.94736759679E+03  0.25500000920E-02 0. -1.
        2   -1    0    0  501    0  0.00000000000E+00  0.00000000000E+00 -0.17840507428E+04  0.17840507428E+04  0.25500000920E-02 0.  1.
    10030    2    1    2    0    0  0.00000000000E+00  0.00000000000E+00 -0.83668314599E+03  0.27314183396E+04  0.26001168164E+04 0.  0.
        2    1    3    3  502    0 -0.12369340638E+04  0.19379306549E+03 -0.78615137477E+03  0.14783760058E+04  0.25500000920E-02 0.  1.
       -2    1    3    3    0  502  0.12369340638E+04 -0.19379306549E+03 -0.50531771219E+02  0.12530423338E+04  0.25500000920E-02 0. -1.
</event>
<event>
 5   0  0.7160320E-07  0.2600540E+04  0.7818609E-02  0.8368018E-01
        2   -1    0    0  501    0  0.00000000000E+00  0.00000000000E+00  0.11991195578E+04  0.11991195578E+04  0.25500000920E-02 0.  1.
       -2   -1    0    0    0  501  0.00000000000E+00  0.00000000000E+00 -0.14099525175E+04  0.14099525175E+04  0.25500000920E-02 0. -1.
    10030    2    1    2    0    0  0.00000000000E+00  0.00000000000E+00 -0.21083295964E+03  0.26090720753E+04  0.26005396665E+04 0.  0.
        1    1    3    3  502    0  0.52130305853E+02  0.12236568395E+04 -0.54348165749E+03  0.13399350513E+04  0.50400001928E-02 0. -1.
       -1    1    3    3    0  502 -0.52130305853E+02 -0.12236568395E+04  0.33264869785E+03  0.12691370240E+04  0.50400001928E-02 0.  1.
</event>
<event>
 5   0  0.2793576E-07  0.2600248E+04  0.7818609E-02  0.8368117E-01
       -1   -1    0    0    0  501  0.00000000000E+00  0.00000000000E+00  0.10635944974E+04  0.10635944974E+04  0.50400001928E-02 0.  1.
        1   -1    0    0  501    0  0.00000000000E+00  0.00000000000E+00 -0.15892544357E+04  0.15892544357E+04  0.50400001928E-02 0. -1.
    10030    2    1    2    0    0  0.00000000000E+00  0.00000000000E+00 -0.52565993822E+03  0.26528489331E+04  0.26002478903E+04 0.  0.
        2    1    3    3  502    0 -0.65791478408E+03 -0.73324602310E+03  0.60275543901E+03  0.11549093959E+04  0.25500000920E-02 0.  1.
       -2    1    3    3    0  502  0.65791478408E+03  0.73324602310E+03 -0.11284153772E+04  0.14979395372E+04  0.25500000920E-02 0. -1.
</event>
<event>
 5   0  0.2755061E-07  0.2597752E+04  0.7818609E-02  0.8368965E-01
        1   -1    0    0  501    0  0.00000000000E+00  0.00000000000E+00  0.19033384953E+04  0.19033384953E+04  0.50400001928E-02 0. -1.
       -1   -1    0    0    0  501  0.00000000000E+00  0.00000000000E+00 -0.88637905964E+03  0.88637905966E+03  0.50400001928E-02 0.  1.
    10030    2    1    2    0    0  0.00000000000E+00  0.00000000000E+00  0.10169594357E+04  0.27897175550E+04  0.25977524021E+04 0.  0.
        4    1    3    3  502    0 -0.11598547531E+04  0.10181097941E+03  0.11267395048E+04  0.16202382690E+04  0.12699999809E+01 0. -1.
       -4    1    3    3    0  502  0.11598547531E+04 -0.10181097941E+03 -0.10978006916E+03  0.11694792860E+04  0.12699999809E+01 0.  1.
</event>
<event>
 5   0  0.6599814E-07  0.2600100E+04  0.7818609E-02  0.8368167E-01
        2   -1    0    0  501    0  0.00000000000E+00  0.00000000000E+00  0.86590499981E+03  0.86590499981E+03  0.25500000920E-02 0. -1.
       -2   -1    0    0    0  501  0.00000000000E+00  0.00000000000E+00 -0.19518659793E+04  0.19518659793E+04  0.25500000920E-02 0.  1.
    10030    2    1    2    0    0  0.00000000000E+00  0.00000000000E+00 -0.10859609795E+04  0.28177709791E+04  0.26001003907E+04 0.  0.
        5    1    3    3  502    0 -0.94085771300E+03 -0.72563823625E+03 -0.11147312730E+04  0.16292366271E+04  0.46999998093E+01 0.  1.
       -5    1    3    3    0  502  0.94085771300E+03  0.72563823625E+03  0.28770293585E+02  0.11885343520E+04  0.46999998093E+01 0. -1.
</event>
<event>
 5   0  0.2641626E-07  0.2597466E+04  0.7818609E-02  0.8369062E-01
       -1   -1    0    0    0  501  0.00000000000E+00  0.00000000000E+00  0.11674443284E+04  0.11674443285E+04  0.50400001928E-02 0. -1.
        1   -1    0    0  501    0  0.00000000000E+00  0.00000000000E+00 -0.14447863775E+04  0.14447863775E+04  0.50400001928E-02 0.  1.
    10030    2    1    2    0    0  0.00000000000E+00  0.00000000000E+00 -0.27734204906E+03  0.26122307060E+04  0.25974661979E+04 0.  0.
        3    1    3    3  502    0 -0.23316023079E+03  0.66392004168E+03 -0.12364591151E+04  0.14226681512E+04  0.10100000352E+00 0.  1.
       -3    1    3    3    0  502  0.23316023079E+03 -0.66392004168E+03  0.95911706607E+03  0.11895625547E+04  0.10100000352E+00 0. -1.
</event>
<event>
 5   0  0.2641626E-07  0.2591866E+04  0.7818609E-02  0.8370969E-01
       -1   -1    0    0    0  501  0.00000000000E+00  0.00000000000E+00  0.73069156930E+03  0.73069156932E+03  0.50400001928E-02 0. -1.
        1   -1    0    0  501    0  0.00000000000E+00  0.00000000000E+00 -0.22984282342E+04  0.22984282342E+04  0.50400001928E-02 0.  1.
    10030    2    1    2    0    0  0.00000000000E+00  0.00000000000E+00 -0.15677366649E+04  0.30291198035E+04  0.25918658402E+04 0.  0.
        3    1    3    3  502    0  0.31183005559E+03 -0.26049508354E+03 -0.22220592919E+04  0.22589030920E+04  0.10100000352E+00 0.  1.
       -3    1    3    3    0  502 -0.31183005559E+03  0.26049508354E+03  0.65432262707E+03  0.77021671146E+03  0.10100000352E+00 0. -1.
</event>
<event>
 5   0  0.6526351E-07  0.2599980E+04  0.7818609E-02  0.8368208E-01
        2   -1    0    0  501    0  0.00000000000E+00  0.00000000000E+00  0.29070003887E+04  0.29070003887E+04  0.25500000920E-02 0. -1.
       -2   -1    0    0    0  501  0.00000000000E+00  0.00000000000E+00 -0.58134646814E+03  0.58134646815E+03  0.25500000920E-02 0.  1.
    10030    2    1    2    0    0  0.00000000000E+00  0.00000000000E+00  0.23256539206E+04  0.34883468569E+04  0.25999803144E+04 0.  0.
        3    1    3    3  502    0 -0.48255652591E+03 -0.11864334443E+04  0.14613000429E+04  0.19431631285E+04  0.10100000352E+00 0. -1.
       -3    1    3    3    0  502  0.48255652591E+03  0.11864334443E+04  0.86435387768E+03  0.15451837284E+04  0.10100000352E+00 0.  1.
</event>
<event>
 5   0  0.6599814E-07  0.2599899E+04  0.7818609E-02  0.8368236E-01
       -2   -1    0    0    0  501  0.00000000000E+00  0.00000000000E+00  0.11443745340E+04  0.11443745340E+04  0.25500000920E-02 0.  1.
        2   -1    0    0  501    0  0.00000000000E+00  0.00000000000E+00 -0.14766740329E+04  0.14766740329E+04  0.25500000920E-02 0. -1.
    10030    2    1    2    0    0  0.00000000000E+00  0.00000000000E+00 -0.33229949885E+03  0.26210485669E+04  0.25998985813E+04 0.  0.
        5    1    3    3  502    0 -0.62946974070E+02  0.31928871192E+03 -0.14349341021E+04  0.14713821973E+04  0.46999998093E+01 0. -1.
       -5    1    3    3    0  502  0.62946974070E+02 -0.31928871192E+03  0.11026346033E+04  0.11496663696E+04  0.46999998093E+01 0.  1.
</event>
<event>
 5   0  0.2864801E-07  0.2602173E+04  0.7818609E-02  0.8367463E-01
       -1   -1    0    0    0  501  0.00000000000E+00  0.00000000000E+00  0.10972758750E+04  0.10972758750E+04  0.50400001928E-02 0. -1.
        1   -1    0    0  501    0  0.00000000000E+00  0.00000000000E+00 -0.15427537135E+04  0.15427537135E+04  0.50400001928E-02 0.  1.
    10030    2    1    2    0    0  0.00000000000E+00  0.00000000000E+00 -0.44547783851E+03  0.26400295884E+04  0.26021732693E+04 0.  0.
        5    1    3    3  502    0 -0.94216267170E+03  0.56370371722E+02  0.68580915805E+03  0.11667066512E+04  0.46999998093E+01 0. -1.
       -5    1    3    3    0  502  0.94216267170E+03 -0.56370371722E+02 -0.11312869966E+04  0.14733229372E+04  0.46999998093E+01 0.  1.
</event>
<event>
 5   0  0.2793576E-07  0.2600342E+04  0.7818609E-02  0.8368085E-01
       -1   -1    0    0    0  501  0.00000000000E+00  0.00000000000E+00  0.90799900924E+03  0.90799900926E+03  0.50400001928E-02 0.  1.
        1   -1    0    0  501    0  0.00000000000E+00  0.00000000000E+00 -0.18617256976E+04  0.18617256976E+04  0.50400001928E-02 0. -1.
    10030    2    1    2    0    0  0.00000000000E+00  0.00000000000E+00 -0.95372668831E+03  0.27697247068E+04  0.26003423535E+04 0.  0.
        2    1    3    3  502    0 -0.97746380264E+03  0.39590673499E+03 -0.12868361777E+04  0.16637683061E+04  0.25500000920E-02 0. -1.
       -2    1    3    3    0  502  0.97746380264E+03 -0.39590673499E+03  0.33310948939E+03  0.11059564007E+04  0.25500000920E-02 0.  1.
</event>
<event>
 5   0  0.6768478E-07  0.2599951E+04  0.7818609E-02  0.8368218E-01
        2   -1    0    0  501    0  0.00000000000E+00  0.00000000000E+00  0.15734652600E+04  0.15734652600E+04  0.25500000920E-02 0.  1.
       -2   -1    0    0    0  501  0.00000000000E+00  0.00000000000E+00 -0.10740216742E+04  0.10740216742E+04  0.25500000920E-02 0. -1.
    10030    2    1    2    0    0  0.00000000000E+00  0.00000000000E+00  0.49944358585E+03  0.26474869342E+04  0.25999506094E+04 0.  0.
        4    1    3    3  502    0 -0.31771098205E+03 -0.10134220661E+04  0.10130743237E+04  0.14677485311E+04  0.12699999809E+01 0.  1.
       -4    1    3    3    0  502  0.31771098205E+03  0.10134220661E+04 -0.51363073787E+03  0.11797384032E+04  0.12699999809E+01 0. -1.
</event>
<event>
 5   0  0.6599814E-07  0.2601431E+04  0.7818609E-02  0.8367715E-01
       -2   -1    0    0    0  501  0.00000000000E+00  0.00000000000E+00  0.93064006195E+03  0.93064006195E+03  0.25500000920E-02 0. -1.
        2   -1    0    0  501    0  0.00000000000E+00  0.00000000000E+00 -0.18179540999E+04  0.18179540999E+04  0.25500000920E-02 0.  1.
    10030    2    1    2    0    0  0.00000000000E+00  0.00000000000E+00 -0.88731403792E+03  0.27485941618E+04  0.26014310801E+04 0.  0.
        5    1    3    3  502    0  0.83731418883E+03  0.97387490381E+03 -0.66099079934E+03  0.14444577896E+04  0.46999998093E+01 0. -1.
       -5    1    3    3    0  502 -0.83731418883E+03 -0.97387490381E+03 -0.22632323858E+03  0.13041363722E+04  0.46999998093E+01 0.  1.
</event>
<event>
 5   0  0.2623263E-07  0.2600690E+04  0.7818609E-02  0.8367967E-01
       -1   -1    0    0    0  501  0.00000000000E+00  0.00000000000E+00  0.11194201160E+04  0.11194201160E+04  0.50400001928E-02 0. -1.
        1   -1    0    0  501    0  0.00000000000E+00  0.00000000000E+00 -0.15105117304E+04  0.15105117304E+04  0.50400001928E-02 0.  1.
    10030    2    1    2    0    0  0.00000000000E+00  0.00000000000E+00 -0.39109161437E+03  0.26299318464E+04  0.26006900749E+04 0.  0.
        1    1    3    3  502    0 -0.49818079568E+03 -0.95068146740E+03 -0.93791028310E+03  0.14253613776E+04  0.50400001928E-02 0.  1.
       -1    1    3    3    0  502  0.49818079568E+03  0.95068146740E+03  0.54681866874E+03  0.12045704687E+04  0.50400001928E-02 0. -1.
</event>
<event>
 5   0  0.6780984E-07  0.2600290E+04  0.7818609E-02  0.8368103E-01
       -2   -1    0    0    0  501  0.00000000000E+00  0.00000000000E+00  0.88704023762E+03  0.88704023762E+03  0.25500000920E-02 0.  1.
        2   -1    0    0  501    0  0.00000000000E+00  0.00000000000E+00 -0.19056377573E+04  0.19056377573E+04  0.25500000920E-02 0. -1.
    10030    2    1    2    0    0  0.00000000000E+00  0.00000000000E+00 -0.10185975197E+04  0.27926779950E+04  0.26002902677E+04 0.  0.
        2    1    3    3  502    0 -0.88340565330E+03 -0.26743855870E+03  0.47411711015E+03  0.10376492496E+04  0.25500000920E-02 0.  1.
       -2    1    3    3    0  502  0.88340565330E+03  0.26743855870E+03 -0.14927146299E+04  0.17550287454E+04  0.25500000920E-02 0. -1.
</event>
<event>
 5   0  0.2793576E-07  0.2601078E+04  0.7818609E-02  0.8367835E-01
        1   -1    0    0  501    0  0.00000000000E+00  0.00000000000E+00  0.12170501147E+04  0.12170501148E+04  0.50400001928E-02 0.  1.
       -1   -1    0    0    0  501  0.00000000000E+00  0.00000000000E+00 -0.13897556784E+04  0.13897556785E+04  0.50400001928E-02 0. -1.
    10030    2    1    2    0    0  0.00000000000E+00  0.00000000000E+00 -0.17270556370E+03  0.26068057932E+04  0.26010784747E+04 0.  0.
        2    1    3    3  502    0 -0.64929917153E+03 -0.76382261510E+03 -0.91666233338E+03  0.13584123950E+04  0.25500000920E-02 0. -1.
       -2    1    3    3    0  502  0.64929917153E+03  0.76382261510E+03  0.74395676968E+03  0.12483933982E+04  0.25500000920E-02 0.  1.
</event>
<event>
 5   0  0.7160320E-07  0.2599852E+04  0.7818609E-02  0.8368251E-01
       -2   -1    0    0    0  501  0.00000000000E+00  0.00000000000E+00  0.10558434518E+04  0.10558434518E+04  0.25500000920E-02 0. -1.
        2   -1    0    0  501    0  0.00000000000E+00  0.00000000000E+00 -0.16004344507E+04  0.16004344507E+04  0.25500000920E-02 0.  1.
    10030    2    1    2    0    0  0.00000000000E+00  0.00000000000E+00 -0.54459099892E+03  0.26562779025E+04  0.25998524841E+04 0.  0.
        1    1    3    3  502    0 -0.16981631592E+03 -0.12409310857E+04 -0.62778467604E+03  0.14010214631E+04  0.50400001928E-02 0.  1.
       -1    1    3    3    0  502  0.16981631592E+03  0.12409310857E+04  0.83193677120E+02  0.12552564394E+04  0.50400001928E-02 0. -1.
</event>
<event>
 5   0  0.2641626E-07  0.2600888E+04  0.7818609E-02  0.8367900E-01
        1   -1    0    0  501    0  0.00000000000E+00  0.00000000000E+00  0.16492374202E+04  0.16492374202E+04  0.50400001928E-02 0. -1.
       -1   -1    0    0    0  501  0.00000000000E+00  0.00000000000E+00 -0.10254160709E+04  0.10254160709E+04  0.50400001928E-02 0.  1.
    10030    2    1    2    0    0  0.00000000000E+00  0.00000000000E+00  0.62382134922E+03  0.26746534911E+04  0.26008879679E+04 0.  0.
        3    1    3    3  502    0  0.69787939776E+03  0.74872929408E+02  0.14377262255E+04  0.15999057220E+04  0.10100000352E+00 0. -1.
       -3    1    3    3    0  502 -0.69787939776E+03 -0.74872929408E+02 -0.81390487632E+03  0.10747477691E+04  0.10100000352E+00 0.  1.
</event>
<event>
 5   0  0.2641626E-07  0.2600390E+04  0.7818609E-02  0.8368069E-01
        1   -1    0    0  501    0  0.00000000000E+00  0.00000000000E+00  0.19820116538E+04  0.19820116538E+04  0.50400001928E-02 0. -1.
       -1   -1    0    0    0  501  0.00000000000E+00  0.00000000000E+00 -0.85292515746E+03  0.85292515747E+03  0.50400001928E-02 0.  1.
    10030    2    1    2    0    0  0.00000000000E+00  0.00000000000E+00  0.11290864963E+04  0.28349368113E+04  0.26003904337E+04 0.  0.
        3    1    3    3  502    0  0.19967896837E+03 -0.98999848478E+03 -0.32817993438E+03  0.10619184384E+04  0.10100000352E+00 0.  1.
       -3    1    3    3    0  502 -0.19967896837E+03  0.98999848478E+03  0.14572664307E+04  0.17730183729E+04  0.10100000352E+00 0. -1.
</event>
<event>
 5   0  0.6768478E-07  0.2602405E+04  0.7818609E-02  0.8367385E-01
       -2   -1    0    0    0  501  0.00000000000E+00  0.00000000000E+00  0.10306553439E+04  0.10306553439E+04  0.25500000920E-02 0.  1.
        2   -1    0    0  501    0  0.00000000000E+00  0.00000000000E+00 -0.16427685584E+04  0.16427685584E+04  0.25500000920E-02 0. -1.
    10030    2    1    2    0    0  0.00000000000E+00  0.00000000000E+00 -0.61211321453E+03  0.26734239024E+04  0.26024051903E+04 0.  0.
        4    1    3    3  502    0  0.97729890472E+03  0.82543498042E+03 -0.55060878060E+03  0.13927051728E+04  0.12699999809E+01 0.  1.
       -4    1    3    3    0  502 -0.97729890472E+03 -0.82543498042E+03 -0.61504433936E+02  0.12807187296E+04  0.12699999809E+01 0. -1.
</event>
<event>
 5   0  0.7160320E-07  0.2599729E+04  0.7818609E-02  0.8368293E-01
        2   -1    0    0  501    0  0.00000000000E+00  0.00000000000E+00  0.10063656063E+04  0.10063656063E+04  0.25500000920E-02 0.  1.
       -2   -1    0    0    0  501  0.00000000000E+00  0.00000000000E+00 -0.16789596252E+04  0.16789596252E+04  0.25500000920E-02 0. -1.
    10030    2    1    2    0    0  0.00000000000E+00  0.00000000000E+00 -0.67259401890E+03  0.26853252315E+04  0.25997286175E+04 0.  0.
        1    1    3    3  502    0  0.61006270968E+02 -0.66083964564E+03 -0.14907804807E+04  0.16318263523E+04  0.50400001928E-02 0. -1.
       -1    1    3    3    0  502 -0.61006270968E+02  0.66083964564E+03  0.81818646178E+03  0.10534988793E+04  0.50400001928E-02 0.  1.
</event>
<event>
 5   0  0.2294625E-07  0.2599893E+04  0.7818609E-02  0.8368238E-01
        4   -1    0    0  501    0  0.00000000000E+00  0.00000000000E+00  0.15786936177E+04  0.15786941286E+04  0.12699999809E+01 0.  1.
       -4   -1    0    0    0  501  0.00000000000E+00  0.00000000000E+00 -0.10704162148E+04  0.10704169682E+04  0.12699999809E+01 0. -1.
    10030    2    1    2    0    0  0.00000000000E+00  0.00000000000E+00  0.50827740293E+03  0.26491110968E+04  0.25998930141E+04 0.  0.
        1    1    3    3  502    0  0.59656592496E+03  0.26132521808E+03  0.14004603850E+04  0.15444970257E+04  0.50400001928E-02 0.  1.
       -1    1    3    3    0  502 -0.59656592496E+03 -0.26132521808E+03 -0.89218298210E+03  0.11046140711E+04  0.50400001928E-02 0. -1.
</event>
<event>
 5   0  0.2755061E-07  0.2602108E+04  0.7818609E-02  0.8367486E-01
        1   -1    0    0  501    0  0.00000000000E+00  0.00000000000E+00  0.12920618254E+04  0.12920618254E+04  0.50400001928E-02 0.  1.
       -1   -1    0    0    0  501  0.00000000000E+00  0.00000000000E+00 -0.13101087486E+04  0.13101087486E+04  0.50400001928E-02 0. -1.
    10030    2    1    2    0    0  0.00000000000E+00  0.00000000000E+00 -0.18046923186E+02  0.26021705740E+04  0.26021079925E+04 0.  0.
        4    1    3    3  502    0 -0.24214275870E+03 -0.61815097432E+03 -0.11279767082E+04  0.13088456020E+04  0.12699999809E+01 0. -1.
       -4    1    3    3    0  502  0.24214275870E+03  0.61815097432E+03  0.11099297850E+04  0.12933249720E+04  0.12699999809E+01 0.  1.
</event>
<event>
 5   0  0.2864801E-07  0.2600547E+04  0.7818609E-02  0.8368015E-01
       -1   -1    0    0    0  501  0.00000000000E+00  0.00000000000E+00  0.12713908777E+04  0.12713908777E+04  0.50400001928E-02 0.  1.
        1   -1    0    0  501    0  0.00000000000E+00  0.00000000000E+00 -0.13298123035E+04  0.13298123035E+04  0.50400001928E-02 0. -1.
    10030    2    1    2    0    0  0.00000000000E+00  0.00000000000E+00 -0.58421425807E+02  0.26012031812E+04  0.26005470438E+04 0.  0.
        5    1    3    3  502    0  0.89516590336E+03 -0.44069123508E+03  0.80476123751E+03  0.12818710928E+04  0.46999998093E+01 0.  1.
       -5    1    3    3    0  502 -0.89516590336E+03  0.44069123508E+03 -0.86318266331E+03  0.13193320884E+04  0.46999998093E+01 0. -1.
</event>
<event>
 5   0  0.6780984E-07  0.2599846E+04  0.7818609E-02  0.8368253E-01
        2   -1    0    0  501    0  0.00000000000E+00  0.00000000000E+00  0.12192373172E+04  0.12192373172E+04  0.25500000920E-02 0. -1.
       -2   -1    0    0    0  501  0.00000000000E+00  0.00000000000E+00 -0.13859487129E+04  0.13859487129E+04  0.25500000920E-02 0.  1.
    10030    2    1    2    0    0  0.00000000000E+00  0.00000000000E+00 -0.16671139571E+03  0.26051860302E+04  0.25998464497E+04 0.  0.
        2    1    3    3  502    0 -0.99459772288E+03  0.71622672261E+03 -0.51736768040E+03  0.13303663651E+04  0.25500000920E-02 0.  1.
       -2    1    3    3    0  502  0.99459772288E+03 -0.71622672261E+03  0.35065628470E+03  0.12748196651E+04  0.25500000920E-02 0. -1.
</event>
<event>
 5   0  0.2755061E-07  0.2598223E+04  0.7818609E-02  0.8368805E-01
        1   -1    0    0  501    0  0.00000000000E+00  0.00000000000E+00  0.11893812640E+04  0.11893812640E+04  0.50400001928E-02 0.  1.
       -1   -1    0    0    0  501  0.00000000000E+00  0.00000000000E+00 -0.14189655567E+04  0.14189655567E+04  0.50400001928E-02 0. -1.
    10030    2    1    2    0    0  0.00000000000E+00  0.00000000000E+00 -0.22958429267E+03  0.26083468207E+04  0.25982232755E+04 0.  0.
        4    1    3    3  502    0 -0.70866244757E+03  0.52883054833E+03  0.84066469077E+03  0.12200749767E+04  0.12699999809E+01 0.  1.
       -4    1    3    3    0  502  0.70866244757E+03 -0.52883054833E+03 -0.10702489834E+04  0.13882718440E+04  0.12699999809E+01 0. -1.
</event>
<event>
 5   0  0.6599814E-07  0.2600287E+04  0.7818609E-02  0.8368104E-01
       -2   -1    0    0    0  501  0.00000000000E+00  0.00000000000E+00  0.10941806119E+04  0.10941806119E+04  0.25500000920E-02 0. -1.
        2   -1    0    0  501    0  0.00000000000E+00  0.00000000000E+00 -0.15448756480E+04  0.15448756480E+04  0.25500000920E-02 0.  1.
    10030    2    1    2    0    0  0.00000000000E+00  0.00000000000E+00 -0.45069503616E+03  0.26390562599E+04  0.26002868933E+04 0.  0.
        5    1    3    3  502    0 -0.47444641422E+03  0.73054587584E+03 -0.12049084358E+04  0.14868164330E+04  0.46999998093E+01 0.  1.
       -5    1    3    3    0  502  0.47444641422E+03 -0.73054587584E+03  0.75421339964E+03  0.11522398270E+04  0.46999998093E+01 0. -1.
</event>
<event>
 5   0  0.2864801E-07  0.2600231E+04  0.7818609E-02  0.8368123E-01
       -1   -1    0    0    0  501  0.00000000000E+00  0.00000000000E+00  0.91536811452E+03  0.91536811453E+03  0.50400001928E-02 0. -1.
        1   -1    0    0  501    0  0.00000000000E+00  0.00000000000E+00 -0.18465792133E+04  0.18465792133E+04  0.50400001928E-02 0.  1.
    10030    2    1    2    0    0  0.00000000000E+00  0.00000000000E+00 -0.93121109874E+03  0.27619473278E+04  0.26002305535E+04 0.  0.
        5    1    3    3  502    0 -0.61367168408E+03  0.16044576263E+03 -0.16710623877E+04  0.17874024092E+04  0.46999998093E+01 0.  1.
       -5    1    3    3    0  502  0.61367168408E+03 -0.16044576263E+03  0.73985128900E+03  0.97454491863E+03  0.46999998093E+01 0. -1.
</event>
<event>
 5   0  0.2623263E-07  0.2599948E+04  0.7818609E-02  0.8368219E-01
        1   -1    0    0  501    0  0.00000000000E+00  0.00000000000E+00  0.99063362164E+03  0.99063362165E+03  0.50400001928E-02 0. -1.
       -1   -1    0    0    0  501  0.00000000000E+00  0.00000000000E+00 -0.17059112092E+04  0.17059112092E+04  0.50400001928E-02 0.  1.
    10030    2    1    2    0    0  0.00000000000E+00  0.00000000000E+00 -0.71527758756E+03  0.26965448309E+04  0.25999484606E+04 0.  0.
        1    1    3    3  502    0 -0.84930571506E+03  0.11015777969E+03 -0.13719714634E+04  0.16173313299E+04  0.50400001928E-02 0.  1.
       -1    1    3    3    0  502  0.84930571506E+03 -0.11015777969E+03  0.65669387589E+03  0.10792135010E+04  0.50400001928E-02 0. -1.
</event>
<event>
 5   0  0.6780984E-07  0.2600248E+04  0.7818609E-02  0.8368117E-01
       -2   -1    0    0    0  501  0.00000000000E+00  0.00000000000E+00  0.24432624432E+04  0.24432624432E+04  0.25500000920E-02 0. -1.
        2   -1    0    0  501    0  0.00000000000E+00  0.00000000000E+00 -0.69183020961E+03  0.69183020961E+03  0.25500000920E-02 0.  1.
    10030    2    1    2    0    0  0.00000000000E+00  0.00000000000E+00  0.17514322336E+04  0.31350926528E+04  0.26002482714E+04 0.  0.
        2    1    3    3  502    0  0.12855418912E+04 -0.17102624087E+03  0.98657952879E+03  0.16294806214E+04  0.25500000920E-02 0. -1.
       -2    1    3    3    0  502 -0.12855418912E+04  0.17102624087E+03  0.76485270481E+03  0.15056120314E+04  0.25500000920E-02 0.  1.
</event>
<event>
 5   0  0.2864801E-07  0.2600584E+04  0.7818609E-02  0.8368003E-01
       -1   -1    0    0    0  501  0.00000000000E+00  0.00000000000E+00  0.10303792564E+04  0.10303792564E+04  0.50400001928E-02 0. -1.
        1   -1    0    0  501    0  0.00000000000E+00  0.00000000000E+00 -0.16409099207E+04  0.16409099207E+04  0.50400001928E-02 0.  1.
    10030    2    1    2    0    0  0.00000000000E+00  0.00000000000E+00 -0.61053066439E+03  0.26712891771E+04  0.26005841989E+04 0.  0.
        5    1    3    3  502    0  0.13145928356E+03  0.12920916286E+04 -0.24066562012E+03  0.13208801424E+04  0.46999998093E+01 0.  1.
       -5    1    3    3    0  502 -0.13145928356E+03 -0.12920916286E+04 -0.36986504427E+03  0.13504090347E+04  0.46999998093E+01 0. -1.
</event>
<event>
 5   0  0.7160320E-07  0.2599320E+04  0.7818609E-02  0.8368432E-01
        2   -1    0    0  501    0  0.00000000000E+00  0.00000000000E+00  0.17617571253E+04  0.17617571253E+04  0.25500000920E-02 0. -1.
       -2   -1    0    0    0  501  0.00000000000E+00  0.00000000000E+00 -0.95876778771E+03  0.95876778771E+03  0.25500000920E-02 0.  1.
    10030    2    1    2    0    0  0.00000000000E+00  0.00000000000E+00  0.80298933758E+03  0.27205249130E+04  0.25993198968E+04 0.  0.
        1    1    3    3  502    0 -0.12381945343E+04  0.35038592305E+03  0.59225702139E+03  0.14165678167E+04  0.50400001928E-02 0.  1.
       -1    1    3    3    0  502  0.12381945343E+04 -0.35038592305E+03  0.21073231619E+03  0.13039570963E+04  0.50400001928E-02 0. -1.
</event>
<event>
 5   0  0.2623263E-07  0.2594238E+04  0.7818609E-02  0.8370161E-01
        1   -1    0    0  501    0  0.00000000000E+00  0.00000000000E+00  0.10163792056E+04  0.10163792056E+04  0.50400001928E-02 0.  1.
       -1   -1    0    0    0  501  0.00000000000E+00  0.00000000000E+00 -0.16554036791E+04  0.16554036791E+04  0.50400001928E-02 0. -1.
    10030    2    1    2    0    0  0.00000000000E+00  0.00000000000E+00 -0.63902447351E+03  0.26717828847E+04  0.25942381358E+04 0.  0.
        1    1    3    3  502    0  0.85061298550E+03 -0.85108921942E+03  0.17934492806E+03  0.12165771302E+04  0.50400001928E-02 0.  1.
       -1    1    3    3    0  502 -0.85061298550E+03  0.85108921942E+03 -0.81836940157E+03  0.14552057545E+04  0.50400001928E-02 0. -1.
</event>
<event>
 5   0  0.2793576E-07  0.2599771E+04  0.7818609E-02  0.8368279E-01
       -1   -1    0    0    0  501  0.00000000000E+00  0.00000000000E+00  0.74682045678E+03  0.74682045679E+03  0.50400001928E-02 0.  1.
        1   -1    0    0  501    0  0.00000000000E+00  0.00000000000E+00 -0.22625282084E+04  0.22625282085E+04  0.50400001928E-02 0. -1.
    10030    2    1    2    0    0  0.00000000000E+00  0.00000000000E+00 -0.15157077517E+04  0.30093486652E+04  0.25997710285E+04 0.  0.
        2    1    3    3  502    0  0.87157361241E+03 -0.26994084005E+03  0.31385518313E+03  0.96489050931E+03  0.25500000920E-02 0.  1.
       -2    1    3    3    0  502 -0.87157361241E+03  0.26994084005E+03 -0.18295629348E+04  0.20444581559E+04  0.25500000920E-02 0. -1.
</event>
<event>
 5   0  0.6768478E-07  0.2599003E+04  0.7818609E-02  0.8368540E-01
        2   -1    0    0  501    0  0.00000000000E+00  0.00000000000E+00  0.18473828474E+04  0.18473828474E+04  0.25500000920E-02 0.  1.
       -2   -1    0    0    0  501  0.00000000000E+00  0.00000000000E+00 -0.91410604608E+03  0.91410604608E+03  0.25500000920E-02 0. -1.
    10030    2    1    2    0    0  0.00000000000E+00  0.00000000000E+00  0.93327680127E+03  0.27614888934E+04  0.25990027551E+04 0.  0.
        4    1    3    3  502    0 -0.63994370828E+03 -0.93957496327E+03  0.11355807302E+04  0.16068211690E+04  0.12699999809E+01 0.  1.
       -4    1    3    3    0  502  0.63994370828E+03  0.93957496327E+03 -0.20230392891E+03  0.11546677245E+04  0.12699999809E+01 0. -1.
</event>
<event>
 5   0  0.6780984E-07  0.2600059E+04  0.7818609E-02  0.8368181E-01
       -2   -1    0    0    0  501  0.00000000000E+00  0.00000000000E+00  0.10500337594E+04  0.10500337594E+04  0.25500000920E-02 0.  1.
        2   -1    0    0  501    0  0.00000000000E+00  0.00000000000E+00 -0.16095454083E+04  0.16095454084E+04  0.25500000920E-02 0. -1.
    10030    2    1    2    0    0  0.00000000000E+00  0.00000000000E+00 -0.55951164894E+03  0.26595791678E+04  0.26000592425E+04 0.  0.
        2    1    3    3  502    0  0.11102432914E+03 -0.54757328563E+03 -0.14804730827E+04  0.15823916877E+04  0.25500000920E-02 0. -1.
       -2    1    3    3    0  502 -0.11102432914E+03  0.54757328563E+03  0.92096143372E+03  0.10771874801E+04  0.25500000920E-02 0.  1.
</event>
<event>
 5   0  0.6768478E-07  0.2599801E+04  0.7818609E-02  0.8368269E-01
       -2   -1    0    0    0  501  0.00000000000E+00  0.00000000000E+00  0.13244183128E+04  0.13244183128E+04  0.25500000920E-02 0. -1.
        2   -1    0    0  501    0  0.00000000000E+00  0.00000000000E+00 -0.12758366825E+04  0.12758366825E+04  0.25500000920E-02 0.  1.
    10030    2    1    2    0    0  0.00000000000E+00  0.00000000000E+00  0.48581630228E+02  0.26002549953E+04  0.25998011204E+04 0.  0.
        4    1    3    3  502    0 -0.12006859347E+03  0.93904484559E+03  0.91524269616E+03  0.13167735170E+04  0.12699999809E+01 0. -1.
       -4    1    3    3    0  502  0.12006859347E+03 -0.93904484559E+03 -0.86666106593E+03  0.12834814784E+04  0.12699999809E+01 0.  1.
</event>
<event>
 5   0  0.2793576E-07  0.2597379E+04  0.7818609E-02  0.8369092E-01
       -1   -1    0    0    0  501  0.00000000000E+00  0.00000000000E+00  0.18368939967E+04  0.18368939967E+04  0.50400001928E-02 0. -1.
        1   -1    0    0  501    0  0.00000000000E+00  0.00000000000E+00 -0.91817721865E+03  0.91817721867E+03  0.50400001928E-02 0.  1.
    10030    2    1    2    0    0  0.00000000000E+00  0.00000000000E+00  0.91871677802E+03  0.27550712153E+04  0.25973788487E+04 0.  0.
        2    1    3    3  502    0 -0.59619280534E+03  0.14934458318E+03 -0.75414659694E+03  0.97287550866E+03  0.25500000920E-02 0.  1.
       -2    1    3    3    0  502  0.59619280534E+03 -0.14934458318E+03  0.16728633750E+04  0.17821957067E+04  0.25500000920E-02 0. -1.
</event>
<event>
 5   0  0.7160320E-07  0.2601053E+04  0.7818609E-02  0.8367843E-01
       -2   -1    0    0    0  501  0.00000000000E+00  0.00000000000E+00  0.78251829837E+03  0.78251829837E+03  0.25500000920E-02 0. -1.
        2   -1    0    0  501    0  0.00000000000E+00  0.00000000000E+00 -0.21614444224E+04  0.21614444224E+04  0.25500000920E-02 0.  1.
    10030    2    1    2    0    0  0.00000000000E+00  0.00000000000E+00 -0.13789261240E+04  0.29439627208E+04  0.26010534877E+04 0.  0.
        1    1    3    3  502    0  0.50931269029E+03  0.84536176386E+03 -0.16480769041E+04  0.19209876132E+04  0.50400001928E-02 0.  1.
       -1    1    3    3    0  502 -0.50931269029E+03 -0.84536176386E+03  0.26915078005E+03  0.10229751076E+04  0.50400001928E-02 0. -1.
</event>
<event>
 5   0  0.2755061E-07  0.2599662E+04  0.7818609E-02  0.8368316E-01
        1   -1    0    0  501    0  0.00000000000E+00  0.00000000000E+00  0.12388777042E+04  0.12388777042E+04  0.50400001928E-02 0. -1.
       -1   -1    0    0    0  501  0.00000000000E+00  0.00000000000E+00 -0.13637831014E+04  0.13637831014E+04  0.50400001928E-02 0.  1.
    10030    2    1    2    0    0  0.00000000000E+00  0.00000000000E+00 -0.12490539725E+03  0.26026608056E+04  0.25996618839E+04 0.  0.
        4    1    3    3  502    0  0.30892592437E+03 -0.95218095934E+03 -0.89255033773E+03  0.13411679702E+04  0.12699999809E+01 0.  1.
       -4    1    3    3    0  502 -0.30892592437E+03  0.95218095934E+03  0.76764494049E+03  0.12614928353E+04  0.12699999809E+01 0. -1.
</event>
<event>
 5   0  0.2793576E-07  0.2599898E+04  0.7818609E-02  0.8368236E-01
       -1   -1    0    0    0  501  0.00000000000E+00  0.00000000000E+00  0.81476643111E+03  0.81476643113E+03  0.50400001928E-02 0.  1.
        1   -1    0    0  501    0  0.00000000000E+00  0.00000000000E+00 -0.20740511240E+04  0.20740511240E+04  0.50400001928E-02 0. -1.
    10030    2    1    2    0    0  0.00000000000E+00  0.00000000000E+00 -0.12592846929E+04  0.28888175552E+04  0.25998978690E+04 0.  0.
        2    1    3    3  502    0  0.44119910875E+03  0.96232690599E+03  0.20860546706E+03  0.10790023023E+04  0.25500000920E-02 0.  1.
       -2    1    3    3    0  502 -0.44119910875E+03 -0.96232690599E+03 -0.14678901600E+04  0.18098152528E+04  0.25500000920E-02 0. -1.
</event>
<event>
 5   0  0.2623263E-07  0.2602839E+04  0.7818609E-02  0.8367238E-01
       -1   -1    0    0    0  501  0.00000000000E+00  0.00000000000E+00  0.11841214823E+04  0.11841214823E+04  0.50400001928E-02 0. -1.
        1   -1    0    0  501    0  0.00000000000E+00  0.00000000000E+00 -0.14303368756E+04  0.14303368756E+04  0.50400001928E-02 0.  1.
    10030    2    1    2    0    0  0.00000000000E+00  0.00000000000E+00 -0.24621539333E+03  0.26144583579E+04  0.26028389280E+04 0.  0.
        1    1    3    3  502    0  0.28561685793E+03  0.12565713749E+03 -0.13922058660E+04  0.14267459056E+04  0.50400001928E-02 0.  1.
       -1    1    3    3    0  502 -0.28561685793E+03 -0.12565713749E+03  0.11459904727E+04  0.11877124523E+04  0.50400001928E-02 0. -1.
</event>
<event>
 5   0  0.7160320E-07  0.2600881E+04  0.7818609E-02  0.8367902E-01
       -2   -1    0    0    0  501  0.00000000000E+00  0.00000000000E+00  0.10040493394E+04  0.10040493394E+04  0.25500000920E-02 0.  1.
        2   -1    0    0  501    0  0.00000000000E+00  0.00000000000E+00 -0.16843249746E+04  0.16843249746E+04  0.25500000920E-02 0. -1.
    10030    2    1    2    0    0  0.00000000000E+00  0.00000000000E+00 -0.68027563523E+03  0.26883743140E+04  0.26008809108E+04 0.  0.
        1    1    3    3  502    0  0.10321115091E+04  0.74388087393E+03 -0.61759463653E+02  0.12737453251E+04  0.50400001928E-02 0.  1.
       -1    1    3    3    0  502 -0.10321115091E+04 -0.74388087393E+03 -0.61851617158E+03  0.14146289889E+04  0.50400001928E-02 0. -1.
</event>
<event>
 5   0  0.2641626E-07  0.2599907E+04  0.7818609E-02  0.8368233E-01
       -1   -1    0    0    0  501  0.00000000000E+00  0.00000000000E+00  0.76717615948E+03  0.76717615950E+03  0.50400001928E-02 0. -1.
        1   -1    0    0  501    0  0.00000000000E+00  0.00000000000E+00 -0.22027266918E+04  0.22027266918E+04  0.50400001928E-02 0.  1.
    10030    2    1    2    0    0  0.00000000000E+00  0.00000000000E+00 -0.14355505324E+04  0.29699028513E+04  0.25999072321E+04 0.  0.
        3    1    3    3  502    0 -0.50687046983E+03  0.42417330765E+03 -0.19964692971E+04  0.21030288473E+04  0.10100000352E+00 0.  1.
       -3    1    3    3    0  502  0.50687046983E+03 -0.42417330765E+03  0.56091876472E+03  0.86687400407E+03  0.10100000352E+00 0. -1.
</event>
<event>
 5   0  0.2864801E-07  0.2600123E+04  0.7818609E-02  0.8368159E-01
        1   -1    0    0  501    0  0.00000000000E+00  0.00000000000E+00  0.17666680865E+04  0.17666680865E+04  0.50400001928E-02 0.  1.
       -1   -1    0    0    0  501  0.00000000000E+00  0.00000000000E+00 -0.95669362243E+03  0.95669362244E+03  0.50400001928E-02 0. -1.
    10030    2    1    2    0    0  0.00000000000E+00  0.00000000000E+00  0.80997446406E+03  0.27233617089E+04  0.26001231442E+04 0.  0.
        5    1    3    3  502    0  0.11898257480E+04 -0.50139449118E+03  0.24594744256E+03  0.13143796944E+04  0.46999998093E+01 0. -1.
       -5    1    3    3    0  502 -0.11898257480E+04  0.50139449118E+03  0.56402702150E+03  0.14089820146E+04  0.46999998093E+01 0.  1.
</event>
<event>
 5   0  0.2641626E-07  0.2599457E+04  0.7818609E-02  0.8368386E-01
       -1   -1    0    0    0  501  0.00000000000E+00  0.00000000000E+00  0.13077802385E+04  0.13077802385E+04  0.50400001928E-02 0. -1.
        1   -1    0    0  501    0  0.00000000000E+00  0.00000000000E+00 -0.12917266312E+04  0.12917266312E+04  0.50400001928E-02 0.  1.
    10030    2    1    2    0    0  0.00000000000E+00  0.00000000000E+00  0.16053607222E+02  0.25995068697E+04  0.25994572986E+04 0.  0.
        3    1    3    3  502    0 -0.64688875456E+03 -0.11234665986E+04  0.10104627859E+03  0.13003278892E+04  0.10100000352E+00 0. -1.
       -3    1    3    3    0  502  0.64688875456E+03  0.11234665986E+04 -0.84992671370E+02  0.12991789805E+04  0.10100000352E+00 0.  1.
</event>
<event>
 5   0  0.6780984E-07  0.2600047E+04  0.7818609E-02  0.8368185E-01
        2   -1    0    0  501    0  0.00000000000E+00  0.00000000000E+00  0.20294627990E+04  0.20294627990E+04  0.25500000920E-02 0. -1.
       -2   -1    0    0    0  501  0.00000000000E+00  0.00000000000E+00 -0.83276247795E+03  0.83276247795E+03  0.25500000920E-02 0.  1.
    10030    2    1    2    0    0  0.00000000000E+00  0.00000000000E+00  0.11967003210E+04  0.28622252769E+04  0.26000465145E+04 0.  0.
        2    1    3    3  502    0  0.23548474049E+03  0.43205927467E+02 -0.80828444805E+03  0.84299677588E+03  0.25500000920E-02 0.  1.
       -2    1    3    3    0  502 -0.23548474049E+03 -0.43205927467E+02  0.20049847691E+04  0.20192285011E+04  0.25500000920E-02 0. -1.
</event>
<event>
 5   0  0.6780984E-07  0.2599260E+04  0.7818609E-02  0.8368452E-01
        2   -1    0    0  501    0  0.00000000000E+00  0.00000000000E+00  0.11589266223E+04  0.11589266223E+04  0.25500000920E-02 0. -1.
       -2   -1    0    0    0  501  0.00000000000E+00  0.00000000000E+00 -0.14574164355E+04  0.14574164355E+04  0.25500000920E-02 0.  1.
    10030    2    1    2    0    0  0.00000000000E+00  0.00000000000E+00 -0.29848981323E+03  0.26163430577E+04  0.25992604385E+04 0.  0.
        2    1    3    3  502    0 -0.69680168036E+03  0.80542396792E+03 -0.89898800202E+03  0.13937072066E+04  0.25500000920E-02 0.  1.
       -2    1    3    3    0  502  0.69680168036E+03 -0.80542396792E+03  0.60049818879E+03  0.12226358512E+04  0.25500000920E-02 0. -1.
</event>
<event>
 5   0  0.6768478E-07  0.2599818E+04  0.7818609E-02  0.8368263E-01
        2   -1    0    0  501    0  0.00000000000E+00  0.00000000000E+00  0.10143124379E+04  0.10143124379E+04  0.25500000920E-02 0. -1.
       -2   -1    0    0    0  501  0.00000000000E+00  0.00000000000E+00 -0.16659199449E+04  0.16659199449E+04  0.25500000920E-02 0.  1.
    10030    2    1    2    0    0  0.00000000000E+00  0.00000000000E+00 -0.65160750704E+03  0.26802323827E+04  0.25998179325E+04 0.  0.
        4    1    3    3  502    0 -0.32110014995E+03 -0.25143905525E+03 -0.15982558789E+04  0.16494697245E+04  0.12699999809E+01 0.  1.
       -4    1    3    3    0  502  0.32110014995E+03  0.25143905525E+03  0.94664837184E+03  0.10307626582E+04  0.12699999809E+01 0. -1.
</event>
<event>
 5   0  0.2294625E-07  0.2600241E+04  0.7818609E-02  0.8368119E-01
       -3   -1    0    0    0  501  0.00000000000E+00  0.00000000000E+00  0.14796519032E+04  0.14796519066E+04  0.10100000352E+00 0. -1.
        3   -1    0    0  501    0  0.00000000000E+00  0.00000000000E+00 -0.11423722795E+04  0.11423722840E+04  0.10100000352E+00 0.  1.
    10030    2    1    2    0    0  0.00000000000E+00  0.00000000000E+00  0.33727962364E+03  0.26220241906E+04  0.26002410103E+04 0.  0.
        3    1    3    3  502    0  0.94967825918E+03 -0.51187334870E+02 -0.72524243665E+03  0.11960290721E+04  0.10100000352E+00 0.  1.
       -3    1    3    3    0  502 -0.94967825918E+03  0.51187334870E+02  0.10625220603E+04  0.14259951185E+04  0.10100000352E+00 0. -1.
</event>
<event>
 5   0  0.2641626E-07  0.2601497E+04  0.7818609E-02  0.8367693E-01
       -1   -1    0    0    0  501  0.00000000000E+00  0.00000000000E+00  0.90450963201E+03  0.90450963203E+03  0.50400001928E-02 0.  1.
        1   -1    0    0  501    0  0.00000000000E+00  0.00000000000E+00 -0.18705684628E+04  0.18705684628E+04  0.50400001928E-02 0. -1.
    10030    2    1    2    0    0  0.00000000000E+00  0.00000000000E+00 -0.96605883077E+03  0.27750780948E+04  0.26014974088E+04 0.  0.
        3    1    3    3  502    0 -0.65996889639E+03 -0.11206485579E+04 -0.45835494482E+03  0.13789493828E+04  0.10100000352E+00 0.  1.
       -3    1    3    3    0  502  0.65996889639E+03  0.11206485579E+04 -0.50770388595E+03  0.13961287120E+04  0.10100000352E+00 0. -1.
</event>
<event>
 5   0  0.2755061E-07  0.2599882E+04  0.7818609E-02  0.8368241E-01
        1   -1    0    0  501    0  0.00000000000E+00  0.00000000000E+00  0.12875601345E+04  0.12875601345E+04  0.50400001928E-02 0. -1.
       -1   -1    0    0    0  501  0.00000000000E+00  0.00000000000E+00 -0.13124404882E+04  0.13124404883E+04  0.50400001928E-02 0.  1.
    10030    2    1    2    0    0  0.00000000000E+00  0.00000000000E+00 -0.24880353797E+02  0.26000006227E+04  0.25998815754E+04 0.  0.
        4    1    3    3  502    0 -0.19241039295E+03  0.74074639685E+03 -0.10632582255E+04  0.13100559723E+04  0.12699999809E+01 0.  1.
       -4    1    3    3    0  502  0.19241039295E+03 -0.74074639685E+03  0.10383778717E+04  0.12899446504E+04  0.12699999809E+01 0. -1.
</event>
<event>
 5   0  0.6599814E-07  0.2602998E+04  0.7818609E-02  0.8367184E-01
       -2   -1    0    0    0  501  0.00000000000E+00  0.00000000000E+00  0.77181770344E+03  0.77181770344E+03  0.25500000920E-02 0. -1.
        2   -1    0    0  501    0  0.00000000000E+00  0.00000000000E+00 -0.21946882838E+04  0.21946882838E+04  0.25500000920E-02 0.  1.
    10030    2    1    2    0    0  0.00000000000E+00  0.00000000000E+00 -0.14228705804E+04  0.29665059873E+04  0.26029977111E+04 0.  0.
        5    1    3    3  502    0 -0.10425404128E+04 -0.39123849530E+03  0.56386929337E+02  0.11149706939E+04  0.46999998093E+01 0. -1.
       -5    1    3    3    0  502  0.10425404128E+04  0.39123849530E+03 -0.14792575097E+04  0.18515352934E+04  0.46999998093E+01 0.  1.
</event>
<event>
 5   0  0.2641626E-07  0.2599085E+04  0.7818609E-02  0.8368512E-01
       -1   -1    0    0    0  501  0.00000000000E+00  0.00000000000E+00  0.11634225895E+04  0.11634225895E+04  0.50400001928E-02 0.  1.
        1   -1    0    0  501    0  0.00000000000E+00  0.00000000000E+00 -0.14515878510E+04  0.14515878511E+04  0.50400001928E-02 0. -1.
    10030    2    1    2    0    0  0.00000000000E+00  0.00000000000E+00 -0.28816526155E+03  0.26150104406E+04  0.25990845285E+04 0.  0.
        3    1    3    3  502    0 -0.12786802601E+04  0.20949538051E+03 -0.43981466318E+02  0.12964744122E+04  0.10100000352E+00 0.  1.
       -3    1    3    3    0  502  0.12786802601E+04 -0.20949538051E+03 -0.24418379523E+03  0.13185360283E+04  0.10100000352E+00 0. -1.
</event>
<event>
 5   0  0.2793576E-07  0.2599718E+04  0.7818609E-02  0.8368297E-01
       -1   -1    0    0    0  501  0.00000000000E+00  0.00000000000E+00  0.16851841842E+04  0.16851841842E+04  0.50400001928E-02 0.  1.
        1   -1    0    0  501    0  0.00000000000E+00  0.00000000000E+00 -0.10026399489E+04  0.10026399489E+04  0.50400001928E-02 0. -1.
    10030    2    1    2    0    0  0.00000000000E+00  0.00000000000E+00  0.68254423532E+03  0.26878241331E+04  0.25997176650E+04 0.  0.
        2    1    3    3  502    0  0.67899786825E+02 -0.11633574559E+04 -0.25411077609E+03  0.11927209388E+04  0.25500000920E-02 0. -1.
       -2    1    3    3    0  502 -0.67899786825E+02  0.11633574559E+04  0.93665501141E+03  0.14951031943E+04  0.25500000920E-02 0.  1.
</event>
<event>
 5   0  0.6526351E-07  0.2600113E+04  0.7818609E-02  0.8368163E-01
       -2   -1    0    0    0  501  0.00000000000E+00  0.00000000000E+00  0.64557559484E+03  0.64557559485E+03  0.25500000920E-02 0. -1.
        2   -1    0    0  501    0  0.00000000000E+00  0.00000000000E+00 -0.26180467805E+04  0.26180467805E+04  0.25500000920E-02 0.  1.
    10030    2    1    2    0    0  0.00000000000E+00  0.00000000000E+00 -0.19724711857E+04  0.32636223754E+04  0.26001131573E+04 0.  0.
        3    1    3    3  502    0  0.59586177073E+03  0.72738519446E+03 -0.21131137458E+04  0.23128748743E+04  0.10100000352E+00 0.  1.
       -3    1    3    3    0  502 -0.59586177073E+03 -0.72738519446E+03  0.14064256016E+03  0.95074750111E+03  0.10100000352E+00 0. -1.
</event>
<event>
 5   0  0.2641626E-07  0.2600174E+04  0.7818609E-02  0.8368142E-01
        1   -1    0    0  501    0  0.00000000000E+00  0.00000000000E+00  0.12067242258E+04  0.12067242258E+04  0.50400001928E-02 0. -1.
       -1   -1    0    0    0  501  0.00000000000E+00  0.00000000000E+00 -0.14006734822E+04  0.14006734823E+04  0.50400001928E-02 0.  1.
    10030    2    1    2    0    0  0.00000000000E+00  0.00000000000E+00 -0.19394925644E+03  0.26073977081E+04  0.26001743199E+04 0.  0.
        3    1    3    3  502    0  0.37226382626E+03  0.96848287096E+03 -0.88253278443E+03  0.13621319883E+04  0.10100000352E+00 0. -1.
       -3    1    3    3    0  502 -0.37226382626E+03 -0.96848287096E+03  0.68858352800E+03  0.12452657198E+04  0.10100000352E+00 0.  1.
</event>
<event>
 5   0  0.2641626E-07  0.2598987E+04  0.7818609E-02  0.8368545E-01
       -1   -1    0    0    0  501  0.00000000000E+00  0.00000000000E+00  0.13262969475E+04  0.13262969475E+04  0.50400001928E-02 0.  1.
        1   -1    0    0  501    0  0.00000000000E+00  0.00000000000E+00 -0.12732316373E+04  0.12732316373E+04  0.50400001928E-02 0. -1.
    10030    2    1    2    0    0  0.00000000000E+00  0.00000000000E+00  0.53065310191E+02  0.25995285848E+04  0.25989869057E+04 0.  0.
        3    1    3    3  502    0  0.11607581413E+04  0.44831893042E+03 -0.34815708380E+03  0.12921155874E+04  0.10100000352E+00 0. -1.
       -3    1    3    3    0  502 -0.11607581413E+04 -0.44831893042E+03  0.40122239399E+03  0.13074129974E+04  0.10100000352E+00 0.  1.
</event>
<event>
 5   0  0.2641626E-07  0.2599545E+04  0.7818609E-02  0.8368356E-01
        1   -1    0    0  501    0  0.00000000000E+00  0.00000000000E+00  0.16136471096E+04  0.16136471096E+04  0.50400001928E-02 0. -1.
       -1   -1    0    0    0  501  0.00000000000E+00  0.00000000000E+00 -0.10469504506E+04  0.10469504506E+04  0.50400001928E-02 0.  1.
    10030    2    1    2    0    0  0.00000000000E+00  0.00000000000E+00  0.56669665898E+03  0.26605975602E+04  0.25995450129E+04 0.  0.
        3    1    3    3  502    0  0.53648411731E+03 -0.11602133092E+04  0.52446219466E+03  0.13816550708E+04  0.10100000352E+00 0. -1.
       -3    1    3    3    0  502 -0.53648411731E+03  0.11602133092E+04  0.42234464325E+02  0.12789424894E+04  0.10100000352E+00 0.  1.
</event>
<event>
 5   0  0.2294625E-07  0.2603277E+04  0.7818609E-02  0.8367089E-01
       -4   -1    0    0    0  501  0.00000000000E+00  0.00000000000E+00  0.10041162837E+04  0.10041170868E+04  0.12699999809E+01 0.  1.
        4   -1    0    0  501    0  0.00000000000E+00  0.00000000000E+00 -0.16873150254E+04  0.16873155034E+04  0.12699999809E+01 0. -1.
    10030    2    1    2    0    0  0.00000000000E+00  0.00000000000E+00 -0.68319874173E+03  0.26914325902E+04  0.26032765637E+04 0.  0.
        3    1    3    3  502    0  0.37674597319E+03  0.31671249904E+03 -0.15874018166E+04  0.16619533305E+04  0.10100000352E+00 0. -1.
       -3    1    3    3    0  502 -0.37674597319E+03 -0.31671249904E+03  0.90420307485E+03  0.10294792597E+04  0.10100000352E+00 0.  1.
</event>
<event>
 5   0  0.2755061E-07  0.2602277E+04  0.7818609E-02  0.8367428E-01
        1   -1    0    0  501    0  0.00000000000E+00  0.00000000000E+00  0.14222894556E+04  0.14222894556E+04  0.50400001928E-02 0.  1.
       -1   -1    0    0    0  501  0.00000000000E+00  0.00000000000E+00 -0.11903076062E+04  0.11903076062E+04  0.50400001928E-02 0. -1.
    10030    2    1    2    0    0  0.00000000000E+00  0.00000000000E+00  0.23198184934E+03  0.26125970618E+04  0.26022774312E+04 0.  0.
        4    1    3    3  502    0  0.64715272140E+03 -0.77102563406E+02 -0.10146227560E+04  0.12059072933E+04  0.12699999809E+01 0. -1.
       -4    1    3    3    0  502 -0.64715272140E+03  0.77102563406E+02  0.12466046053E+04  0.14066897686E+04  0.12699999809E+01 0.  1.
</event>
<event>
 5   0  0.2755061E-07  0.2600551E+04  0.7818609E-02  0.8368014E-01
        1   -1    0    0  501    0  0.00000000000E+00  0.00000000000E+00  0.15119459168E+04  0.15119459168E+04  0.50400001928E-02 0.  1.
       -1   -1    0    0    0  501  0.00000000000E+00  0.00000000000E+00 -0.11182387280E+04  0.11182387280E+04  0.50400001928E-02 0. -1.
    10030    2    1    2    0    0  0.00000000000E+00  0.00000000000E+00  0.39370718884E+03  0.26301846449E+04  0.26005510792E+04 0.  0.
        4    1    3    3  502    0  0.10938178664E+04  0.69769016569E+03  0.10923049980E+03  0.13019761930E+04  0.12699999809E+01 0.  1.
       -4    1    3    3    0  502 -0.10938178664E+04 -0.69769016569E+03  0.28447668904E+03  0.13282084519E+04  0.12699999809E+01 0. -1.
</event>
<event>
 5   0  0.6526351E-07  0.2596102E+04  0.7818609E-02  0.8369526E-01
       -2   -1    0    0    0  501  0.00000000000E+00  0.00000000000E+00  0.74857285182E+03  0.74857285183E+03  0.25500000920E-02 0. -1.
        2   -1    0    0  501    0  0.00000000000E+00  0.00000000000E+00 -0.22508656716E+04  0.22508656716E+04  0.25500000920E-02 0.  1.
    10030    2    1    2    0    0  0.00000000000E+00  0.00000000000E+00 -0.15022928197E+04  0.29994385234E+04  0.25961024131E+04 0.  0.
        3    1    3    3  502    0 -0.93700809287E+03  0.49944381161E+03  0.11152209835E+03  0.10676448266E+04  0.10100000352E+00 0. -1.
       -3    1    3    3    0  502  0.93700809287E+03 -0.49944381161E+03 -0.16138149181E+04  0.19317936968E+04  0.10100000352E+00 0.  1.
</event>
<event>
 5   0  0.6768478E-07  0.2597693E+04  0.7818609E-02  0.8368985E-01
       -2   -1    0    0    0  501  0.00000000000E+00  0.00000000000E+00  0.93774400630E+03  0.93774400630E+03  0.25500000920E-02 0.  1.
        2   -1    0    0  501    0  0.00000000000E+00  0.00000000000E+00 -0.17990007318E+04  0.17990007318E+04  0.25500000920E-02 0. -1.
    10030    2    1    2    0    0  0.00000000000E+00  0.00000000000E+00 -0.86125672545E+03  0.27367447381E+04  0.25976929407E+04 0.  0.
        4    1    3    3  502    0  0.93266345884E+03  0.84028436103E+03 -0.79530284922E+02  0.12578813990E+04  0.12699999809E+01 0. -1.
       -4    1    3    3    0  502 -0.93266345884E+03 -0.84028436103E+03 -0.78172644053E+03  0.14788633390E+04  0.12699999809E+01 0.  1.
</event>
<event>
 5   0  0.6768478E-07  0.2601274E+04  0.7818609E-02  0.8367768E-01
       -2   -1    0    0    0  501  0.00000000000E+00  0.00000000000E+00  0.15415416816E+04  0.15415416816E+04  0.25500000920E-02 0. -1.
        2   -1    0    0  501    0  0.00000000000E+00  0.00000000000E+00 -0.10973801344E+04  0.10973801344E+04  0.25500000920E-02 0.  1.
    10030    2    1    2    0    0  0.00000000000E+00  0.00000000000E+00  0.44416154719E+03  0.26389218160E+04  0.26012744706E+04 0.  0.
        4    1    3    3  502    0  0.17577426249E+03 -0.50200401361E+03  0.14261666463E+04  0.15221227076E+04  0.12699999809E+01 0. -1.
       -4    1    3    3    0  502 -0.17577426249E+03  0.50200401361E+03 -0.98200509912E+03  0.11167991084E+04  0.12699999809E+01 0.  1.
</event>
<event>
 5   0  0.2864801E-07  0.2600779E+04  0.7818609E-02  0.8367937E-01
        1   -1    0    0  501    0  0.00000000000E+00  0.00000000000E+00  0.99102460904E+03  0.99102460906E+03  0.50400001928E-02 0.  1.
       -1   -1    0    0    0  501  0.00000000000E+00  0.00000000000E+00 -0.17063272716E+04  0.17063272716E+04  0.50400001928E-02 0. -1.
    10030    2    1    2    0    0  0.00000000000E+00  0.00000000000E+00 -0.71530266256E+03  0.26973518807E+04  0.26007785890E+04 0.  0.
        5    1    3    3  502    0 -0.42116088559E+03 -0.11349123783E+04 -0.85024844707E+03  0.14793062934E+04  0.46999998093E+01 0. -1.
       -5    1    3    3    0  502  0.42116088559E+03  0.11349123783E+04  0.13494578451E+03  0.12180455873E+04  0.46999998093E+01 0.  1.
</event>
<event>
 5   0  0.2641626E-07  0.2586387E+04  0.7818609E-02  0.8372840E-01
        1   -1    0    0  501    0  0.00000000000E+00  0.00000000000E+00  0.23434223569E+04  0.23434223569E+04  0.50400001928E-02 0. -1.
       -1   -1    0    0    0  501  0.00000000000E+00  0.00000000000E+00 -0.71363574748E+03  0.71363574750E+03  0.50400001928E-02 0.  1.
    10030    2    1    2    0    0  0.00000000000E+00  0.00000000000E+00  0.16297866094E+04  0.30570581044E+04  0.25863874152E+04 0.  0.
        3    1    3    3  502    0  0.10163955054E+04  0.32596834572E+03  0.16778477776E+04  0.19885895406E+04  0.10100000352E+00 0. -1.
       -3    1    3    3    0  502 -0.10163955054E+04 -0.32596834572E+03 -0.48061168180E+02  0.10684685638E+04  0.10100000352E+00 0.  1.
</event>
<event>
 5   0  0.6768478E-07  0.2604543E+04  0.7818609E-02  0.8366660E-01
       -2   -1    0    0    0  501  0.00000000000E+00  0.00000000000E+00  0.10092563675E+04  0.10092563675E+04  0.25500000920E-02 0. -1.
        2   -1    0    0  501    0  0.00000000000E+00  0.00000000000E+00 -0.16803575824E+04  0.16803575824E+04  0.25500000920E-02 0.  1.
    10030    2    1    2    0    0  0.00000000000E+00  0.00000000000E+00 -0.67110121499E+03  0.26896139499E+04  0.26045434070E+04 0.  0.
        4    1    3    3  502    0  0.12975702502E+04  0.53562191658E+01 -0.22152329492E+03  0.13163553572E+04  0.12699999809E+01 0. -1.
       -4    1    3    3    0  502 -0.12975702502E+04 -0.53562191658E+01 -0.44957792007E+03  0.13732585927E+04  0.12699999809E+01 0.  1.
</event>
<event>
 5   0  0.6599814E-07  0.2610594E+04  0.7818609E-02  0.8364612E-01
        2   -1    0    0  501    0  0.00000000000E+00  0.00000000000E+00  0.13327371406E+04  0.13327371406E+04  0.25500000920E-02 0. -1.
       -2   -1    0    0    0  501  0.00000000000E+00  0.00000000000E+00 -0.12784215052E+04  0.12784215052E+04  0.25500000920E-02 0.  1.
    10030    2    1    2    0    0  0.00000000000E+00  0.00000000000E+00  0.54315635389E+02  0.26111586459E+04  0.26105936654E+04 0.  0.
        5    1    3    3  502    0  0.37079857093E+02  0.13650466529E+03  0.13250400035E+04  0.13325770297E+04  0.46999998093E+01 0. -1.
       -5    1    3    3    0  502 -0.37079857093E+02 -0.13650466529E+03 -0.12707243681E+04  0.12785816161E+04  0.46999998093E+01 0.  1.
</event>
<event>
 5   0  0.2864801E-07  0.2602188E+04  0.7818609E-02  0.8367458E-01
        1   -1    0    0  501    0  0.00000000000E+00  0.00000000000E+00  0.29982593418E+04  0.29982593419E+04  0.50400001928E-02 0.  1.
       -1   -1    0    0    0  501  0.00000000000E+00  0.00000000000E+00 -0.56460947025E+03  0.56460947027E+03  0.50400001928E-02 0. -1.
    10030    2    1    2    0    0  0.00000000000E+00  0.00000000000E+00  0.24336498716E+04  0.35628688121E+04  0.26021880168E+04 0.  0.
        5    1    3    3  502    0 -0.12159190620E+04  0.20990869506E+03  0.17818554855E+04  0.21673836501E+04  0.46999998093E+01 0. -1.
       -5    1    3    3    0  502  0.12159190620E+04 -0.20990869506E+03  0.65179438612E+03  0.13954851620E+04  0.46999998093E+01 0.  1.
</event>
<event>
 5   0  0.2641626E-07  0.2598388E+04  0.7818609E-02  0.8368749E-01
        1   -1    0    0  501    0  0.00000000000E+00  0.00000000000E+00  0.11413757090E+04  0.11413757090E+04  0.50400001928E-02 0.  1.
       -1   -1    0    0    0  501  0.00000000000E+00  0.00000000000E+00 -0.14788342928E+04  0.14788342928E+04  0.50400001928E-02 0. -1.
    10030    2    1    2    0    0  0.00000000000E+00  0.00000000000E+00 -0.33745858372E+03  0.26202100018E+04  0.25983883770E+04 0.  0.
        3    1    3    3  502    0  0.10551087202E+03  0.14543800117E+03  0.11287859512E+04  0.11429971523E+04  0.10100000352E+00 0.  1.
       -3    1    3    3    0  502 -0.10551087202E+03 -0.14543800117E+03 -0.14662445349E+04  0.14772128495E+04  0.10100000352E+00 0. -1.
</event>
<event>
 5   0  0.6780984E-07  0.2600037E+04  0.7818609E-02  0.8368188E-01
        2   -1    0    0  501    0  0.00000000000E+00  0.00000000000E+00  0.13629555552E+04  0.13629555552E+04  0.25500000920E-02 0. -1.
       -2   -1    0    0    0  501  0.00000000000E+00  0.00000000000E+00 -0.12399880984E+04  0.12399880984E+04  0.25500000920E-02 0.  1.
    10030    2    1    2    0    0  0.00000000000E+00  0.00000000000E+00  0.12296745672E+03  0.26029436536E+04  0.26000374360E+04 0.  0.
        2    1    3    3  502    0  0.30301329833E+03 -0.12637184493E+04  0.96840183132E+02  0.13031421255E+04  0.25500000920E-02 0. -1.
       -2    1    3    3    0  502 -0.30301329833E+03  0.12637184493E+04  0.26127273592E+02  0.12998015281E+04  0.25500000920E-02 0.  1.
</event>
<event>
 5   0  0.6599814E-07  0.2598725E+04  0.7818609E-02  0.8368635E-01
       -2   -1    0    0    0  501  0.00000000000E+00  0.00000000000E+00  0.20445549342E+04  0.20445549342E+04  0.25500000920E-02 0.  1.
        2   -1    0    0  501    0  0.00000000000E+00  0.00000000000E+00 -0.82577500012E+03  0.82577500012E+03  0.25500000920E-02 0. -1.
    10030    2    1    2    0    0  0.00000000000E+00  0.00000000000E+00  0.12187799341E+04  0.28703299343E+04  0.25987245726E+04 0.  0.
        5    1    3    3  502    0  0.42317078936E+03  0.76205832890E+03  0.16736941272E+04  0.18870825459E+04  0.46999998093E+01 0.  1.
       -5    1    3    3    0  502 -0.42317078936E+03 -0.76205832890E+03 -0.45491419317E+03  0.98324738838E+03  0.46999998093E+01 0. -1.
</event>
<event>
 5   0  0.7160320E-07  0.2600740E+04  0.7818609E-02  0.8367950E-01
       -2   -1    0    0    0  501  0.00000000000E+00  0.00000000000E+00  0.92477485846E+03  0.92477485846E+03  0.25500000920E-02 0. -1.
        2   -1    0    0  501    0  0.00000000000E+00  0.00000000000E+00 -0.18285120937E+04  0.18285120937E+04  0.25500000920E-02 0.  1.
    10030    2    1    2    0    0  0.00000000000E+00  0.00000000000E+00 -0.90373723529E+03  0.27532869522E+04  0.26007399045E+04 0.  0.
        1    1    3    3  502    0 -0.21613431123E+03 -0.11481466213E+04 -0.10563295314E+04  0.15750513589E+04  0.50400001928E-02 0.  1.
       -1    1    3    3    0  502  0.21613431123E+03  0.11481466213E+04  0.15259229610E+03  0.11782355933E+04  0.50400001928E-02 0. -1.
</event>
<event>
 5   0  0.6768478E-07  0.2599831E+04  0.7818609E-02  0.8368259E-01
        2   -1    0    0  501    0  0.00000000000E+00  0.00000000000E+00  0.56353450174E+03  0.56353450174E+03  0.25500000920E-02 0.  1.
       -2   -1    0    0    0  501  0.00000000000E+00  0.00000000000E+00 -0.29985382069E+04  0.29985382069E+04  0.25500000920E-02 0. -1.
    10030    2    1    2    0    0  0.00000000000E+00  0.00000000000E+00 -0.24350037052E+04  0.35620727087E+04  0.25998305594E+04 0.  0.
        4    1    3    3  502    0  0.66316231463E+03  0.83745005117E+03 -0.20262382809E+03  0.10872740558E+04  0.12699999809E+01 0.  1.
       -4    1    3    3    0  502 -0.66316231463E+03 -0.83745005117E+03 -0.22323798771E+04  0.24747986529E+04  0.12699999809E+01 0. -1.
</event>
<event>
 5   0  0.6599814E-07  0.2600113E+04  0.7818609E-02  0.8368163E-01
        2   -1    0    0  501    0  0.00000000000E+00  0.00000000000E+00  0.11810031687E+04  0.11810031687E+04  0.25500000920E-02 0.  1.
       -2   -1    0    0    0  501  0.00000000000E+00  0.00000000000E+00 -0.14311111364E+04  0.14311111364E+04  0.25500000920E-02 0. -1.
    10030    2    1    2    0    0  0.00000000000E+00  0.00000000000E+00 -0.25010796770E+03  0.26121143051E+04  0.26001129105E+04 0.  0.
        5    1    3    3  502    0 -0.78312874442E+03  0.77722036732E+03 -0.81580496584E+03  0.13721960363E+04  0.46999998093E+01 0. -1.
       -5    1    3    3    0  502  0.78312874442E+03 -0.77722036732E+03  0.56569699814E+03  0.12399182688E+04  0.46999998093E+01 0.  1.
</event>
<event>
 5   0  0.6526351E-07  0.2600237E+04  0.7818609E-02  0.8368121E-01
        2   -1    0    0  501    0  0.00000000000E+00  0.00000000000E+00  0.16481428363E+04  0.16481428363E+04  0.25500000920E-02 0. -1.
       -2   -1    0    0    0  501  0.00000000000E+00  0.00000000000E+00 -0.10255833547E+04  0.10255833547E+04  0.25500000920E-02 0.  1.
    10030    2    1    2    0    0  0.00000000000E+00  0.00000000000E+00  0.62255948157E+03  0.26737261909E+04  0.26002368038E+04 0.  0.
        3    1    3    3  502    0 -0.12479168384E+04  0.11197885927E+03 -0.45620924047E+02  0.12537611333E+04  0.10100000352E+00 0.  1.
       -3    1    3    3    0  502  0.12479168384E+04 -0.11197885927E+03  0.66818040562E+03  0.14199650577E+04  0.10100000352E+00 0. -1.
</event>
<event>
 5   0  0.2755061E-07  0.2599746E+04  0.7818609E-02  0.8368288E-01
        1   -1    0    0  501    0  0.00000000000E+00  0.00000000000E+00  0.16528804086E+04  0.16528804086E+04  0.50400001928E-02 0. -1.
       -1   -1    0    0    0  501  0.00000000000E+00  0.00000000000E+00 -0.10222575270E+04  0.10222575270E+04  0.50400001928E-02 0.  1.
    10030    2    1    2    0    0  0.00000000000E+00  0.00000000000E+00  0.63062288162E+03  0.26751379356E+04  0.25997457099E+04 0.  0.
        4    1    3    3  502    0 -0.60907186064E+03 -0.91907341468E+03  0.10237562406E+04  0.15045740015E+04  0.12699999809E+01 0. -1.
       -4    1    3    3    0  502  0.60907186064E+03  0.91907341468E+03 -0.39313335899E+03  0.11705639341E+04  0.12699999809E+01 0.  1.
</event>
<event>
 5   0  0.6599814E-07  0.2600314E+04  0.7818609E-02  0.8368095E-01
       -2   -1    0    0    0  501  0.00000000000E+00  0.00000000000E+00  0.16503057550E+04  0.16503057550E+04  0.25500000920E-02 0.  1.
        2   -1    0    0  501    0  0.00000000000E+00  0.00000000000E+00 -0.10242999804E+04  0.10242999804E+04  0.25500000920E-02 0. -1.
    10030    2    1    2    0    0  0.00000000000E+00  0.00000000000E+00  0.62600577467E+03  0.26746057354E+04  0.26003139445E+04 0.  0.
        5    1    3    3  502    0  0.82982061196E+03  0.92148586360E+03 -0.88861019461E+02  0.12432444714E+04  0.46999998093E+01 0.  1.
       -5    1    3    3    0  502 -0.82982061196E+03 -0.92148586360E+03  0.71486679413E+03  0.14313612640E+04  0.46999998093E+01 0. -1.
</event>
<event>
 5   0  0.2864801E-07  0.2601084E+04  0.7818609E-02  0.8367833E-01
        1   -1    0    0  501    0  0.00000000000E+00  0.00000000000E+00  0.13620680877E+04  0.13620680877E+04  0.50400001928E-02 0. -1.
       -1   -1    0    0    0  501  0.00000000000E+00  0.00000000000E+00 -0.12417950239E+04  0.12417950239E+04  0.50400001928E-02 0.  1.
    10030    2    1    2    0    0  0.00000000000E+00  0.00000000000E+00  0.12027306385E+03  0.26038631116E+04  0.26010839076E+04 0.  0.
        5    1    3    3  502    0 -0.42730637093E+03  0.43556571355E+03 -0.10896022998E+04  0.12488248424E+04  0.46999998093E+01 0.  1.
       -5    1    3    3    0  502  0.42730637093E+03 -0.43556571355E+03  0.12098753636E+04  0.13550382692E+04  0.46999998093E+01 0. -1.
</event>
<event>
 5   0  0.2864801E-07  0.2601522E+04  0.7818609E-02  0.8367685E-01
       -1   -1    0    0    0  501  0.00000000000E+00  0.00000000000E+00  0.13269101630E+04  0.13269101630E+04  0.50400001928E-02 0.  1.
        1   -1    0    0  501    0  0.00000000000E+00  0.00000000000E+00 -0.12751267347E+04  0.12751267347E+04  0.50400001928E-02 0. -1.
    10030    2    1    2    0    0  0.00000000000E+00  0.00000000000E+00  0.51783428372E+02  0.26020368977E+04  0.26015215728E+04 0.  0.
        5    1    3    3  502    0 -0.63823892560E+02 -0.12147528401E+04  0.48669826879E+03  0.13101890118E+04  0.46999998093E+01 0.  1.
       -5    1    3    3    0  502  0.63823892560E+02  0.12147528401E+04 -0.43491484042E+03  0.12918478859E+04  0.46999998093E+01 0. -1.
</event>
<event>
 5   0  0.2864801E-07  0.2599830E+04  0.7818609E-02  0.8368259E-01
        1   -1    0    0  501    0  0.00000000000E+00  0.00000000000E+00  0.11487442890E+04  0.11487442890E+04  0.50400001928E-02 0. -1.
       -1   -1    0    0    0  501  0.00000000000E+00  0.00000000000E+00 -0.14709795813E+04  0.14709795813E+04  0.50400001928E-02 0.  1.
    10030    2    1    2    0    0  0.00000000000E+00  0.00000000000E+00 -0.32223529233E+03  0.26197238702E+04  0.25998302969E+04 0.  0.
        5    1    3    3  502    0 -0.66509962950E+03  0.79356112851E+03 -0.95304517240E+03  0.14072718190E+04  0.46999998093E+01 0.  1.
       -5    1    3    3    0  502  0.66509962950E+03 -0.79356112851E+03  0.63080988007E+03  0.12124520513E+04  0.46999998093E+01 0. -1.
</event>
<event>
 5   0  0.2623263E-07  0.2600117E+04  0.7818609E-02  0.8368162E-01
        1   -1    0    0  501    0  0.00000000000E+00  0.00000000000E+00  0.21024082465E+04  0.21024082465E+04  0.50400001928E-02 0. -1.
       -1   -1    0    0    0  501  0.00000000000E+00  0.00000000000E+00 -0.80391215809E+03  0.80391215811E+03  0.50400001928E-02 0.  1.
    10030    2    1    2    0    0  0.00000000000E+00  0.00000000000E+00  0.12984960884E+04  0.29063204046E+04  0.26001165748E+04 0.  0.
        1    1    3    3  502    0 -0.11447116642E+04  0.61079677735E+03  0.55765909866E+03  0.14122397699E+04  0.50400001928E-02 0.  1.
       -1    1    3    3    0  502  0.11447116642E+04 -0.61079677735E+03  0.74083698971E+03  0.14940806346E+04  0.50400001928E-02 0. -1.
</event>
<event>
 5   0  0.6526351E-07  0.2599294E+04  0.7818609E-02  0.8368441E-01
        2   -1    0    0  501    0  0.00000000000E+00  0.00000000000E+00  0.15529700531E+04  0.15529700531E+04  0.25500000920E-02 0.  1.
       -2   -1    0    0    0  501  0.00000000000E+00  0.00000000000E+00 -0.10876468044E+04  0.10876468044E+04  0.25500000920E-02 0. -1.
    10030    2    1    2    0    0  0.00000000000E+00  0.00000000000E+00  0.46532324878E+03  0.26406168575E+04  0.25992944547E+04 0.  0.
        3    1    3    3  502    0  0.36545139533E+03 -0.90269792977E+03 -0.64163885033E+03  0.11662412697E+04  0.10100000352E+00 0. -1.
       -3    1    3    3    0  502 -0.36545139533E+03  0.90269792977E+03  0.11069620991E+04  0.14743755878E+04  0.10100000352E+00 0.  1.
</event>
<event>
 5   0  0.2294625E-07  0.2600433E+04  0.7818609E-02  0.8368054E-01
        4   -1    0    0  501    0  0.00000000000E+00  0.00000000000E+00  0.10379187328E+04  0.10379195098E+04  0.12699999809E+01 0.  1.
       -4   -1    0    0    0  501  0.00000000000E+00  0.00000000000E+00 -0.16287995572E+04  0.16288000523E+04  0.12699999809E+01 0. -1.
    10030    2    1    2    0    0  0.00000000000E+00  0.00000000000E+00 -0.59088082434E+03  0.26667195621E+04  0.26004332475E+04 0.  0.
        2    1    3    3  502    0  0.97112452280E+03  0.66010229763E+03  0.27713362875E+03  0.12064911646E+04  0.25500000920E-02 0.  1.
       -2    1    3    3    0  502 -0.97112452280E+03 -0.66010229763E+03 -0.86801445309E+03  0.14602283975E+04  0.25500000920E-02 0. -1.
</event>
<event>
 5   0  0.2755061E-07  0.2599580E+04  0.7818609E-02  0.8368344E-01
        1   -1    0    0  501    0  0.00000000000E+00  0.00000000000E+00  0.24816896133E+04  0.24816896133E+04  0.50400001928E-02 0. -1.
       -1   -1    0    0    0  501  0.00000000000E+00  0.00000000000E+00 -0.68076770297E+03  0.68076770299E+03  0.50400001928E-02 0.  1.
    10030    2    1    2    0    0  0.00000000000E+00  0.00000000000E+00  0.18009219103E+04  0.31624573163E+04  0.25995800719E+04 0.  0.
        4    1    3    3  502    0  0.69878430771E+03  0.37372801562E+03  0.21538256593E+04  0.22949812029E+04  0.12699999809E+01 0. -1.
       -4    1    3    3    0  502 -0.69878430771E+03 -0.37372801562E+03 -0.35290374894E+03  0.86747611337E+03  0.12699999809E+01 0.  1.
</event>
<event>
 5   0  0.6780984E-07  0.2599774E+04  0.7818609E-02  0.8368278E-01
        2   -1    0    0  501    0  0.00000000000E+00  0.00000000000E+00  0.64279114596E+03  0.64279114597E+03  0.25500000920E-02 0.  1.
       -2   -1    0    0    0  501  0.00000000000E+00  0.00000000000E+00 -0.26287009870E+04  0.26287009870E+04  0.25500000920E-02 0. -1.
    10030    2    1    2    0    0  0.00000000000E+00  0.00000000000E+00 -0.19859098410E+04  0.32714921329E+04  0.25997736208E+04 0.  0.
        2    1    3    3  502    0 -0.89101456751E+03 -0.71497781672E+03 -0.17733563972E+04  0.21094769848E+04  0.25500000920E-02 0. -1.
       -2    1    3    3    0  502  0.89101456751E+03  0.71497781672E+03 -0.21255344374E+03  0.11620151481E+04  0.25500000920E-02 0.  1.
</event>
<event>
 5   0  0.6780984E-07  0.2599055E+04  0.7818609E-02  0.8368522E-01
        2   -1    0    0  501    0  0.00000000000E+00  0.00000000000E+00  0.18880452880E+04  0.18880452880E+04  0.25500000920E-02 0.  1.
       -2   -1    0    0    0  501  0.00000000000E+00  0.00000000000E+00 -0.89445535295E+03  0.89445535295E+03  0.25500000920E-02 0. -1.
    10030    2    1    2    0    0  0.00000000000E+00  0.00000000000E+00  0.99358993505E+03  0.27825006410E+04  0.25990553780E+04 0.  0.
        2    1    3    3  502    0  0.12197984522E+04 -0.43632790948E+03  0.38718756925E+03  0.13521111353E+04  0.25500000920E-02 0.  1.
       -2    1    3    3    0  502 -0.12197984522E+04  0.43632790948E+03  0.60640236580E+03  0.14303895056E+04  0.25500000920E-02 0. -1.
</event>
<event>
 5   0  0.2623263E-07  0.2600187E+04  0.7818609E-02  0.8368138E-01
       -1   -1    0    0    0  501  0.00000000000E+00  0.00000000000E+00  0.13634866767E+04  0.13634866768E+04  0.50400001928E-02 0.  1.
        1   -1    0    0  501    0  0.00000000000E+00  0.00000000000E+00 -0.12396475408E+04  0.12396475408E+04  0.50400001928E-02 0. -1.
    10030    2    1    2    0    0  0.00000000000E+00  0.00000000000E+00  0.12383913593E+03  0.26031342176E+04  0.26001868439E+04 0.  0.
        1    1    3    3  502    0 -0.61256839684E+03  0.83247102432E+03  0.85148004681E+03  0.13391289398E+04  0.50400001928E-02 0.  1.
       -1    1    3    3    0  502  0.61256839684E+03 -0.83247102432E+03 -0.72764091088E+03  0.12640052778E+04  0.50400001928E-02 0. -1.
</event>
<event>
 5   0  0.6599814E-07  0.2600714E+04  0.7818609E-02  0.8367959E-01
       -2   -1    0    0    0  501  0.00000000000E+00  0.00000000000E+00  0.11989708431E+04  0.11989708431E+04  0.25500000920E-02 0. -1.
        2   -1    0    0  501    0  0.00000000000E+00  0.00000000000E+00 -0.14103163979E+04  0.14103163979E+04  0.25500000920E-02 0.  1.
    10030    2    1    2    0    0  0.00000000000E+00  0.00000000000E+00 -0.21134555482E+03  0.26092872410E+04  0.26007139333E+04 0.  0.
        5    1    3    3  502    0 -0.11366247031E+04 -0.32966319833E+03 -0.64625561894E+03  0.13484294402E+04  0.46999998093E+01 0.  1.
       -5    1    3    3    0  502  0.11366247031E+04  0.32966319833E+03  0.43491006412E+03  0.12608578009E+04  0.46999998093E+01 0. -1.
</event>
<event>
 5   0  0.2641626E-07  0.2600727E+04  0.7818609E-02  0.8367954E-01
       -1   -1    0    0    0  501  0.00000000000E+00  0.00000000000E+00  0.10177153082E+04  0.10177153082E+04  0.50400001928E-02 0.  1.
        1   -1    0    0  501    0  0.00000000000E+00  0.00000000000E+00 -0.16615107397E+04  0.16615107397E+04  0.50400001928E-02 0. -1.
    10030    2    1    2    0    0  0.00000000000E+00  0.00000000000E+00 -0.64379543146E+03  0.26792260479E+04  0.26007267558E+04 0.  0.
        3    1    3    3  502    0  0.31307727430E+03  0.40875921088E+03  0.90823098389E+03  0.10440234683E+04  0.10100000352E+00 0.  1.
       -3    1    3    3    0  502 -0.31307727430E+03 -0.40875921088E+03 -0.15520264153E+04  0.16352025796E+04  0.10100000352E+00 0. -1.
</event>
<event>
 5   0  0.6768478E-07  0.2599327E+04  0.7818609E-02  0.8368430E-01
       -2   -1    0    0    0  501  0.00000000000E+00  0.00000000000E+00  0.15894111089E+04  0.15894111089E+04  0.25500000920E-02 0. -1.
        2   -1    0    0  501    0  0.00000000000E+00  0.00000000000E+00 -0.10627367442E+04  0.10627367442E+04  0.25500000920E-02 0.  1.
    10030    2    1    2    0    0  0.00000000000E+00  0.00000000000E+00  0.52667436473E+03  0.26521478531E+04  0.25993272876E+04 0.  0.
        4    1    3    3  502    0 -0.35876570755E+03  0.12405082306E+04  0.11355327696E+03  0.12963292262E+04  0.12699999809E+01 0.  1.
       -4    1    3    3    0  502  0.35876570755E+03 -0.12405082306E+04  0.41312108776E+03  0.13558186269E+04  0.12699999809E+01 0. -1.
</event>
<event>
 5   0  0.2294625E-07  0.2598219E+04  0.7818609E-02  0.8368806E-01
       -4   -1    0    0    0  501  0.00000000000E+00  0.00000000000E+00  0.11838268052E+04  0.11838274864E+04  0.12699999809E+01 0.  1.
        4   -1    0    0  501    0  0.00000000000E+00  0.00000000000E+00 -0.14256174836E+04  0.14256180493E+04  0.12699999809E+01 0. -1.
    10030    2    1    2    0    0  0.00000000000E+00  0.00000000000E+00 -0.24179067839E+03  0.26094455357E+04  0.25982192501E+04 0.  0.
        4    1    3    3  502    0  0.12895826115E+04 -0.15660623892E+03 -0.10920981723E+03  0.13036399898E+04  0.12699999809E+01 0.  1.
       -4    1    3    3    0  502 -0.12895826115E+04  0.15660623892E+03 -0.13258086116E+03  0.13058055459E+04  0.12699999809E+01 0. -1.
</event>
<event>
 5   0  0.2623263E-07  0.2599698E+04  0.7818609E-02  0.8368304E-01
        1   -1    0    0  501    0  0.00000000000E+00  0.00000000000E+00  0.15161736352E+04  0.15161736352E+04  0.50400001928E-02 0.  1.
       -1   -1    0    0    0  501  0.00000000000E+00  0.00000000000E+00 -0.11143887923E+04  0.11143887923E+04  0.50400001928E-02 0. -1.
    10030    2    1    2    0    0  0.00000000000E+00  0.00000000000E+00  0.40178484299E+03  0.26305624275E+04  0.25996976026E+04 0.  0.
        1    1    3    3  502    0 -0.53426315232E+03  0.10041531124E+04  0.83752532898E+03  0.14125187665E+04  0.50400001928E-02 0.  1.
       -1    1    3    3    0  502  0.53426315232E+03 -0.10041531124E+04 -0.43574048599E+03  0.12180436610E+04  0.50400001928E-02 0. -1.
</event>
<event>
 5   0  0.2623263E-07  0.2604478E+04  0.7818609E-02  0.8366682E-01
        1   -1    0    0  501    0  0.00000000000E+00  0.00000000000E+00  0.14130971101E+04  0.14130971101E+04  0.50400001928E-02 0. -1.
       -1   -1    0    0    0  501  0.00000000000E+00  0.00000000000E+00 -0.12000774626E+04  0.12000774626E+04  0.50400001928E-02 0.  1.
    10030    2    1    2    0    0  0.00000000000E+00  0.00000000000E+00  0.21301964745E+03  0.26131745727E+04  0.26044776784E+04 0.  0.
        1    1    3    3  502    0  0.51916473078E+03 -0.10985415521E+04 -0.36356335982E+03  0.12682680616E+04  0.50400001928E-02 0.  1.
       -1    1    3    3    0  502 -0.51916473078E+03  0.10985415521E+04  0.57658300727E+03  0.13449065111E+04  0.50400001928E-02 0. -1.
</event>
<event>
 5   0  0.2641626E-07  0.2598648E+04  0.7818609E-02  0.8368661E-01
       -1   -1    0    0    0  501  0.00000000000E+00  0.00000000000E+00  0.10280200552E+04  0.10280200552E+04  0.50400001928E-02 0.  1.
        1   -1    0    0  501    0  0.00000000000E+00  0.00000000000E+00 -0.16422274086E+04  0.16422274086E+04  0.50400001928E-02 0. -1.
    10030    2    1    2    0    0  0.00000000000E+00  0.00000000000E+00 -0.61420735343E+03  0.26702474638E+04  0.25986478878E+04 0.  0.
        3    1    3    3  502    0 -0.88719155730E+03  0.94561381404E+03 -0.39275717697E+03  0.13548256548E+04  0.10100000352E+00 0. -1.
       -3    1    3    3    0  502  0.88719155730E+03 -0.94561381404E+03 -0.22145017646E+03  0.13154218090E+04  0.10100000352E+00 0.  1.
</event>
<event>
 5   0  0.6768478E-07  0.2601926E+04  0.7818609E-02  0.8367547E-01
       -2   -1    0    0    0  501  0.00000000000E+00  0.00000000000E+00  0.16950512761E+04  0.16950512761E+04  0.25500000920E-02 0. -1.
        2   -1    0    0  501    0  0.00000000000E+00  0.00000000000E+00 -0.99849758841E+03  0.99849758841E+03  0.25500000920E-02 0.  1.
    10030    2    1    2    0    0  0.00000000000E+00  0.00000000000E+00  0.69655368769E+03  0.26935488645E+04  0.26019259109E+04 0.  0.
        4    1    3    3  502    0  0.12555243400E+04  0.12969651577E+03  0.67455874241E+03  0.14311511676E+04  0.12699999809E+01 0. -1.
       -4    1    3    3    0  502 -0.12555243400E+04 -0.12969651577E+03  0.21994945282E+02  0.12623976969E+04  0.12699999809E+01 0.  1.
</event>
<event>
 5   0  0.7160320E-07  0.2599767E+04  0.7818609E-02  0.8368280E-01
        2   -1    0    0  501    0  0.00000000000E+00  0.00000000000E+00  0.26218477798E+04  0.26218477798E+04  0.25500000920E-02 0.  1.
       -2   -1    0    0    0  501  0.00000000000E+00  0.00000000000E+00 -0.64446796854E+03  0.64446796855E+03  0.25500000920E-02 0. -1.
    10030    2    1    2    0    0  0.00000000000E+00  0.00000000000E+00  0.19773798113E+04  0.32663157484E+04  0.25997668453E+04 0.  0.
        1    1    3    3  502    0 -0.87155159825E+03  0.17703268134E+03 -0.20239910905E+03  0.91208999449E+03  0.50400001928E-02 0. -1.
       -1    1    3    3    0  502  0.87155159825E+03 -0.17703268134E+03  0.21797789203E+04  0.23542257539E+04  0.50400001928E-02 0.  1.
</event>
<event>
 5   0  0.2294625E-07  0.2600244E+04  0.7818609E-02  0.8368118E-01
       -4   -1    0    0    0  501  0.00000000000E+00  0.00000000000E+00  0.90200119961E+03  0.90200209368E+03  0.12699999809E+01 0. -1.
        4   -1    0    0  501    0  0.00000000000E+00  0.00000000000E+00 -0.18739617792E+04  0.18739622096E+04  0.12699999809E+01 0.  1.
    10030    2    1    2    0    0  0.00000000000E+00  0.00000000000E+00 -0.97196057963E+03  0.27759643033E+04  0.26002443048E+04 0.  0.
        4    1    3    3  502    0  0.75281457298E+03  0.10503347411E+04 -0.63839797427E+03  0.14413488252E+04  0.12699999809E+01 0. -1.
       -4    1    3    3    0  502 -0.75281457298E+03 -0.10503347411E+04 -0.33356260536E+03  0.13346154780E+04  0.12699999809E+01 0.  1.
</event>
<event>
 5   0  0.2793576E-07  0.2612357E+04  0.7818609E-02  0.8364016E-01
        1   -1    0    0  501    0  0.00000000000E+00  0.00000000000E+00  0.22367662424E+04  0.22367662424E+04  0.50400001928E-02 0. -1.
       -1   -1    0    0    0  501  0.00000000000E+00  0.00000000000E+00 -0.76275372225E+03  0.76275372227E+03  0.50400001928E-02 0.  1.
    10030    2    1    2    0    0  0.00000000000E+00  0.00000000000E+00  0.14740125202E+04  0.29995199647E+04  0.26123566198E+04 0.  0.
        2    1    3    3  502    0 -0.67567650790E+02  0.11317351872E+04  0.14817582444E+04  0.18657431271E+04  0.25500000920E-02 0. -1.
       -2    1    3    3    0  502  0.67567650790E+02 -0.11317351872E+04 -0.77457242284E+01  0.11337768376E+04  0.25500000920E-02 0.  1.
</event>
<event>
 5   0  0.2294625E-07  0.2598912E+04  0.7818609E-02  0.8368571E-01
        3   -1    0    0  501    0  0.00000000000E+00  0.00000000000E+00  0.19752844691E+04  0.19752844717E+04  0.10100000352E+00 0.  1.
       -3   -1    0    0    0  501  0.00000000000E+00  0.00000000000E+00 -0.85485683215E+03  0.85485683811E+03  0.10100000352E+00 0. -1.
    10030    2    1    2    0    0  0.00000000000E+00  0.00000000000E+00  0.11204276370E+04  0.28301413098E+04  0.25989116460E+04 0.  0.
        2    1    3    3  502    0  0.43389963523E+02  0.21641764652E+02 -0.85387137617E+03  0.85524697132E+03  0.25500000920E-02 0. -1.
       -2    1    3    3    0  502 -0.43389963523E+02 -0.21641764652E+02  0.19742990132E+04  0.19748943385E+04  0.25500000920E-02 0.  1.
</event>
<event>
 5   0  0.6768478E-07  0.2599398E+04  0.7818609E-02  0.8368406E-01
       -2   -1    0    0    0  501  0.00000000000E+00  0.00000000000E+00  0.15029195690E+04  0.15029195691E+04  0.25500000920E-02 0.  1.
        2   -1    0    0  501    0  0.00000000000E+00  0.00000000000E+00 -0.11239571682E+04  0.11239571682E+04  0.25500000920E-02 0. -1.
    10030    2    1    2    0    0  0.00000000000E+00  0.00000000000E+00  0.37896240086E+03  0.26268767372E+04  0.25993977940E+04 0.  0.
        4    1    3    3  502    0 -0.35933260363E+03 -0.61219026864E+03  0.12897138497E+04  0.14721617683E+04  0.12699999809E+01 0.  1.
       -4    1    3    3    0  502  0.35933260363E+03  0.61219026864E+03 -0.91075144883E+03  0.11547149689E+04  0.12699999809E+01 0. -1.
</event>
<event>
 5   0  0.2641626E-07  0.2600086E+04  0.7818609E-02  0.8368172E-01
        1   -1    0    0  501    0  0.00000000000E+00  0.00000000000E+00  0.24798571275E+04  0.24798571275E+04  0.50400001928E-02 0.  1.
       -1   -1    0    0    0  501  0.00000000000E+00  0.00000000000E+00 -0.68153608415E+03  0.68153608416E+03  0.50400001928E-02 0. -1.
    10030    2    1    2    0    0  0.00000000000E+00  0.00000000000E+00  0.17983210433E+04  0.31613932117E+04  0.26000862416E+04 0.  0.
        3    1    3    3  502    0 -0.24342907382E+03 -0.13726886184E+03  0.24429029889E+04  0.24588362039E+04  0.10100000352E+00 0.  1.
       -3    1    3    3    0  502  0.24342907382E+03  0.13726886184E+03 -0.64458194554E+03  0.70255700774E+03  0.10100000352E+00 0. -1.
</event>
<event>
 5   0  0.6768478E-07  0.2599285E+04  0.7818609E-02  0.8368444E-01
       -2   -1    0    0    0  501  0.00000000000E+00  0.00000000000E+00  0.68915078944E+03  0.68915078945E+03  0.25500000920E-02 0. -1.
        2   -1    0    0  501    0  0.00000000000E+00  0.00000000000E+00 -0.24509446268E+04  0.24509446268E+04  0.25500000920E-02 0.  1.
    10030    2    1    2    0    0  0.00000000000E+00  0.00000000000E+00 -0.17617938374E+04  0.31400954163E+04  0.25992848435E+04 0.  0.
        4    1    3    3  502    0 -0.42067588150E+03  0.15132403656E+02 -0.23663072102E+04  0.24034576370E+04  0.12699999809E+01 0.  1.
       -4    1    3    3    0  502  0.42067588150E+03 -0.15132403656E+02  0.60451337286E+03  0.73663777923E+03  0.12699999809E+01 0. -1.
</event>
<event>
 5   0  0.2641626E-07  0.2601940E+04  0.7818609E-02  0.8367543E-01
       -1   -1    0    0    0  501  0.00000000000E+00  0.00000000000E+00  0.70929290779E+03  0.70929290780E+03  0.50400001928E-02 0. -1.
        1   -1    0    0  501    0  0.00000000000E+00  0.00000000000E+00 -0.23862110892E+04  0.23862110892E+04  0.50400001928E-02 0.  1.
    10030    2    1    2    0    0  0.00000000000E+00  0.00000000000E+00 -0.16769181814E+04  0.30955039970E+04  0.26019397395E+04 0.  0.
        3    1    3    3  502    0  0.71704657776E+03  0.42483511395E+02  0.45199195617E+03  0.84867978771E+03  0.10100000352E+00 0. -1.
       -3    1    3    3    0  502 -0.71704657776E+03 -0.42483511395E+02 -0.21289101375E+04  0.22468242093E+04  0.10100000352E+00 0.  1.
</event>
<event>
 5   0  0.2641626E-07  0.2599322E+04  0.7818609E-02  0.8368432E-01
       -1   -1    0    0    0  501  0.00000000000E+00  0.00000000000E+00  0.10874475818E+04  0.10874475818E+04  0.50400001928E-02 0.  1.
        1   -1    0    0  501    0  0.00000000000E+00  0.00000000000E+00 -0.15532870157E+04  0.15532870157E+04  0.50400001928E-02 0. -1.
    10030    2    1    2    0    0  0.00000000000E+00  0.00000000000E+00 -0.46583943385E+03  0.26407345975E+04  0.25993216108E+04 0.  0.
        3    1    3    3  502    0 -0.12057970360E+04 -0.31377261713E+03  0.14272588077E+03  0.12541014450E+04  0.10100000352E+00 0.  1.
       -3    1    3    3    0  502  0.12057970360E+04  0.31377261713E+03 -0.60856531462E+03  0.13866331525E+04  0.10100000352E+00 0. -1.
</event>
<event>
 5   0  0.6768478E-07  0.2601635E+04  0.7818609E-02  0.8367646E-01
        2   -1    0    0  501    0  0.00000000000E+00  0.00000000000E+00  0.14582454768E+04  0.14582454768E+04  0.25500000920E-02 0.  1.
       -2   -1    0    0    0  501  0.00000000000E+00  0.00000000000E+00 -0.11603849347E+04  0.11603849347E+04  0.25500000920E-02 0. -1.
    10030    2    1    2    0    0  0.00000000000E+00  0.00000000000E+00  0.29786054210E+03  0.26186304115E+04  0.26016349340E+04 0.  0.
        4    1    3    3  502    0  0.68747243292E+03 -0.51533365706E+03 -0.83414727634E+03  0.11974933886E+04  0.12699999809E+01 0. -1.
       -4    1    3    3    0  502 -0.68747243292E+03  0.51533365706E+03  0.11320078184E+04  0.14211370230E+04  0.12699999809E+01 0.  1.
</event>
<event>
 5   0  0.7160320E-07  0.2600410E+04  0.7818609E-02  0.8368062E-01
        2   -1    0    0  501    0  0.00000000000E+00  0.00000000000E+00  0.21026616431E+04  0.21026616431E+04  0.25500000920E-02 0. -1.
       -2   -1    0    0    0  501  0.00000000000E+00  0.00000000000E+00 -0.80399695794E+03  0.80399695794E+03  0.25500000920E-02 0.  1.
    10030    2    1    2    0    0  0.00000000000E+00  0.00000000000E+00  0.12986646851E+04  0.29066586010E+04  0.26004104019E+04 0.  0.
        1    1    3    3  502    0  0.12173430876E+04  0.32174079538E+03  0.28697468889E+03  0.12914316879E+04  0.50400001928E-02 0. -1.
       -1    1    3    3    0  502 -0.12173430876E+04 -0.32174079538E+03  0.10116899963E+04  0.16152269131E+04  0.50400001928E-02 0.  1.
</event>
<event>
 5   0  0.6780984E-07  0.2599536E+04  0.7818609E-02  0.8368359E-01
       -2   -1    0    0    0  501  0.00000000000E+00  0.00000000000E+00  0.71219080796E+03  0.71219080796E+03  0.25500000920E-02 0.  1.
        2   -1    0    0  501    0  0.00000000000E+00  0.00000000000E+00 -0.23721132282E+04  0.23721132282E+04  0.25500000920E-02 0. -1.
    10030    2    1    2    0    0  0.00000000000E+00  0.00000000000E+00 -0.16599224202E+04  0.30843040361E+04  0.25995362944E+04 0.  0.
        2    1    3    3  502    0  0.28736839159E+03  0.12171994303E+04 -0.41007015295E+03  0.13161734596E+04  0.25500000920E-02 0.  1.
       -2    1    3    3    0  502 -0.28736839159E+03 -0.12171994303E+04 -0.12498522673E+04  0.17681305765E+04  0.25500000920E-02 0. -1.
</event>
<event>
 5   0  0.6768478E-07  0.2600314E+04  0.7818609E-02  0.8368095E-01
       -2   -1    0    0    0  501  0.00000000000E+00  0.00000000000E+00  0.93598056412E+03  0.93598056412E+03  0.25500000920E-02 0.  1.
        2   -1    0    0  501    0  0.00000000000E+00  0.00000000000E+00 -0.18060289144E+04  0.18060289144E+04  0.25500000920E-02 0. -1.
    10030    2    1    2    0    0  0.00000000000E+00  0.00000000000E+00 -0.87004835029E+03  0.27420094785E+04  0.26003137981E+04 0.  0.
        4    1    3    3  502    0  0.11268740362E+04  0.52660602510E+03 -0.83412855114E+03  0.14976418303E+04  0.12699999809E+01 0. -1.
       -4    1    3    3    0  502 -0.11268740362E+04 -0.52660602510E+03 -0.35919799145E+02  0.12443676482E+04  0.12699999809E+01 0.  1.
</event>
<event>
 5   0  0.2623263E-07  0.2599446E+04  0.7818609E-02  0.8368390E-01
        1   -1    0    0  501    0  0.00000000000E+00  0.00000000000E+00  0.75051041029E+03  0.75051041031E+03  0.50400001928E-02 0. -1.
       -1   -1    0    0    0  501  0.00000000000E+00  0.00000000000E+00 -0.22508407345E+04  0.22508407345E+04  0.50400001928E-02 0.  1.
    10030    2    1    2    0    0  0.00000000000E+00  0.00000000000E+00 -0.15003303242E+04  0.30013511448E+04  0.25994456356E+04 0.  0.
        1    1    3    3  502    0  0.80306639359E+03  0.16266079406E+03  0.41473778540E+03  0.91835809852E+03  0.50400001928E-02 0. -1.
       -1    1    3    3    0  502 -0.80306639359E+03 -0.16266079406E+03 -0.19150681096E+04  0.20829930463E+04  0.50400001928E-02 0.  1.
</event>
<event>
 5   0  0.2641626E-07  0.2599625E+04  0.7818609E-02  0.8368329E-01
        1   -1    0    0  501    0  0.00000000000E+00  0.00000000000E+00  0.12884726314E+04  0.12884726314E+04  0.50400001928E-02 0.  1.
       -1   -1    0    0    0  501  0.00000000000E+00  0.00000000000E+00 -0.13112523608E+04  0.13112523608E+04  0.50400001928E-02 0. -1.
    10030    2    1    2    0    0  0.00000000000E+00  0.00000000000E+00 -0.22779729442E+02  0.25997249922E+04  0.25996251882E+04 0.  0.
        3    1    3    3  502    0 -0.76224686966E+03  0.33201737476E+03  0.98777658443E+03  0.12911074388E+04  0.10100000352E+00 0.  1.
       -3    1    3    3    0  502  0.76224686966E+03 -0.33201737476E+03 -0.10105563139E+04  0.13086175534E+04  0.10100000352E+00 0. -1.
</event>
<event>
 5   0  0.6780984E-07  0.2600921E+04  0.7818609E-02  0.8367889E-01
       -2   -1    0    0    0  501  0.00000000000E+00  0.00000000000E+00  0.61458806018E+03  0.61458806019E+03  0.25500000920E-02 0. -1.
        2   -1    0    0  501    0  0.00000000000E+00  0.00000000000E+00 -0.27517573313E+04  0.27517573313E+04  0.25500000920E-02 0.  1.
    10030    2    1    2    0    0  0.00000000000E+00  0.00000000000E+00 -0.21371692711E+04  0.33663453915E+04  0.26009207603E+04 0.  0.
        2    1    3    3  502    0  0.88451606919E+03 -0.80400040051E+03 -0.40556972096E+03  0.12622488341E+04  0.25500000920E-02 0. -1.
       -2    1    3    3    0  502 -0.88451606919E+03  0.80400040051E+03 -0.17315995502E+04  0.21040965574E+04  0.25500000920E-02 0.  1.
</event>
<event>
 5   0  0.2793576E-07  0.2599987E+04  0.7818609E-02  0.8368206E-01
       -1   -1    0    0    0  501  0.00000000000E+00  0.00000000000E+00  0.11439123573E+04  0.11439123573E+04  0.50400001928E-02 0.  1.
        1   -1    0    0  501    0  0.00000000000E+00  0.00000000000E+00 -0.14773711946E+04  0.14773711946E+04  0.50400001928E-02 0. -1.
    10030    2    1    2    0    0  0.00000000000E+00  0.00000000000E+00 -0.33345883732E+03  0.26212835519E+04  0.25999870505E+04 0.  0.
        2    1    3    3  502    0 -0.44142691249E+02  0.96485139313E+03  0.71051053163E+03  0.11990462892E+04  0.25500000920E-02 0.  1.
       -2    1    3    3    0  502  0.44142691249E+02 -0.96485139313E+03 -0.10439693690E+04  0.14222372627E+04  0.25500000920E-02 0. -1.
</event>
<event>
 5   0  0.2755061E-07  0.2602222E+04  0.7818609E-02  0.8367447E-01
       -1   -1    0    0    0  501  0.00000000000E+00  0.00000000000E+00  0.66849457972E+03  0.66849457974E+03  0.50400001928E-02 0.  1.
        1   -1    0    0  501    0  0.00000000000E+00  0.00000000000E+00 -0.25323907823E+04  0.25323907823E+04  0.50400001928E-02 0. -1.
    10030    2    1    2    0    0  0.00000000000E+00  0.00000000000E+00 -0.18638962026E+04  0.32008853621E+04  0.26022217521E+04 0.  0.
        4    1    3    3  502    0 -0.63219183320E+03  0.80719427511E+03  0.53373242763E+02  0.10266837038E+04  0.12699999809E+01 0.  1.
       -4    1    3    3    0  502  0.63219183320E+03 -0.80719427511E+03 -0.19172694454E+04  0.21742016582E+04  0.12699999809E+01 0. -1.
</event>
<event>
 5   0  0.2755061E-07  0.2598479E+04  0.7818609E-02  0.8368718E-01
       -1   -1    0    0    0  501  0.00000000000E+00  0.00000000000E+00  0.93126665539E+03  0.93126665541E+03  0.50400001928E-02 0.  1.
        1   -1    0    0  501    0  0.00000000000E+00  0.00000000000E+00 -0.18126099531E+04  0.18126099532E+04  0.50400001928E-02 0. -1.
    10030    2    1    2    0    0  0.00000000000E+00  0.00000000000E+00 -0.88134329776E+03  0.27438766086E+04  0.25984789463E+04 0.  0.
        4    1    3    3  502    0  0.12724583130E+04 -0.20756853340E+03 -0.61023953558E+03  0.14264041356E+04  0.12699999809E+01 0.  1.
       -4    1    3    3    0  502 -0.12724583130E+04  0.20756853340E+03 -0.27110376218E+03  0.13174724730E+04  0.12699999809E+01 0. -1.
</event>
<event>
 5   0  0.6780984E-07  0.2599701E+04  0.7818609E-02  0.8368303E-01
        2   -1    0    0  501    0  0.00000000000E+00  0.00000000000E+00  0.11489022669E+04  0.11489022669E+04  0.25500000920E-02 0.  1.
       -2   -1    0    0    0  501  0.00000000000E+00  0.00000000000E+00 -0.14706314039E+04  0.14706314039E+04  0.25500000920E-02 0. -1.
    10030    2    1    2    0    0  0.00000000000E+00  0.00000000000E+00 -0.32172913697E+03  0.26195336708E+04  0.25997013319E+04 0.  0.
        2    1    3    3  502    0 -0.35966545659E+03  0.63387946862E+03 -0.12453882765E+04  0.14429672140E+04  0.25500000920E-02 0. -1.
       -2    1    3    3    0  502  0.35966545659E+03 -0.63387946862E+03  0.92365913950E+03  0.11765664569E+04  0.25500000920E-02 0.  1.
</event>
<event>
 5   0  0.2623263E-07  0.2602433E+04  0.7818609E-02  0.8367375E-01
        1   -1    0    0  501    0  0.00000000000E+00  0.00000000000E+00  0.18667262859E+04  0.18667262859E+04  0.50400001928E-02 0. -1.
       -1   -1    0    0    0  501  0.00000000000E+00  0.00000000000E+00 -0.90702363702E+03  0.90702363704E+03  0.50400001928E-02 0.  1.
    10030    2    1    2    0    0  0.00000000000E+00  0.00000000000E+00  0.95970264888E+03  0.27737499229E+04  0.26024333730E+04 0.  0.
        1    1    3    3  502    0 -0.53734345206E+03  0.10868773477E+04 -0.23604447518E+02  0.12126819551E+04  0.50400001928E-02 0.  1.
       -1    1    3    3    0  502  0.53734345206E+03 -0.10868773477E+04  0.98330709640E+03  0.15610679678E+04  0.50400001928E-02 0. -1.
</event>
<event>
 5   0  0.6780984E-07  0.2599680E+04  0.7818609E-02  0.8368310E-01
       -2   -1    0    0    0  501  0.00000000000E+00  0.00000000000E+00  0.11552840270E+04  0.11552840270E+04  0.25500000920E-02 0.  1.
        2   -1    0    0  501    0  0.00000000000E+00  0.00000000000E+00 -0.14624842287E+04  0.14624842287E+04  0.25500000920E-02 0. -1.
    10030    2    1    2    0    0  0.00000000000E+00  0.00000000000E+00 -0.30720020167E+03  0.26177682558E+04  0.25996804952E+04 0.  0.
        2    1    3    3  502    0 -0.54600345874E+03 -0.17678568715E+03 -0.13279958655E+04  0.14467017574E+04  0.25500000920E-02 0. -1.
       -2    1    3    3    0  502  0.54600345874E+03  0.17678568715E+03  0.10207956639E+04  0.11710664983E+04  0.25500000920E-02 0.  1.
</event>
<event>
 5   0  0.6780984E-07  0.2601454E+04  0.7818609E-02  0.8367707E-01
       -2   -1    0    0    0  501  0.00000000000E+00  0.00000000000E+00  0.88271186171E+03  0.88271186171E+03  0.25500000920E-02 0. -1.
        2   -1    0    0  501    0  0.00000000000E+00  0.00000000000E+00 -0.19166970897E+04  0.19166970897E+04  0.25500000920E-02 0.  1.
    10030    2    1    2    0    0  0.00000000000E+00  0.00000000000E+00 -0.10339852280E+04  0.27994089514E+04  0.26014544058E+04 0.  0.
        2    1    3    3  502    0  0.21493363503E+03  0.10001129662E+04  0.34755271821E+03  0.10803773899E+04  0.25500000920E-02 0. -1.
       -2    1    3    3    0  502 -0.21493363503E+03 -0.10001129662E+04 -0.13815379462E+04  0.17190315615E+04  0.25500000920E-02 0.  1.
</event>
<event>
 5   0  0.6780984E-07  0.2600438E+04  0.7818609E-02  0.8368053E-01
       -2   -1    0    0    0  501  0.00000000000E+00  0.00000000000E+00  0.11483612262E+04  0.11483612262E+04  0.25500000920E-02 0. -1.
        2   -1    0    0  501    0  0.00000000000E+00  0.00000000000E+00 -0.14721579501E+04  0.14721579501E+04  0.25500000920E-02 0.  1.
    10030    2    1    2    0    0  0.00000000000E+00  0.00000000000E+00 -0.32379672397E+03  0.26205191763E+04  0.26004377391E+04 0.  0.
        2    1    3    3  502    0 -0.10269013236E+04 -0.29006096648E+03 -0.91054003233E+03  0.14027632884E+04  0.25500000920E-02 0.  1.
       -2    1    3    3    0  502  0.10269013236E+04  0.29006096648E+03  0.58674330836E+03  0.12177558879E+04  0.25500000920E-02 0. -1.
</event>
<event>
 5   0  0.7160320E-07  0.2590518E+04  0.7818609E-02  0.8371429E-01
        2   -1    0    0  501    0  0.00000000000E+00  0.00000000000E+00  0.22170765508E+04  0.22170765508E+04  0.25500000920E-02 0.  1.
       -2   -1    0    0    0  501  0.00000000000E+00  0.00000000000E+00 -0.75671514196E+03  0.75671514196E+03  0.25500000920E-02 0. -1.
    10030    2    1    2    0    0  0.00000000000E+00  0.00000000000E+00  0.14603614088E+04  0.29737916928E+04  0.25905176293E+04 0.  0.
        1    1    3    3  502    0 -0.31802602410E+03 -0.12233444473E+04  0.40552472846E+03  0.13274646866E+04  0.50400001928E-02 0.  1.
       -1    1    3    3    0  502  0.31802602410E+03  0.12233444473E+04  0.10548366804E+04  0.16463270061E+04  0.50400001928E-02 0. -1.
</event>
<event>
 5   0  0.2793576E-07  0.2600721E+04  0.7818609E-02  0.8367956E-01
        1   -1    0    0  501    0  0.00000000000E+00  0.00000000000E+00  0.12741683635E+04  0.12741683636E+04  0.50400001928E-02 0. -1.
       -1   -1    0    0    0  501  0.00000000000E+00  0.00000000000E+00 -0.13270905912E+04  0.13270905912E+04  0.50400001928E-02 0.  1.
    10030    2    1    2    0    0  0.00000000000E+00  0.00000000000E+00 -0.52922227627E+02  0.26012589547E+04  0.26007205516E+04 0.  0.
        2    1    3    3  502    0 -0.25687581459E+03 -0.12539539340E+04 -0.25574904353E+03  0.13052943063E+04  0.25500000920E-02 0.  1.
       -2    1    3    3    0  502  0.25687581459E+03  0.12539539340E+04  0.20282681590E+03  0.12959646484E+04  0.25500000920E-02 0. -1.
</event>
<event>
 5   0  0.6768478E-07  0.2600333E+04  0.7818609E-02  0.8368088E-01
       -2   -1    0    0    0  501  0.00000000000E+00  0.00000000000E+00  0.12692548167E+04  0.12692548167E+04  0.25500000920E-02 0.  1.
        2   -1    0    0  501    0  0.00000000000E+00  0.00000000000E+00 -0.13318308483E+04  0.13318308483E+04  0.25500000920E-02 0. -1.
    10030    2    1    2    0    0  0.00000000000E+00  0.00000000000E+00 -0.62576031601E+02  0.26010856650E+04  0.26003328396E+04 0.  0.
        4    1    3    3  502    0 -0.54575912613E+03  0.11068344761E+04 -0.44066867321E+03  0.13103915727E+04  0.12699999809E+01 0. -1.
       -4    1    3    3    0  502  0.54575912613E+03 -0.11068344761E+04  0.37809264161E+03  0.12906940923E+04  0.12699999809E+01 0.  1.
</event>
<event>
 5   0  0.6599814E-07  0.2599067E+04  0.7818609E-02  0.8368518E-01
       -2   -1    0    0    0  501  0.00000000000E+00  0.00000000000E+00  0.10637026576E+04  0.10637026576E+04  0.25500000920E-02 0. -1.
        2   -1    0    0  501    0  0.00000000000E+00  0.00000000000E+00 -0.15876502025E+04  0.15876502025E+04  0.25500000920E-02 0.  1.
    10030    2    1    2    0    0  0.00000000000E+00  0.00000000000E+00 -0.52394754486E+03  0.26513528601E+04  0.25990673248E+04 0.  0.
        5    1    3    3  502    0 -0.47035827392E+03  0.12045673668E+03  0.96768789683E+03  0.10826766308E+04  0.46999998093E+01 0. -1.
       -5    1    3    3    0  502  0.47035827392E+03 -0.12045673668E+03 -0.14916354417E+04  0.15686762292E+04  0.46999998093E+01 0.  1.
</event>
<event>
 5   0  0.2641626E-07  0.2598998E+04  0.7818609E-02  0.8368542E-01
       -1   -1    0    0    0  501  0.00000000000E+00  0.00000000000E+00  0.85624569656E+03  0.85624569657E+03  0.50400001928E-02 0. -1.
        1   -1    0    0  501    0  0.00000000000E+00  0.00000000000E+00 -0.19722117702E+04  0.19722117702E+04  0.50400001928E-02 0.  1.
    10030    2    1    2    0    0  0.00000000000E+00  0.00000000000E+00 -0.11159660736E+04  0.28284574667E+04  0.25989981462E+04 0.  0.
        3    1    3    3  502    0 -0.98519106130E+03  0.29179549800E+03 -0.14238057991E+04  0.17558385471E+04  0.10100000352E+00 0.  1.
       -3    1    3    3    0  502  0.98519106130E+03 -0.29179549800E+03  0.30783972548E+03  0.10726189196E+04  0.10100000352E+00 0. -1.
</event>
<event>
 5   0  0.6599814E-07  0.2600763E+04  0.7818609E-02  0.8367942E-01
       -2   -1    0    0    0  501  0.00000000000E+00  0.00000000000E+00  0.16747236426E+04  0.16747236426E+04  0.25500000920E-02 0. -1.
        2   -1    0    0  501    0  0.00000000000E+00  0.00000000000E+00 -0.10097144647E+04  0.10097144647E+04  0.25500000920E-02 0.  1.
    10030    2    1    2    0    0  0.00000000000E+00  0.00000000000E+00  0.66500917786E+03  0.26844381073E+04  0.26007634927E+04 0.  0.
        5    1    3    3  502    0  0.30076523948E+03  0.11608681963E+04  0.85157159877E+03  0.14708062334E+04  0.46999998093E+01 0. -1.
       -5    1    3    3    0  502 -0.30076523948E+03 -0.11608681963E+04 -0.18656242091E+03  0.12136318739E+04  0.46999998093E+01 0.  1.
</event>
<event>
 5   0  0.2864801E-07  0.2599593E+04  0.7818609E-02  0.8368339E-01
        1   -1    0    0  501    0  0.00000000000E+00  0.00000000000E+00  0.15698794654E+04  0.15698794654E+04  0.50400001928E-02 0. -1.
       -1   -1    0    0    0  501  0.00000000000E+00  0.00000000000E+00 -0.10761788461E+04  0.10761788461E+04  0.50400001928E-02 0.  1.
    10030    2    1    2    0    0  0.00000000000E+00  0.00000000000E+00  0.49370061931E+03  0.26460583116E+04  0.25995931002E+04 0.  0.
        5    1    3    3  502    0  0.77421588528E+03 -0.66294872189E+03 -0.57412535168E+03  0.11698518087E+04  0.46999998093E+01 0.  1.
       -5    1    3    3    0  502 -0.77421588528E+03  0.66294872189E+03  0.10678259710E+04  0.14762065029E+04  0.46999998093E+01 0. -1.
</event>
<event>
 5   0  0.6599814E-07  0.2599744E+04  0.7818609E-02  0.8368288E-01
        2   -1    0    0  501    0  0.00000000000E+00  0.00000000000E+00  0.13869886993E+04  0.13869886993E+04  0.25500000920E-02 0. -1.
       -2   -1    0    0    0  501  0.00000000000E+00  0.00000000000E+00 -0.12182273687E+04  0.12182273687E+04  0.25500000920E-02 0.  1.
    10030    2    1    2    0    0  0.00000000000E+00  0.00000000000E+00  0.16876133058E+03  0.26052160680E+04  0.25997442901E+04 0.  0.
        5    1    3    3  502    0  0.56103125688E+03 -0.74129151045E+03 -0.82603373778E+03  0.12436329847E+04  0.46999998093E+01 0. -1.
       -5    1    3    3    0  502 -0.56103125688E+03  0.74129151045E+03  0.99479506836E+03  0.13615830833E+04  0.46999998093E+01 0.  1.
</event>
<event>
 5   0  0.6780984E-07  0.2600198E+04  0.7818609E-02  0.8368134E-01
       -2   -1    0    0    0  501  0.00000000000E+00  0.00000000000E+00  0.87677959376E+03  0.87677959376E+03  0.25500000920E-02 0.  1.
        2   -1    0    0  501    0  0.00000000000E+00  0.00000000000E+00 -0.19278025913E+04  0.19278025913E+04  0.25500000920E-02 0. -1.
    10030    2    1    2    0    0  0.00000000000E+00  0.00000000000E+00 -0.10510229976E+04  0.28045821851E+04  0.26001984331E+04 0.  0.
        2    1    3    3  502    0  0.37427418998E+03  0.79609083621E+03 -0.15580542781E+04  0.17892386432E+04  0.25500000920E-02 0. -1.
       -2    1    3    3    0  502 -0.37427418998E+03 -0.79609083621E+03  0.50703128048E+03  0.10153435419E+04  0.25500000920E-02 0.  1.
</event>
<event>
 5   0  0.2623263E-07  0.2591986E+04  0.7818609E-02  0.8370928E-01
        1   -1    0    0  501    0  0.00000000000E+00  0.00000000000E+00  0.14361908186E+04  0.14361908186E+04  0.50400001928E-02 0.  1.
       -1   -1    0    0    0  501  0.00000000000E+00  0.00000000000E+00 -0.11694810829E+04  0.11694810829E+04  0.50400001928E-02 0. -1.
    10030    2    1    2    0    0  0.00000000000E+00  0.00000000000E+00  0.26670973576E+03  0.26056719015E+04  0.25919861063E+04 0.  0.
        1    1    3    3  502    0  0.11744149413E+04 -0.40886487379E+03  0.50021605156E+03  0.13403868985E+04  0.50400001928E-02 0.  1.
       -1    1    3    3    0  502 -0.11744149413E+04  0.40886487379E+03 -0.23350631580E+03  0.12652850030E+04  0.50400001928E-02 0. -1.
</event>
<event>
 5   0  0.2641626E-07  0.2599639E+04  0.7818609E-02  0.8368324E-01
       -1   -1    0    0    0  501  0.00000000000E+00  0.00000000000E+00  0.87762049528E+03  0.87762049529E+03  0.50400001928E-02 0.  1.
        1   -1    0    0  501    0  0.00000000000E+00  0.00000000000E+00 -0.19251273996E+04  0.19251273996E+04  0.50400001928E-02 0. -1.
    10030    2    1    2    0    0  0.00000000000E+00  0.00000000000E+00 -0.10475069043E+04  0.28027478949E+04  0.25996394072E+04 0.  0.
        3    1    3    3  502    0  0.76935512316E+03  0.58506250202E+03  0.41324330384E+03  0.10511781367E+04  0.10100000352E+00 0.  1.
       -3    1    3    3    0  502 -0.76935512316E+03 -0.58506250202E+03 -0.14607502081E+04  0.17515697581E+04  0.10100000352E+00 0. -1.
</event>
<event>
 5   0  0.6768478E-07  0.2600180E+04  0.7818609E-02  0.8368140E-01
        2   -1    0    0  501    0  0.00000000000E+00  0.00000000000E+00  0.17642994601E+04  0.17642994601E+04  0.25500000920E-02 0. -1.
       -2   -1    0    0    0  501  0.00000000000E+00  0.00000000000E+00 -0.95802023408E+03  0.95802023408E+03  0.25500000920E-02 0.  1.
    10030    2    1    2    0    0  0.00000000000E+00  0.00000000000E+00  0.80627922599E+03  0.27223196941E+04  0.26001804412E+04 0.  0.
        4    1    3    3  502    0  0.44099476655E+03 -0.40350027378E+03  0.16119038670E+04  0.17191639085E+04  0.12699999809E+01 0. -1.
       -4    1    3    3    0  502 -0.44099476655E+03  0.40350027378E+03 -0.80562464102E+03  0.10031557856E+04  0.12699999809E+01 0.  1.
</event>
<event>
 5   0  0.6768478E-07  0.2600683E+04  0.7818609E-02  0.8367969E-01
        2   -1    0    0  501    0  0.00000000000E+00  0.00000000000E+00  0.17729112686E+04  0.17729112686E+04  0.25500000920E-02 0.  1.
       -2   -1    0    0    0  501  0.00000000000E+00  0.00000000000E+00 -0.95373549906E+03  0.95373549906E+03  0.25500000920E-02 0. -1.
    10030    2    1    2    0    0  0.00000000000E+00  0.00000000000E+00  0.81917576958E+03  0.27266467677E+04  0.26006833053E+04 0.  0.
        4    1    3    3  502    0  0.82389028774E+03  0.88810703909E+03  0.90508560631E+03  0.15121874509E+04  0.12699999809E+01 0.  1.
       -4    1    3    3    0  502 -0.82389028774E+03 -0.88810703909E+03 -0.85909836731E+02  0.12144593168E+04  0.12699999809E+01 0. -1.
</event>
<event>
 5   0  0.7160320E-07  0.2600164E+04  0.7818609E-02  0.8368146E-01
       -2   -1    0    0    0  501  0.00000000000E+00  0.00000000000E+00  0.15492030421E+04  0.15492030421E+04  0.25500000920E-02 0.  1.
        2   -1    0    0  501    0  0.00000000000E+00  0.00000000000E+00 -0.10910210589E+04  0.10910210589E+04  0.25500000920E-02 0. -1.
    10030    2    1    2    0    0  0.00000000000E+00  0.00000000000E+00  0.45818198320E+03  0.26402241010E+04  0.26001639514E+04 0.  0.
        1    1    3    3  502    0 -0.68750797678E+03 -0.10899237493E+04  0.54357965236E+02  0.12897890471E+04  0.50400001928E-02 0.  1.
       -1    1    3    3    0  502  0.68750797678E+03  0.10899237493E+04  0.40382401796E+03  0.13504350540E+04  0.50400001928E-02 0. -1.
</event>
<event>
 5   0  0.6599814E-07  0.2600173E+04  0.7818609E-02  0.8368142E-01
       -2   -1    0    0    0  501  0.00000000000E+00  0.00000000000E+00  0.87419739649E+03  0.87419739649E+03  0.25500000920E-02 0.  1.
        2   -1    0    0  501    0  0.00000000000E+00  0.00000000000E+00 -0.19334588591E+04  0.19334588591E+04  0.25500000920E-02 0. -1.
    10030    2    1    2    0    0  0.00000000000E+00  0.00000000000E+00 -0.10592614626E+04  0.28076562556E+04  0.26001728411E+04 0.  0.
        5    1    3    3  502    0  0.80807192693E+03 -0.44664263232E+03 -0.15179436216E+04  0.17766949115E+04  0.46999998093E+01 0. -1.
       -5    1    3    3    0  502 -0.80807192693E+03  0.44664263232E+03  0.45868215899E+03  0.10309613441E+04  0.46999998093E+01 0.  1.
</event>
<event>
 5   0  0.2641626E-07  0.2600019E+04  0.7818609E-02  0.8368195E-01
        1   -1    0    0  501    0  0.00000000000E+00  0.00000000000E+00  0.13516240726E+04  0.13516240726E+04  0.50400001928E-02 0.  1.
       -1   -1    0    0    0  501  0.00000000000E+00  0.00000000000E+00 -0.12503663137E+04  0.12503663137E+04  0.50400001928E-02 0. -1.
    10030    2    1    2    0    0  0.00000000000E+00  0.00000000000E+00  0.10125775891E+03  0.26019903863E+04  0.26000193916E+04 0.  0.
        3    1    3    3  502    0 -0.72740820929E+03  0.86057469823E+03  0.69943638564E+03  0.13262438622E+04  0.10100000352E+00 0.  1.
       -3    1    3    3    0  502  0.72740820929E+03 -0.86057469823E+03 -0.59817862674E+03  0.12757465241E+04  0.10100000352E+00 0. -1.
</event>
<event>
 5   0  0.2623263E-07  0.2600275E+04  0.7818609E-02  0.8368108E-01
       -1   -1    0    0    0  501  0.00000000000E+00  0.00000000000E+00  0.95340498240E+03  0.95340498241E+03  0.50400001928E-02 0.  1.
        1   -1    0    0  501    0  0.00000000000E+00  0.00000000000E+00 -0.17729689699E+04  0.17729689699E+04  0.50400001928E-02 0. -1.
    10030    2    1    2    0    0  0.00000000000E+00  0.00000000000E+00 -0.81956398745E+03  0.27263739523E+04  0.26002749466E+04 0.  0.
        1    1    3    3  502    0 -0.66651171731E+03 -0.51037623605E+03  0.63115480083E+03  0.10502752755E+04  0.50400001928E-02 0.  1.
       -1    1    3    3    0  502  0.66651171731E+03  0.51037623605E+03 -0.14507187883E+04  0.16760986768E+04  0.50400001928E-02 0. -1.
</event>
<event>
 5   0  0.6780984E-07  0.2598857E+04  0.7818609E-02  0.8368590E-01
       -2   -1    0    0    0  501  0.00000000000E+00  0.00000000000E+00  0.23764065161E+04  0.23764065161E+04  0.25500000920E-02 0.  1.
        2   -1    0    0  501    0  0.00000000000E+00  0.00000000000E+00 -0.71053254134E+03  0.71053254134E+03  0.25500000920E-02 0. -1.
    10030    2    1    2    0    0  0.00000000000E+00  0.00000000000E+00  0.16658739747E+04  0.30869390574E+04  0.25988567957E+04 0.  0.
        2    1    3    3  502    0 -0.28880461060E+03 -0.47335933848E+03 -0.56294390559E+03  0.79017909823E+03  0.25500000920E-02 0. -1.
       -2    1    3    3    0  502  0.28880461060E+03  0.47335933848E+03  0.22288178803E+04  0.22967599592E+04  0.25500000920E-02 0.  1.
</event>
<event>
 5   0  0.2864801E-07  0.2598068E+04  0.7818609E-02  0.8368858E-01
        1   -1    0    0  501    0  0.00000000000E+00  0.00000000000E+00  0.13412043894E+04  0.13412043894E+04  0.50400001928E-02 0. -1.
       -1   -1    0    0    0  501  0.00000000000E+00  0.00000000000E+00 -0.12581894701E+04  0.12581894701E+04  0.50400001928E-02 0.  1.
    10030    2    1    2    0    0  0.00000000000E+00  0.00000000000E+00  0.83014919325E+02  0.25993938595E+04  0.25980679283E+04 0.  0.
        5    1    3    3  502    0 -0.36646242678E+02  0.12227132610E+04  0.47887639681E+03  0.13136648580E+04  0.46999998093E+01 0. -1.
       -5    1    3    3    0  502  0.36646242678E+02 -0.12227132610E+04 -0.39586147749E+03  0.12857290015E+04  0.46999998093E+01 0.  1.
</event>
<event>
 5   0  0.2641626E-07  0.2599114E+04  0.7818609E-02  0.8368502E-01
        1   -1    0    0  501    0  0.00000000000E+00  0.00000000000E+00  0.15050379232E+04  0.15050379232E+04  0.50400001928E-02 0.  1.
       -1   -1    0    0    0  501  0.00000000000E+00  0.00000000000E+00 -0.11221299731E+04  0.11221299732E+04  0.50400001928E-02 0. -1.
    10030    2    1    2    0    0  0.00000000000E+00  0.00000000000E+00  0.38290795003E+03  0.26271678963E+04  0.25991138216E+04 0.  0.
        3    1    3    3  502    0 -0.60205342907E+03  0.11118126336E+04 -0.11220919897E+03  0.12693252452E+04  0.10100000352E+00 0.  1.
       -3    1    3    3    0  502  0.60205342907E+03 -0.11118126336E+04  0.49511714899E+03  0.13578426511E+04  0.10100000352E+00 0. -1.
</event>
<event>
 5   0  0.2793576E-07  0.2600304E+04  0.7818609E-02  0.8368098E-01
        1   -1    0    0  501    0  0.00000000000E+00  0.00000000000E+00  0.13390823276E+04  0.13390823276E+04  0.50400001928E-02 0.  1.
       -1   -1    0    0    0  501  0.00000000000E+00  0.00000000000E+00 -0.12623537779E+04  0.12623537779E+04  0.50400001928E-02 0. -1.
    10030    2    1    2    0    0  0.00000000000E+00  0.00000000000E+00  0.76728549672E+02  0.26014361055E+04  0.26003043169E+04 0.  0.
        2    1    3    3  502    0 -0.90751112911E+03 -0.91076267559E+03 -0.15493093449E+03  0.12950168706E+04  0.25500000920E-02 0. -1.
       -2    1    3    3    0  502  0.90751112911E+03  0.91076267559E+03  0.23165948416E+03  0.13064192349E+04  0.25500000920E-02 0.  1.
</event>
<event>
 5   0  0.6780984E-07  0.2599927E+04  0.7818609E-02  0.8368226E-01
       -2   -1    0    0    0  501  0.00000000000E+00  0.00000000000E+00  0.86343036349E+03  0.86343036350E+03  0.25500000920E-02 0.  1.
        2   -1    0    0  501    0  0.00000000000E+00  0.00000000000E+00 -0.19571989069E+04  0.19571989069E+04  0.25500000920E-02 0. -1.
    10030    2    1    2    0    0  0.00000000000E+00  0.00000000000E+00 -0.10937685434E+04  0.28206292704E+04  0.25999268941E+04 0.  0.
        2    1    3    3  502    0 -0.80323057187E+03 -0.52122584080E+03 -0.15007526446E+04  0.17802006148E+04  0.25500000920E-02 0. -1.
       -2    1    3    3    0  502  0.80323057187E+03  0.52122584080E+03  0.40698410120E+03  0.10404286556E+04  0.25500000920E-02 0.  1.
</event>
<event>
 5   0  0.6526351E-07  0.2593447E+04  0.7818609E-02  0.8370431E-01
       -2   -1    0    0    0  501  0.00000000000E+00  0.00000000000E+00  0.68212509225E+03  0.68212509226E+03  0.25500000920E-02 0. -1.
        2   -1    0    0  501    0  0.00000000000E+00  0.00000000000E+00 -0.24650783438E+04  0.24650783438E+04  0.25500000920E-02 0.  1.
    10030    2    1    2    0    0  0.00000000000E+00  0.00000000000E+00 -0.17829532515E+04  0.31472034361E+04  0.25934469670E+04 0.  0.
        3    1    3    3  502    0  0.10881347628E+04  0.58897143423E+03 -0.42059408401E+03  0.13068374062E+04  0.10100000352E+00 0. -1.
       -3    1    3    3    0  502 -0.10881347628E+04 -0.58897143423E+03 -0.13623591675E+04  0.18403660299E+04  0.10100000352E+00 0.  1.
</event>
<event>
 5   0  0.2864801E-07  0.2600434E+04  0.7818609E-02  0.8368054E-01
        1   -1    0    0  501    0  0.00000000000E+00  0.00000000000E+00  0.19935093491E+04  0.19935093491E+04  0.50400001928E-02 0. -1.
       -1   -1    0    0    0  501  0.00000000000E+00  0.00000000000E+00 -0.84803438873E+03  0.84803438874E+03  0.50400001928E-02 0.  1.
    10030    2    1    2    0    0  0.00000000000E+00  0.00000000000E+00  0.11454749603E+04  0.28415437378E+04  0.26004341809E+04 0.  0.
        5    1    3    3  502    0  0.13879212432E+03 -0.83079754692E+03 -0.50958097254E+03  0.98447075899E+03  0.46999998093E+01 0.  1.
       -5    1    3    3    0  502 -0.13879212432E+03  0.83079754692E+03  0.16550559329E+04  0.18570729788E+04  0.46999998093E+01 0. -1.
</event>
<event>
 5   0  0.2623263E-07  0.2600112E+04  0.7818609E-02  0.8368163E-01
        1   -1    0    0  501    0  0.00000000000E+00  0.00000000000E+00  0.19484910295E+04  0.19484910295E+04  0.50400001928E-02 0.  1.
       -1   -1    0    0    0  501  0.00000000000E+00  0.00000000000E+00 -0.86741264315E+03  0.86741264316E+03  0.50400001928E-02 0. -1.
    10030    2    1    2    0    0  0.00000000000E+00  0.00000000000E+00  0.10810783864E+04  0.28159036727E+04  0.26001121161E+04 0.  0.
        1    1    3    3  502    0 -0.63741406774E+03  0.46314562875E+03 -0.57937481955E+03  0.97799578156E+03  0.50400001928E-02 0. -1.
       -1    1    3    3    0  502  0.63741406774E+03 -0.46314562875E+03  0.16604532059E+04  0.18379078911E+04  0.50400001928E-02 0.  1.
</event>
<event>
 5   0  0.2641626E-07  0.2599875E+04  0.7818609E-02  0.8368244E-01
       -1   -1    0    0    0  501  0.00000000000E+00  0.00000000000E+00  0.11451817941E+04  0.11451817941E+04  0.50400001928E-02 0.  1.
        1   -1    0    0  501    0  0.00000000000E+00  0.00000000000E+00 -0.14756064849E+04  0.14756064849E+04  0.50400001928E-02 0. -1.
    10030    2    1    2    0    0  0.00000000000E+00  0.00000000000E+00 -0.33042469078E+03  0.26207882790E+04  0.25998751368E+04 0.  0.
        3    1    3    3  502    0 -0.83361473157E+03  0.49246438758E+03 -0.10396013744E+04  0.14206356752E+04  0.10100000352E+00 0. -1.
       -3    1    3    3    0  502  0.83361473157E+03 -0.49246438758E+03  0.70917668362E+03  0.12001526038E+04  0.10100000352E+00 0.  1.
</event>
<event>
 5   0  0.6599814E-07  0.2600049E+04  0.7818609E-02  0.8368185E-01
       -2   -1    0    0    0  501  0.00000000000E+00  0.00000000000E+00  0.70009901917E+03  0.70009901917E+03  0.25500000920E-02 0.  1.
        2   -1    0    0  501    0  0.00000000000E+00  0.00000000000E+00 -0.24140346859E+04  0.24140346859E+04  0.25500000920E-02 0. -1.
    10030    2    1    2    0    0  0.00000000000E+00  0.00000000000E+00 -0.17139356667E+04  0.31141337050E+04  0.26000487040E+04 0.  0.
        5    1    3    3  502    0  0.83991603452E+03  0.32392354803E+03 -0.19803102580E+04  0.21753243938E+04  0.46999998093E+01 0. -1.
       -5    1    3    3    0  502 -0.83991603452E+03 -0.32392354803E+03  0.26637459134E+03  0.93880931127E+03  0.46999998093E+01 0.  1.
</event>
<event>
 5   0  0.2294625E-07  0.2600262E+04  0.7818609E-02  0.8368112E-01
       -3   -1    0    0    0  501  0.00000000000E+00  0.00000000000E+00  0.99066903060E+03  0.99066903574E+03  0.10100000352E+00 0.  1.
        3   -1    0    0  501    0  0.00000000000E+00  0.00000000000E+00 -0.17062621471E+04  0.17062621501E+04  0.10100000352E+00 0. -1.
    10030    2    1    2    0    0  0.00000000000E+00  0.00000000000E+00 -0.71559311651E+03  0.26969311858E+04  0.26002623546E+04 0.  0.
        3    1    3    3  502    0 -0.12088245913E+04  0.35610604000E+03 -0.68948663638E+03  0.14364749340E+04  0.10100000352E+00 0. -1.
       -3    1    3    3    0  502  0.12088245913E+04 -0.35610604000E+03 -0.26106480134E+02  0.12604562518E+04  0.10100000352E+00 0.  1.
</event>
<event>
 5   0  0.6780984E-07  0.2600521E+04  0.7818609E-02  0.8368024E-01
        2   -1    0    0  501    0  0.00000000000E+00  0.00000000000E+00  0.22980436336E+04  0.22980436336E+04  0.25500000920E-02 0. -1.
       -2   -1    0    0    0  501  0.00000000000E+00  0.00000000000E+00 -0.73570289843E+03  0.73570289844E+03  0.25500000920E-02 0.  1.
    10030    2    1    2    0    0  0.00000000000E+00  0.00000000000E+00  0.15623407352E+04  0.30337465321E+04  0.26005209955E+04 0.  0.
        2    1    3    3  502    0 -0.40341655417E+03 -0.35053613307E+03  0.21639910901E+04  0.22290082850E+04  0.25500000920E-02 0. -1.
       -2    1    3    3    0  502  0.40341655417E+03  0.35053613307E+03 -0.60165035486E+03  0.80473824706E+03  0.25500000920E-02 0.  1.
</event>
<event>
 5   0  0.6780984E-07  0.2600494E+04  0.7818609E-02  0.8368033E-01
        2   -1    0    0  501    0  0.00000000000E+00  0.00000000000E+00  0.12492088282E+04  0.12492088282E+04  0.25500000920E-02 0. -1.
       -2   -1    0    0    0  501  0.00000000000E+00  0.00000000000E+00 -0.13533703297E+04  0.13533703297E+04  0.25500000920E-02 0.  1.
    10030    2    1    2    0    0  0.00000000000E+00  0.00000000000E+00 -0.10416150145E+03  0.26025791579E+04  0.26004939252E+04 0.  0.
        2    1    3    3  502    0  0.27010795426E+02  0.86520414531E+03  0.91892110823E+03  0.12624277402E+04  0.25500000920E-02 0. -1.
       -2    1    3    3    0  502 -0.27010795426E+02 -0.86520414531E+03 -0.10230826097E+04  0.13401514177E+04  0.25500000920E-02 0.  1.
</event>
<event>
 5   0  0.6599814E-07  0.2598446E+04  0.7818609E-02  0.8368729E-01
        2   -1    0    0  501    0  0.00000000000E+00  0.00000000000E+00  0.16801840202E+04  0.16801840203E+04  0.25500000920E-02 0. -1.
       -2   -1    0    0    0  501  0.00000000000E+00  0.00000000000E+00 -0.10046400271E+04  0.10046400271E+04  0.25500000920E-02 0.  1.
    10030    2    1    2    0    0  0.00000000000E+00  0.00000000000E+00  0.67554399316E+03  0.26848240473E+04  0.25984457813E+04 0.  0.
        5    1    3    3  502    0 -0.14820027046E+03  0.12750613283E+04  0.54497074444E+03  0.13945464902E+04  0.46999998093E+01 0. -1.
       -5    1    3    3    0  502  0.14820027046E+03 -0.12750613283E+04  0.13057324872E+03  0.12902775571E+04  0.46999998093E+01 0.  1.
</event>
<event>
 5   0  0.7160320E-07  0.2600492E+04  0.7818609E-02  0.8368034E-01
       -2   -1    0    0    0  501  0.00000000000E+00  0.00000000000E+00  0.11917592958E+04  0.11917592958E+04  0.25500000920E-02 0.  1.
        2   -1    0    0  501    0  0.00000000000E+00  0.00000000000E+00 -0.14186087924E+04  0.14186087924E+04  0.25500000920E-02 0. -1.
    10030    2    1    2    0    0  0.00000000000E+00  0.00000000000E+00 -0.22684949658E+03  0.26103680882E+04  0.26004924268E+04 0.  0.
        1    1    3    3  502    0 -0.50460146044E+03  0.11925701235E+04 -0.23131898141E+03  0.13154294373E+04  0.50400001928E-02 0.  1.
       -1    1    3    3    0  502  0.50460146044E+03 -0.11925701235E+04  0.44694848273E+01  0.12949386509E+04  0.50400001928E-02 0. -1.
</event>
<event>
 5   0  0.6780984E-07  0.2600620E+04  0.7818609E-02  0.8367991E-01
        2   -1    0    0  501    0  0.00000000000E+00  0.00000000000E+00  0.83704566922E+03  0.83704566923E+03  0.25500000920E-02 0.  1.
       -2   -1    0    0    0  501  0.00000000000E+00  0.00000000000E+00 -0.20199687657E+04  0.20199687657E+04  0.25500000920E-02 0. -1.
    10030    2    1    2    0    0  0.00000000000E+00  0.00000000000E+00 -0.11829230965E+04  0.28570144350E+04  0.26006200086E+04 0.  0.
        2    1    3    3  502    0  0.36630896165E+03 -0.15224535464E+03  0.76894798239E+03  0.86524095084E+03  0.25500000920E-02 0.  1.
       -2    1    3    3    0  502 -0.36630896165E+03  0.15224535464E+03 -0.19518710789E+04  0.19917734841E+04  0.25500000920E-02 0. -1.
</event>
<event>
 5   0  0.7160320E-07  0.2591462E+04  0.7818609E-02  0.8371107E-01
       -2   -1    0    0    0  501  0.00000000000E+00  0.00000000000E+00  0.23645071308E+04  0.23645071308E+04  0.25500000920E-02 0.  1.
        2   -1    0    0  501    0  0.00000000000E+00  0.00000000000E+00 -0.71005045967E+03  0.71005045967E+03  0.25500000920E-02 0. -1.
    10030    2    1    2    0    0  0.00000000000E+00  0.00000000000E+00  0.16544566711E+04  0.30745575904E+04  0.25914624250E+04 0.  0.
        1    1    3    3  502    0 -0.11023048900E+03 -0.11496658146E+04  0.13032806692E+03  0.11622683215E+04  0.50400001928E-02 0. -1.
       -1    1    3    3    0  502  0.11023048900E+03  0.11496658146E+04  0.15241286042E+04  0.19122892689E+04  0.50400001928E-02 0.  1.
</event>
<event>
 5   0  0.2755061E-07  0.2599055E+04  0.7818609E-02  0.8368522E-01
        1   -1    0    0  501    0  0.00000000000E+00  0.00000000000E+00  0.19629953568E+04  0.19629953568E+04  0.50400001928E-02 0.  1.
       -1   -1    0    0    0  501  0.00000000000E+00  0.00000000000E+00 -0.86030380355E+03  0.86030380357E+03  0.50400001928E-02 0. -1.
    10030    2    1    2    0    0  0.00000000000E+00  0.00000000000E+00  0.11026915533E+04  0.28232991604E+04  0.25990554991E+04 0.  0.
        4    1    3    3  502    0  0.58436261692E+02 -0.76902330962E+03 -0.58482048966E+03  0.96789889216E+03  0.12699999809E+01 0. -1.
       -4    1    3    3    0  502 -0.58436261692E+02  0.76902330962E+03  0.16875120429E+04  0.18554002682E+04  0.12699999809E+01 0.  1.
</event>
<event>
 5   0  0.2755061E-07  0.2600085E+04  0.7818609E-02  0.8368172E-01
        1   -1    0    0  501    0  0.00000000000E+00  0.00000000000E+00  0.20621308923E+04  0.20621308923E+04  0.50400001928E-02 0. -1.
       -1   -1    0    0    0  501  0.00000000000E+00  0.00000000000E+00 -0.81959402367E+03  0.81959402369E+03  0.50400001928E-02 0.  1.
    10030    2    1    2    0    0  0.00000000000E+00  0.00000000000E+00  0.12425368686E+04  0.28817249160E+04  0.26000847335E+04 0.  0.
        4    1    3    3  502    0  0.90539975611E+03  0.79309083354E+03  0.76761086063E+02  0.12060827774E+04  0.12699999809E+01 0.  1.
       -4    1    3    3    0  502 -0.90539975611E+03 -0.79309083354E+03  0.11657757825E+04  0.16756421386E+04  0.12699999809E+01 0. -1.
</event>
<event>
 5   0  0.2755061E-07  0.2599835E+04  0.7818609E-02  0.8368257E-01
       -1   -1    0    0    0  501  0.00000000000E+00  0.00000000000E+00  0.88852378466E+03  0.88852378467E+03  0.50400001928E-02 0. -1.
        1   -1    0    0  501    0  0.00000000000E+00  0.00000000000E+00 -0.19017899436E+04  0.19017899436E+04  0.50400001928E-02 0.  1.
    10030    2    1    2    0    0  0.00000000000E+00  0.00000000000E+00 -0.10132661589E+04  0.27903137283E+04  0.25998350704E+04 0.  0.
        4    1    3    3  502    0  0.63873711687E+03  0.51205133425E+03  0.57710078342E+03  0.10016129994E+04  0.12699999809E+01 0. -1.
       -4    1    3    3    0  502 -0.63873711687E+03 -0.51205133425E+03 -0.15903669423E+04  0.17887007289E+04  0.12699999809E+01 0.  1.
</event>
<event>
 5   0  0.6768478E-07  0.2598578E+04  0.7818609E-02  0.8368685E-01
        2   -1    0    0  501    0  0.00000000000E+00  0.00000000000E+00  0.98868289410E+03  0.98868289410E+03  0.25500000920E-02 0.  1.
       -2   -1    0    0    0  501  0.00000000000E+00  0.00000000000E+00 -0.17074750853E+04  0.17074750853E+04  0.25500000920E-02 0. -1.
    10030    2    1    2    0    0  0.00000000000E+00  0.00000000000E+00 -0.71879219123E+03  0.26961579794E+04  0.25985776178E+04 0.  0.
        4    1    3    3  502    0 -0.15956032009E+02  0.23198266570E+03  0.96691743184E+03  0.99448553788E+03  0.12699999809E+01 0.  1.
       -4    1    3    3    0  502  0.15956032009E+02 -0.23198266570E+03 -0.16857096231E+04  0.17016724416E+04  0.12699999809E+01 0. -1.
</event>
<event>
 5   0  0.2864801E-07  0.2599510E+04  0.7818609E-02  0.8368368E-01
        1   -1    0    0  501    0  0.00000000000E+00  0.00000000000E+00  0.11628044277E+04  0.11628044277E+04  0.50400001928E-02 0.  1.
       -1   -1    0    0    0  501  0.00000000000E+00  0.00000000000E+00 -0.14528353280E+04  0.14528353280E+04  0.50400001928E-02 0. -1.
    10030    2    1    2    0    0  0.00000000000E+00  0.00000000000E+00 -0.29003090032E+03  0.26156397557E+04  0.25995102247E+04 0.  0.
        5    1    3    3  502    0 -0.39320079802E+03  0.86717376635E+03  0.74520237928E+03  0.12091095421E+04  0.46999998093E+01 0.  1.
       -5    1    3    3    0  502  0.39320079802E+03 -0.86717376635E+03 -0.10352332796E+04  0.14065302136E+04  0.46999998093E+01 0. -1.
</event>
<event>
 5   0  0.2793576E-07  0.2596178E+04  0.7818609E-02  0.8369501E-01
       -1   -1    0    0    0  501  0.00000000000E+00  0.00000000000E+00  0.10242096960E+04  0.10242096961E+04  0.50400001928E-02 0. -1.
        1   -1    0    0  501    0  0.00000000000E+00  0.00000000000E+00 -0.16452051330E+04  0.16452051330E+04  0.50400001928E-02 0.  1.
    10030    2    1    2    0    0  0.00000000000E+00  0.00000000000E+00 -0.62099543697E+03  0.26694148291E+04  0.25961779979E+04 0.  0.
        2    1    3    3  502    0 -0.17510434799E+03  0.93586007554E+03  0.59674170018E+03  0.11236530917E+04  0.25500000920E-02 0. -1.
       -2    1    3    3    0  502  0.17510434799E+03 -0.93586007554E+03 -0.12177371371E+04  0.15457617374E+04  0.25500000920E-02 0.  1.
</event>
<event>
 5   0  0.2755061E-07  0.2599895E+04  0.7818609E-02  0.8368237E-01
        1   -1    0    0  501    0  0.00000000000E+00  0.00000000000E+00  0.10117920579E+04  0.10117920579E+04  0.50400001928E-02 0. -1.
       -1   -1    0    0    0  501  0.00000000000E+00  0.00000000000E+00 -0.16701681901E+04  0.16701681901E+04  0.50400001928E-02 0.  1.
    10030    2    1    2    0    0  0.00000000000E+00  0.00000000000E+00 -0.65837613218E+03  0.26819602480E+04  0.25998945441E+04 0.  0.
        4    1    3    3  502    0 -0.52176211356E+03 -0.98497972878E+03  0.36083604005E+03  0.11715908117E+04  0.12699999809E+01 0. -1.
       -4    1    3    3    0  502  0.52176211356E+03  0.98497972878E+03 -0.10192121722E+04  0.15103694363E+04  0.12699999809E+01 0.  1.
</event>
<event>
 5   0  0.2755061E-07  0.2600454E+04  0.7818609E-02  0.8368047E-01
        1   -1    0    0  501    0  0.00000000000E+00  0.00000000000E+00  0.21066738626E+04  0.21066738626E+04  0.50400001928E-02 0. -1.
       -1   -1    0    0    0  501  0.00000000000E+00  0.00000000000E+00 -0.80249239835E+03  0.80249239836E+03  0.50400001928E-02 0.  1.
    10030    2    1    2    0    0  0.00000000000E+00  0.00000000000E+00  0.13041814643E+04  0.29091662610E+04  0.26004536224E+04 0.  0.
        4    1    3    3  502    0  0.35823537056E+02  0.12859451407E+04  0.86331737178E+03  0.15492761949E+04  0.12699999809E+01 0.  1.
       -4    1    3    3    0  502 -0.35823537056E+02 -0.12859451407E+04  0.44086409248E+03  0.13598900661E+04  0.12699999809E+01 0. -1.
</event>
<event>
 5   0  0.6526351E-07  0.2599938E+04  0.7818609E-02  0.8368222E-01
        2   -1    0    0  501    0  0.00000000000E+00  0.00000000000E+00  0.15662184851E+04  0.15662184851E+04  0.25500000920E-02 0.  1.
       -2   -1    0    0    0  501  0.00000000000E+00  0.00000000000E+00 -0.10789807575E+04  0.10789807575E+04  0.25500000920E-02 0. -1.
    10030    2    1    2    0    0  0.00000000000E+00  0.00000000000E+00  0.48723772766E+03  0.26451992426E+04  0.25999381589E+04 0.  0.
        3    1    3    3  502    0  0.10737322576E+04  0.17212911284E+03  0.96833246319E+03  0.14560896820E+04  0.10100000352E+00 0.  1.
       -3    1    3    3    0  502 -0.10737322576E+04 -0.17212911284E+03 -0.48109473553E+03  0.11891095606E+04  0.10100000352E+00 0. -1.
</event>
<event>
 5   0  0.2793576E-07  0.2600466E+04  0.7818609E-02  0.8368043E-01
        1   -1    0    0  501    0  0.00000000000E+00  0.00000000000E+00  0.23173272051E+04  0.23173272051E+04  0.50400001928E-02 0.  1.
       -1   -1    0    0    0  501  0.00000000000E+00  0.00000000000E+00 -0.72954983281E+03  0.72954983283E+03  0.50400001928E-02 0. -1.
    10030    2    1    2    0    0  0.00000000000E+00  0.00000000000E+00  0.15877773723E+04  0.30468770379E+04  0.26004658622E+04 0.  0.
        2    1    3    3  502    0 -0.68017605545E+03  0.22793861272E+03  0.20644900430E+04  0.21855696317E+04  0.25500000920E-02 0.  1.
       -2    1    3    3    0  502  0.68017605545E+03 -0.22793861272E+03 -0.47671267069E+03  0.86130740620E+03  0.25500000920E-02 0. -1.
</event>
<event>
 5   0  0.6526351E-07  0.2614499E+04  0.7818609E-02  0.8363293E-01
        2   -1    0    0  501    0  0.00000000000E+00  0.00000000000E+00  0.13119417245E+04  0.13119417245E+04  0.25500000920E-02 0.  1.
       -2   -1    0    0    0  501  0.00000000000E+00  0.00000000000E+00 -0.13025737665E+04  0.13025737665E+04  0.25500000920E-02 0. -1.
    10030    2    1    2    0    0  0.00000000000E+00  0.00000000000E+00  0.93679579782E+01  0.26145154910E+04  0.26144987080E+04 0.  0.
        3    1    3    3  502    0  0.10069669304E+04 -0.47609628638E+03  0.68897690031E+03  0.13097096060E+04  0.10100000352E+00 0.  1.
       -3    1    3    3    0  502 -0.10069669304E+04  0.47609628638E+03 -0.67960894233E+03  0.13048058850E+04  0.10100000352E+00 0. -1.
</event>
<event>
 5   0  0.2864801E-07  0.2599228E+04  0.7818609E-02  0.8368464E-01
       -1   -1    0    0    0  501  0.00000000000E+00  0.00000000000E+00  0.88489587182E+03  0.88489587183E+03  0.50400001928E-02 0.  1.
        1   -1    0    0  501    0  0.00000000000E+00  0.00000000000E+00 -0.19086947935E+04  0.19086947935E+04  0.50400001928E-02 0. -1.
    10030    2    1    2    0    0  0.00000000000E+00  0.00000000000E+00 -0.10237989217E+04  0.27935906654E+04  0.25992276879E+04 0.  0.
        5    1    3    3  502    0  0.42088539357E+03  0.12194905991E+04 -0.68071893370E+03  0.14586645236E+04  0.46999998093E+01 0. -1.
       -5    1    3    3    0  502 -0.42088539357E+03 -0.12194905991E+04 -0.34307998801E+03  0.13349261417E+04  0.46999998093E+01 0.  1.
</event>
<event>
 5   0  0.6526351E-07  0.2599711E+04  0.7818609E-02  0.8368299E-01
       -2   -1    0    0    0  501  0.00000000000E+00  0.00000000000E+00  0.29332298267E+04  0.29332298267E+04  0.25500000920E-02 0. -1.
        2   -1    0    0  501    0  0.00000000000E+00  0.00000000000E+00 -0.57602865608E+03  0.57602865608E+03  0.25500000920E-02 0.  1.
    10030    2    1    2    0    0  0.00000000000E+00  0.00000000000E+00  0.23572011706E+04  0.35092584827E+04  0.25997110878E+04 0.  0.
        3    1    3    3  502    0 -0.82725118484E+03  0.14212432246E+03 -0.16115677124E+03  0.85470191352E+03  0.10100000352E+00 0.  1.
       -3    1    3    3    0  502  0.82725118484E+03 -0.14212432246E+03  0.25183579418E+04  0.26545565692E+04  0.10100000352E+00 0. -1.
</event>
<event>
 5   0  0.2641626E-07  0.2600501E+04  0.7818609E-02  0.8368031E-01
        1   -1    0    0  501    0  0.00000000000E+00  0.00000000000E+00  0.19612564411E+04  0.19612564411E+04  0.50400001928E-02 0.  1.
       -1   -1    0    0    0  501  0.00000000000E+00  0.00000000000E+00 -0.86202495122E+03  0.86202495123E+03  0.50400001928E-02 0. -1.
    10030    2    1    2    0    0  0.00000000000E+00  0.00000000000E+00  0.10992314899E+04  0.28232813923E+04  0.26005014808E+04 0.  0.
        3    1    3    3  502    0  0.28760510660E+03 -0.40498487339E+03 -0.75495912140E+03  0.90371053452E+03  0.10100000352E+00 0. -1.
       -3    1    3    3    0  502 -0.28760510660E+03  0.40498487339E+03  0.18541906113E+04  0.19195708578E+04  0.10100000352E+00 0.  1.
</event>
<event>
 5   0  0.2864801E-07  0.2599792E+04  0.7818609E-02  0.8368272E-01
        1   -1    0    0  501    0  0.00000000000E+00  0.00000000000E+00  0.93008758652E+03  0.93008758654E+03  0.50400001928E-02 0. -1.
       -1   -1    0    0    0  501  0.00000000000E+00  0.00000000000E+00 -0.18167418446E+04  0.18167418446E+04  0.50400001928E-02 0.  1.
    10030    2    1    2    0    0  0.00000000000E+00  0.00000000000E+00 -0.88665425810E+03  0.27468294312E+04  0.25997915590E+04 0.  0.
        5    1    3    3  502    0  0.83385943408E+03  0.97241033343E+03 -0.20991748079E+03  0.12980719745E+04  0.46999998093E+01 0. -1.
       -5    1    3    3    0  502 -0.83385943408E+03 -0.97241033343E+03 -0.67673677731E+03  0.14487574566E+04  0.46999998093E+01 0.  1.
</event>
<event>
 5   0  0.6599814E-07  0.2601641E+04  0.7818609E-02  0.8367644E-01
        2   -1    0    0  501    0  0.00000000000E+00  0.00000000000E+00  0.13900715277E+04  0.13900715277E+04  0.25500000920E-02 0. -1.
       -2   -1    0    0    0  501  0.00000000000E+00  0.00000000000E+00 -0.12172997368E+04  0.12172997369E+04  0.25500000920E-02 0.  1.
    10030    2    1    2    0    0  0.00000000000E+00  0.00000000000E+00  0.17277179081E+03  0.26073712645E+04  0.26016407937E+04 0.  0.
        5    1    3    3  502    0 -0.13031563625E+03 -0.10925958908E+03  0.13788744553E+04  0.13893295780E+04  0.46999998093E+01 0. -1.
       -5    1    3    3    0  502  0.13031563625E+03  0.10925958908E+03 -0.12061026645E+04  0.12180416865E+04  0.46999998093E+01 0.  1.
</event>
<event>
 5   0  0.2641626E-07  0.2600350E+04  0.7818609E-02  0.8368082E-01
       -1   -1    0    0    0  501  0.00000000000E+00  0.00000000000E+00  0.88320189247E+03  0.88320189248E+03  0.50400001928E-02 0.  1.
        1   -1    0    0  501    0  0.00000000000E+00  0.00000000000E+00 -0.19140070420E+04  0.19140070420E+04  0.50400001928E-02 0. -1.
    10030    2    1    2    0    0  0.00000000000E+00  0.00000000000E+00 -0.10308051496E+04  0.27972089345E+04  0.26003497009E+04 0.  0.
        3    1    3    3  502    0  0.24053435631E+03  0.63931961264E+03 -0.17054396470E+04  0.18371474474E+04  0.10100000352E+00 0. -1.
       -3    1    3    3    0  502 -0.24053435631E+03 -0.63931961264E+03  0.67463449746E+03  0.96006148711E+03  0.10100000352E+00 0.  1.
</event>
<event>
 5   0  0.2793576E-07  0.2596699E+04  0.7818609E-02  0.8369323E-01
        1   -1    0    0  501    0  0.00000000000E+00  0.00000000000E+00  0.16980602940E+04  0.16980602941E+04  0.50400001928E-02 0. -1.
       -1   -1    0    0    0  501  0.00000000000E+00  0.00000000000E+00 -0.99272777535E+03  0.99272777536E+03  0.50400001928E-02 0.  1.
    10030    2    1    2    0    0  0.00000000000E+00  0.00000000000E+00  0.70533251870E+03  0.26907880694E+04  0.25966991494E+04 0.  0.
        2    1    3    3  502    0  0.87821313435E+03  0.65469737848E+03  0.10749330248E+04  0.15347208132E+04  0.25500000920E-02 0. -1.
       -2    1    3    3    0  502 -0.87821313435E+03 -0.65469737848E+03 -0.36960050610E+03  0.11560672562E+04  0.25500000920E-02 0.  1.
</event>
<event>
 5   0  0.6780984E-07  0.2600238E+04  0.7818609E-02  0.8368120E-01
       -2   -1    0    0    0  501  0.00000000000E+00  0.00000000000E+00  0.21041632185E+04  0.21041632185E+04  0.25500000920E-02 0.  1.
        2   -1    0    0  501    0  0.00000000000E+00  0.00000000000E+00 -0.80331660603E+03  0.80331660603E+03  0.25500000920E-02 0. -1.
    10030    2    1    2    0    0  0.00000000000E+00  0.00000000000E+00  0.13008466125E+04  0.29074798245E+04  0.26002378778E+04 0.  0.
        2    1    3    3  502    0 -0.36430920803E+03 -0.51358628165E+03  0.19222855861E+04  0.20227886549E+04  0.25500000920E-02 0.  1.
       -2    1    3    3    0  502  0.36430920803E+03  0.51358628165E+03 -0.62143897362E+03  0.88469116967E+03  0.25500000920E-02 0. -1.
</event>
<event>
 5   0  0.6780984E-07  0.2584176E+04  0.7818609E-02  0.8373596E-01
       -2   -1    0    0    0  501  0.00000000000E+00  0.00000000000E+00  0.88557842768E+03  0.88557842768E+03  0.25500000920E-02 0.  1.
        2   -1    0    0  501    0  0.00000000000E+00  0.00000000000E+00 -0.18851988508E+04  0.18851988508E+04  0.25500000920E-02 0. -1.
    10030    2    1    2    0    0  0.00000000000E+00  0.00000000000E+00 -0.99962042309E+03  0.27707772785E+04  0.25841760266E+04 0.  0.
        2    1    3    3  502    0  0.37040425009E+02  0.90473548146E+03 -0.14880899998E+04  0.17419328724E+04  0.25500000920E-02 0. -1.
       -2    1    3    3    0  502 -0.37040425009E+02 -0.90473548146E+03  0.48846957669E+03  0.10288444061E+04  0.25500000920E-02 0.  1.
</event>
<event>
 5   0  0.6768478E-07  0.2599962E+04  0.7818609E-02  0.8368214E-01
        2   -1    0    0  501    0  0.00000000000E+00  0.00000000000E+00  0.13117953970E+04  0.13117953970E+04  0.25500000920E-02 0.  1.
       -2   -1    0    0    0  501  0.00000000000E+00  0.00000000000E+00 -0.12882734641E+04  0.12882734641E+04  0.25500000920E-02 0. -1.
    10030    2    1    2    0    0  0.00000000000E+00  0.00000000000E+00  0.23521932886E+02  0.26000688611E+04  0.25999624614E+04 0.  0.
        4    1    3    3  502    0 -0.38344562229E+03 -0.10759008040E+04  0.63255726388E+03  0.13056505621E+04  0.12699999809E+01 0.  1.
       -4    1    3    3    0  502  0.38344562229E+03  0.10759008040E+04 -0.60903533100E+03  0.12944182989E+04  0.12699999809E+01 0. -1.
</event>
<event>
 5   0  0.7160320E-07  0.2599770E+04  0.7818609E-02  0.8368279E-01
        2   -1    0    0  501    0  0.00000000000E+00  0.00000000000E+00  0.22718814699E+04  0.22718814699E+04  0.25500000920E-02 0. -1.
       -2   -1    0    0    0  501  0.00000000000E+00  0.00000000000E+00 -0.74374542882E+03  0.74374542882E+03  0.25500000920E-02 0.  1.
    10030    2    1    2    0    0  0.00000000000E+00  0.00000000000E+00  0.15281360411E+04  0.30156268987E+04  0.25997703422E+04 0.  0.
        1    1    3    3  502    0  0.11455868725E+04  0.36084695178E+02  0.14753698267E+04  0.18682578818E+04  0.50400001928E-02 0. -1.
       -1    1    3    3    0  502 -0.11455868725E+04 -0.36084695178E+02  0.52766214443E+02  0.11473690169E+04  0.50400001928E-02 0.  1.
</event>
<event>
 5   0  0.2294625E-07  0.2600030E+04  0.7818609E-02  0.8368191E-01
        4   -1    0    0  501    0  0.00000000000E+00  0.00000000000E+00  0.20334532435E+04  0.20334536401E+04  0.12699999809E+01 0. -1.
       -4   -1    0    0    0  501  0.00000000000E+00  0.00000000000E+00 -0.83111686919E+03  0.83111783951E+03  0.12699999809E+01 0.  1.
    10030    2    1    2    0    0  0.00000000000E+00  0.00000000000E+00  0.12023363743E+04  0.28645714796E+04  0.26000301930E+04 0.  0.
        1    1    3    3  502    0  0.57528919496E+01  0.65909000458E+03 -0.63338002168E+03  0.91411322154E+03  0.50400001928E-02 0.  1.
       -1    1    3    3    0  502 -0.57528919496E+01 -0.65909000458E+03  0.18357163960E+04  0.19504582580E+04  0.50400001928E-02 0. -1.
</event>
<event>
 5   0  0.6780984E-07  0.2595969E+04  0.7818609E-02  0.8369572E-01
        2   -1    0    0  501    0  0.00000000000E+00  0.00000000000E+00  0.19581511550E+04  0.19581511550E+04  0.25500000920E-02 0. -1.
       -2   -1    0    0    0  501  0.00000000000E+00  0.00000000000E+00 -0.86038470759E+03  0.86038470759E+03  0.25500000920E-02 0.  1.
    10030    2    1    2    0    0  0.00000000000E+00  0.00000000000E+00  0.10977664474E+04  0.28185358626E+04  0.25959686508E+04 0.  0.
        2    1    3    3  502    0  0.71097550279E+02  0.12933413834E+04  0.45819657990E+03  0.13739471975E+04  0.25500000920E-02 0.  1.
       -2    1    3    3    0  502 -0.71097550279E+02 -0.12933413834E+04  0.63956986755E+03  0.14445886651E+04  0.25500000920E-02 0. -1.
</event>
<event>
 5   0  0.6526351E-07  0.2600501E+04  0.7818609E-02  0.8368031E-01
       -2   -1    0    0    0  501  0.00000000000E+00  0.00000000000E+00  0.82828734922E+03  0.82828734922E+03  0.25500000920E-02 0.  1.
        2   -1    0    0  501    0  0.00000000000E+00  0.00000000000E+00 -0.20411404543E+04  0.20411404543E+04  0.25500000920E-02 0. -1.
    10030    2    1    2    0    0  0.00000000000E+00  0.00000000000E+00 -0.12128531051E+04  0.28694278036E+04  0.26005005797E+04 0.  0.
        3    1    3    3  502    0 -0.71678943004E+03 -0.10146755533E+04 -0.18294387276E+03  0.12557157466E+04  0.10100000352E+00 0.  1.
       -3    1    3    3    0  502  0.71678943004E+03  0.10146755533E+04 -0.10299092324E+04  0.16137120569E+04  0.10100000352E+00 0. -1.
</event>
<event>
 5   0  0.2294625E-07  0.2600086E+04  0.7818609E-02  0.8368172E-01
        3   -1    0    0  501    0  0.00000000000E+00  0.00000000000E+00  0.10935279612E+04  0.10935279659E+04  0.10100000352E+00 0. -1.
       -3   -1    0    0    0  501  0.00000000000E+00  0.00000000000E+00 -0.15455586794E+04  0.15455586827E+04  0.10100000352E+00 0.  1.
    10030    2    1    2    0    0  0.00000000000E+00  0.00000000000E+00 -0.45203071814E+03  0.26390866485E+04  0.26000858771E+04 0.  0.
        5    1    3    3  502    0  0.48282030196E+03 -0.93150820051E+03  0.55313605441E+03  0.11860879210E+04  0.46999998093E+01 0.  1.
       -5    1    3    3    0  502 -0.48282030196E+03  0.93150820051E+03 -0.10051667726E+04  0.14529987275E+04  0.46999998093E+01 0. -1.
</event>
<event>
 5   0  0.2641626E-07  0.2596553E+04  0.7818609E-02  0.8369373E-01
        1   -1    0    0  501    0  0.00000000000E+00  0.00000000000E+00  0.94015295092E+03  0.94015295094E+03  0.50400001928E-02 0. -1.
       -1   -1    0    0    0  501  0.00000000000E+00  0.00000000000E+00 -0.17928168269E+04  0.17928168269E+04  0.50400001928E-02 0.  1.
    10030    2    1    2    0    0  0.00000000000E+00  0.00000000000E+00 -0.85266387600E+03  0.27329697779E+04  0.25965531231E+04 0.  0.
        3    1    3    3  502    0 -0.46103082406E+03 -0.53655910475E+03  0.71947352374E+03  0.10090030997E+04  0.10100000352E+00 0. -1.
       -3    1    3    3    0  502  0.46103082406E+03  0.53655910475E+03 -0.15721373997E+04  0.17239666782E+04  0.10100000352E+00 0.  1.
</event>
<event>
 5   0  0.6599814E-07  0.2599595E+04  0.7818609E-02  0.8368339E-01
        2   -1    0    0  501    0  0.00000000000E+00  0.00000000000E+00  0.76829375065E+03  0.76829375065E+03  0.25500000920E-02 0. -1.
       -2   -1    0    0    0  501  0.00000000000E+00  0.00000000000E+00 -0.21989945363E+04  0.21989945363E+04  0.25500000920E-02 0.  1.
    10030    2    1    2    0    0  0.00000000000E+00  0.00000000000E+00 -0.14307007857E+04  0.29672882870E+04  0.25995951685E+04 0.  0.
        5    1    3    3  502    0  0.12158428457E+04  0.29300261960E+03 -0.31126153158E+03  0.12888096025E+04  0.46999998093E+01 0. -1.
       -5    1    3    3    0  502 -0.12158428457E+04 -0.29300261960E+03 -0.11194392541E+04  0.16784786845E+04  0.46999998093E+01 0.  1.
</event>
<event>
 5   0  0.2755061E-07  0.2600869E+04  0.7818609E-02  0.8367906E-01
       -1   -1    0    0    0  501  0.00000000000E+00  0.00000000000E+00  0.12631690981E+04  0.12631690981E+04  0.50400001928E-02 0.  1.
        1   -1    0    0  501    0  0.00000000000E+00  0.00000000000E+00 -0.13387994556E+04  0.13387994556E+04  0.50400001928E-02 0. -1.
    10030    2    1    2    0    0  0.00000000000E+00  0.00000000000E+00 -0.75630357547E+02  0.26019685537E+04  0.26008691631E+04 0.  0.
        4    1    3    3  502    0 -0.11026542649E+04  0.52759163956E+03  0.40613937023E+03  0.12880800313E+04  0.12699999809E+01 0.  1.
       -4    1    3    3    0  502  0.11026542649E+04 -0.52759163956E+03 -0.48176972778E+03  0.13138885225E+04  0.12699999809E+01 0. -1.
</event>
<event>
 5   0  0.7160320E-07  0.2598943E+04  0.7818609E-02  0.8368560E-01
       -2   -1    0    0    0  501  0.00000000000E+00  0.00000000000E+00  0.96569347119E+03  0.96569347119E+03  0.25500000920E-02 0. -1.
        2   -1    0    0  501    0  0.00000000000E+00  0.00000000000E+00 -0.17486153656E+04  0.17486153656E+04  0.25500000920E-02 0.  1.
    10030    2    1    2    0    0  0.00000000000E+00  0.00000000000E+00 -0.78292189443E+03  0.27143088368E+04  0.25989432023E+04 0.  0.
        1    1    3    3  502    0 -0.50189920627E+03 -0.11001645532E+04  0.10543314700E+03  0.12138290678E+04  0.50400001928E-02 0. -1.
       -1    1    3    3    0  502  0.50189920627E+03  0.11001645532E+04 -0.88835504143E+03  0.15004797690E+04  0.50400001928E-02 0.  1.
</event>
<event>
 5   0  0.6780984E-07  0.2597331E+04  0.7818609E-02  0.8369108E-01
        2   -1    0    0  501    0  0.00000000000E+00  0.00000000000E+00  0.21407800980E+04  0.21407800980E+04  0.25500000920E-02 0. -1.
       -2   -1    0    0    0  501  0.00000000000E+00  0.00000000000E+00 -0.78781206010E+03  0.78781206010E+03  0.25500000920E-02 0.  1.
    10030    2    1    2    0    0  0.00000000000E+00  0.00000000000E+00  0.13529680379E+04  0.29285921581E+04  0.25973312298E+04 0.  0.
        2    1    3    3  502    0 -0.35951295599E+03 -0.27072475272E+03 -0.69707454127E+03  0.82973150678E+03  0.25500000920E-02 0.  1.
       -2    1    3    3    0  502  0.35951295599E+03  0.27072475272E+03  0.20500425792E+04  0.20988606514E+04  0.25500000920E-02 0. -1.
</event>
<event>
 5   0  0.2864801E-07  0.2600191E+04  0.7818609E-02  0.8368136E-01
       -1   -1    0    0    0  501  0.00000000000E+00  0.00000000000E+00  0.10113554561E+04  0.10113554561E+04  0.50400001928E-02 0. -1.
        1   -1    0    0  501    0  0.00000000000E+00  0.00000000000E+00 -0.16712702637E+04  0.16712702637E+04  0.50400001928E-02 0.  1.
    10030    2    1    2    0    0  0.00000000000E+00  0.00000000000E+00 -0.65991480757E+03  0.26826257198E+04  0.26001909929E+04 0.  0.
        5    1    3    3  502    0  0.77981453904E+03 -0.64381842560E+03 -0.11729375264E+04  0.15486824759E+04  0.46999998093E+01 0.  1.
       -5    1    3    3    0  502 -0.77981453904E+03  0.64381842560E+03  0.51302271878E+03  0.11339432439E+04  0.46999998093E+01 0. -1.
</event>
<event>
 5   0  0.6768478E-07  0.2599391E+04  0.7818609E-02  0.8368408E-01
        2   -1    0    0  501    0  0.00000000000E+00  0.00000000000E+00  0.15146329120E+04  0.15146329120E+04  0.25500000920E-02 0. -1.
       -2   -1    0    0    0  501  0.00000000000E+00  0.00000000000E+00 -0.11152592388E+04  0.11152592388E+04  0.25500000920E-02 0.  1.
    10030    2    1    2    0    0  0.00000000000E+00  0.00000000000E+00  0.39937367312E+03  0.26298921508E+04  0.25993909660E+04 0.  0.
        4    1    3    3  502    0  0.88318208760E+03 -0.77190272666E+03  0.76604311332E+03  0.14009525630E+04  0.12699999809E+01 0. -1.
       -4    1    3    3    0  502 -0.88318208760E+03  0.77190272666E+03 -0.36666944020E+03  0.12289395878E+04  0.12699999809E+01 0.  1.
</event>
<event>
 5   0  0.6599814E-07  0.2599223E+04  0.7818609E-02  0.8368465E-01
        2   -1    0    0  501    0  0.00000000000E+00  0.00000000000E+00  0.17983350452E+04  0.17983350452E+04  0.25500000920E-02 0. -1.
       -2   -1    0    0    0  501  0.00000000000E+00  0.00000000000E+00 -0.93919671609E+03  0.93919671610E+03  0.25500000920E-02 0.  1.
    10030    2    1    2    0    0  0.00000000000E+00  0.00000000000E+00  0.85913832913E+03  0.27375317613E+04  0.25992232447E+04 0.  0.
        5    1    3    3  502    0  0.11573651267E+04 -0.52804212077E+03  0.70950509085E+03  0.14566200884E+04  0.46999998093E+01 0.  1.
       -5    1    3    3    0  502 -0.11573651267E+04  0.52804212077E+03  0.14963323829E+03  0.12809116730E+04  0.46999998093E+01 0. -1.
</event>
<event>
 5   0  0.2755061E-07  0.2600001E+04  0.7818609E-02  0.8368201E-01
       -1   -1    0    0    0  501  0.00000000000E+00  0.00000000000E+00  0.13545880222E+04  0.13545880222E+04  0.50400001928E-02 0. -1.
        1   -1    0    0  501    0  0.00000000000E+00  0.00000000000E+00 -0.12476130235E+04  0.12476130236E+04  0.50400001928E-02 0.  1.
    10030    2    1    2    0    0  0.00000000000E+00  0.00000000000E+00  0.10697499863E+03  0.26022010457E+04  0.26000012754E+04 0.  0.
        4    1    3    3  502    0 -0.27208490035E+03 -0.62905541596E+01  0.13257554751E+04  0.13534027326E+04  0.12699999809E+01 0. -1.
       -4    1    3    3    0  502  0.27208490035E+03  0.62905541596E+01 -0.12187804765E+04  0.12487983131E+04  0.12699999809E+01 0.  1.
</event>
<event>
 5   0  0.6526351E-07  0.2599960E+04  0.7818609E-02  0.8368215E-01
       -2   -1    0    0    0  501  0.00000000000E+00  0.00000000000E+00  0.69285474676E+03  0.69285474676E+03  0.25500000920E-02 0. -1.
        2   -1    0    0  501    0  0.00000000000E+00  0.00000000000E+00 -0.24391078447E+04  0.24391078447E+04  0.25500000920E-02 0.  1.
    10030    2    1    2    0    0  0.00000000000E+00  0.00000000000E+00 -0.17462530979E+04  0.31319625914E+04  0.25999595751E+04 0.  0.
        3    1    3    3  502    0  0.10680783273E+04  0.11717830913E+03  0.83270245347E+01  0.10745191571E+04  0.10100000352E+00 0. -1.
       -3    1    3    3    0  502 -0.10680783273E+04 -0.11717830913E+03 -0.17545801224E+04  0.20574434344E+04  0.10100000352E+00 0.  1.
</event>
<event>
 5   0  0.2864801E-07  0.2597150E+04  0.7818609E-02  0.8369170E-01
        1   -1    0    0  501    0  0.00000000000E+00  0.00000000000E+00  0.18652433452E+04  0.18652433452E+04  0.50400001928E-02 0. -1.
       -1   -1    0    0    0  501  0.00000000000E+00  0.00000000000E+00 -0.90406285476E+03  0.90406285478E+03  0.50400001928E-02 0.  1.
    10030    2    1    2    0    0  0.00000000000E+00  0.00000000000E+00  0.96118049044E+03  0.27693062000E+04  0.25971501485E+04 0.  0.
        5    1    3    3  502    0 -0.79737501015E+03 -0.10193161264E+04  0.36642854289E+03  0.13450294567E+04  0.46999998093E+01 0.  1.
       -5    1    3    3    0  502  0.79737501015E+03  0.10193161264E+04  0.59475194756E+03  0.14242767433E+04  0.46999998093E+01 0. -1.
</event>
<event>
 5   0  0.2641626E-07  0.2600008E+04  0.7818609E-02  0.8368199E-01
        1   -1    0    0  501    0  0.00000000000E+00  0.00000000000E+00  0.20392998059E+04  0.20392998060E+04  0.50400001928E-02 0. -1.
       -1   -1    0    0    0  501  0.00000000000E+00  0.00000000000E+00 -0.82872082144E+03  0.82872082146E+03  0.50400001928E-02 0.  1.
    10030    2    1    2    0    0  0.00000000000E+00  0.00000000000E+00  0.12105789845E+04  0.28680206274E+04  0.26000078541E+04 0.  0.
        3    1    3    3  502    0 -0.67316620831E+03  0.10509187315E+04  0.10067070216E+04  0.16034469002E+04  0.10100000352E+00 0. -1.
       -3    1    3    3    0  502  0.67316620831E+03 -0.10509187315E+04  0.20387196294E+03  0.12645737272E+04  0.10100000352E+00 0.  1.
</event>
<event>
 5   0  0.2641626E-07  0.2600818E+04  0.7818609E-02  0.8367924E-01
       -1   -1    0    0    0  501  0.00000000000E+00  0.00000000000E+00  0.12805021763E+04  0.12805021763E+04  0.50400001928E-02 0. -1.
        1   -1    0    0  501    0  0.00000000000E+00  0.00000000000E+00 -0.13206248324E+04  0.13206248324E+04  0.50400001928E-02 0.  1.
    10030    2    1    2    0    0  0.00000000000E+00  0.00000000000E+00 -0.40122656089E+02  0.26011270088E+04  0.26008175423E+04 0.  0.
        3    1    3    3  502    0 -0.42845149687E+03 -0.54701559521E+03 -0.11194037547E+04  0.13175209763E+04  0.10100000352E+00 0.  1.
       -3    1    3    3    0  502  0.42845149687E+03  0.54701559521E+03  0.10792810986E+04  0.12836060325E+04  0.10100000352E+00 0. -1.
</event>
<event>
 5   0  0.2623263E-07  0.2590033E+04  0.7818609E-02  0.8371595E-01
       -1   -1    0    0    0  501  0.00000000000E+00  0.00000000000E+00  0.10385550443E+04  0.10385550443E+04  0.50400001928E-02 0.  1.
        1   -1    0    0  501    0  0.00000000000E+00  0.00000000000E+00 -0.16148082102E+04  0.16148082102E+04  0.50400001928E-02 0. -1.
    10030    2    1    2    0    0  0.00000000000E+00  0.00000000000E+00 -0.57625316596E+03  0.26533632545E+04  0.25900325961E+04 0.  0.
        1    1    3    3  502    0  0.61579021582E+03 -0.24927824650E+03 -0.14269418270E+04  0.15740076911E+04  0.50400001928E-02 0. -1.
       -1    1    3    3    0  502 -0.61579021582E+03  0.24927824650E+03  0.85068866105E+03  0.10793555634E+04  0.50400001928E-02 0.  1.
</event>
<event>
 5   0  0.6526351E-07  0.2600985E+04  0.7818609E-02  0.8367867E-01
        2   -1    0    0  501    0  0.00000000000E+00  0.00000000000E+00  0.24780499704E+04  0.24780499704E+04  0.25500000920E-02 0. -1.
       -2   -1    0    0    0  501  0.00000000000E+00  0.00000000000E+00 -0.68250451850E+03  0.68250451850E+03  0.25500000920E-02 0.  1.
    10030    2    1    2    0    0  0.00000000000E+00  0.00000000000E+00  0.17955454519E+04  0.31605544889E+04  0.26009846611E+04 0.  0.
        3    1    3    3  502    0 -0.11728815069E+04 -0.12889005766E+03  0.23330613187E+03  0.12027865304E+04  0.10100000352E+00 0. -1.
       -3    1    3    3    0  502  0.11728815069E+04  0.12889005766E+03  0.15622393200E+04  0.19577679585E+04  0.10100000352E+00 0.  1.
</event>
<event>
 5   0  0.2294625E-07  0.2599614E+04  0.7818609E-02  0.8368332E-01
        3   -1    0    0  501    0  0.00000000000E+00  0.00000000000E+00  0.18469732324E+04  0.18469732352E+04  0.10100000352E+00 0. -1.
       -3   -1    0    0    0  501  0.00000000000E+00  0.00000000000E+00 -0.91473855063E+03  0.91473855620E+03  0.10100000352E+00 0.  1.
    10030    2    1    2    0    0  0.00000000000E+00  0.00000000000E+00  0.93223468179E+03  0.27617117914E+04  0.25996135322E+04 0.  0.
        1    1    3    3  502    0 -0.54764981867E+03 -0.86151163250E+02 -0.78284109045E+03  0.95926144494E+03  0.50400001928E-02 0.  1.
       -1    1    3    3    0  502  0.54764981867E+03  0.86151163250E+02  0.17150757722E+04  0.18024503464E+04  0.50400001928E-02 0. -1.
</event>
<event>
 5   0  0.6526351E-07  0.2600370E+04  0.7818609E-02  0.8368076E-01
       -2   -1    0    0    0  501  0.00000000000E+00  0.00000000000E+00  0.15848419177E+04  0.15848419177E+04  0.25500000920E-02 0. -1.
        2   -1    0    0  501    0  0.00000000000E+00  0.00000000000E+00 -0.10666557929E+04  0.10666557929E+04  0.25500000920E-02 0.  1.
    10030    2    1    2    0    0  0.00000000000E+00  0.00000000000E+00  0.51818612482E+03  0.26514977106E+04  0.26003698294E+04 0.  0.
        3    1    3    3  502    0  0.10933463930E+04 -0.49413410574E+03  0.76984687888E+03  0.14255662302E+04  0.10100000352E+00 0. -1.
       -3    1    3    3    0  502 -0.10933463930E+04  0.49413410574E+03 -0.25166075407E+03  0.12259314805E+04  0.10100000352E+00 0.  1.
</event>
<event>
 5   0  0.6599814E-07  0.2599794E+04  0.7818609E-02  0.8368271E-01
        2   -1    0    0  501    0  0.00000000000E+00  0.00000000000E+00  0.21279057157E+04  0.21279057157E+04  0.25500000920E-02 0. -1.
       -2   -1    0    0    0  501  0.00000000000E+00  0.00000000000E+00 -0.79408219914E+03  0.79408219915E+03  0.25500000920E-02 0.  1.
    10030    2    1    2    0    0  0.00000000000E+00  0.00000000000E+00  0.13338235165E+04  0.29219879148E+04  0.25997938766E+04 0.  0.
        5    1    3    3  502    0  0.70883801061E+03  0.63553230761E+03  0.16616743659E+04  0.19150813110E+04  0.46999998093E+01 0. -1.
       -5    1    3    3    0  502 -0.70883801061E+03 -0.63553230761E+03 -0.32785084943E+03  0.10069066038E+04  0.46999998093E+01 0.  1.
</event>
<event>
 5   0  0.2793576E-07  0.2600535E+04  0.7818609E-02  0.8368019E-01
       -1   -1    0    0    0  501  0.00000000000E+00  0.00000000000E+00  0.80994701455E+03  0.80994701456E+03  0.50400001928E-02 0. -1.
        1   -1    0    0  501    0  0.00000000000E+00  0.00000000000E+00 -0.20874157548E+04  0.20874157548E+04  0.50400001928E-02 0.  1.
    10030    2    1    2    0    0  0.00000000000E+00  0.00000000000E+00 -0.12774687403E+04  0.28973627694E+04  0.26005354516E+04 0.  0.
        2    1    3    3  502    0  0.63590284902E+03  0.78701159275E+03 -0.15486106275E+04  0.18498525768E+04  0.25500000920E-02 0.  1.
       -2    1    3    3    0  502 -0.63590284902E+03 -0.78701159275E+03  0.27114188719E+03  0.10475101926E+04  0.25500000920E-02 0. -1.
</event>
<event>
 5   0  0.2755061E-07  0.2596117E+04  0.7818609E-02  0.8369521E-01
       -1   -1    0    0    0  501  0.00000000000E+00  0.00000000000E+00  0.22000445475E+04  0.22000445475E+04  0.50400001928E-02 0.  1.
        1   -1    0    0  501    0  0.00000000000E+00  0.00000000000E+00 -0.76587339993E+03  0.76587339994E+03  0.50400001928E-02 0. -1.
    10030    2    1    2    0    0  0.00000000000E+00  0.00000000000E+00  0.14341711475E+04  0.29659179474E+04  0.25961167906E+04 0.  0.
        4    1    3    3  502    0  0.38783526919E+03  0.11322962187E+04  0.12910918293E+04  0.17605199935E+04  0.12699999809E+01 0.  1.
       -4    1    3    3    0  502 -0.38783526919E+03 -0.11322962187E+04  0.14307931821E+03  0.12053979539E+04  0.12699999809E+01 0. -1.
</event>
<event>
 5   0  0.6780984E-07  0.2587672E+04  0.7818609E-02  0.8372401E-01
       -2   -1    0    0    0  501  0.00000000000E+00  0.00000000000E+00  0.77445568586E+03  0.77445568586E+03  0.25500000920E-02 0. -1.
        2   -1    0    0  501    0  0.00000000000E+00  0.00000000000E+00 -0.21615330379E+04  0.21615330379E+04  0.25500000920E-02 0.  1.
    10030    2    1    2    0    0  0.00000000000E+00  0.00000000000E+00 -0.13870773521E+04  0.29359887238E+04  0.25876719664E+04 0.  0.
        2    1    3    3  502    0 -0.83788285844E+03  0.95685942642E+03 -0.42412307691E+03  0.13407117627E+04  0.25500000920E-02 0. -1.
       -2    1    3    3    0  502  0.83788285844E+03 -0.95685942642E+03 -0.96295427518E+03  0.15952769611E+04  0.25500000920E-02 0.  1.
</event>
<event>
 5   0  0.6526351E-07  0.2599845E+04  0.7818609E-02  0.8368254E-01
       -2   -1    0    0    0  501  0.00000000000E+00  0.00000000000E+00  0.13512683700E+04  0.13512683700E+04  0.25500000920E-02 0.  1.
        2   -1    0    0  501    0  0.00000000000E+00  0.00000000000E+00 -0.12505278887E+04  0.12505278887E+04  0.25500000920E-02 0. -1.
    10030    2    1    2    0    0  0.00000000000E+00  0.00000000000E+00  0.10074048128E+03  0.26017962587E+04  0.25998452122E+04 0.  0.
        3    1    3    3  502    0 -0.13888543630E+02  0.13780250735E+03  0.13438634600E+04  0.13509816549E+04  0.10100000352E+00 0.  1.
       -3    1    3    3    0  502  0.13888543630E+02 -0.13780250735E+03 -0.12431229787E+04  0.12508146038E+04  0.10100000352E+00 0. -1.
</event>
<event>
 5   0  0.2623263E-07  0.2601205E+04  0.7818609E-02  0.8367792E-01
       -1   -1    0    0    0  501  0.00000000000E+00  0.00000000000E+00  0.16036146306E+04  0.16036146306E+04  0.50400001928E-02 0.  1.
        1   -1    0    0  501    0  0.00000000000E+00  0.00000000000E+00 -0.10548460315E+04  0.10548460315E+04  0.50400001928E-02 0. -1.
    10030    2    1    2    0    0  0.00000000000E+00  0.00000000000E+00  0.54876859909E+03  0.26584606621E+04  0.26012047433E+04 0.  0.
        1    1    3    3  502    0 -0.86843055647E+03 -0.52847224898E+03  0.11034817875E+04  0.15003754879E+04  0.50400001928E-02 0.  1.
       -1    1    3    3    0  502  0.86843055647E+03  0.52847224898E+03 -0.55471318839E+03  0.11580851742E+04  0.50400001928E-02 0. -1.
</event>
<event>
 5   0  0.6599814E-07  0.2586895E+04  0.7818609E-02  0.8372666E-01
        2   -1    0    0  501    0  0.00000000000E+00  0.00000000000E+00  0.16904152153E+04  0.16904152153E+04  0.25500000920E-02 0. -1.
       -2   -1    0    0    0  501  0.00000000000E+00  0.00000000000E+00 -0.98970142532E+03  0.98970142532E+03  0.25500000920E-02 0.  1.
    10030    2    1    2    0    0  0.00000000000E+00  0.00000000000E+00  0.70071378998E+03  0.26801166406E+04  0.25868949325E+04 0.  0.
        5    1    3    3  502    0  0.74694433339E+03 -0.97208412624E+03  0.77766481359E+03  0.14517775442E+04  0.46999998093E+01 0.  1.
       -5    1    3    3    0  502 -0.74694433339E+03  0.97208412624E+03 -0.76951023612E+02  0.12283390964E+04  0.46999998093E+01 0. -1.
</event>
<event>
 5   0  0.2755061E-07  0.2601597E+04  0.7818609E-02  0.8367659E-01
        1   -1    0    0  501    0  0.00000000000E+00  0.00000000000E+00  0.14797332162E+04  0.14797332162E+04  0.50400001928E-02 0. -1.
       -1   -1    0    0    0  501  0.00000000000E+00  0.00000000000E+00 -0.11435016182E+04  0.11435016182E+04  0.50400001928E-02 0.  1.
    10030    2    1    2    0    0  0.00000000000E+00  0.00000000000E+00  0.33623159795E+03  0.26232348344E+04  0.26015974533E+04 0.  0.
        4    1    3    3  502    0 -0.74368490291E+03 -0.67499332323E+03  0.10016667934E+04  0.14184573307E+04  0.12699999809E+01 0. -1.
       -4    1    3    3    0  502  0.74368490291E+03  0.67499332323E+03 -0.66543519542E+03  0.12047775037E+04  0.12699999809E+01 0.  1.
</event>
<event>
 5   0  0.2864801E-07  0.2601510E+04  0.7818609E-02  0.8367689E-01
       -1   -1    0    0    0  501  0.00000000000E+00  0.00000000000E+00  0.98988790652E+03  0.98988790653E+03  0.50400001928E-02 0.  1.
        1   -1    0    0  501    0  0.00000000000E+00  0.00000000000E+00 -0.17092471267E+04  0.17092471267E+04  0.50400001928E-02 0. -1.
    10030    2    1    2    0    0  0.00000000000E+00  0.00000000000E+00 -0.71935922015E+03  0.26991350332E+04  0.26015096079E+04 0.  0.
        5    1    3    3  502    0 -0.43866461506E+03 -0.10322642319E+04  0.32378567842E+03  0.11674139560E+04  0.46999998093E+01 0.  1.
       -5    1    3    3    0  502  0.43866461506E+03  0.10322642319E+04 -0.10431448986E+04  0.15317210772E+04  0.46999998093E+01 0. -1.
</event>
<event>
 5   0  0.6780984E-07  0.2599401E+04  0.7818609E-02  0.8368405E-01
        2   -1    0    0  501    0  0.00000000000E+00  0.00000000000E+00  0.10176569170E+04  0.10176569170E+04  0.25500000920E-02 0. -1.
       -2   -1    0    0    0  501  0.00000000000E+00  0.00000000000E+00 -0.16599119837E+04  0.16599119837E+04  0.25500000920E-02 0.  1.
    10030    2    1    2    0    0  0.00000000000E+00  0.00000000000E+00 -0.64225506675E+03  0.26775689007E+04  0.25994006323E+04 0.  0.
        2    1    3    3  502    0  0.45604527103E+03 -0.29008373406E+03  0.89640454338E+03  0.10467411177E+04  0.25500000920E-02 0. -1.
       -2    1    3    3    0  502 -0.45604527103E+03  0.29008373406E+03 -0.15386596101E+04  0.16308277830E+04  0.25500000920E-02 0.  1.
</event>
<event>
 5   0  0.2623263E-07  0.2600309E+04  0.7818609E-02  0.8368096E-01
       -1   -1    0    0    0  501  0.00000000000E+00  0.00000000000E+00  0.10033817515E+04  0.10033817515E+04  0.50400001928E-02 0.  1.
        1   -1    0    0  501    0  0.00000000000E+00  0.00000000000E+00 -0.16847043278E+04  0.16847043278E+04  0.50400001928E-02 0. -1.
    10030    2    1    2    0    0  0.00000000000E+00  0.00000000000E+00 -0.68132257631E+03  0.26880860793E+04  0.26003088888E+04 0.  0.
        1    1    3    3  502    0 -0.51218451839E+03 -0.10469036909E+04  0.25503835121E+03  0.11930569473E+04  0.50400001928E-02 0.  1.
       -1    1    3    3    0  502  0.51218451839E+03  0.10469036909E+04 -0.93636092752E+03  0.14950291320E+04  0.50400001928E-02 0. -1.
</event>
<event>
 5   0  0.2793576E-07  0.2601172E+04  0.7818609E-02  0.8367803E-01
        1   -1    0    0  501    0  0.00000000000E+00  0.00000000000E+00  0.17367537536E+04  0.17367537537E+04  0.50400001928E-02 0.  1.
       -1   -1    0    0    0  501  0.00000000000E+00  0.00000000000E+00 -0.97395745218E+03  0.97395745219E+03  0.50400001928E-02 0. -1.
    10030    2    1    2    0    0  0.00000000000E+00  0.00000000000E+00  0.76279630147E+03  0.27107112058E+04  0.26011722442E+04 0.  0.
        2    1    3    3  502    0 -0.46813992906E+02 -0.12992227539E+04  0.34306676867E+03  0.13445691213E+04  0.25500000920E-02 0. -1.
       -2    1    3    3    0  502  0.46813992906E+02  0.12992227539E+04  0.41972953279E+03  0.13661420845E+04  0.25500000920E-02 0.  1.
</event>
<event>
 5   0  0.6599814E-07  0.2599399E+04  0.7818609E-02  0.8368405E-01
        2   -1    0    0  501    0  0.00000000000E+00  0.00000000000E+00  0.13847035196E+04  0.13847035196E+04  0.25500000920E-02 0. -1.
       -2   -1    0    0    0  501  0.00000000000E+00  0.00000000000E+00 -0.12199140520E+04  0.12199140520E+04  0.25500000920E-02 0.  1.
    10030    2    1    2    0    0  0.00000000000E+00  0.00000000000E+00  0.16478946764E+03  0.26046175716E+04  0.25993993778E+04 0.  0.
        5    1    3    3  502    0 -0.18144023387E+03  0.62096728167E+03 -0.10471109349E+04  0.12308469943E+04  0.46999998093E+01 0.  1.
       -5    1    3    3    0  502  0.18144023387E+03 -0.62096728167E+03  0.12119004025E+04  0.13737705773E+04  0.46999998093E+01 0. -1.
</event>
<event>
 5   0  0.6768478E-07  0.2600500E+04  0.7818609E-02  0.8368031E-01
        2   -1    0    0  501    0  0.00000000000E+00  0.00000000000E+00  0.13754190865E+04  0.13754190865E+04  0.25500000920E-02 0. -1.
       -2   -1    0    0    0  501  0.00000000000E+00  0.00000000000E+00 -0.12291892639E+04  0.12291892639E+04  0.25500000920E-02 0.  1.
    10030    2    1    2    0    0  0.00000000000E+00  0.00000000000E+00  0.14622982260E+03  0.26046083504E+04  0.26005002399E+04 0.  0.
        4    1    3    3  502    0 -0.32876692559E+02 -0.11893652907E+04 -0.45209701081E+03  0.12728173442E+04  0.12699999809E+01 0.  1.
       -4    1    3    3    0  502  0.32876692559E+02  0.11893652907E+04  0.59832683341E+03  0.13317910062E+04  0.12699999809E+01 0. -1.
</event>
<event>
 5   0  0.2793576E-07  0.2601275E+04  0.7818609E-02  0.8367768E-01
        1   -1    0    0  501    0  0.00000000000E+00  0.00000000000E+00  0.19881195485E+04  0.19881195485E+04  0.50400001928E-02 0. -1.
       -1   -1    0    0    0  501  0.00000000000E+00  0.00000000000E+00 -0.85088313539E+03  0.85088313541E+03  0.50400001928E-02 0.  1.
    10030    2    1    2    0    0  0.00000000000E+00  0.00000000000E+00  0.11372364131E+04  0.28390026839E+04  0.26012746068E+04 0.  0.
        2    1    3    3  502    0 -0.36929628157E+03 -0.74776123255E+03  0.16578938276E+04  0.18558390415E+04  0.25500000920E-02 0. -1.
       -2    1    3    3    0  502  0.36929628157E+03  0.74776123255E+03 -0.52065741447E+03  0.98316364240E+03  0.25500000920E-02 0.  1.
</event>
<event>
 5   0  0.2641626E-07  0.2600353E+04  0.7818609E-02  0.8368081E-01
        1   -1    0    0  501    0  0.00000000000E+00  0.00000000000E+00  0.12009266318E+04  0.12009266318E+04  0.50400001928E-02 0. -1.
       -1   -1    0    0    0  501  0.00000000000E+00  0.00000000000E+00 -0.14076284475E+04  0.14076284475E+04  0.50400001928E-02 0.  1.
    10030    2    1    2    0    0  0.00000000000E+00  0.00000000000E+00 -0.20670181576E+03  0.26085550793E+04  0.26003526609E+04 0.  0.
        3    1    3    3  502    0 -0.45843125928E+03  0.39495606603E+03 -0.12577671271E+04  0.13957534416E+04  0.10100000352E+00 0.  1.
       -3    1    3    3    0  502  0.45843125928E+03 -0.39495606603E+03  0.10510653113E+04  0.12128016377E+04  0.10100000352E+00 0. -1.
</event>
<event>
 5   0  0.2793576E-07  0.2600612E+04  0.7818609E-02  0.8367993E-01
       -1   -1    0    0    0  501  0.00000000000E+00  0.00000000000E+00  0.95604552729E+03  0.95604552730E+03  0.50400001928E-02 0.  1.
        1   -1    0    0  501    0  0.00000000000E+00  0.00000000000E+00 -0.17685303499E+04  0.17685303499E+04  0.50400001928E-02 0. -1.
    10030    2    1    2    0    0  0.00000000000E+00  0.00000000000E+00 -0.81248482257E+03  0.27245758772E+04  0.26006118748E+04 0.  0.
        2    1    3    3  502    0 -0.16177452885E+03  0.24727558074E+03 -0.17328883977E+04  0.17579017066E+04  0.25500000920E-02 0. -1.
       -2    1    3    3    0  502  0.16177452885E+03 -0.24727558074E+03  0.92040357513E+03  0.96667417062E+03  0.25500000920E-02 0.  1.
</event>
<event>
 5   0  0.6526351E-07  0.2600357E+04  0.7818609E-02  0.8368080E-01
        2   -1    0    0  501    0  0.00000000000E+00  0.00000000000E+00  0.22041493448E+04  0.22041493448E+04  0.25500000920E-02 0. -1.
       -2   -1    0    0    0  501  0.00000000000E+00  0.00000000000E+00 -0.76694605507E+03  0.76694605508E+03  0.25500000920E-02 0.  1.
    10030    2    1    2    0    0  0.00000000000E+00  0.00000000000E+00  0.14372032898E+04  0.29710953999E+04  0.26003566254E+04 0.  0.
        3    1    3    3  502    0  0.12587649937E+03 -0.63844972260E+03  0.20046938615E+04  0.21076670586E+04  0.10100000352E+00 0. -1.
       -3    1    3    3    0  502 -0.12587649937E+03  0.63844972260E+03 -0.56749057173E+03  0.86342834132E+03  0.10100000352E+00 0.  1.
</event>
<event>
 5   0  0.2294625E-07  0.2600284E+04  0.7818609E-02  0.8368105E-01
        3   -1    0    0  501    0  0.00000000000E+00  0.00000000000E+00  0.13699836545E+04  0.13699836582E+04  0.10100000352E+00 0. -1.
       -3   -1    0    0    0  501  0.00000000000E+00  0.00000000000E+00 -0.12338612006E+04  0.12338612048E+04  0.10100000352E+00 0.  1.
    10030    2    1    2    0    0  0.00000000000E+00  0.00000000000E+00  0.13612245388E+03  0.26038448630E+04  0.26002843591E+04 0.  0.
        2    1    3    3  502    0 -0.67632011649E+03  0.96853609079E+03  0.61185050171E+03  0.13303503657E+04  0.25500000920E-02 0. -1.
       -2    1    3    3    0  502  0.67632011649E+03 -0.96853609079E+03 -0.47572804783E+03  0.12734944973E+04  0.25500000920E-02 0.  1.
</event>
<event>
 5   0  0.2755061E-07  0.2599486E+04  0.7818609E-02  0.8368376E-01
        1   -1    0    0  501    0  0.00000000000E+00  0.00000000000E+00  0.17730654131E+04  0.17730654131E+04  0.50400001928E-02 0. -1.
       -1   -1    0    0    0  501  0.00000000000E+00  0.00000000000E+00 -0.95277478525E+03  0.95277478527E+03  0.50400001928E-02 0.  1.
    10030    2    1    2    0    0  0.00000000000E+00  0.00000000000E+00  0.82029062783E+03  0.27258401984E+04  0.25994861171E+04 0.  0.
        4    1    3    3  502    0 -0.10820624323E+04 -0.44369288425E+02 -0.34346905858E+03  0.11361339482E+04  0.12699999809E+01 0.  1.
       -4    1    3    3    0  502  0.10820624323E+04  0.44369288425E+02  0.11637596864E+04  0.15897062502E+04  0.12699999809E+01 0. -1.
</event>
<event>
 5   0  0.2641626E-07  0.2600735E+04  0.7818609E-02  0.8367952E-01
        1   -1    0    0  501    0  0.00000000000E+00  0.00000000000E+00  0.10200546628E+04  0.10200546628E+04  0.50400001928E-02 0. -1.
       -1   -1    0    0    0  501  0.00000000000E+00  0.00000000000E+00 -0.16577109412E+04  0.16577109413E+04  0.50400001928E-02 0.  1.
    10030    2    1    2    0    0  0.00000000000E+00  0.00000000000E+00 -0.63765627849E+03  0.26777656040E+04  0.26007351077E+04 0.  0.
        3    1    3    3  502    0  0.11278538211E+04 -0.72073263367E+02  0.34342321674E+03  0.11811808977E+04  0.10100000352E+00 0. -1.
       -3    1    3    3    0  502 -0.11278538211E+04  0.72073263367E+02 -0.98107949523E+03  0.14965847063E+04  0.10100000352E+00 0.  1.
</event>
<event>
 5   0  0.7160320E-07  0.2599969E+04  0.7818609E-02  0.8368212E-01
        2   -1    0    0  501    0  0.00000000000E+00  0.00000000000E+00  0.18571501114E+04  0.18571501114E+04  0.25500000920E-02 0.  1.
       -2   -1    0    0    0  501  0.00000000000E+00  0.00000000000E+00 -0.90997439781E+03  0.90997439782E+03  0.25500000920E-02 0. -1.
    10030    2    1    2    0    0  0.00000000000E+00  0.00000000000E+00  0.94717571357E+03  0.27671245092E+04  0.25999685031E+04 0.  0.
        1    1    3    3  502    0  0.30813700188E+03 -0.12479480542E+04  0.68006123072E+03  0.14542372693E+04  0.50400001928E-02 0. -1.
       -1    1    3    3    0  502 -0.30813700188E+03  0.12479480542E+04  0.26711448285E+03  0.13128872399E+04  0.50400001928E-02 0.  1.
</event>
<event>
 5   0  0.2623263E-07  0.2599976E+04  0.7818609E-02  0.8368209E-01
        1   -1    0    0  501    0  0.00000000000E+00  0.00000000000E+00  0.14187430728E+04  0.14187430728E+04  0.50400001928E-02 0. -1.
       -1   -1    0    0    0  501  0.00000000000E+00  0.00000000000E+00 -0.11911735310E+04  0.11911735310E+04  0.50400001928E-02 0.  1.
    10030    2    1    2    0    0  0.00000000000E+00  0.00000000000E+00  0.22756954180E+03  0.26099166039E+04  0.25999763043E+04 0.  0.
        1    1    3    3  502    0  0.93325122070E+03  0.81476236577E+03  0.50921167734E+03  0.13394372273E+04  0.50400001928E-02 0. -1.
       -1    1    3    3    0  502 -0.93325122070E+03 -0.81476236577E+03 -0.28164213555E+03  0.12704793765E+04  0.50400001928E-02 0.  1.
</event>
<event>
 5   0  0.6526351E-07  0.2599561E+04  0.7818609E-02  0.8368350E-01
       -2   -1    0    0    0  501  0.00000000000E+00  0.00000000000E+00  0.10915806879E+04  0.10915806879E+04  0.25500000920E-02 0. -1.
        2   -1    0    0  501    0  0.00000000000E+00  0.00000000000E+00 -0.15476907830E+04  0.15476907830E+04  0.25500000920E-02 0.  1.
    10030    2    1    2    0    0  0.00000000000E+00  0.00000000000E+00 -0.45611009504E+03  0.26392714709E+04  0.25995610165E+04 0.  0.
        3    1    3    3  502    0 -0.34644891557E+03 -0.64829724180E+03  0.86028711325E+03  0.11315520723E+04  0.10100000352E+00 0. -1.
       -3    1    3    3    0  502  0.34644891557E+03  0.64829724180E+03 -0.13163972083E+04  0.15077193986E+04  0.10100000352E+00 0.  1.
</event>
<event>
 5   0  0.6526351E-07  0.2601357E+04  0.7818609E-02  0.8367741E-01
       -2   -1    0    0    0  501  0.00000000000E+00  0.00000000000E+00  0.10276916211E+04  0.10276916211E+04  0.25500000920E-02 0. -1.
        2   -1    0    0  501    0  0.00000000000E+00  0.00000000000E+00 -0.16461787094E+04  0.16461787094E+04  0.25500000920E-02 0.  1.
    10030    2    1    2    0    0  0.00000000000E+00  0.00000000000E+00 -0.61848708834E+03  0.26738703305E+04  0.26013566203E+04 0.  0.
        3    1    3    3  502    0  0.28495403779E+02  0.99524871153E+03  0.55100403653E+03  0.11379531820E+04  0.10100000352E+00 0. -1.
       -3    1    3    3    0  502 -0.28495403779E+02 -0.99524871153E+03 -0.11694911249E+04  0.15359171485E+04  0.10100000352E+00 0.  1.
</event>
<event>
 5   0  0.6768478E-07  0.2598318E+04  0.7818609E-02  0.8368773E-01
        2   -1    0    0  501    0  0.00000000000E+00  0.00000000000E+00  0.17281418200E+04  0.17281418201E+04  0.25500000920E-02 0. -1.
       -2   -1    0    0    0  501  0.00000000000E+00  0.00000000000E+00 -0.97666396752E+03  0.97666396752E+03  0.25500000920E-02 0.  1.
    10030    2    1    2    0    0  0.00000000000E+00  0.00000000000E+00  0.75147785253E+03  0.27048057876E+04  0.25983177992E+04 0.  0.
        4    1    3    3  502    0  0.88665647089E+03  0.84230144653E+03 -0.80611885773E+02  0.12256146675E+04  0.12699999809E+01 0.  1.
       -4    1    3    3    0  502 -0.88665647089E+03 -0.84230144653E+03  0.83208973830E+03  0.14791911201E+04  0.12699999809E+01 0. -1.
</event>
<event>
 5   0  0.2641626E-07  0.2590214E+04  0.7818609E-02  0.8371533E-01
       -1   -1    0    0    0  501  0.00000000000E+00  0.00000000000E+00  0.83189226841E+03  0.83189226842E+03  0.50400001928E-02 0.  1.
        1   -1    0    0  501    0  0.00000000000E+00  0.00000000000E+00 -0.20162496302E+04  0.20162496302E+04  0.50400001928E-02 0. -1.
    10030    2    1    2    0    0  0.00000000000E+00  0.00000000000E+00 -0.11843573618E+04  0.28481418986E+04  0.25902142603E+04 0.  0.
        3    1    3    3  502    0  0.71506431031E+02  0.10635948123E+04 -0.14009144514E+04  0.17603716666E+04  0.10100000352E+00 0. -1.
       -3    1    3    3    0  502 -0.71506431031E+02 -0.10635948123E+04  0.21655708958E+03  0.10877702320E+04  0.10100000352E+00 0.  1.
</event>
<event>
 5   0  0.6768478E-07  0.2600269E+04  0.7818609E-02  0.8368110E-01
        2   -1    0    0  501    0  0.00000000000E+00  0.00000000000E+00  0.16959595768E+04  0.16959595768E+04  0.25500000920E-02 0.  1.
       -2   -1    0    0    0  501  0.00000000000E+00  0.00000000000E+00 -0.99669237018E+03  0.99669237019E+03  0.25500000920E-02 0. -1.
    10030    2    1    2    0    0  0.00000000000E+00  0.00000000000E+00  0.69926720662E+03  0.26926519470E+04  0.26002691940E+04 0.  0.
        4    1    3    3  502    0  0.81075277164E+03 -0.93971463494E+03 -0.51377538031E+02  0.12421855401E+04  0.12699999809E+01 0. -1.
       -4    1    3    3    0  502 -0.81075277164E+03  0.93971463494E+03  0.75064474465E+03  0.14504664069E+04  0.12699999809E+01 0.  1.
</event>
<event>
 5   0  0.2864801E-07  0.2598398E+04  0.7818609E-02  0.8368746E-01
       -1   -1    0    0    0  501  0.00000000000E+00  0.00000000000E+00  0.96306618632E+03  0.96306618633E+03  0.50400001928E-02 0.  1.
        1   -1    0    0  501    0  0.00000000000E+00  0.00000000000E+00 -0.17526496730E+04  0.17526496730E+04  0.50400001928E-02 0. -1.
    10030    2    1    2    0    0  0.00000000000E+00  0.00000000000E+00 -0.78958348665E+03  0.27157158593E+04  0.25983976882E+04 0.  0.
        5    1    3    3  502    0 -0.11387437941E+04 -0.60818120355E+03 -0.54723234214E+03  0.14021794219E+04  0.46999998093E+01 0.  1.
       -5    1    3    3    0  502  0.11387437941E+04  0.60818120355E+03 -0.24235114451E+03  0.13135364374E+04  0.46999998093E+01 0. -1.
</event>
<event>
 5   0  0.7160320E-07  0.2599474E+04  0.7818609E-02  0.8368380E-01
       -2   -1    0    0    0  501  0.00000000000E+00  0.00000000000E+00  0.81535095406E+03  0.81535095406E+03  0.25500000920E-02 0. -1.
        2   -1    0    0  501    0  0.00000000000E+00  0.00000000000E+00 -0.20718879070E+04  0.20718879070E+04  0.25500000920E-02 0.  1.
    10030    2    1    2    0    0  0.00000000000E+00  0.00000000000E+00 -0.12565369529E+04  0.28872388610E+04  0.25994736249E+04 0.  0.
        1    1    3    3  502    0  0.12609989089E+04 -0.30872271753E+03 -0.55901362389E+03  0.14134794644E+04  0.50400001928E-02 0. -1.
       -1    1    3    3    0  502 -0.12609989089E+04  0.30872271753E+03 -0.69752332901E+03  0.14737593966E+04  0.50400001928E-02 0.  1.
</event>
<event>
 5   0  0.2793576E-07  0.2599758E+04  0.7818609E-02  0.8368283E-01
        1   -1    0    0  501    0  0.00000000000E+00  0.00000000000E+00  0.14879575255E+04  0.14879575255E+04  0.50400001928E-02 0. -1.
       -1   -1    0    0    0  501  0.00000000000E+00  0.00000000000E+00 -0.11355737375E+04  0.11355737375E+04  0.50400001928E-02 0.  1.
    10030    2    1    2    0    0  0.00000000000E+00  0.00000000000E+00  0.35238378803E+03  0.26235312631E+04  0.25997580569E+04 0.  0.
        2    1    3    3  502    0  0.14052064945E+03 -0.45340655557E+03  0.13973658289E+04  0.14757895572E+04  0.25500000920E-02 0. -1.
       -2    1    3    3    0  502 -0.14052064945E+03  0.45340655557E+03 -0.10449820408E+04  0.11477417058E+04  0.25500000920E-02 0.  1.
</event>
<event>
 5   0  0.6599814E-07  0.2594759E+04  0.7818609E-02  0.8369984E-01
        2   -1    0    0  501    0  0.00000000000E+00  0.00000000000E+00  0.18715941969E+04  0.18715941969E+04  0.25500000920E-02 0.  1.
       -2   -1    0    0    0  501  0.00000000000E+00  0.00000000000E+00 -0.89933647648E+03  0.89933647648E+03  0.25500000920E-02 0. -1.
    10030    2    1    2    0    0  0.00000000000E+00  0.00000000000E+00  0.97225772038E+03  0.27709306733E+04  0.25947585093E+04 0.  0.
        5    1    3    3  502    0  0.59140865594E+03 -0.27282140278E+03  0.16843508620E+04  0.18058946903E+04  0.46999998093E+01 0.  1.
       -5    1    3    3    0  502 -0.59140865594E+03  0.27282140278E+03 -0.71209314165E+03  0.96503598301E+03  0.46999998093E+01 0. -1.
</event>
<event>
 5   0  0.2641626E-07  0.2599866E+04  0.7818609E-02  0.8368247E-01
       -1   -1    0    0    0  501  0.00000000000E+00  0.00000000000E+00  0.19044982169E+04  0.19044982169E+04  0.50400001928E-02 0.  1.
        1   -1    0    0  501    0  0.00000000000E+00  0.00000000000E+00 -0.88728105657E+03  0.88728105659E+03  0.50400001928E-02 0. -1.
    10030    2    1    2    0    0  0.00000000000E+00  0.00000000000E+00  0.10172171604E+04  0.27917792735E+04  0.25998655274E+04 0.  0.
        3    1    3    3  502    0 -0.11361182295E+02 -0.77592352724E+03 -0.61127412009E+03  0.98784738532E+03  0.10100000352E+00 0. -1.
       -3    1    3    3    0  502  0.11361182295E+02  0.77592352724E+03  0.16284912805E+04  0.18039318882E+04  0.10100000352E+00 0.  1.
</event>
<event>
 5   0  0.2641626E-07  0.2600722E+04  0.7818609E-02  0.8367956E-01
        1   -1    0    0  501    0  0.00000000000E+00  0.00000000000E+00  0.18290937830E+04  0.18290937830E+04  0.50400001928E-02 0.  1.
       -1   -1    0    0    0  501  0.00000000000E+00  0.00000000000E+00 -0.92446811456E+03  0.92446811457E+03  0.50400001928E-02 0. -1.
    10030    2    1    2    0    0  0.00000000000E+00  0.00000000000E+00  0.90462566843E+03  0.27535618976E+04  0.26007221158E+04 0.  0.
        3    1    3    3  502    0 -0.31183458588E+03  0.61089617077E+03  0.16220020445E+04  0.17610580862E+04  0.10100000352E+00 0.  1.
       -3    1    3    3    0  502  0.31183458588E+03 -0.61089617077E+03 -0.71737637608E+03  0.99250381136E+03  0.10100000352E+00 0. -1.
</event>
<event>
 5   0  0.2294625E-07  0.2600789E+04  0.7818609E-02  0.8367933E-01
        3   -1    0    0  501    0  0.00000000000E+00  0.00000000000E+00  0.19883542479E+04  0.19883542504E+04  0.10100000352E+00 0.  1.
       -3   -1    0    0    0  501  0.00000000000E+00  0.00000000000E+00 -0.85046486373E+03  0.85046486972E+03  0.10100000352E+00 0. -1.
    10030    2    1    2    0    0  0.00000000000E+00  0.00000000000E+00  0.11378893842E+04  0.28388191202E+04  0.26007886778E+04 0.  0.
        5    1    3    3  502    0  0.10322443533E+04 -0.68243750167E+03  0.10052178802E+04  0.15942817898E+04  0.46999998093E+01 0.  1.
       -5    1    3    3    0  502 -0.10322443533E+04  0.68243750167E+03  0.13267150393E+03  0.12445373303E+04  0.46999998093E+01 0. -1.
</event>
<event>
 5   0  0.2641626E-07  0.2599702E+04  0.7818609E-02  0.8368302E-01
       -1   -1    0    0    0  501  0.00000000000E+00  0.00000000000E+00  0.13347876220E+04  0.13347876220E+04  0.50400001928E-02 0. -1.
        1   -1    0    0  501    0  0.00000000000E+00  0.00000000000E+00 -0.12658288810E+04  0.12658288810E+04  0.50400001928E-02 0.  1.
    10030    2    1    2    0    0  0.00000000000E+00  0.00000000000E+00  0.68958740974E+02  0.26006165030E+04  0.25997020767E+04 0.  0.
        3    1    3    3  502    0  0.95907770886E+03  0.11089767048E+03 -0.83616254193E+03  0.12772220448E+04  0.10100000352E+00 0.  1.
       -3    1    3    3    0  502 -0.95907770886E+03 -0.11089767048E+03  0.90512128291E+03  0.13233944582E+04  0.10100000352E+00 0. -1.
</event>
<event>
 5   0  0.2793576E-07  0.2598005E+04  0.7818609E-02  0.8368879E-01
       -1   -1    0    0    0  501  0.00000000000E+00  0.00000000000E+00  0.73685002161E+03  0.73685002163E+03  0.50400001928E-02 0.  1.
        1   -1    0    0  501    0  0.00000000000E+00  0.00000000000E+00 -0.22900282452E+04  0.22900282452E+04  0.50400001928E-02 0. -1.
    10030    2    1    2    0    0  0.00000000000E+00  0.00000000000E+00 -0.15531782236E+04  0.30268782668E+04  0.25980048976E+04 0.  0.
        2    1    3    3  502    0 -0.74074529960E+03 -0.26725639868E+03 -0.19802211068E+04  0.21310572994E+04  0.25500000920E-02 0. -1.
       -2    1    3    3    0  502  0.74074529960E+03  0.26725639868E+03  0.42704288324E+03  0.89582096741E+03  0.25500000920E-02 0.  1.
</event>
<event>
 5   0  0.2864801E-07  0.2599921E+04  0.7818609E-02  0.8368228E-01
       -1   -1    0    0    0  501  0.00000000000E+00  0.00000000000E+00  0.12021128610E+04  0.12021128610E+04  0.50400001928E-02 0.  1.
        1   -1    0    0  501    0  0.00000000000E+00  0.00000000000E+00 -0.14057726215E+04  0.14057726215E+04  0.50400001928E-02 0. -1.
    10030    2    1    2    0    0  0.00000000000E+00  0.00000000000E+00 -0.20365976053E+03  0.26078854825E+04  0.25999210357E+04 0.  0.
        5    1    3    3  502    0  0.35916972013E+03  0.12489076872E+04 -0.68532422541E+02  0.13013424153E+04  0.46999998093E+01 0.  1.
       -5    1    3    3    0  502 -0.35916972013E+03 -0.12489076872E+04 -0.13512733799E+03  0.13065430672E+04  0.46999998093E+01 0. -1.
</event>
<event>
 5   0  0.6599814E-07  0.2595637E+04  0.7818609E-02  0.8369685E-01
        2   -1    0    0  501    0  0.00000000000E+00  0.00000000000E+00  0.14755455770E+04  0.14755455770E+04  0.25500000920E-02 0.  1.
       -2   -1    0    0    0  501  0.00000000000E+00  0.00000000000E+00 -0.11414982830E+04  0.11414982830E+04  0.25500000920E-02 0. -1.
    10030    2    1    2    0    0  0.00000000000E+00  0.00000000000E+00  0.33404729402E+03  0.26170438600E+04  0.25956369104E+04 0.  0.
        5    1    3    3  502    0  0.20393910003E+03 -0.40469826296E+03  0.13931695833E+04  0.14650308592E+04  0.46999998093E+01 0.  1.
       -5    1    3    3    0  502 -0.20393910003E+03  0.40469826296E+03 -0.10591222893E+04  0.11520130009E+04  0.46999998093E+01 0. -1.
</event>
<event>
 5   0  0.2294625E-07  0.2599550E+04  0.7818609E-02  0.8368354E-01
       -3   -1    0    0    0  501  0.00000000000E+00  0.00000000000E+00  0.83284621514E+03  0.83284622126E+03  0.10100000352E+00 0. -1.
        3   -1    0    0  501    0  0.00000000000E+00  0.00000000000E+00 -0.20284837607E+04  0.20284837633E+04  0.10100000352E+00 0.  1.
    10030    2    1    2    0    0  0.00000000000E+00  0.00000000000E+00 -0.11956375456E+04  0.28613299845E+04  0.25995499880E+04 0.  0.
        2    1    3    3  502    0  0.85749810267E+03  0.89131865248E+03 -0.10376358110E+04  0.16144472777E+04  0.25500000920E-02 0.  1.
       -2    1    3    3    0  502 -0.85749810267E+03 -0.89131865248E+03 -0.15800173464E+03  0.12468827068E+04  0.25500000920E-02 0. -1.
</event>
<event>
 5   0  0.7160320E-07  0.2598992E+04  0.7818609E-02  0.8368544E-01
       -2   -1    0    0    0  501  0.00000000000E+00  0.00000000000E+00  0.87459972561E+03  0.87459972561E+03  0.25500000920E-02 0.  1.
        2   -1    0    0  501    0  0.00000000000E+00  0.00000000000E+00 -0.19308148503E+04  0.19308148503E+04  0.25500000920E-02 0. -1.
    10030    2    1    2    0    0  0.00000000000E+00  0.00000000000E+00 -0.10562151247E+04  0.28054145759E+04  0.25989922188E+04 0.  0.
        1    1    3    3  502    0 -0.54585006528E+03 -0.20352619918E+03  0.72575152795E+03  0.93063982714E+03  0.50400001928E-02 0.  1.
       -1    1    3    3    0  502  0.54585006528E+03  0.20352619918E+03 -0.17819666526E+04  0.18747747488E+04  0.50400001928E-02 0. -1.
</event>
<event>
 5   0  0.2623263E-07  0.2600031E+04  0.7818609E-02  0.8368191E-01
       -1   -1    0    0    0  501  0.00000000000E+00  0.00000000000E+00  0.11926425456E+04  0.11926425456E+04  0.50400001928E-02 0.  1.
        1   -1    0    0  501    0  0.00000000000E+00  0.00000000000E+00 -0.14170554756E+04  0.14170554756E+04  0.50400001928E-02 0. -1.
    10030    2    1    2    0    0  0.00000000000E+00  0.00000000000E+00 -0.22441293001E+03  0.26096980212E+04  0.26000312688E+04 0.  0.
        1    1    3    3  502    0 -0.12165619932E+04 -0.32200572287E+03  0.21508851837E+03  0.12767042882E+04  0.50400001928E-02 0. -1.
       -1    1    3    3    0  502  0.12165619932E+04  0.32200572287E+03 -0.43950144837E+03  0.13329937329E+04  0.50400001928E-02 0.  1.
</event>
<event>
 5   0  0.6768478E-07  0.2600715E+04  0.7818609E-02  0.8367958E-01
       -2   -1    0    0    0  501  0.00000000000E+00  0.00000000000E+00  0.11779562208E+04  0.11779562208E+04  0.25500000920E-02 0.  1.
        2   -1    0    0  501    0  0.00000000000E+00  0.00000000000E+00 -0.14354778295E+04  0.14354778295E+04  0.25500000920E-02 0. -1.
    10030    2    1    2    0    0  0.00000000000E+00  0.00000000000E+00 -0.25752160875E+03  0.26134340503E+04  0.26007153163E+04 0.  0.
        4    1    3    3  502    0  0.72283634554E+03  0.10206315553E+04  0.22899611340E+03  0.12714645048E+04  0.12699999809E+01 0.  1.
       -4    1    3    3    0  502 -0.72283634554E+03 -0.10206315553E+04 -0.48651772214E+03  0.13419695455E+04  0.12699999809E+01 0. -1.
</event>
<event>
 5   0  0.6526351E-07  0.2599605E+04  0.7818609E-02  0.8368335E-01
        2   -1    0    0  501    0  0.00000000000E+00  0.00000000000E+00  0.96067365260E+03  0.96067365261E+03  0.25500000920E-02 0.  1.
       -2   -1    0    0    0  501  0.00000000000E+00  0.00000000000E+00 -0.17586475423E+04  0.17586475423E+04  0.25500000920E-02 0. -1.
    10030    2    1    2    0    0  0.00000000000E+00  0.00000000000E+00 -0.79797388971E+03  0.27193211949E+04  0.25996048608E+04 0.  0.
        3    1    3    3  502    0 -0.56851002751E+03  0.58355878853E+03  0.66044289729E+03  0.10487751627E+04  0.10100000352E+00 0.  1.
       -3    1    3    3    0  502  0.56851002751E+03 -0.58355878853E+03 -0.14584167870E+04  0.16705460323E+04  0.10100000352E+00 0. -1.
</event>
<event>
 5   0  0.2641626E-07  0.2601375E+04  0.7818609E-02  0.8367734E-01
        1   -1    0    0  501    0  0.00000000000E+00  0.00000000000E+00  0.21632221679E+04  0.21632221679E+04  0.50400001928E-02 0. -1.
       -1   -1    0    0    0  501  0.00000000000E+00  0.00000000000E+00 -0.78206827495E+03  0.78206827496E+03  0.50400001928E-02 0.  1.
    10030    2    1    2    0    0  0.00000000000E+00  0.00000000000E+00  0.13811538930E+04  0.29452904429E+04  0.26013745822E+04 0.  0.
        3    1    3    3  502    0 -0.62292438401E+03  0.86450864314E+03 -0.15394315337E+03  0.10766190073E+04  0.10100000352E+00 0.  1.
       -3    1    3    3    0  502  0.62292438401E+03 -0.86450864314E+03  0.15350970464E+04  0.18686714356E+04  0.10100000352E+00 0. -1.
</event>
<event>
 5   0  0.2864801E-07  0.2600133E+04  0.7818609E-02  0.8368156E-01
        1   -1    0    0  501    0  0.00000000000E+00  0.00000000000E+00  0.17397710661E+04  0.17397710661E+04  0.50400001928E-02 0.  1.
       -1   -1    0    0    0  501  0.00000000000E+00  0.00000000000E+00 -0.97149179429E+03  0.97149179430E+03  0.50400001928E-02 0. -1.
    10030    2    1    2    0    0  0.00000000000E+00  0.00000000000E+00  0.76827927185E+03  0.27112628604E+04  0.26001333156E+04 0.  0.
        5    1    3    3  502    0  0.53343244615E+03  0.10290731590E+04 -0.22975837997E+03  0.11816737047E+04  0.46999998093E+01 0. -1.
       -5    1    3    3    0  502 -0.53343244615E+03 -0.10290731590E+04  0.99803765181E+03  0.15295891558E+04  0.46999998093E+01 0.  1.
</event>
<event>
 5   0  0.2755061E-07  0.2598879E+04  0.7818609E-02  0.8368582E-01
       -1   -1    0    0    0  501  0.00000000000E+00  0.00000000000E+00  0.10983463858E+04  0.10983463858E+04  0.50400001928E-02 0.  1.
        1   -1    0    0  501    0  0.00000000000E+00  0.00000000000E+00 -0.15373504585E+04  0.15373504585E+04  0.50400001928E-02 0. -1.
    10030    2    1    2    0    0  0.00000000000E+00  0.00000000000E+00 -0.43900407275E+03  0.26356968443E+04  0.25988792352E+04 0.  0.
        4    1    3    3  502    0 -0.10621440910E+04 -0.54134890983E+03  0.30486530971E+03  0.12305093182E+04  0.12699999809E+01 0.  1.
       -4    1    3    3    0  502  0.10621440910E+04  0.54134890983E+03 -0.74386938246E+03  0.14051875260E+04  0.12699999809E+01 0. -1.
</event>
<event>
 5   0  0.6599814E-07  0.2598839E+04  0.7818609E-02  0.8368596E-01
       -2   -1    0    0    0  501  0.00000000000E+00  0.00000000000E+00  0.18287167959E+04  0.18287167959E+04  0.25500000920E-02 0. -1.
        2   -1    0    0  501    0  0.00000000000E+00  0.00000000000E+00 -0.92332044192E+03  0.92332044192E+03  0.25500000920E-02 0.  1.
    10030    2    1    2    0    0  0.00000000000E+00  0.00000000000E+00  0.90539635401E+03  0.27520372379E+04  0.25988394334E+04 0.  0.
        5    1    3    3  502    0 -0.10624921919E+04 -0.13067280759E+02  0.12447245099E+04  0.16365884049E+04  0.46999998093E+01 0. -1.
       -5    1    3    3    0  502  0.10624921919E+04  0.13067280759E+02 -0.33932815584E+03  0.11154488330E+04  0.46999998093E+01 0.  1.
</event>
<event>
 5   0  0.6780984E-07  0.2595347E+04  0.7818609E-02  0.8369784E-01
       -2   -1    0    0    0  501  0.00000000000E+00  0.00000000000E+00  0.92276213557E+03  0.92276213557E+03  0.25500000920E-02 0. -1.
        2   -1    0    0  501    0  0.00000000000E+00  0.00000000000E+00 -0.18249080407E+04  0.18249080407E+04  0.25500000920E-02 0.  1.
    10030    2    1    2    0    0  0.00000000000E+00  0.00000000000E+00 -0.90214590516E+03  0.27476701763E+04  0.25953466365E+04 0.  0.
        2    1    3    3  502    0 -0.81461932627E+03 -0.79908972524E+03  0.20309787827E+03  0.11590503802E+04  0.25500000920E-02 0.  1.
       -2    1    3    3    0  502  0.81461932627E+03  0.79908972524E+03 -0.11052437834E+04  0.15886197961E+04  0.25500000920E-02 0. -1.
</event>
<event>
 5   0  0.6526351E-07  0.2600269E+04  0.7818609E-02  0.8368110E-01
        2   -1    0    0  501    0  0.00000000000E+00  0.00000000000E+00  0.81687530714E+03  0.81687530715E+03  0.25500000920E-02 0.  1.
       -2   -1    0    0    0  501  0.00000000000E+00  0.00000000000E+00 -0.20692870656E+04  0.20692870656E+04  0.25500000920E-02 0. -1.
    10030    2    1    2    0    0  0.00000000000E+00  0.00000000000E+00 -0.12524117584E+04  0.28861623727E+04  0.26002688378E+04 0.  0.
        3    1    3    3  502    0  0.24596713418E+03 -0.45283994452E+03 -0.19510881099E+04  0.20179962015E+04  0.10100000352E+00 0. -1.
       -3    1    3    3    0  502 -0.24596713418E+03  0.45283994452E+03  0.69867635151E+03  0.86816617119E+03  0.10100000352E+00 0.  1.
</event>
<event>
 5   0  0.6780984E-07  0.2599190E+04  0.7818609E-02  0.8368477E-01
        2   -1    0    0  501    0  0.00000000000E+00  0.00000000000E+00  0.94923184408E+03  0.94923184409E+03  0.25500000920E-02 0. -1.
       -2   -1    0    0    0  501  0.00000000000E+00  0.00000000000E+00 -0.17792772176E+04  0.17792772176E+04  0.25500000920E-02 0.  1.
    10030    2    1    2    0    0  0.00000000000E+00  0.00000000000E+00 -0.83004537350E+03  0.27285090617E+04  0.25991895617E+04 0.  0.
        2    1    3    3  502    0 -0.10032592239E+04  0.34863037413E+03 -0.12011995342E+04  0.16034190123E+04  0.25500000920E-02 0.  1.
       -2    1    3    3    0  502  0.10032592239E+04 -0.34863037413E+03  0.37115416072E+03  0.11250900493E+04  0.25500000920E-02 0. -1.
</event>
<event>
 5   0  0.6526351E-07  0.2598852E+04  0.7818609E-02  0.8368591E-01
        2   -1    0    0  501    0  0.00000000000E+00  0.00000000000E+00  0.20895916662E+04  0.20895916662E+04  0.25500000920E-02 0.  1.
       -2   -1    0    0    0  501  0.00000000000E+00  0.00000000000E+00 -0.80805665384E+03  0.80805665385E+03  0.25500000920E-02 0. -1.
    10030    2    1    2    0    0  0.00000000000E+00  0.00000000000E+00  0.12815350124E+04  0.28976483201E+04  0.25988524004E+04 0.  0.
        3    1    3    3  502    0  0.49431114601E+03  0.35887551309E+03  0.19195261161E+04  0.20143772396E+04  0.10100000352E+00 0.  1.
       -3    1    3    3    0  502 -0.49431114601E+03 -0.35887551309E+03 -0.63799110370E+03  0.88327108045E+03  0.10100000352E+00 0. -1.
</event>
<event>
 5   0  0.6599814E-07  0.2599848E+04  0.7818609E-02  0.8368253E-01
       -2   -1    0    0    0  501  0.00000000000E+00  0.00000000000E+00  0.14116813960E+04  0.14116813960E+04  0.25500000920E-02 0. -1.
        2   -1    0    0  501    0  0.00000000000E+00  0.00000000000E+00 -0.11970142590E+04  0.11970142590E+04  0.25500000920E-02 0.  1.
    10030    2    1    2    0    0  0.00000000000E+00  0.00000000000E+00  0.21466713696E+03  0.26086956550E+04  0.25998482726E+04 0.  0.
        5    1    3    3  502    0  0.66408275839E+03  0.31165705576E+03  0.11841326015E+04  0.13929566175E+04  0.46999998093E+01 0. -1.
       -5    1    3    3    0  502 -0.66408275839E+03 -0.31165705576E+03 -0.96946546451E+03  0.12157390375E+04  0.46999998093E+01 0.  1.
</event>
<event>
 5   0  0.6768478E-07  0.2590451E+04  0.7818609E-02  0.8371452E-01
       -2   -1    0    0    0  501  0.00000000000E+00  0.00000000000E+00  0.12314382955E+04  0.12314382955E+04  0.25500000920E-02 0.  1.
        2   -1    0    0  501    0  0.00000000000E+00  0.00000000000E+00 -0.13623169666E+04  0.13623169666E+04  0.25500000920E-02 0. -1.
    10030    2    1    2    0    0  0.00000000000E+00  0.00000000000E+00 -0.13087867110E+03  0.25937552621E+04  0.25904511447E+04 0.  0.
        4    1    3    3  502    0 -0.95721375349E+03  0.46277683650E+02  0.80699739518E+03  0.12528552201E+04  0.12699999809E+01 0.  1.
       -4    1    3    3    0  502  0.95721375349E+03 -0.46277683650E+02 -0.93787606628E+03  0.13409000419E+04  0.12699999809E+01 0. -1.
</event>
<event>
 5   0  0.6768478E-07  0.2599390E+04  0.7818609E-02  0.8368408E-01
        2   -1    0    0  501    0  0.00000000000E+00  0.00000000000E+00  0.14719579851E+04  0.14719579851E+04  0.25500000920E-02 0. -1.
       -2   -1    0    0    0  501  0.00000000000E+00  0.00000000000E+00 -0.11475917691E+04  0.11475917691E+04  0.25500000920E-02 0.  1.
    10030    2    1    2    0    0  0.00000000000E+00  0.00000000000E+00  0.32436621604E+03  0.26195497542E+04  0.25993898269E+04 0.  0.
        4    1    3    3  502    0 -0.12880995180E+04  0.10732934296E+02  0.33641030512E+03  0.13313485909E+04  0.12699999809E+01 0. -1.
       -4    1    3    3    0  502  0.12880995180E+04 -0.10732934296E+02 -0.12044089076E+02  0.12882011633E+04  0.12699999809E+01 0.  1.
</event>
<event>
 5   0  0.2623263E-07  0.2600532E+04  0.7818609E-02  0.8368020E-01
        1   -1    0    0  501    0  0.00000000000E+00  0.00000000000E+00  0.75849731020E+03  0.75849731021E+03  0.50400001928E-02 0. -1.
       -1   -1    0    0    0  501  0.00000000000E+00  0.00000000000E+00 -0.22290022513E+04  0.22290022513E+04  0.50400001928E-02 0.  1.
    10030    2    1    2    0    0  0.00000000000E+00  0.00000000000E+00 -0.14705049411E+04  0.29874995615E+04  0.26005324163E+04 0.  0.
        1    1    3    3  502    0  0.54115220573E+03  0.11796564841E+04 -0.82612476517E+03  0.15384788780E+04  0.50400001928E-02 0.  1.
       -1    1    3    3    0  502 -0.54115220573E+03 -0.11796564841E+04 -0.64438017595E+03  0.14490206836E+04  0.50400001928E-02 0. -1.
</event>
<event>
 5   0  0.6780984E-07  0.2599999E+04  0.7818609E-02  0.8368201E-01
       -2   -1    0    0    0  501  0.00000000000E+00  0.00000000000E+00  0.78584846497E+03  0.78584846497E+03  0.25500000920E-02 0. -1.
        2   -1    0    0  501    0  0.00000000000E+00  0.00000000000E+00 -0.21505409747E+04  0.21505409747E+04  0.25500000920E-02 0.  1.
    10030    2    1    2    0    0  0.00000000000E+00  0.00000000000E+00 -0.13646925097E+04  0.29363894397E+04  0.25999994799E+04 0.  0.
        2    1    3    3  502    0 -0.73447516916E+03 -0.83308603177E+03  0.80728469702E+02  0.11135543077E+04  0.25500000920E-02 0. -1.
       -2    1    3    3    0  502  0.73447516916E+03  0.83308603177E+03 -0.14454209794E+04  0.18228351319E+04  0.25500000920E-02 0.  1.
</event>
<event>
 5   0  0.2864801E-07  0.2599806E+04  0.7818609E-02  0.8368267E-01
        1   -1    0    0  501    0  0.00000000000E+00  0.00000000000E+00  0.10388569195E+04  0.10388569195E+04  0.50400001928E-02 0.  1.
       -1   -1    0    0    0  501  0.00000000000E+00  0.00000000000E+00 -0.16265451816E+04  0.16265451816E+04  0.50400001928E-02 0. -1.
    10030    2    1    2    0    0  0.00000000000E+00  0.00000000000E+00 -0.58768826209E+03  0.26654021011E+04  0.25998059288E+04 0.  0.
        5    1    3    3  502    0  0.67246698246E+03  0.96095347967E+03  0.28072655379E+03  0.12060153069E+04  0.46999998093E+01 0.  1.
       -5    1    3    3    0  502 -0.67246698246E+03 -0.96095347967E+03 -0.86841481588E+03  0.14593867942E+04  0.46999998093E+01 0. -1.
</event>
<event>
 5   0  0.2623263E-07  0.2600238E+04  0.7818609E-02  0.8368120E-01
       -1   -1    0    0    0  501  0.00000000000E+00  0.00000000000E+00  0.13830966560E+04  0.13830966560E+04  0.50400001928E-02 0.  1.
        1   -1    0    0  501    0  0.00000000000E+00  0.00000000000E+00 -0.12221195787E+04  0.12221195787E+04  0.50400001928E-02 0. -1.
    10030    2    1    2    0    0  0.00000000000E+00  0.00000000000E+00  0.16097707725E+03  0.26052162347E+04  0.26002380680E+04 0.  0.
        1    1    3    3  502    0 -0.12314231719E+04  0.12735124815E+02  0.49811300632E+03  0.13284132560E+04  0.50400001928E-02 0.  1.
       -1    1    3    3    0  502  0.12314231719E+04 -0.12735124815E+02 -0.33713592907E+03  0.12768029787E+04  0.50400001928E-02 0. -1.
</event>
<event>
 5   0  0.2864801E-07  0.2597656E+04  0.7818609E-02  0.8368998E-01
        1   -1    0    0  501    0  0.00000000000E+00  0.00000000000E+00  0.12041580661E+04  0.12041580661E+04  0.50400001928E-02 0. -1.
       -1   -1    0    0    0  501  0.00000000000E+00  0.00000000000E+00 -0.14009403123E+04  0.14009403123E+04  0.50400001928E-02 0.  1.
    10030    2    1    2    0    0  0.00000000000E+00  0.00000000000E+00 -0.19678224622E+03  0.26050983784E+04  0.25976555409E+04 0.  0.
        5    1    3    3  502    0 -0.10323815235E+04  0.17859264009E+03 -0.86820011984E+03  0.13606985262E+04  0.46999998093E+01 0.  1.
       -5    1    3    3    0  502  0.10323815235E+04 -0.17859264009E+03  0.67141787362E+03  0.12443998522E+04  0.46999998093E+01 0. -1.
</event>
<event>
 5   0  0.7160320E-07  0.2600318E+04  0.7818609E-02  0.8368093E-01
       -2   -1    0    0    0  501  0.00000000000E+00  0.00000000000E+00  0.11912036985E+04  0.11912036986E+04  0.25500000920E-02 0. -1.
        2   -1    0    0  501    0  0.00000000000E+00  0.00000000000E+00 -0.14190798214E+04  0.14190798214E+04  0.25500000920E-02 0.  1.
    10030    2    1    2    0    0  0.00000000000E+00  0.00000000000E+00 -0.22787612289E+03  0.26102835200E+04  0.26003177743E+04 0.  0.
        1    1    3    3  502    0  0.76387820932E+03  0.73149484229E+03 -0.87302297692E+03  0.13714093996E+04  0.50400001928E-02 0.  1.
       -1    1    3    3    0  502 -0.76387820932E+03 -0.73149484229E+03  0.64514685402E+03  0.12388741204E+04  0.50400001928E-02 0. -1.
</event>
<event>
 5   0  0.6526351E-07  0.2600852E+04  0.7818609E-02  0.8367912E-01
       -2   -1    0    0    0  501  0.00000000000E+00  0.00000000000E+00  0.10527014885E+04  0.10527014885E+04  0.25500000920E-02 0. -1.
        2   -1    0    0  501    0  0.00000000000E+00  0.00000000000E+00 -0.16064463017E+04  0.16064463017E+04  0.25500000920E-02 0.  1.
    10030    2    1    2    0    0  0.00000000000E+00  0.00000000000E+00 -0.55374481316E+03  0.26591477902E+04  0.26008524857E+04 0.  0.
        3    1    3    3  502    0  0.88307339653E+03  0.76436660999E+03  0.30781380514E+03  0.12078179859E+04  0.10100000352E+00 0.  1.
       -3    1    3    3    0  502 -0.88307339653E+03 -0.76436660999E+03 -0.86155861831E+03  0.14513298044E+04  0.10100000352E+00 0. -1.
</event>
<event>
 5   0  0.6599814E-07  0.2600415E+04  0.7818609E-02  0.8368060E-01
        2   -1    0    0  501    0  0.00000000000E+00  0.00000000000E+00  0.14221034645E+04  0.14221034645E+04  0.25500000920E-02 0.  1.
       -2   -1    0    0    0  501  0.00000000000E+00  0.00000000000E+00 -0.11887598275E+04  0.11887598275E+04  0.25500000920E-02 0. -1.
    10030    2    1    2    0    0  0.00000000000E+00  0.00000000000E+00  0.23334363700E+03  0.26108632920E+04  0.26004149431E+04 0.  0.
        5    1    3    3  502    0 -0.11316237375E+04 -0.31169035511E+03 -0.44485543286E+03  0.12552456360E+04  0.46999998093E+01 0. -1.
       -5    1    3    3    0  502  0.11316237375E+04  0.31169035511E+03  0.67819906985E+03  0.13556176559E+04  0.46999998093E+01 0.  1.
</event>
<event>
 5   0  0.2864801E-07  0.2599193E+04  0.7818609E-02  0.8368475E-01
       -1   -1    0    0    0  501  0.00000000000E+00  0.00000000000E+00  0.89827166130E+03  0.89827166131E+03  0.50400001928E-02 0.  1.
        1   -1    0    0  501    0  0.00000000000E+00  0.00000000000E+00 -0.18802227965E+04  0.18802227965E+04  0.50400001928E-02 0. -1.
    10030    2    1    2    0    0  0.00000000000E+00  0.00000000000E+00 -0.98195113524E+03  0.27784944579E+04  0.25991928402E+04 0.  0.
        5    1    3    3  502    0  0.91975858301E+03 -0.31732448635E+03  0.43001323906E+03  0.10637594448E+04  0.46999998093E+01 0.  1.
       -5    1    3    3    0  502 -0.91975858301E+03  0.31732448635E+03 -0.14119643743E+04  0.17147350130E+04  0.46999998093E+01 0. -1.
</event>
<event>
 5   0  0.6526351E-07  0.2600441E+04  0.7818609E-02  0.8368051E-01
       -2   -1    0    0    0  501  0.00000000000E+00  0.00000000000E+00  0.92794769042E+03  0.92794769043E+03  0.25500000920E-02 0.  1.
        2   -1    0    0  501    0  0.00000000000E+00  0.00000000000E+00 -0.18218415585E+04  0.18218415585E+04  0.25500000920E-02 0. -1.
    10030    2    1    2    0    0  0.00000000000E+00  0.00000000000E+00 -0.89389386803E+03  0.27497892489E+04  0.26004412445E+04 0.  0.
        3    1    3    3  502    0 -0.83800855063E+03 -0.47403620872E+03 -0.13709783676E+04  0.16752762019E+04  0.10100000352E+00 0. -1.
       -3    1    3    3    0  502  0.83800855063E+03  0.47403620872E+03  0.47708449959E+03  0.10745130469E+04  0.10100000352E+00 0.  1.
</event>
<event>
 5   0  0.6768478E-07  0.2600428E+04  0.7818609E-02  0.8368056E-01
       -2   -1    0    0    0  501  0.00000000000E+00  0.00000000000E+00  0.54706441675E+03  0.54706441676E+03  0.25500000920E-02 0.  1.
        2   -1    0    0  501    0  0.00000000000E+00  0.00000000000E+00 -0.30902327682E+04  0.30902327682E+04  0.25500000920E-02 0. -1.
    10030    2    1    2    0    0  0.00000000000E+00  0.00000000000E+00 -0.25431683515E+04  0.36372971850E+04  0.26004279548E+04 0.  0.
        4    1    3    3  502    0 -0.29674572407E+03 -0.43860229131E+03  0.38938943514E+03  0.65730947034E+03  0.12699999809E+01 0.  1.
       -4    1    3    3    0  502  0.29674572407E+03  0.43860229131E+03 -0.29325577866E+04  0.29799877146E+04  0.12699999809E+01 0. -1.
</event>
<event>
 5   0  0.6599814E-07  0.2592706E+04  0.7818609E-02  0.8370683E-01
       -2   -1    0    0    0  501  0.00000000000E+00  0.00000000000E+00  0.11932404233E+04  0.11932404233E+04  0.25500000920E-02 0.  1.
        2   -1    0    0  501    0  0.00000000000E+00  0.00000000000E+00 -0.14083764171E+04  0.14083764171E+04  0.25500000920E-02 0. -1.
    10030    2    1    2    0    0  0.00000000000E+00  0.00000000000E+00 -0.21513599381E+03  0.26016168404E+04  0.25927064409E+04 0.  0.
        5    1    3    3  502    0 -0.52872364999E+03 -0.16841688447E+03 -0.12831730763E+04  0.13980229536E+04  0.46999998093E+01 0. -1.
       -5    1    3    3    0  502  0.52872364999E+03  0.16841688447E+03  0.10680370824E+04  0.12035938869E+04  0.46999998093E+01 0.  1.
</event>
<event>
 5   0  0.2864801E-07  0.2600254E+04  0.7818609E-02  0.8368115E-01
        1   -1    0    0  501    0  0.00000000000E+00  0.00000000000E+00  0.15019557423E+04  0.15019557423E+04  0.50400001928E-02 0.  1.
       -1   -1    0    0    0  501  0.00000000000E+00  0.00000000000E+00 -0.11254195493E+04  0.11254195493E+04  0.50400001928E-02 0. -1.
    10030    2    1    2    0    0  0.00000000000E+00  0.00000000000E+00  0.37653619300E+03  0.26273752916E+04  0.26002541064E+04 0.  0.
        5    1    3    3  502    0 -0.23820949905E+03  0.16945727084E+03  0.14683075987E+04  0.14971335367E+04  0.46999998093E+01 0.  1.
       -5    1    3    3    0  502  0.23820949905E+03 -0.16945727084E+03 -0.10917714058E+04  0.11302417549E+04  0.46999998093E+01 0. -1.
</event>
<event>
 5   0  0.6526351E-07  0.2579459E+04  0.7818609E-02  0.8375212E-01
        2   -1    0    0  501    0  0.00000000000E+00  0.00000000000E+00  0.20173995112E+04  0.20173995112E+04  0.25500000920E-02 0.  1.
       -2   -1    0    0    0  501  0.00000000000E+00  0.00000000000E+00 -0.82452795761E+03  0.82452795762E+03  0.25500000920E-02 0. -1.
    10030    2    1    2    0    0  0.00000000000E+00  0.00000000000E+00  0.11928715536E+04  0.28419274688E+04  0.25794590896E+04 0.  0.
        3    1    3    3  502    0  0.36507157657E+03 -0.19036855814E+03  0.19430490972E+04  0.19861916444E+04  0.10100000352E+00 0.  1.
       -3    1    3    3    0  502 -0.36507157657E+03  0.19036855814E+03 -0.75017754364E+03  0.85573582439E+03  0.10100000352E+00 0. -1.
</event>
<event>
 5   0  0.7160320E-07  0.2601344E+04  0.7818609E-02  0.8367745E-01
        2   -1    0    0  501    0  0.00000000000E+00  0.00000000000E+00  0.19841709228E+04  0.19841709228E+04  0.25500000920E-02 0. -1.
       -2   -1    0    0    0  501  0.00000000000E+00  0.00000000000E+00 -0.85262213022E+03  0.85262213023E+03  0.25500000920E-02 0.  1.
    10030    2    1    2    0    0  0.00000000000E+00  0.00000000000E+00  0.11315487925E+04  0.28367930530E+04  0.26013442978E+04 0.  0.
        1    1    3    3  502    0 -0.54237527334E+03  0.54011222412E+02  0.18536205154E+04  0.19320965722E+04  0.50400001928E-02 0. -1.
       -1    1    3    3    0  502  0.54237527334E+03 -0.54011222412E+02 -0.72207172288E+03  0.90469648075E+03  0.50400001928E-02 0.  1.
</event>
<event>
 5   0  0.6768478E-07  0.2599494E+04  0.7818609E-02  0.8368373E-01
       -2   -1    0    0    0  501  0.00000000000E+00  0.00000000000E+00  0.10279418040E+04  0.10279418040E+04  0.25500000920E-02 0.  1.
        2   -1    0    0  501    0  0.00000000000E+00  0.00000000000E+00 -0.16434226719E+04  0.16434226719E+04  0.25500000920E-02 0. -1.
    10030    2    1    2    0    0  0.00000000000E+00  0.00000000000E+00 -0.61548086790E+03  0.26713644759E+04  0.25994944632E+04 0.  0.
        4    1    3    3  502    0 -0.25519279775E+03 -0.79929996492E+03  0.71234546812E+03  0.11006550217E+04  0.12699999809E+01 0.  1.
       -4    1    3    3    0  502  0.25519279775E+03  0.79929996492E+03 -0.13278263360E+04  0.15707094542E+04  0.12699999809E+01 0. -1.
</event>
<event>
 5   0  0.7160320E-07  0.2600520E+04  0.7818609E-02  0.8368025E-01
       -2   -1    0    0    0  501  0.00000000000E+00  0.00000000000E+00  0.80474433954E+03  0.80474433955E+03  0.25500000920E-02 0. -1.
        2   -1    0    0  501    0  0.00000000000E+00  0.00000000000E+00 -0.21008858419E+04  0.21008858419E+04  0.25500000920E-02 0.  1.
    10030    2    1    2    0    0  0.00000000000E+00  0.00000000000E+00 -0.12961415024E+04  0.29056301815E+04  0.26005199398E+04 0.  0.
        1    1    3    3  502    0 -0.27296391809E+03  0.10068046841E+04 -0.15153573705E+04  0.18396937062E+04  0.50400001928E-02 0.  1.
       -1    1    3    3    0  502  0.27296391809E+03 -0.10068046841E+04  0.21921586809E+03  0.10659364753E+04  0.50400001928E-02 0. -1.
</event>
<event>
 5   0  0.6526351E-07  0.2600988E+04  0.7818609E-02  0.8367866E-01
        2   -1    0    0  501    0  0.00000000000E+00  0.00000000000E+00  0.16755275524E+04  0.16755275524E+04  0.25500000920E-02 0.  1.
       -2   -1    0    0    0  501  0.00000000000E+00  0.00000000000E+00 -0.10094038851E+04  0.10094038851E+04  0.25500000920E-02 0. -1.
    10030    2    1    2    0    0  0.00000000000E+00  0.00000000000E+00  0.66612366731E+03  0.26849314375E+04  0.26009875209E+04 0.  0.
        3    1    3    3  502    0 -0.10260652736E+04  0.26354064025E+03  0.11117415254E+04  0.15356538816E+04  0.10100000352E+00 0.  1.
       -3    1    3    3    0  502  0.10260652736E+04 -0.26354064025E+03 -0.44561785808E+03  0.11492775558E+04  0.10100000352E+00 0. -1.
</event>
<event>
 5   0  0.6780984E-07  0.2597131E+04  0.7818609E-02  0.8369176E-01
       -2   -1    0    0    0  501  0.00000000000E+00  0.00000000000E+00  0.74467724590E+03  0.74467724591E+03  0.25500000920E-02 0. -1.
        2   -1    0    0  501    0  0.00000000000E+00  0.00000000000E+00 -0.22644337929E+04  0.22644337929E+04  0.25500000920E-02 0.  1.
    10030    2    1    2    0    0  0.00000000000E+00  0.00000000000E+00 -0.15197565470E+04  0.30091110388E+04  0.25971309712E+04 0.  0.
        2    1    3    3  502    0 -0.89609848250E+03  0.42702071314E+03 -0.17299026758E+04  0.19944679611E+04  0.25500000920E-02 0.  1.
       -2    1    3    3    0  502  0.89609848250E+03 -0.42702071314E+03  0.21014612882E+03  0.10146430778E+04  0.25500000920E-02 0. -1.
</event>
<event>
 5   0  0.7160320E-07  0.2600305E+04  0.7818609E-02  0.8368097E-01
       -2   -1    0    0    0  501  0.00000000000E+00  0.00000000000E+00  0.25206692514E+04  0.25206692514E+04  0.25500000920E-02 0. -1.
        2   -1    0    0  501    0  0.00000000000E+00  0.00000000000E+00 -0.67061438205E+03  0.67061438206E+03  0.25500000920E-02 0.  1.
    10030    2    1    2    0    0  0.00000000000E+00  0.00000000000E+00  0.18500548693E+04  0.31912836335E+04  0.26003054070E+04 0.  0.
        1    1    3    3  502    0 -0.31650999351E+03 -0.13611428728E+03  0.24636237256E+04  0.24875987491E+04  0.50400001928E-02 0. -1.
       -1    1    3    3    0  502  0.31650999351E+03  0.13611428728E+03 -0.61356885621E+03  0.70368488440E+03  0.50400001928E-02 0.  1.
</event>
<event>
 5   0  0.6780984E-07  0.2599023E+04  0.7818609E-02  0.8368533E-01
        2   -1    0    0  501    0  0.00000000000E+00  0.00000000000E+00  0.17246606841E+04  0.17246606841E+04  0.25500000920E-02 0. -1.
       -2   -1    0    0    0  501  0.00000000000E+00  0.00000000000E+00 -0.97916648128E+03  0.97916648128E+03  0.25500000920E-02 0.  1.
    10030    2    1    2    0    0  0.00000000000E+00  0.00000000000E+00  0.74549420284E+03  0.27038271654E+04  0.25990228421E+04 0.  0.
        2    1    3    3  502    0  0.59304382651E+03 -0.79682780180E+02  0.15728143445E+04  0.16827938935E+04  0.25500000920E-02 0. -1.
       -2    1    3    3    0  502 -0.59304382651E+03  0.79682780180E+02 -0.82732014165E+03  0.10210332719E+04  0.25500000920E-02 0.  1.
</event>
<event>
 5   0  0.2623263E-07  0.2599664E+04  0.7818609E-02  0.8368315E-01
       -1   -1    0    0    0  501  0.00000000000E+00  0.00000000000E+00  0.16110239903E+04  0.16110239903E+04  0.50400001928E-02 0.  1.
        1   -1    0    0  501    0  0.00000000000E+00  0.00000000000E+00 -0.10487512217E+04  0.10487512217E+04  0.50400001928E-02 0. -1.
    10030    2    1    2    0    0  0.00000000000E+00  0.00000000000E+00  0.56227276861E+03  0.26597752120E+04  0.25996641152E+04 0.  0.
        1    1    3    3  502    0  0.96694321186E+03 -0.86821975339E+03  0.30968614213E+03  0.13359229850E+04  0.50400001928E-02 0. -1.
       -1    1    3    3    0  502 -0.96694321186E+03  0.86821975339E+03  0.25258662648E+03  0.13238522270E+04  0.50400001928E-02 0.  1.
</event>
<event>
 5   0  0.2793576E-07  0.2597844E+04  0.7818609E-02  0.8368934E-01
       -1   -1    0    0    0  501  0.00000000000E+00  0.00000000000E+00  0.87571171481E+03  0.87571171482E+03  0.50400001928E-02 0.  1.
        1   -1    0    0  501    0  0.00000000000E+00  0.00000000000E+00 -0.19266601345E+04  0.19266601345E+04  0.50400001928E-02 0. -1.
    10030    2    1    2    0    0  0.00000000000E+00  0.00000000000E+00 -0.10509484197E+04  0.28023718494E+04  0.25978443759E+04 0.  0.
        2    1    3    3  502    0 -0.53983944132E+03  0.10460593095E+04 -0.11178256409E+04  0.16233301774E+04  0.25500000920E-02 0. -1.
       -2    1    3    3    0  502  0.53983944132E+03 -0.10460593095E+04  0.66877221186E+02  0.11790416719E+04  0.25500000920E-02 0.  1.
</event>
<event>
 5   0  0.2755061E-07  0.2600006E+04  0.7818609E-02  0.8368199E-01
       -1   -1    0    0    0  501  0.00000000000E+00  0.00000000000E+00  0.15334500126E+04  0.15334500126E+04  0.50400001928E-02 0. -1.
        1   -1    0    0  501    0  0.00000000000E+00  0.00000000000E+00 -0.11020950417E+04  0.11020950418E+04  0.50400001928E-02 0.  1.
    10030    2    1    2    0    0  0.00000000000E+00  0.00000000000E+00  0.43135497083E+03  0.26355450543E+04  0.26000058890E+04 0.  0.
        4    1    3    3  502    0 -0.96136191206E+03 -0.63834322782E+03 -0.39109224214E+03  0.12184636052E+04  0.12699999809E+01 0.  1.
       -4    1    3    3    0  502  0.96136191206E+03  0.63834322782E+03  0.82244721298E+03  0.14170814491E+04  0.12699999809E+01 0. -1.
</event>
<event>
 5   0  0.2864801E-07  0.2600670E+04  0.7818609E-02  0.8367974E-01
        1   -1    0    0  501    0  0.00000000000E+00  0.00000000000E+00  0.12512730119E+04  0.12512730119E+04  0.50400001928E-02 0.  1.
       -1   -1    0    0    0  501  0.00000000000E+00  0.00000000000E+00 -0.13513210606E+04  0.13513210606E+04  0.50400001928E-02 0. -1.
    10030    2    1    2    0    0  0.00000000000E+00  0.00000000000E+00 -0.10004804874E+03  0.26025940725E+04  0.26006703547E+04 0.  0.
        5    1    3    3  502    0  0.21283708950E+03  0.10005889210E+04  0.75329739626E+03  0.12704160235E+04  0.46999998093E+01 0.  1.
       -5    1    3    3    0  502 -0.21283708950E+03 -0.10005889210E+04 -0.85334544501E+03  0.13321780489E+04  0.46999998093E+01 0. -1.
</event>
<event>
 5   0  0.6526351E-07  0.2600983E+04  0.7818609E-02  0.8367867E-01
       -2   -1    0    0    0  501  0.00000000000E+00  0.00000000000E+00  0.19084666419E+04  0.19084666419E+04  0.25500000920E-02 0.  1.
        2   -1    0    0  501    0  0.00000000000E+00  0.00000000000E+00 -0.88619728192E+03  0.88619728192E+03  0.25500000920E-02 0. -1.
    10030    2    1    2    0    0  0.00000000000E+00  0.00000000000E+00  0.10222693600E+04  0.27946639239E+04  0.26009828532E+04 0.  0.
        3    1    3    3  502    0  0.12829834062E+04 -0.15680085283E+03  0.66551775105E+03  0.14538042561E+04  0.10100000352E+00 0. -1.
       -3    1    3    3    0  502 -0.12829834062E+04  0.15680085283E+03  0.35675160896E+03  0.13408596678E+04  0.10100000352E+00 0.  1.
</event>
<event>
 5   0  0.6526351E-07  0.2599554E+04  0.7818609E-02  0.8368353E-01
       -2   -1    0    0    0  501  0.00000000000E+00  0.00000000000E+00  0.76644177291E+03  0.76644177291E+03  0.25500000920E-02 0.  1.
        2   -1    0    0  501    0  0.00000000000E+00  0.00000000000E+00 -0.22042388712E+04  0.22042388712E+04  0.25500000920E-02 0. -1.
    10030    2    1    2    0    0  0.00000000000E+00  0.00000000000E+00 -0.14377970983E+04  0.29706806441E+04  0.25995543836E+04 0.  0.
        3    1    3    3  502    0  0.59956173618E+03  0.40117389953E+03 -0.19544630517E+04  0.20833484116E+04  0.10100000352E+00 0. -1.
       -3    1    3    3    0  502 -0.59956173618E+03 -0.40117389953E+03  0.51666595349E+03  0.88733223251E+03  0.10100000352E+00 0.  1.
</event>
<event>
 5   0  0.2641626E-07  0.2602232E+04  0.7818609E-02  0.8367444E-01
        1   -1    0    0  501    0  0.00000000000E+00  0.00000000000E+00  0.12518299333E+04  0.12518299333E+04  0.50400001928E-02 0.  1.
       -1   -1    0    0    0  501  0.00000000000E+00  0.00000000000E+00 -0.13523420792E+04  0.13523420792E+04  0.50400001928E-02 0. -1.
    10030    2    1    2    0    0  0.00000000000E+00  0.00000000000E+00 -0.10051214587E+03  0.26041720125E+04  0.26022315768E+04 0.  0.
        3    1    3    3  502    0  0.41066177263E+03 -0.21184509973E+03 -0.12674610528E+04  0.13490659615E+04  0.10100000352E+00 0. -1.
       -3    1    3    3    0  502 -0.41066177263E+03  0.21184509973E+03  0.11669489069E+04  0.12551060511E+04  0.10100000352E+00 0.  1.
</event>
<event>
 5   0  0.2755061E-07  0.2599029E+04  0.7818609E-02  0.8368531E-01
        1   -1    0    0  501    0  0.00000000000E+00  0.00000000000E+00  0.16298604522E+04  0.16298604522E+04  0.50400001928E-02 0.  1.
       -1   -1    0    0    0  501  0.00000000000E+00  0.00000000000E+00 -0.10361245153E+04  0.10361245153E+04  0.50400001928E-02 0. -1.
    10030    2    1    2    0    0  0.00000000000E+00  0.00000000000E+00  0.59373593688E+03  0.26659849675E+04  0.25990293350E+04 0.  0.
        4    1    3    3  502    0 -0.59261731301E+03 -0.19972683000E+03 -0.87162314228E+03  0.10727602721E+04  0.12699999809E+01 0. -1.
       -4    1    3    3    0  502  0.59261731301E+03  0.19972683000E+03  0.14653590792E+04  0.15932246954E+04  0.12699999809E+01 0.  1.
</event>
<event>
 5   0  0.2864801E-07  0.2598336E+04  0.7818609E-02  0.8368767E-01
        1   -1    0    0  501    0  0.00000000000E+00  0.00000000000E+00  0.16742728745E+04  0.16742728745E+04  0.50400001928E-02 0. -1.
       -1   -1    0    0    0  501  0.00000000000E+00  0.00000000000E+00 -0.10081019267E+04  0.10081019267E+04  0.50400001928E-02 0.  1.
    10030    2    1    2    0    0  0.00000000000E+00  0.00000000000E+00  0.66617094777E+03  0.26823748013E+04  0.25983361682E+04 0.  0.
        5    1    3    3  502    0  0.12687431379E+04 -0.27792721530E+03  0.30275963474E+03  0.13336559427E+04  0.46999998093E+01 0. -1.
       -5    1    3    3    0  502 -0.12687431379E+04  0.27792721530E+03  0.36341131303E+03  0.13487188586E+04  0.46999998093E+01 0.  1.
</event>
<event>
 5   0  0.6768478E-07  0.2599517E+04  0.7818609E-02  0.8368365E-01
        2   -1    0    0  501    0  0.00000000000E+00  0.00000000000E+00  0.11921882539E+04  0.11921882539E+04  0.25500000920E-02 0. -1.
       -2   -1    0    0    0  501  0.00000000000E+00  0.00000000000E+00 -0.14170341884E+04  0.14170341884E+04  0.25500000920E-02 0.  1.
    10030    2    1    2    0    0  0.00000000000E+00  0.00000000000E+00 -0.22484593448E+03  0.26092224423E+04  0.25995165048E+04 0.  0.
        4    1    3    3  502    0  0.57815874303E+03  0.52642622534E+03  0.92971071903E+03  0.12148068722E+04  0.12699999809E+01 0. -1.
       -4    1    3    3    0  502 -0.57815874303E+03 -0.52642622534E+03 -0.11545566535E+04  0.13944155700E+04  0.12699999809E+01 0.  1.
</event>
<event>
 5   0  0.6768478E-07  0.2600605E+04  0.7818609E-02  0.8367996E-01
       -2   -1    0    0    0  501  0.00000000000E+00  0.00000000000E+00  0.18154009493E+04  0.18154009493E+04  0.25500000920E-02 0.  1.
        2   -1    0    0  501    0  0.00000000000E+00  0.00000000000E+00 -0.93135740432E+03  0.93135740432E+03  0.25500000920E-02 0. -1.
    10030    2    1    2    0    0  0.00000000000E+00  0.00000000000E+00  0.88404354494E+03  0.27467583536E+04  0.26006054033E+04 0.  0.
        4    1    3    3  502    0 -0.13744234975E+03  0.70078149003E+03 -0.70569371065E+03  0.10039872123E+04  0.12699999809E+01 0. -1.
       -4    1    3    3    0  502  0.13744234975E+03 -0.70078149003E+03  0.15897372556E+04  0.17427711413E+04  0.12699999809E+01 0.  1.
</event>
<event>
 5   0  0.6526351E-07  0.2599202E+04  0.7818609E-02  0.8368472E-01
        2   -1    0    0  501    0  0.00000000000E+00  0.00000000000E+00  0.14654909199E+04  0.14654909199E+04  0.25500000920E-02 0. -1.
       -2   -1    0    0    0  501  0.00000000000E+00  0.00000000000E+00 -0.11524896033E+04  0.11524896033E+04  0.25500000920E-02 0.  1.
    10030    2    1    2    0    0  0.00000000000E+00  0.00000000000E+00  0.31300131660E+03  0.26179805232E+04  0.25992022229E+04 0.  0.
        3    1    3    3  502    0  0.72396736635E+03 -0.86374506824E+03  0.80830711573E+03  0.13869191375E+04  0.10100000352E+00 0. -1.
       -3    1    3    3    0  502 -0.72396736635E+03  0.86374506824E+03 -0.49530579913E+03  0.12310613857E+04  0.10100000352E+00 0.  1.
</event>
<event>
 5   0  0.2623263E-07  0.2599676E+04  0.7818609E-02  0.8368311E-01
        1   -1    0    0  501    0  0.00000000000E+00  0.00000000000E+00  0.11397543490E+04  0.11397543490E+04  0.50400001928E-02 0.  1.
       -1   -1    0    0    0  501  0.00000000000E+00  0.00000000000E+00 -0.14824062141E+04  0.14824062141E+04  0.50400001928E-02 0. -1.
    10030    2    1    2    0    0  0.00000000000E+00  0.00000000000E+00 -0.34265186509E+03  0.26221605631E+04  0.25996760795E+04 0.  0.
        1    1    3    3  502    0  0.10996330824E+04 -0.68313994414E+03 -0.53241480434E+02  0.12956495492E+04  0.50400001928E-02 0.  1.
       -1    1    3    3    0  502 -0.10996330824E+04  0.68313994414E+03 -0.28941038465E+03  0.13265110139E+04  0.50400001928E-02 0. -1.
</event>
<event>
 5   0  0.6768478E-07  0.2599807E+04  0.7818609E-02  0.8368267E-01
        2   -1    0    0  501    0  0.00000000000E+00  0.00000000000E+00  0.19384139425E+04  0.19384139425E+04  0.25500000920E-02 0. -1.
       -2   -1    0    0    0  501  0.00000000000E+00  0.00000000000E+00 -0.87171758211E+03  0.87171758212E+03  0.25500000920E-02 0.  1.
    10030    2    1    2    0    0  0.00000000000E+00  0.00000000000E+00  0.10666963604E+04  0.28101315246E+04  0.25998073121E+04 0.  0.
        4    1    3    3  502    0  0.22106055193E+03  0.61383781821E+03 -0.68192335972E+03  0.94376147205E+03  0.12699999809E+01 0.  1.
       -4    1    3    3    0  502 -0.22106055193E+03 -0.61383781821E+03  0.17486197201E+04  0.18663700525E+04  0.12699999809E+01 0. -1.
</event>
<event>
 5   0  0.2755061E-07  0.2601741E+04  0.7818609E-02  0.8367610E-01
        1   -1    0    0  501    0  0.00000000000E+00  0.00000000000E+00  0.19793601770E+04  0.19793601770E+04  0.50400001928E-02 0.  1.
       -1   -1    0    0    0  501  0.00000000000E+00  0.00000000000E+00 -0.85495539870E+03  0.85495539871E+03  0.50400001928E-02 0. -1.
    10030    2    1    2    0    0  0.00000000000E+00  0.00000000000E+00  0.11244047783E+04  0.28343155757E+04  0.26017414701E+04 0.  0.
        4    1    3    3  502    0  0.63957221692E+03  0.40332651035E+03 -0.59097837622E+03  0.95967804427E+03  0.12699999809E+01 0. -1.
       -4    1    3    3    0  502 -0.63957221692E+03 -0.40332651035E+03  0.17153831545E+04  0.18746375315E+04  0.12699999809E+01 0.  1.
</event>
<event>
 5   0  0.7160320E-07  0.2600555E+04  0.7818609E-02  0.8368013E-01
        2   -1    0    0  501    0  0.00000000000E+00  0.00000000000E+00  0.16400444555E+04  0.16400444555E+04  0.25500000920E-02 0. -1.
       -2   -1    0    0    0  501  0.00000000000E+00  0.00000000000E+00 -0.10308999585E+04  0.10308999585E+04  0.25500000920E-02 0.  1.
    10030    2    1    2    0    0  0.00000000000E+00  0.00000000000E+00  0.60914449704E+03  0.26709444140E+04  0.26005551415E+04 0.  0.
        1    1    3    3  502    0  0.52508282969E+03 -0.85244224121E+03 -0.54755425817E+03  0.11411333920E+04  0.50400001928E-02 0.  1.
       -1    1    3    3    0  502 -0.52508282969E+03  0.85244224121E+03  0.11566987552E+04  0.15298110220E+04  0.50400001928E-02 0. -1.
</event>
<event>
 5   0  0.6599814E-07  0.2600168E+04  0.7818609E-02  0.8368144E-01
       -2   -1    0    0    0  501  0.00000000000E+00  0.00000000000E+00  0.22726765806E+04  0.22726765806E+04  0.25500000920E-02 0.  1.
        2   -1    0    0  501    0  0.00000000000E+00  0.00000000000E+00 -0.74371274004E+03  0.74371274005E+03  0.25500000920E-02 0. -1.
    10030    2    1    2    0    0  0.00000000000E+00  0.00000000000E+00  0.15289638405E+04  0.30163893206E+04  0.26001680923E+04 0.  0.
        5    1    3    3  502    0  0.12894883999E+04  0.11104692521E+03  0.90696197600E+03  0.15804157267E+04  0.46999998093E+01 0.  1.
       -5    1    3    3    0  502 -0.12894883999E+04 -0.11104692521E+03  0.62200186455E+03  0.14359735940E+04  0.46999998093E+01 0. -1.
</event>
<event>
 5   0  0.2623263E-07  0.2600662E+04  0.7818609E-02  0.8367976E-01
       -1   -1    0    0    0  501  0.00000000000E+00  0.00000000000E+00  0.93343787666E+03  0.93343787667E+03  0.50400001928E-02 0. -1.
        1   -1    0    0  501    0  0.00000000000E+00  0.00000000000E+00 -0.18114336828E+04  0.18114336828E+04  0.50400001928E-02 0.  1.
    10030    2    1    2    0    0  0.00000000000E+00  0.00000000000E+00 -0.87799580615E+03  0.27448715595E+04  0.26006620777E+04 0.  0.
        1    1    3    3  502    0 -0.65256615491E+03  0.15199104407E+03 -0.16152065805E+04  0.17486669671E+04  0.50400001928E-02 0.  1.
       -1    1    3    3    0  502  0.65256615491E+03 -0.15199104407E+03  0.73721077438E+03  0.99620459239E+03  0.50400001928E-02 0. -1.
</event>
<event>
 5   0  0.2623263E-07  0.2599810E+04  0.7818609E-02  0.8368266E-01
        1   -1    0    0  501    0  0.00000000000E+00  0.00000000000E+00  0.20672298291E+04  0.20672298291E+04  0.50400001928E-02 0. -1.
       -1   -1    0    0    0  501  0.00000000000E+00  0.00000000000E+00 -0.81739938943E+03  0.81739938944E+03  0.50400001928E-02 0.  1.
    10030    2    1    2    0    0  0.00000000000E+00  0.00000000000E+00  0.12498304397E+04  0.28846292185E+04  0.25998095316E+04 0.  0.
        1    1    3    3  502    0  0.11788832883E+02  0.97825447924E+03 -0.32479538854E+03  0.10308311439E+04  0.50400001928E-02 0.  1.
       -1    1    3    3    0  502 -0.11788832883E+02 -0.97825447924E+03  0.15746258282E+04  0.18537980747E+04  0.50400001928E-02 0. -1.
</event>
<event>
 5   0  0.2755061E-07  0.2599716E+04  0.7818609E-02  0.8368298E-01
        1   -1    0    0  501    0  0.00000000000E+00  0.00000000000E+00  0.17814572915E+04  0.17814572915E+04  0.50400001928E-02 0.  1.
       -1   -1    0    0    0  501  0.00000000000E+00  0.00000000000E+00 -0.94845440355E+03  0.94845440356E+03  0.50400001928E-02 0. -1.
    10030    2    1    2    0    0  0.00000000000E+00  0.00000000000E+00  0.83300288792E+03  0.27299116950E+04  0.25997161482E+04 0.  0.
        4    1    3    3  502    0 -0.10279251728E+04  0.79556356836E+03  0.42576644802E+03  0.13677829628E+04  0.12699999809E+01 0. -1.
       -4    1    3    3    0  502  0.10279251728E+04 -0.79556356836E+03  0.40723643990E+03  0.13621287322E+04  0.12699999809E+01 0.  1.
</event>
<event>
 5   0  0.6768478E-07  0.2601322E+04  0.7818609E-02  0.8367752E-01
        2   -1    0    0  501    0  0.00000000000E+00  0.00000000000E+00  0.20922799402E+04  0.20922799402E+04  0.25500000920E-02 0. -1.
       -2   -1    0    0    0  501  0.00000000000E+00  0.00000000000E+00 -0.80855304672E+03  0.80855304672E+03  0.25500000920E-02 0.  1.
    10030    2    1    2    0    0  0.00000000000E+00  0.00000000000E+00  0.12837268935E+04  0.29008329870E+04  0.26013222179E+04 0.  0.
        4    1    3    3  502    0 -0.54098966279E+03  0.11815535831E+04  0.70272814189E+03  0.14773513933E+04  0.12699999809E+01 0.  1.
       -4    1    3    3    0  502  0.54098966279E+03 -0.11815535831E+04  0.58099875163E+03  0.14234815936E+04  0.12699999809E+01 0. -1.
</event>
<event>
 5   0  0.2623263E-07  0.2595884E+04  0.7818609E-02  0.8369601E-01
       -1   -1    0    0    0  501  0.00000000000E+00  0.00000000000E+00  0.10081580400E+04  0.10081580400E+04  0.50400001928E-02 0. -1.
        1   -1    0    0  501    0  0.00000000000E+00  0.00000000000E+00 -0.16710215820E+04  0.16710215820E+04  0.50400001928E-02 0.  1.
    10030    2    1    2    0    0  0.00000000000E+00  0.00000000000E+00 -0.66286354196E+03  0.26791796220E+04  0.25958843140E+04 0.  0.
        1    1    3    3  502    0 -0.35111917756E+02  0.11145370341E+04 -0.10169959632E+04  0.15092072211E+04  0.50400001928E-02 0.  1.
       -1    1    3    3    0  502  0.35111917756E+02 -0.11145370341E+04  0.35413242124E+03  0.11699724009E+04  0.50400001928E-02 0. -1.
</event>
<event>
 5   0  0.7160320E-07  0.2600371E+04  0.7818609E-02  0.8368075E-01
       -2   -1    0    0    0  501  0.00000000000E+00  0.00000000000E+00  0.12628123216E+04  0.12628123216E+04  0.25500000920E-02 0.  1.
        2   -1    0    0  501    0  0.00000000000E+00  0.00000000000E+00 -0.13386644953E+04  0.13386644953E+04  0.25500000920E-02 0. -1.
    10030    2    1    2    0    0  0.00000000000E+00  0.00000000000E+00 -0.75852173645E+02  0.26014768169E+04  0.26003707575E+04 0.  0.
        1    1    3    3  502    0 -0.82915858166E+03 -0.37794847124E+02  0.96327409703E+03  0.12715460629E+04  0.50400001928E-02 0.  1.
       -1    1    3    3    0  502  0.82915858166E+03  0.37794847124E+02 -0.10391262707E+04  0.13299307540E+04  0.50400001928E-02 0. -1.
</event>
<event>
 5   0  0.2864801E-07  0.2599486E+04  0.7818609E-02  0.8368376E-01
       -1   -1    0    0    0  501  0.00000000000E+00  0.00000000000E+00  0.27793838439E+04  0.27793838439E+04  0.50400001928E-02 0.  1.
        1   -1    0    0  501    0  0.00000000000E+00  0.00000000000E+00 -0.60780784148E+03  0.60780784150E+03  0.50400001928E-02 0. -1.
    10030    2    1    2    0    0  0.00000000000E+00  0.00000000000E+00  0.21715760024E+04  0.33871916854E+04  0.25994855605E+04 0.  0.
        5    1    3    3  502    0  0.44961698860E+02  0.98941207766E+03 -0.10883962137E+02  0.99050409611E+03  0.46999998093E+01 0. -1.
       -5    1    3    3    0  502 -0.44961698860E+02 -0.98941207766E+03  0.21824599645E+04  0.23966875893E+04  0.46999998093E+01 0.  1.
</event>
<event>
 5   0  0.6526351E-07  0.2603475E+04  0.7818609E-02  0.8367022E-01
        2   -1    0    0  501    0  0.00000000000E+00  0.00000000000E+00  0.16472019674E+04  0.16472019674E+04  0.25500000920E-02 0. -1.
       -2   -1    0    0    0  501  0.00000000000E+00  0.00000000000E+00 -0.10287266672E+04  0.10287266672E+04  0.25500000920E-02 0.  1.
    10030    2    1    2    0    0  0.00000000000E+00  0.00000000000E+00  0.61847530021E+03  0.26759286346E+04  0.26034750547E+04 0.  0.
        3    1    3    3  502    0  0.93084171951E+03 -0.41216799197E+03  0.11430930544E+04  0.15306895510E+04  0.10100000352E+00 0. -1.
       -3    1    3    3    0  502 -0.93084171951E+03  0.41216799197E+03 -0.52461775415E+03  0.11452390836E+04  0.10100000352E+00 0.  1.
</event>
<event>
 5   0  0.2623263E-07  0.2598271E+04  0.7818609E-02  0.8368789E-01
       -1   -1    0    0    0  501  0.00000000000E+00  0.00000000000E+00  0.84309240006E+03  0.84309240007E+03  0.50400001928E-02 0.  1.
        1   -1    0    0  501    0  0.00000000000E+00  0.00000000000E+00 -0.20018598051E+04  0.20018598051E+04  0.50400001928E-02 0. -1.
    10030    2    1    2    0    0  0.00000000000E+00  0.00000000000E+00 -0.11587674050E+04  0.28449522052E+04  0.25982708001E+04 0.  0.
        1    1    3    3  502    0 -0.44736635145E+03  0.10857970073E+04 -0.11877027811E+04  0.16702483916E+04  0.50400001928E-02 0. -1.
       -1    1    3    3    0  502  0.44736635145E+03 -0.10857970073E+04  0.28935376051E+02  0.11747038135E+04  0.50400001928E-02 0.  1.
</event>
<event>
 5   0  0.2864801E-07  0.2598017E+04  0.7818609E-02  0.8368875E-01
        1   -1    0    0  501    0  0.00000000000E+00  0.00000000000E+00  0.19476777815E+04  0.19476777815E+04  0.50400001928E-02 0.  1.
       -1   -1    0    0    0  501  0.00000000000E+00  0.00000000000E+00 -0.86637675855E+03  0.86637675857E+03  0.50400001928E-02 0. -1.
    10030    2    1    2    0    0  0.00000000000E+00  0.00000000000E+00  0.10813010230E+04  0.28140545401E+04  0.25980167537E+04 0.  0.
        5    1    3    3  502    0 -0.60918148803E+03  0.10437396012E+04  0.10566078282E+04  0.16052839728E+04  0.46999998093E+01 0.  1.
       -5    1    3    3    0  502  0.60918148803E+03 -0.10437396012E+04  0.24693194759E+02  0.12087705673E+04  0.46999998093E+01 0. -1.
</event>
<event>
 5   0  0.6599814E-07  0.2600269E+04  0.7818609E-02  0.8368110E-01
       -2   -1    0    0    0  501  0.00000000000E+00  0.00000000000E+00  0.93996144853E+03  0.93996144854E+03  0.25500000920E-02 0.  1.
        2   -1    0    0  501    0  0.00000000000E+00  0.00000000000E+00 -0.17983184334E+04  0.17983184335E+04  0.25500000920E-02 0. -1.
    10030    2    1    2    0    0  0.00000000000E+00  0.00000000000E+00 -0.85835698492E+03  0.27382798820E+04  0.26002692166E+04 0.  0.
        5    1    3    3  502    0  0.75404177191E+03 -0.76617521983E+03 -0.11992384511E+04  0.16105273713E+04  0.46999998093E+01 0. -1.
       -5    1    3    3    0  502 -0.75404177191E+03  0.76617521983E+03  0.34088146618E+03  0.11277525106E+04  0.46999998093E+01 0.  1.
</event>
<event>
 5   0  0.2623263E-07  0.2600410E+04  0.7818609E-02  0.8368062E-01
       -1   -1    0    0    0  501  0.00000000000E+00  0.00000000000E+00  0.12965588810E+04  0.12965588810E+04  0.50400001928E-02 0.  1.
        1   -1    0    0  501    0  0.00000000000E+00  0.00000000000E+00 -0.13038610883E+04  0.13038610883E+04  0.50400001928E-02 0. -1.
    10030    2    1    2    0    0  0.00000000000E+00  0.00000000000E+00 -0.73022072891E+01  0.26004199692E+04  0.26004097166E+04 0.  0.
        1    1    3    3  502    0 -0.19167386997E+03  0.36752046106E+03 -0.12360205643E+04  0.13036705861E+04  0.50400001928E-02 0. -1.
       -1    1    3    3    0  502  0.19167386997E+03 -0.36752046106E+03  0.12287183570E+04  0.12967493831E+04  0.50400001928E-02 0.  1.
</event>
<event>
 5   0  0.2864801E-07  0.2599940E+04  0.7818609E-02  0.8368222E-01
        1   -1    0    0  501    0  0.00000000000E+00  0.00000000000E+00  0.15025812936E+04  0.15025812937E+04  0.50400001928E-02 0.  1.
       -1   -1    0    0    0  501  0.00000000000E+00  0.00000000000E+00 -0.11246792541E+04  0.11246792541E+04  0.50400001928E-02 0. -1.
    10030    2    1    2    0    0  0.00000000000E+00  0.00000000000E+00  0.37790203958E+03  0.26272605477E+04  0.25999400059E+04 0.  0.
        5    1    3    3  502    0  0.33666738883E+03  0.11717449571E+04  0.64487807609E+03  0.13792102806E+04  0.46999998093E+01 0. -1.
       -5    1    3    3    0  502 -0.33666738883E+03 -0.11717449571E+04 -0.26697603651E+03  0.12480502671E+04  0.46999998093E+01 0.  1.
</event>
<event>
 5   0  0.2641626E-07  0.2601293E+04  0.7818609E-02  0.8367762E-01
       -1   -1    0    0    0  501  0.00000000000E+00  0.00000000000E+00  0.12940140547E+04  0.12940140547E+04  0.50400001928E-02 0. -1.
        1   -1    0    0  501    0  0.00000000000E+00  0.00000000000E+00 -0.13073133114E+04  0.13073133114E+04  0.50400001928E-02 0.  1.
    10030    2    1    2    0    0  0.00000000000E+00  0.00000000000E+00 -0.13299256721E+02  0.26013273661E+04  0.26012933697E+04 0.  0.
        3    1    3    3  502    0 -0.58234405280E+03  0.93116521855E+03 -0.70342880312E+03  0.13042259587E+04  0.10100000352E+00 0.  1.
       -3    1    3    3    0  502  0.58234405280E+03 -0.93116521855E+03  0.69012954640E+03  0.12971014074E+04  0.10100000352E+00 0. -1.
</event>
<event>
 5   0  0.6768478E-07  0.2600362E+04  0.7818609E-02  0.8368078E-01
        2   -1    0    0  501    0  0.00000000000E+00  0.00000000000E+00  0.21966255365E+04  0.21966255365E+04  0.25500000920E-02 0. -1.
       -2   -1    0    0    0  501  0.00000000000E+00  0.00000000000E+00 -0.76957609198E+03  0.76957609198E+03  0.25500000920E-02 0.  1.
    10030    2    1    2    0    0  0.00000000000E+00  0.00000000000E+00  0.14270494445E+04  0.29662016285E+04  0.26003618948E+04 0.  0.
        4    1    3    3  502    0 -0.12483542849E+03  0.10023866661E+04  0.16472919325E+04  0.19323393171E+04  0.12699999809E+01 0.  1.
       -4    1    3    3    0  502  0.12483542849E+03 -0.10023866661E+04 -0.22024248797E+03  0.10338623114E+04  0.12699999809E+01 0. -1.
</event>
<event>
 5   0  0.2793576E-07  0.2599556E+04  0.7818609E-02  0.8368352E-01
       -1   -1    0    0    0  501  0.00000000000E+00  0.00000000000E+00  0.14338249281E+04  0.14338249281E+04  0.50400001928E-02 0. -1.
        1   -1    0    0  501    0  0.00000000000E+00  0.00000000000E+00 -0.11782626634E+04  0.11782626634E+04  0.50400001928E-02 0.  1.
    10030    2    1    2    0    0  0.00000000000E+00  0.00000000000E+00  0.25556226471E+03  0.26120875915E+04  0.25995556379E+04 0.  0.
        2    1    3    3  502    0  0.59313458670E+03  0.10866047440E+04  0.52580163904E+03  0.13449854539E+04  0.25500000920E-02 0. -1.
       -2    1    3    3    0  502 -0.59313458670E+03 -0.10866047440E+04 -0.27023937433E+03  0.12671021376E+04  0.25500000920E-02 0.  1.
</event>
<event>
 5   0  0.2294625E-07  0.2598510E+04  0.7818609E-02  0.8368707E-01
       -3   -1    0    0    0  501  0.00000000000E+00  0.00000000000E+00  0.20452065391E+04  0.20452065416E+04  0.10100000352E+00 0. -1.
        3   -1    0    0  501    0  0.00000000000E+00  0.00000000000E+00 -0.82537588183E+03  0.82537588801E+03  0.10100000352E+00 0.  1.
    10030    2    1    2    0    0  0.00000000000E+00  0.00000000000E+00  0.12198306573E+04  0.28705824296E+04  0.25985104681E+04 0.  0.
        3    1    3    3  502    0 -0.87892768924E+03  0.65291865660E+03  0.13826134533E+04  0.17636429986E+04  0.10100000352E+00 0. -1.
       -3    1    3    3    0  502  0.87892768924E+03 -0.65291865660E+03 -0.16278279602E+03  0.11069394310E+04  0.10100000352E+00 0.  1.
</event>
<event>
 5   0  0.7160320E-07  0.2600176E+04  0.7818609E-02  0.8368141E-01
        2   -1    0    0  501    0  0.00000000000E+00  0.00000000000E+00  0.14085408503E+04  0.14085408503E+04  0.25500000920E-02 0.  1.
       -2   -1    0    0    0  501  0.00000000000E+00  0.00000000000E+00 -0.11999855794E+04  0.11999855794E+04  0.25500000920E-02 0. -1.
    10030    2    1    2    0    0  0.00000000000E+00  0.00000000000E+00  0.20855527091E+03  0.26085264298E+04  0.26001759236E+04 0.  0.
        1    1    3    3  502    0 -0.60879501240E+03  0.10563655114E+04 -0.34849123602E+03  0.12680637217E+04  0.50400001928E-02 0. -1.
       -1    1    3    3    0  502  0.60879501240E+03 -0.10563655114E+04  0.55704650694E+03  0.13404627081E+04  0.50400001928E-02 0.  1.
</event>
<event>
 5   0  0.6768478E-07  0.2596366E+04  0.7818609E-02  0.8369437E-01
       -2   -1    0    0    0  501  0.00000000000E+00  0.00000000000E+00  0.68284750419E+03  0.68284750420E+03  0.25500000920E-02 0.  1.
        2   -1    0    0  501    0  0.00000000000E+00  0.00000000000E+00 -0.24680174288E+04  0.24680174288E+04  0.25500000920E-02 0. -1.
    10030    2    1    2    0    0  0.00000000000E+00  0.00000000000E+00 -0.17851699246E+04  0.31508649330E+04  0.25963663390E+04 0.  0.
        4    1    3    3  502    0 -0.49519062696E+03  0.78487240409E+03  0.20905029473E+03  0.95128444030E+03  0.12699999809E+01 0.  1.
       -4    1    3    3    0  502  0.49519062696E+03 -0.78487240409E+03 -0.19942202193E+04  0.21995804927E+04  0.12699999809E+01 0. -1.
</event>
<event>
 5   0  0.6768478E-07  0.2593959E+04  0.7818609E-02  0.8370256E-01
       -2   -1    0    0    0  501  0.00000000000E+00  0.00000000000E+00  0.13496073431E+04  0.13496073431E+04  0.25500000920E-02 0.  1.
        2   -1    0    0  501    0  0.00000000000E+00  0.00000000000E+00 -0.12464041684E+04  0.12464041684E+04  0.25500000920E-02 0. -1.
    10030    2    1    2    0    0  0.00000000000E+00  0.00000000000E+00  0.10320317469E+03  0.25960115115E+04  0.25939593044E+04 0.  0.
        4    1    3    3  502    0 -0.49335913289E+03 -0.11801580782E+04  0.26619669864E+03  0.13065368800E+04  0.12699999809E+01 0. -1.
       -4    1    3    3    0  502  0.49335913289E+03  0.11801580782E+04 -0.16299352395E+03  0.12894746315E+04  0.12699999809E+01 0.  1.
</event>
<event>
 5   0  0.6780984E-07  0.2601877E+04  0.7818609E-02  0.8367564E-01
        2   -1    0    0  501    0  0.00000000000E+00  0.00000000000E+00  0.15841768570E+04  0.15841768570E+04  0.25500000920E-02 0.  1.
       -2   -1    0    0    0  501  0.00000000000E+00  0.00000000000E+00 -0.10683412483E+04  0.10683412484E+04  0.25500000920E-02 0. -1.
    10030    2    1    2    0    0  0.00000000000E+00  0.00000000000E+00  0.51583560861E+03  0.26525181053E+04  0.26018773845E+04 0.  0.
        2    1    3    3  502    0  0.16998298964E+03 -0.51737217908E+03 -0.94654815282E+03  0.10920263706E+04  0.25500000920E-02 0. -1.
       -2    1    3    3    0  502 -0.16998298964E+03  0.51737217908E+03  0.14623837614E+04  0.15604917347E+04  0.25500000920E-02 0.  1.
</event>
<event>
 5   0  0.6526351E-07  0.2600067E+04  0.7818609E-02  0.8368178E-01
       -2   -1    0    0    0  501  0.00000000000E+00  0.00000000000E+00  0.10006752457E+04  0.10006752457E+04  0.25500000920E-02 0.  1.
        2   -1    0    0  501    0  0.00000000000E+00  0.00000000000E+00 -0.16889469358E+04  0.16889469358E+04  0.25500000920E-02 0. -1.
    10030    2    1    2    0    0  0.00000000000E+00  0.00000000000E+00 -0.68827169004E+03  0.26896221815E+04  0.26000672222E+04 0.  0.
        3    1    3    3  502    0 -0.12169355640E+03  0.14440246103E+03 -0.16746833136E+04  0.16852968888E+04  0.10100000352E+00 0. -1.
       -3    1    3    3    0  502  0.12169355640E+03 -0.14440246103E+03  0.98641162351E+03  0.10043252927E+04  0.10100000352E+00 0.  1.
</event>
<event>
 5   0  0.2641626E-07  0.2601798E+04  0.7818609E-02  0.8367591E-01
        1   -1    0    0  501    0  0.00000000000E+00  0.00000000000E+00  0.23520609245E+04  0.23520609245E+04  0.50400001928E-02 0.  1.
       -1   -1    0    0    0  501  0.00000000000E+00  0.00000000000E+00 -0.71951298049E+03  0.71951298051E+03  0.50400001928E-02 0. -1.
    10030    2    1    2    0    0  0.00000000000E+00  0.00000000000E+00  0.16325479441E+04  0.30715739051E+04  0.26017981214E+04 0.  0.
        3    1    3    3  502    0 -0.79696051255E+03 -0.66500243536E+03 -0.10951550615E+03  0.10437279118E+04  0.10100000352E+00 0. -1.
       -3    1    3    3    0  502  0.79696051255E+03  0.66500243536E+03  0.17420634502E+04  0.20278459932E+04  0.10100000352E+00 0.  1.
</event>
<event>
 5   0  0.2755061E-07  0.2608352E+04  0.7818609E-02  0.8365370E-01
       -1   -1    0    0    0  501  0.00000000000E+00  0.00000000000E+00  0.15777730318E+04  0.15777730318E+04  0.50400001928E-02 0.  1.
        1   -1    0    0  501    0  0.00000000000E+00  0.00000000000E+00 -0.10780225190E+04  0.10780225190E+04  0.50400001928E-02 0. -1.
    10030    2    1    2    0    0  0.00000000000E+00  0.00000000000E+00  0.49975051286E+03  0.26557955508E+04  0.26083518613E+04 0.  0.
        4    1    3    3  502    0 -0.11581386240E+04 -0.58972803876E+03  0.36052114106E+03  0.13487184058E+04  0.12699999809E+01 0.  1.
       -4    1    3    3    0  502  0.11581386240E+04  0.58972803876E+03  0.13922937180E+03  0.13070771450E+04  0.12699999809E+01 0. -1.
</event>
<event>
 5   0  0.6526351E-07  0.2601449E+04  0.7818609E-02  0.8367709E-01
       -2   -1    0    0    0  501  0.00000000000E+00  0.00000000000E+00  0.17568983507E+04  0.17568983507E+04  0.25500000920E-02 0.  1.
        2   -1    0    0  501    0  0.00000000000E+00  0.00000000000E+00 -0.96299518268E+03  0.96299518268E+03  0.25500000920E-02 0. -1.
    10030    2    1    2    0    0  0.00000000000E+00  0.00000000000E+00  0.79390316802E+03  0.27198935334E+04  0.26014493254E+04 0.  0.
        3    1    3    3  502    0 -0.42234828243E+03  0.12197017448E+04  0.22890324990E+03  0.13108955435E+04  0.10100000352E+00 0.  1.
       -3    1    3    3    0  502  0.42234828243E+03 -0.12197017448E+04  0.56499991812E+03  0.14089979899E+04  0.10100000352E+00 0. -1.
</event>
<event>
 5   0  0.6780984E-07  0.2600321E+04  0.7818609E-02  0.8368092E-01
       -2   -1    0    0    0  501  0.00000000000E+00  0.00000000000E+00  0.14106053289E+04  0.14106053289E+04  0.25500000920E-02 0. -1.
        2   -1    0    0  501    0  0.00000000000E+00  0.00000000000E+00 -0.11983632678E+04  0.11983632678E+04  0.25500000920E-02 0.  1.
    10030    2    1    2    0    0  0.00000000000E+00  0.00000000000E+00  0.21224206105E+03  0.26089685967E+04  0.26003212198E+04 0.  0.
        2    1    3    3  502    0  0.96776072821E+03  0.48976848559E+03  0.82543167796E+03  0.13630008993E+04  0.25500000920E-02 0. -1.
       -2    1    3    3    0  502 -0.96776072821E+03 -0.48976848559E+03 -0.61318961691E+03  0.12459676973E+04  0.25500000920E-02 0.  1.
</event>
<event>
 5   0  0.2623263E-07  0.2600704E+04  0.7818609E-02  0.8367962E-01
       -1   -1    0    0    0  501  0.00000000000E+00  0.00000000000E+00  0.13542891631E+04  0.13542891632E+04  0.50400001928E-02 0. -1.
        1   -1    0    0  501    0  0.00000000000E+00  0.00000000000E+00 -0.12485628487E+04  0.12485628487E+04  0.50400001928E-02 0.  1.
    10030    2    1    2    0    0  0.00000000000E+00  0.00000000000E+00  0.10572631448E+03  0.26028520118E+04  0.26007038551E+04 0.  0.
        1    1    3    3  502    0 -0.10771208087E+03  0.27001675462E+03  0.13213500671E+04  0.13529511965E+04  0.50400001928E-02 0. -1.
       -1    1    3    3    0  502  0.10771208087E+03 -0.27001675462E+03 -0.12156237527E+04  0.12499008153E+04  0.50400001928E-02 0.  1.
</event>
<event>
 5   0  0.7160320E-07  0.2599617E+04  0.7818609E-02  0.8368331E-01
        2   -1    0    0  501    0  0.00000000000E+00  0.00000000000E+00  0.14106760540E+04  0.14106760540E+04  0.25500000920E-02 0.  1.
       -2   -1    0    0    0  501  0.00000000000E+00  0.00000000000E+00 -0.11976546775E+04  0.11976546775E+04  0.25500000920E-02 0. -1.
    10030    2    1    2    0    0  0.00000000000E+00  0.00000000000E+00  0.21302137657E+03  0.26083307315E+04  0.25996174907E+04 0.  0.
        1    1    3    3  502    0 -0.11091800711E+04  0.32480127976E+02  0.78566004474E+03  0.13596312348E+04  0.50400001928E-02 0.  1.
       -1    1    3    3    0  502  0.11091800711E+04 -0.32480127976E+02 -0.57263866817E+03  0.12486994967E+04  0.50400001928E-02 0. -1.
</event>
<event>
 5   0  0.2793576E-07  0.2601868E+04  0.7818609E-02  0.8367567E-01
       -1   -1    0    0    0  501  0.00000000000E+00  0.00000000000E+00  0.99921498956E+03  0.99921498957E+03  0.50400001928E-02 0.  1.
        1   -1    0    0  501    0  0.00000000000E+00  0.00000000000E+00 -0.16937584328E+04  0.16937584328E+04  0.50400001928E-02 0. -1.
    10030    2    1    2    0    0  0.00000000000E+00  0.00000000000E+00 -0.69454344320E+03  0.26929734223E+04  0.26018676482E+04 0.  0.
        2    1    3    3  502    0 -0.66998443770E+03 -0.61625363880E+03 -0.13092133512E+04  0.15945806010E+04  0.25500000920E-02 0. -1.
       -2    1    3    3    0  502  0.66998443770E+03  0.61625363880E+03  0.61466990803E+03  0.10983928213E+04  0.25500000920E-02 0.  1.
</event>
<event>
 5   0  0.6599814E-07  0.2600323E+04  0.7818609E-02  0.8368091E-01
       -2   -1    0    0    0  501  0.00000000000E+00  0.00000000000E+00  0.16944807846E+04  0.16944807846E+04  0.25500000920E-02 0.  1.
        2   -1    0    0  501    0  0.00000000000E+00  0.00000000000E+00 -0.99760370819E+03  0.99760370819E+03  0.25500000920E-02 0. -1.
    10030    2    1    2    0    0  0.00000000000E+00  0.00000000000E+00  0.69687707640E+03  0.26920844928E+04  0.26003232985E+04 0.  0.
        5    1    3    3  502    0 -0.73134434634E+03 -0.63583767548E+02  0.14593810112E+04  0.16336225005E+04  0.46999998093E+01 0.  1.
       -5    1    3    3    0  502  0.73134434634E+03  0.63583767548E+02 -0.76250393480E+03  0.10584619922E+04  0.46999998093E+01 0. -1.
</event>
<event>
 5   0  0.2793576E-07  0.2599389E+04  0.7818609E-02  0.8368409E-01
        1   -1    0    0  501    0  0.00000000000E+00  0.00000000000E+00  0.25885856705E+04  0.25885856705E+04  0.50400001928E-02 0. -1.
       -1   -1    0    0    0  501  0.00000000000E+00  0.00000000000E+00 -0.65255943037E+03  0.65255943039E+03  0.50400001928E-02 0.  1.
    10030    2    1    2    0    0  0.00000000000E+00  0.00000000000E+00  0.19360262401E+04  0.32411451009E+04  0.25993891518E+04 0.  0.
        2    1    3    3  502    0  0.83118617341E+03 -0.61160802541E+03  0.19531890843E+04  0.22090455927E+04  0.25500000920E-02 0. -1.
       -2    1    3    3    0  502 -0.83118617341E+03  0.61160802541E+03 -0.17162844157E+02  0.10320995082E+04  0.25500000920E-02 0.  1.
</event>
<event>
 5   0  0.2641626E-07  0.2602112E+04  0.7818609E-02  0.8367484E-01
       -1   -1    0    0    0  501  0.00000000000E+00  0.00000000000E+00  0.16552682828E+04  0.16552682828E+04  0.50400001928E-02 0. -1.
        1   -1    0    0  501    0  0.00000000000E+00  0.00000000000E+00 -0.10226415358E+04  0.10226415358E+04  0.50400001928E-02 0.  1.
    10030    2    1    2    0    0  0.00000000000E+00  0.00000000000E+00  0.63262674704E+03  0.26779098186E+04  0.26021115263E+04 0.  0.
        3    1    3    3  502    0  0.26360346605E+03  0.69141750920E+03  0.14176267773E+04  0.15991280904E+04  0.10100000352E+00 0. -1.
       -3    1    3    3    0  502 -0.26360346605E+03 -0.69141750920E+03 -0.78500003030E+03  0.10787817282E+04  0.10100000352E+00 0.  1.
</event>
<event>
 5   0  0.2864801E-07  0.2598200E+04  0.7818609E-02  0.8368813E-01
       -1   -1    0    0    0  501  0.00000000000E+00  0.00000000000E+00  0.11041185839E+04  0.11041185839E+04  0.50400001928E-02 0. -1.
        1   -1    0    0  501    0  0.00000000000E+00  0.00000000000E+00 -0.15285138929E+04  0.15285138929E+04  0.50400001928E-02 0.  1.
    10030    2    1    2    0    0  0.00000000000E+00  0.00000000000E+00 -0.42439530900E+03  0.26326324769E+04  0.25981998345E+04 0.  0.
        5    1    3    3  502    0  0.24243868795E+03 -0.72667240038E+03  0.85090134896E+03  0.11449386405E+04  0.46999998093E+01 0. -1.
       -5    1    3    3    0  502 -0.24243868795E+03  0.72667240038E+03 -0.12752966580E+04  0.14876938363E+04  0.46999998093E+01 0.  1.
</event>
<event>
 5   0  0.7160320E-07  0.2600280E+04  0.7818609E-02  0.8368106E-01
       -2   -1    0    0    0  501  0.00000000000E+00  0.00000000000E+00  0.67279325624E+03  0.67279325624E+03  0.25500000920E-02 0. -1.
        2   -1    0    0  501    0  0.00000000000E+00  0.00000000000E+00 -0.25124571827E+04  0.25124571827E+04  0.25500000920E-02 0.  1.
    10030    2    1    2    0    0  0.00000000000E+00  0.00000000000E+00 -0.18396639264E+04  0.31852504389E+04  0.26002801765E+04 0.  0.
        1    1    3    3  502    0  0.85924723665E+03 -0.92805647823E+03 -0.12888891530E+04  0.18057768105E+04  0.50400001928E-02 0.  1.
       -1    1    3    3    0  502 -0.85924723665E+03  0.92805647823E+03 -0.55077477342E+03  0.13794736284E+04  0.50400001928E-02 0. -1.
</event>
<event>
 5   0  0.2641626E-07  0.2599419E+04  0.7818609E-02  0.8368398E-01
       -1   -1    0    0    0  501  0.00000000000E+00  0.00000000000E+00  0.22067293110E+04  0.22067293110E+04  0.50400001928E-02 0.  1.
        1   -1    0    0  501    0  0.00000000000E+00  0.00000000000E+00 -0.76549722767E+03  0.76549722769E+03  0.50400001928E-02 0. -1.
    10030    2    1    2    0    0  0.00000000000E+00  0.00000000000E+00  0.14412320834E+04  0.29722265387E+04  0.25994192966E+04 0.  0.
        3    1    3    3  502    0  0.11314886248E+04 -0.30604917228E+03  0.78555173803E+02  0.11747780766E+04  0.10100000352E+00 0. -1.
       -3    1    3    3    0  502 -0.11314886248E+04  0.30604917228E+03  0.13626769096E+04  0.17974484621E+04  0.10100000352E+00 0.  1.
</event>
<event>
 5   0  0.6780984E-07  0.2596656E+04  0.7818609E-02  0.8369338E-01
       -2   -1    0    0    0  501  0.00000000000E+00  0.00000000000E+00  0.59532758661E+03  0.59532758662E+03  0.25500000920E-02 0. -1.
        2   -1    0    0  501    0  0.00000000000E+00  0.00000000000E+00 -0.28314764380E+04  0.28314764380E+04  0.25500000920E-02 0.  1.
    10030    2    1    2    0    0  0.00000000000E+00  0.00000000000E+00 -0.22361488514E+04  0.34268040246E+04  0.25966563380E+04 0.  0.
        2    1    3    3  502    0  0.99231254036E+03  0.43423595127E+03 -0.20627528857E+04  0.23298486016E+04  0.25500000920E-02 0.  1.
       -2    1    3    3    0  502 -0.99231254036E+03 -0.43423595127E+03 -0.17339596572E+03  0.10969554230E+04  0.25500000920E-02 0. -1.
</event>
<event>
 5   0  0.2755061E-07  0.2599951E+04  0.7818609E-02  0.8368218E-01
        1   -1    0    0  501    0  0.00000000000E+00  0.00000000000E+00  0.92777064432E+03  0.92777064434E+03  0.50400001928E-02 0. -1.
       -1   -1    0    0    0  501  0.00000000000E+00  0.00000000000E+00 -0.18215027922E+04  0.18215027922E+04  0.50400001928E-02 0.  1.
    10030    2    1    2    0    0  0.00000000000E+00  0.00000000000E+00 -0.89373214791E+03  0.27492734366E+04  0.25999513989E+04 0.  0.
        4    1    3    3  502    0  0.72321521892E+03  0.22833590074E+03  0.66959334188E+03  0.10116987659E+04  0.12699999809E+01 0. -1.
       -4    1    3    3    0  502 -0.72321521892E+03 -0.22833590074E+03 -0.15633254898E+04  0.17375746707E+04  0.12699999809E+01 0.  1.
</event>
<event>
 5   0  0.2864801E-07  0.2597922E+04  0.7818609E-02  0.8368907E-01
       -1   -1    0    0    0  501  0.00000000000E+00  0.00000000000E+00  0.12121365592E+04  0.12121365593E+04  0.50400001928E-02 0.  1.
        1   -1    0    0  501    0  0.00000000000E+00  0.00000000000E+00 -0.13920043996E+04  0.13920043996E+04  0.50400001928E-02 0. -1.
    10030    2    1    2    0    0  0.00000000000E+00  0.00000000000E+00 -0.17986784037E+03  0.26041409589E+04  0.25979218028E+04 0.  0.
        5    1    3    3  502    0 -0.43536948498E+03  0.12034095537E+04  0.13316615584E+03  0.12866609722E+04  0.46999998093E+01 0.  1.
       -5    1    3    3    0  502  0.43536948498E+03 -0.12034095537E+04 -0.31303399621E+03  0.13174799866E+04  0.46999998093E+01 0. -1.
</event>
<event>
 5   0  0.6599814E-07  0.2604791E+04  0.7818609E-02  0.8366576E-01
       -2   -1    0    0    0  501  0.00000000000E+00  0.00000000000E+00  0.15990432777E+04  0.15990432777E+04  0.25500000920E-02 0.  1.
        2   -1    0    0  501    0  0.00000000000E+00  0.00000000000E+00 -0.10607804542E+04  0.10607804542E+04  0.25500000920E-02 0. -1.
    10030    2    1    2    0    0  0.00000000000E+00  0.00000000000E+00  0.53826282352E+03  0.26598237319E+04  0.26047908587E+04 0.  0.
        5    1    3    3  502    0 -0.12068518881E+04 -0.48186723022E+03  0.35770654373E+03  0.13478366254E+04  0.46999998093E+01 0. -1.
       -5    1    3    3    0  502  0.12068518881E+04  0.48186723022E+03  0.18055627979E+03  0.13119871065E+04  0.46999998093E+01 0.  1.
</event>
<event>
 5   0  0.2864801E-07  0.2599758E+04  0.7818609E-02  0.8368283E-01
       -1   -1    0    0    0  501  0.00000000000E+00  0.00000000000E+00  0.82435113047E+03  0.82435113049E+03  0.50400001928E-02 0. -1.
        1   -1    0    0  501    0  0.00000000000E+00  0.00000000000E+00 -0.20497163325E+04  0.20497163325E+04  0.50400001928E-02 0.  1.
    10030    2    1    2    0    0  0.00000000000E+00  0.00000000000E+00 -0.12253652020E+04  0.28740674630E+04  0.25997584317E+04 0.  0.
        5    1    3    3  502    0  0.31972900106E+03  0.10649639103E+04  0.13162355499E+03  0.11196971084E+04  0.46999998093E+01 0. -1.
       -5    1    3    3    0  502 -0.31972900106E+03 -0.10649639103E+04 -0.13569887570E+04  0.17543703546E+04  0.46999998093E+01 0.  1.
</event>
<event>
 5   0  0.2793576E-07  0.2601264E+04  0.7818609E-02  0.8367772E-01
        1   -1    0    0  501    0  0.00000000000E+00  0.00000000000E+00  0.15476224786E+04  0.15476224786E+04  0.50400001928E-02 0.  1.
       -1   -1    0    0    0  501  0.00000000000E+00  0.00000000000E+00 -0.10930598228E+04  0.10930598228E+04  0.50400001928E-02 0. -1.
    10030    2    1    2    0    0  0.00000000000E+00  0.00000000000E+00  0.45456265572E+03  0.26406823014E+04  0.26012642713E+04 0.  0.
        2    1    3    3  502    0 -0.20129682985E+03 -0.12316682876E+04 -0.14448771054E+03  0.12563454473E+04  0.25500000920E-02 0. -1.
       -2    1    3    3    0  502  0.20129682985E+03  0.12316682876E+04  0.59905036626E+03  0.13843368541E+04  0.25500000920E-02 0.  1.
</event>
<event>
 5   0  0.7160320E-07  0.2599896E+04  0.7818609E-02  0.8368237E-01
        2   -1    0    0  501    0  0.00000000000E+00  0.00000000000E+00  0.24458612705E+04  0.24458612705E+04  0.25500000920E-02 0.  1.
       -2   -1    0    0    0  501  0.00000000000E+00  0.00000000000E+00 -0.69090784640E+03  0.69090784640E+03  0.25500000920E-02 0. -1.
    10030    2    1    2    0    0  0.00000000000E+00  0.00000000000E+00  0.17549534241E+04  0.31367691169E+04  0.25998959541E+04 0.  0.
        1    1    3    3  502    0 -0.88796894756E+03 -0.66832438618E+03  0.63901229988E+02  0.11132069458E+04  0.50400001928E-02 0. -1.
       -1    1    3    3    0  502  0.88796894756E+03  0.66832438618E+03  0.16910521941E+04  0.20235621711E+04  0.50400001928E-02 0.  1.
</event>
<event>
 5   0  0.2755061E-07  0.2600086E+04  0.7818609E-02  0.8368172E-01
       -1   -1    0    0    0  501  0.00000000000E+00  0.00000000000E+00  0.73458167289E+03  0.73458167291E+03  0.50400001928E-02 0. -1.
        1   -1    0    0  501    0  0.00000000000E+00  0.00000000000E+00 -0.23007812547E+04  0.23007812547E+04  0.50400001928E-02 0.  1.
    10030    2    1    2    0    0  0.00000000000E+00  0.00000000000E+00 -0.15661995818E+04  0.30353629276E+04  0.26000859548E+04 0.  0.
        4    1    3    3  502    0  0.15548240950E+03  0.10029644286E+04 -0.17315054421E+04  0.20070438794E+04  0.12699999809E+01 0.  1.
       -4    1    3    3    0  502 -0.15548240950E+03 -0.10029644286E+04  0.16530586031E+03  0.10283190483E+04  0.12699999809E+01 0. -1.
</event>
<event>
 5   0  0.7160320E-07  0.2600179E+04  0.7818609E-02  0.8368140E-01
        2   -1    0    0  501    0  0.00000000000E+00  0.00000000000E+00  0.21990934290E+04  0.21990934290E+04  0.25500000920E-02 0. -1.
       -2   -1    0    0    0  501  0.00000000000E+00  0.00000000000E+00 -0.76860448765E+03  0.76860448766E+03  0.25500000920E-02 0.  1.
    10030    2    1    2    0    0  0.00000000000E+00  0.00000000000E+00  0.14304889414E+04  0.29676979167E+04  0.26001792848E+04 0.  0.
        1    1    3    3  502    0  0.11682050195E+04  0.56961622376E+03  0.75253460041E+03  0.15018235365E+04  0.50400001928E-02 0. -1.
       -1    1    3    3    0  502 -0.11682050195E+04 -0.56961622376E+03  0.67795434095E+03  0.14658743802E+04  0.50400001928E-02 0.  1.
</event>
<event>
 5   0  0.7160320E-07  0.2600161E+04  0.7818609E-02  0.8368146E-01
       -2   -1    0    0    0  501  0.00000000000E+00  0.00000000000E+00  0.10976941059E+04  0.10976941059E+04  0.25500000920E-02 0. -1.
        2   -1    0    0  501    0  0.00000000000E+00  0.00000000000E+00 -0.15397820350E+04  0.15397820350E+04  0.25500000920E-02 0.  1.
    10030    2    1    2    0    0  0.00000000000E+00  0.00000000000E+00 -0.44208792908E+03  0.26374761409E+04  0.26001612752E+04 0.  0.
        1    1    3    3  502    0 -0.81839108645E+03 -0.72297308036E+03 -0.93668681898E+03  0.14386925461E+04  0.50400001928E-02 0.  1.
       -1    1    3    3    0  502  0.81839108645E+03  0.72297308036E+03  0.49459888990E+03  0.11987835948E+04  0.50400001928E-02 0. -1.
</event>
<event>
 5   0  0.2755061E-07  0.2599532E+04  0.7818609E-02  0.8368360E-01
        1   -1    0    0  501    0  0.00000000000E+00  0.00000000000E+00  0.15540103864E+04  0.15540103864E+04  0.50400001928E-02 0. -1.
       -1   -1    0    0    0  501  0.00000000000E+00  0.00000000000E+00 -0.10871176407E+04  0.10871176407E+04  0.50400001928E-02 0.  1.
    10030    2    1    2    0    0  0.00000000000E+00  0.00000000000E+00  0.46689274572E+03  0.26411280271E+04  0.25995323463E+04 0.  0.
        4    1    3    3  502    0  0.42062036416E+03  0.12277378047E+04  0.30620854781E+03  0.13334267492E+04  0.12699999809E+01 0. -1.
       -4    1    3    3    0  502 -0.42062036416E+03 -0.12277378047E+04  0.16068419791E+03  0.13077012779E+04  0.12699999809E+01 0.  1.
</event>
<event>
 5   0  0.2641626E-07  0.2600228E+04  0.7818609E-02  0.8368124E-01
       -1   -1    0    0    0  501  0.00000000000E+00  0.00000000000E+00  0.74084598263E+03  0.74084598264E+03  0.50400001928E-02 0. -1.
        1   -1    0    0  501    0  0.00000000000E+00  0.00000000000E+00 -0.22815767278E+04  0.22815767279E+04  0.50400001928E-02 0.  1.
    10030    2    1    2    0    0  0.00000000000E+00  0.00000000000E+00 -0.15407307452E+04  0.30224227105E+04  0.26002284153E+04 0.  0.
        3    1    3    3  502    0 -0.99500051044E+03  0.36995309443E+02  0.20137876819E+03  0.10158484568E+04  0.10100000352E+00 0. -1.
       -3    1    3    3    0  502  0.99500051044E+03 -0.36995309443E+02 -0.17421095134E+04  0.20065742537E+04  0.10100000352E+00 0.  1.
</event>
<event>
 5   0  0.6768478E-07  0.2600452E+04  0.7818609E-02  0.8368048E-01
       -2   -1    0    0    0  501  0.00000000000E+00  0.00000000000E+00  0.87739327341E+03  0.87739327341E+03  0.25500000920E-02 0.  1.
        2   -1    0    0  501    0  0.00000000000E+00  0.00000000000E+00 -0.19268306674E+04  0.19268306674E+04  0.25500000920E-02 0. -1.
    10030    2    1    2    0    0  0.00000000000E+00  0.00000000000E+00 -0.10494373940E+04  0.28042239408E+04  0.26004524734E+04 0.  0.
        4    1    3    3  502    0  0.20492348176E+03  0.10507769294E+04  0.27097717726E+03  0.11043351087E+04  0.12699999809E+01 0. -1.
       -4    1    3    3    0  502 -0.20492348176E+03 -0.10507769294E+04 -0.13204145713E+04  0.16998888322E+04  0.12699999809E+01 0.  1.
</event>
<event>
 5   0  0.2755061E-07  0.2600465E+04  0.7818609E-02  0.8368043E-01
        1   -1    0    0  501    0  0.00000000000E+00  0.00000000000E+00  0.15058529223E+04  0.15058529223E+04  0.50400001928E-02 0.  1.
       -1   -1    0    0    0  501  0.00000000000E+00  0.00000000000E+00 -0.11226889102E+04  0.11226889102E+04  0.50400001928E-02 0. -1.
    10030    2    1    2    0    0  0.00000000000E+00  0.00000000000E+00  0.38316401213E+03  0.26285418325E+04  0.26004648633E+04 0.  0.
        4    1    3    3  502    0  0.56264935589E+03 -0.85442079317E+03 -0.61957452611E+03  0.11960281752E+04  0.12699999809E+01 0. -1.
       -4    1    3    3    0  502 -0.56264935589E+03  0.85442079317E+03  0.10027385382E+04  0.14325136573E+04  0.12699999809E+01 0.  1.
</event>
<event>
 5   0  0.2623263E-07  0.2600058E+04  0.7818609E-02  0.8368182E-01
        1   -1    0    0  501    0  0.00000000000E+00  0.00000000000E+00  0.22246454570E+04  0.22246454570E+04  0.50400001928E-02 0.  1.
       -1   -1    0    0    0  501  0.00000000000E+00  0.00000000000E+00 -0.75970544575E+03  0.75970544577E+03  0.50400001928E-02 0. -1.
    10030    2    1    2    0    0  0.00000000000E+00  0.00000000000E+00  0.14649400112E+04  0.29843509028E+04  0.26000578983E+04 0.  0.
        1    1    3    3  502    0  0.87209326495E+03  0.82571983039E+03  0.13037425372E+04  0.17725982355E+04  0.50400001928E-02 0.  1.
       -1    1    3    3    0  502 -0.87209326495E+03 -0.82571983039E+03  0.16119747407E+03  0.12117526673E+04  0.50400001928E-02 0. -1.
</event>
<event>
 5   0  0.2864801E-07  0.2600009E+04  0.7818609E-02  0.8368198E-01
        1   -1    0    0  501    0  0.00000000000E+00  0.00000000000E+00  0.11808727457E+04  0.11808727457E+04  0.50400001928E-02 0. -1.
       -1   -1    0    0    0  501  0.00000000000E+00  0.00000000000E+00 -0.14311543171E+04  0.14311543171E+04  0.50400001928E-02 0.  1.
    10030    2    1    2    0    0  0.00000000000E+00  0.00000000000E+00 -0.25028157135E+03  0.26120270628E+04  0.26000085599E+04 0.  0.
        5    1    3    3  502    0  0.42626377292E+02 -0.19248201663E+03  0.11657591198E+04  0.11823209168E+04  0.46999998093E+01 0. -1.
       -5    1    3    3    0  502 -0.42626377292E+02  0.19248201663E+03 -0.14160406912E+04  0.14297061460E+04  0.46999998093E+01 0.  1.
</event>
<event>
 5   0  0.6768478E-07  0.2599793E+04  0.7818609E-02  0.8368271E-01
        2   -1    0    0  501    0  0.00000000000E+00  0.00000000000E+00  0.15217654049E+04  0.15217654049E+04  0.25500000920E-02 0. -1.
       -2   -1    0    0    0  501  0.00000000000E+00  0.00000000000E+00 -0.11103758500E+04  0.11103758500E+04  0.25500000920E-02 0.  1.
    10030    2    1    2    0    0  0.00000000000E+00  0.00000000000E+00  0.41138955493E+03  0.26321412549E+04  0.25997934956E+04 0.  0.
        4    1    3    3  502    0  0.37196193026E+03 -0.51675619572E+03  0.13530816768E+04  0.14954010433E+04  0.12699999809E+01 0. -1.
       -4    1    3    3    0  502 -0.37196193026E+03  0.51675619572E+03 -0.94169212186E+03  0.11367402116E+04  0.12699999809E+01 0.  1.
</event>
<event>
 5   0  0.6780984E-07  0.2600188E+04  0.7818609E-02  0.8368137E-01
        2   -1    0    0  501    0  0.00000000000E+00  0.00000000000E+00  0.11613424131E+04  0.11613424131E+04  0.25500000920E-02 0. -1.
       -2   -1    0    0    0  501  0.00000000000E+00  0.00000000000E+00 -0.14554231919E+04  0.14554231919E+04  0.25500000920E-02 0.  1.
    10030    2    1    2    0    0  0.00000000000E+00  0.00000000000E+00 -0.29408077881E+03  0.26167656049E+04  0.26001882099E+04 0.  0.
        2    1    3    3  502    0 -0.65871435759E+03  0.99504536760E+03  0.37221891497E+03  0.12500267234E+04  0.25500000920E-02 0. -1.
       -2    1    3    3    0  502  0.65871435759E+03 -0.99504536760E+03 -0.66629969378E+03  0.13667388816E+04  0.25500000920E-02 0.  1.
</event>
<event>
 5   0  0.2864801E-07  0.2599289E+04  0.7818609E-02  0.8368443E-01
       -1   -1    0    0    0  501  0.00000000000E+00  0.00000000000E+00  0.18249950501E+04  0.18249950501E+04  0.50400001928E-02 0. -1.
        1   -1    0    0  501    0  0.00000000000E+00  0.00000000000E+00 -0.92552364375E+03  0.92552364377E+03  0.50400001928E-02 0.  1.
    10030    2    1    2    0    0  0.00000000000E+00  0.00000000000E+00  0.89947140636E+03  0.27505186939E+04  0.25992891864E+04 0.  0.
        5    1    3    3  502    0 -0.42442697335E+03 -0.31461249185E+02  0.17491570681E+04  0.18001946019E+04  0.46999998093E+01 0. -1.
       -5    1    3    3    0  502  0.42442697335E+03  0.31461249185E+02 -0.84968566177E+03  0.95032409194E+03  0.46999998093E+01 0.  1.
</event>
<event>
 5   0  0.2623263E-07  0.2601424E+04  0.7818609E-02  0.8367718E-01
       -1   -1    0    0    0  501  0.00000000000E+00  0.00000000000E+00  0.95521333964E+03  0.95521333965E+03  0.50400001928E-02 0.  1.
        1   -1    0    0  501    0  0.00000000000E+00  0.00000000000E+00 -0.17711762870E+04  0.17711762870E+04  0.50400001928E-02 0. -1.
    10030    2    1    2    0    0  0.00000000000E+00  0.00000000000E+00 -0.81596294737E+03  0.27263896267E+04  0.26014236227E+04 0.  0.
        1    1    3    3  502    0 -0.11059169350E+04  0.19526180296E+03  0.27979932544E+03  0.11573534902E+04  0.50400001928E-02 0.  1.
       -1    1    3    3    0  502  0.11059169350E+04 -0.19526180296E+03 -0.10957622728E+04  0.15690361364E+04  0.50400001928E-02 0. -1.
</event>
<event>
 5   0  0.6526351E-07  0.2600210E+04  0.7818609E-02  0.8368130E-01
       -2   -1    0    0    0  501  0.00000000000E+00  0.00000000000E+00  0.12728221215E+04  0.12728221215E+04  0.25500000920E-02 0.  1.
        2   -1    0    0  501    0  0.00000000000E+00  0.00000000000E+00 -0.13279731414E+04  0.13279731414E+04  0.25500000920E-02 0. -1.
    10030    2    1    2    0    0  0.00000000000E+00  0.00000000000E+00 -0.55151019966E+02  0.26007952629E+04  0.26002104462E+04 0.  0.
        3    1    3    3  502    0 -0.43659823747E+03 -0.11174979663E+04 -0.52854128494E+03  0.13110208335E+04  0.10100000352E+00 0. -1.
       -3    1    3    3    0  502  0.43659823747E+03  0.11174979663E+04  0.47339026498E+03  0.12897744294E+04  0.10100000352E+00 0.  1.
</event>
<event>
 5   0  0.6768478E-07  0.2599937E+04  0.7818609E-02  0.8368222E-01
       -2   -1    0    0    0  501  0.00000000000E+00  0.00000000000E+00  0.98466124622E+03  0.98466124622E+03  0.25500000920E-02 0.  1.
        2   -1    0    0  501    0  0.00000000000E+00  0.00000000000E+00 -0.17162435712E+04  0.17162435712E+04  0.25500000920E-02 0. -1.
    10030    2    1    2    0    0  0.00000000000E+00  0.00000000000E+00 -0.73158232501E+03  0.27009048175E+04  0.25999373328E+04 0.  0.
        4    1    3    3  502    0  0.75709514063E+03 -0.10533085915E+04 -0.27724686029E+03  0.13264687992E+04  0.12699999809E+01 0. -1.
       -4    1    3    3    0  502 -0.75709514063E+03  0.10533085915E+04 -0.45433546472E+03  0.13744360182E+04  0.12699999809E+01 0.  1.
</event>
<event>
 5   0  0.6768478E-07  0.2600403E+04  0.7818609E-02  0.8368064E-01
        2   -1    0    0  501    0  0.00000000000E+00  0.00000000000E+00  0.15254664515E+04  0.15254664515E+04  0.25500000920E-02 0. -1.
       -2   -1    0    0    0  501  0.00000000000E+00  0.00000000000E+00 -0.11082015612E+04  0.11082015612E+04  0.25500000920E-02 0.  1.
    10030    2    1    2    0    0  0.00000000000E+00  0.00000000000E+00  0.41726489036E+03  0.26336680127E+04  0.26004032788E+04 0.  0.
        4    1    3    3  502    0  0.49417849897E+03 -0.27479415018E+03  0.13944206624E+04  0.15047042269E+04  0.12699999809E+01 0. -1.
       -4    1    3    3    0  502 -0.49417849897E+03  0.27479415018E+03 -0.97715577205E+03  0.11289637858E+04  0.12699999809E+01 0.  1.
</event>
<event>
 5   0  0.2641626E-07  0.2599896E+04  0.7818609E-02  0.8368236E-01
        1   -1    0    0  501    0  0.00000000000E+00  0.00000000000E+00  0.13922940828E+04  0.13922940828E+04  0.50400001928E-02 0.  1.
       -1   -1    0    0    0  501  0.00000000000E+00  0.00000000000E+00 -0.12137272504E+04  0.12137272504E+04  0.50400001928E-02 0. -1.
    10030    2    1    2    0    0  0.00000000000E+00  0.00000000000E+00  0.17856683239E+03  0.26060213333E+04  0.25998963587E+04 0.  0.
        3    1    3    3  502    0  0.18223306421E+02 -0.43360802746E+03  0.13175343233E+04  0.13871714795E+04  0.10100000352E+00 0.  1.
       -3    1    3    3    0  502 -0.18223306421E+02  0.43360802746E+03 -0.11389674909E+04  0.12188498537E+04  0.10100000352E+00 0. -1.
</event>
<event>
 5   0  0.2641626E-07  0.2599871E+04  0.7818609E-02  0.8368245E-01
       -1   -1    0    0    0  501  0.00000000000E+00  0.00000000000E+00  0.12776726316E+04  0.12776726316E+04  0.50400001928E-02 0. -1.
        1   -1    0    0  501    0  0.00000000000E+00  0.00000000000E+00 -0.13225863214E+04  0.13225863215E+04  0.50400001928E-02 0.  1.
    10030    2    1    2    0    0  0.00000000000E+00  0.00000000000E+00 -0.44913689822E+02  0.26002589531E+04  0.25998710321E+04 0.  0.
        3    1    3    3  502    0 -0.39653729834E+03 -0.60059888109E+03  0.10602348109E+04  0.12814283864E+04  0.10100000352E+00 0. -1.
       -3    1    3    3    0  502  0.39653729834E+03  0.60059888109E+03 -0.11051485007E+04  0.13188305667E+04  0.10100000352E+00 0.  1.
</event>
<event>
 5   0  0.2623263E-07  0.2602416E+04  0.7818609E-02  0.8367381E-01
        1   -1    0    0  501    0  0.00000000000E+00  0.00000000000E+00  0.14827555742E+04  0.14827555742E+04  0.50400001928E-02 0.  1.
       -1   -1    0    0    0  501  0.00000000000E+00  0.00000000000E+00 -0.11418894052E+04  0.11418894052E+04  0.50400001928E-02 0. -1.
    10030    2    1    2    0    0  0.00000000000E+00  0.00000000000E+00  0.34086616897E+03  0.26246449795E+04  0.26024164776E+04 0.  0.
        1    1    3    3  502    0  0.38947250683E+03  0.39975334969E+03  0.13559097043E+04  0.14662819307E+04  0.50400001928E-02 0.  1.
       -1    1    3    3    0  502 -0.38947250683E+03 -0.39975334969E+03 -0.10150435353E+04  0.11583630488E+04  0.50400001928E-02 0. -1.
</event>
<event>
 5   0  0.2793576E-07  0.2599259E+04  0.7818609E-02  0.8368453E-01
        1   -1    0    0  501    0  0.00000000000E+00  0.00000000000E+00  0.13744400182E+04  0.13744400182E+04  0.50400001928E-02 0.  1.
       -1   -1    0    0    0  501  0.00000000000E+00  0.00000000000E+00 -0.12288913764E+04  0.12288913764E+04  0.50400001928E-02 0. -1.
    10030    2    1    2    0    0  0.00000000000E+00  0.00000000000E+00  0.14554864179E+03  0.26033313946E+04  0.25992594989E+04 0.  0.
        2    1    3    3  502    0  0.12331928796E+04  0.36761706089E+03  0.25507732957E+03  0.13118580052E+04  0.25500000920E-02 0. -1.
       -2    1    3    3    0  502 -0.12331928796E+04 -0.36761706089E+03 -0.10952868778E+03  0.12914733893E+04  0.25500000920E-02 0.  1.
</event>
<event>
 5   0  0.6526351E-07  0.2600238E+04  0.7818609E-02  0.8368121E-01
       -2   -1    0    0    0  501  0.00000000000E+00  0.00000000000E+00  0.10139024142E+04  0.10139024142E+04  0.25500000920E-02 0.  1.
        2   -1    0    0  501    0  0.00000000000E+00  0.00000000000E+00 -0.16671316602E+04  0.16671316602E+04  0.25500000920E-02 0. -1.
    10030    2    1    2    0    0  0.00000000000E+00  0.00000000000E+00 -0.65322924599E+03  0.26810340744E+04  0.26002375392E+04 0.  0.
        3    1    3    3  502    0  0.11204802982E+04 -0.19785264503E+03 -0.97519711518E+03  0.14985430229E+04  0.10100000352E+00 0. -1.
       -3    1    3    3    0  502 -0.11204802982E+04  0.19785264503E+03  0.32196786919E+03  0.11824910515E+04  0.10100000352E+00 0.  1.
</event>
<event>
 5   0  0.6526351E-07  0.2599255E+04  0.7818609E-02  0.8368454E-01
        2   -1    0    0  501    0  0.00000000000E+00  0.00000000000E+00  0.22076088711E+04  0.22076088711E+04  0.25500000920E-02 0. -1.
       -2   -1    0    0    0  501  0.00000000000E+00  0.00000000000E+00 -0.76509551359E+03  0.76509551360E+03  0.25500000920E-02 0.  1.
    10030    2    1    2    0    0  0.00000000000E+00  0.00000000000E+00  0.14425133575E+04  0.29727043847E+04  0.25992550033E+04 0.  0.
        3    1    3    3  502    0 -0.11481781662E+04  0.38130992421E+03  0.12641367928E+04  0.17497863300E+04  0.10100000352E+00 0. -1.
       -3    1    3    3    0  502  0.11481781662E+04 -0.38130992421E+03  0.17837656477E+03  0.12229180547E+04  0.10100000352E+00 0.  1.
</event>
<event>
 5   0  0.2641626E-07  0.2599362E+04  0.7818609E-02  0.8368418E-01
       -1   -1    0    0    0  501  0.00000000000E+00  0.00000000000E+00  0.10268903245E+04  0.10268903245E+04  0.50400001928E-02 0. -1.
        1   -1    0    0  501    0  0.00000000000E+00  0.00000000000E+00 -0.16449382614E+04  0.16449382614E+04  0.50400001928E-02 0.  1.
    10030    2    1    2    0    0  0.00000000000E+00  0.00000000000E+00 -0.61804793690E+03  0.26718285859E+04  0.25993623719E+04 0.  0.
        3    1    3    3  502    0  0.44288613002E+03  0.11097812955E+04  0.21651102469E+03  0.12143474305E+04  0.10100000352E+00 0. -1.
       -3    1    3    3    0  502 -0.44288613002E+03 -0.11097812955E+04 -0.83455896159E+03  0.14574811554E+04  0.10100000352E+00 0.  1.
</event>
<event>
 5   0  0.6780984E-07  0.2601370E+04  0.7818609E-02  0.8367736E-01
       -2   -1    0    0    0  501  0.00000000000E+00  0.00000000000E+00  0.99206509984E+03  0.99206509984E+03  0.25500000920E-02 0. -1.
        2   -1    0    0  501    0  0.00000000000E+00  0.00000000000E+00 -0.17053127407E+04  0.17053127407E+04  0.25500000920E-02 0.  1.
    10030    2    1    2    0    0  0.00000000000E+00  0.00000000000E+00 -0.71324764084E+03  0.26973778405E+04  0.26013698348E+04 0.  0.
        2    1    3    3  502    0  0.11264177264E+03 -0.34864490087E+03 -0.16506982761E+04  0.16908714424E+04  0.25500000920E-02 0.  1.
       -2    1    3    3    0  502 -0.11264177264E+03  0.34864490087E+03  0.93745063529E+03  0.10065063981E+04  0.25500000920E-02 0. -1.
</event>
<event>
 5   0  0.7160320E-07  0.2599913E+04  0.7818609E-02  0.8368231E-01
       -2   -1    0    0    0  501  0.00000000000E+00  0.00000000000E+00  0.90781403936E+03  0.90781403936E+03  0.25500000920E-02 0. -1.
        2   -1    0    0  501    0  0.00000000000E+00  0.00000000000E+00 -0.18614902294E+04  0.18614902294E+04  0.25500000920E-02 0.  1.
    10030    2    1    2    0    0  0.00000000000E+00  0.00000000000E+00 -0.95367619003E+03  0.27693042687E+04  0.25999130481E+04 0.  0.
        1    1    3    3  502    0 -0.12824648759E+04 -0.16387766726E+03 -0.62098798809E+03  0.14342935993E+04  0.50400001928E-02 0.  1.
       -1    1    3    3    0  502  0.12824648759E+04  0.16387766726E+03 -0.33268820194E+03  0.13350106694E+04  0.50400001928E-02 0. -1.
</event>
<event>
 5   0  0.6768478E-07  0.2598987E+04  0.7818609E-02  0.8368545E-01
        2   -1    0    0  501    0  0.00000000000E+00  0.00000000000E+00  0.11761021989E+04  0.11761021989E+04  0.25500000920E-02 0.  1.
       -2   -1    0    0    0  501  0.00000000000E+00  0.00000000000E+00 -0.14358308943E+04  0.14358308943E+04  0.25500000920E-02 0. -1.
    10030    2    1    2    0    0  0.00000000000E+00  0.00000000000E+00 -0.25972869540E+03  0.26119330931E+04  0.25989873966E+04 0.  0.
        4    1    3    3  502    0 -0.98030672294E+02 -0.10649014498E+04 -0.87182161745E+03  0.13797462288E+04  0.12699999809E+01 0. -1.
       -4    1    3    3    0  502  0.98030672294E+02  0.10649014498E+04  0.61209292205E+03  0.12321868643E+04  0.12699999809E+01 0.  1.
</event>
<event>
 5   0  0.2864801E-07  0.2598482E+04  0.7818609E-02  0.8368717E-01
        1   -1    0    0  501    0  0.00000000000E+00  0.00000000000E+00  0.74527097124E+03  0.74527097126E+03  0.50400001928E-02 0. -1.
       -1   -1    0    0    0  501  0.00000000000E+00  0.00000000000E+00 -0.22649843196E+04  0.22649843196E+04  0.50400001928E-02 0.  1.
    10030    2    1    2    0    0  0.00000000000E+00  0.00000000000E+00 -0.15197133484E+04  0.30102552909E+04  0.25984819136E+04 0.  0.
        5    1    3    3  502    0  0.11675440026E+04 -0.23672864178E+03 -0.13604807356E+04  0.18083499024E+04  0.46999998093E+01 0.  1.
       -5    1    3    3    0  502 -0.11675440026E+04  0.23672864178E+03 -0.15923261281E+03  0.12019053884E+04  0.46999998093E+01 0. -1.
</event>
<event>
 5   0  0.7160320E-07  0.2600396E+04  0.7818609E-02  0.8368067E-01
        2   -1    0    0  501    0  0.00000000000E+00  0.00000000000E+00  0.13873186189E+04  0.13873186189E+04  0.25500000920E-02 0.  1.
       -2   -1    0    0    0  501  0.00000000000E+00  0.00000000000E+00 -0.12185482304E+04  0.12185482304E+04  0.25500000920E-02 0. -1.
    10030    2    1    2    0    0  0.00000000000E+00  0.00000000000E+00  0.16877038852E+03  0.26058668492E+04  0.26003958529E+04 0.  0.
        1    1    3    3  502    0 -0.25632601311E+03 -0.54198314760E+02 -0.11918224284E+04  0.12202791415E+04  0.50400001928E-02 0. -1.
       -1    1    3    3    0  502  0.25632601311E+03  0.54198314760E+02  0.13605928169E+04  0.13855877077E+04  0.50400001928E-02 0.  1.
</event>
<event>
 5   0  0.6526351E-07  0.2597947E+04  0.7818609E-02  0.8368899E-01
       -2   -1    0    0    0  501  0.00000000000E+00  0.00000000000E+00  0.85530755874E+03  0.85530755875E+03  0.25500000920E-02 0. -1.
        2   -1    0    0  501    0  0.00000000000E+00  0.00000000000E+00 -0.19727790145E+04  0.19727790145E+04  0.25500000920E-02 0.  1.
    10030    2    1    2    0    0  0.00000000000E+00  0.00000000000E+00 -0.11174714557E+04  0.28280865732E+04  0.25979474997E+04 0.  0.
        3    1    3    3  502    0 -0.50782682868E+03  0.50768077681E+03 -0.17370780022E+04  0.18796456727E+04  0.10100000352E+00 0.  1.
       -3    1    3    3    0  502  0.50782682868E+03 -0.50768077681E+03  0.61960654648E+03  0.94844090049E+03  0.10100000352E+00 0. -1.
</event>
<event>
 5   0  0.2755061E-07  0.2600881E+04  0.7818609E-02  0.8367902E-01
        1   -1    0    0  501    0  0.00000000000E+00  0.00000000000E+00  0.18541502283E+04  0.18541502283E+04  0.50400001928E-02 0. -1.
       -1   -1    0    0    0  501  0.00000000000E+00  0.00000000000E+00 -0.91208633835E+03  0.91208633837E+03  0.50400001928E-02 0.  1.
    10030    2    1    2    0    0  0.00000000000E+00  0.00000000000E+00  0.94206388999E+03  0.27662365667E+04  0.26008806913E+04 0.  0.
        4    1    3    3  502    0  0.11316647859E+04 -0.36905277566E+03 -0.85980174003E+02  0.11934233708E+04  0.12699999809E+01 0.  1.
       -4    1    3    3    0  502 -0.11316647859E+04  0.36905277566E+03  0.10280440640E+04  0.15728131959E+04  0.12699999809E+01 0. -1.
</event>
<event>
 5   0  0.6599814E-07  0.2604651E+04  0.7818609E-02  0.8366623E-01
        2   -1    0    0  501    0  0.00000000000E+00  0.00000000000E+00  0.29142006188E+04  0.29142006188E+04  0.25500000920E-02 0.  1.
       -2   -1    0    0    0  501  0.00000000000E+00  0.00000000000E+00 -0.58199565152E+03  0.58199565153E+03  0.25500000920E-02 0. -1.
    10030    2    1    2    0    0  0.00000000000E+00  0.00000000000E+00  0.23322049673E+04  0.34961962703E+04  0.26046512917E+04 0.  0.
        5    1    3    3  502    0 -0.80061094778E+03 -0.77509933969E+03  0.26140217748E+03  0.11446003951E+04  0.46999998093E+01 0. -1.
       -5    1    3    3    0  502  0.80061094778E+03  0.77509933969E+03  0.20708027898E+04  0.23515958752E+04  0.46999998093E+01 0.  1.
</event>
<event>
 5   0  0.6780984E-07  0.2599848E+04  0.7818609E-02  0.8368253E-01
        2   -1    0    0  501    0  0.00000000000E+00  0.00000000000E+00  0.15985771683E+04  0.15985771683E+04  0.25500000920E-02 0.  1.
       -2   -1    0    0    0  501  0.00000000000E+00  0.00000000000E+00 -0.10570666733E+04  0.10570666733E+04  0.25500000920E-02 0. -1.
    10030    2    1    2    0    0  0.00000000000E+00  0.00000000000E+00  0.54151049504E+03  0.26556438416E+04  0.25998481873E+04 0.  0.
        2    1    3    3  502    0 -0.40724965110E+03  0.31408624115E+03  0.14902361806E+04  0.15764854326E+04  0.25500000920E-02 0.  1.
       -2    1    3    3    0  502  0.40724965110E+03 -0.31408624115E+03 -0.94872568555E+03  0.10791584090E+04  0.25500000920E-02 0. -1.
</event>
<event>
 5   0  0.6780984E-07  0.2600658E+04  0.7818609E-02  0.8367978E-01
        2   -1    0    0  501    0  0.00000000000E+00  0.00000000000E+00  0.20038734371E+04  0.20038734371E+04  0.25500000920E-02 0. -1.
       -2   -1    0    0    0  501  0.00000000000E+00  0.00000000000E+00 -0.84379365644E+03  0.84379365645E+03  0.25500000920E-02 0.  1.
    10030    2    1    2    0    0  0.00000000000E+00  0.00000000000E+00  0.11600797807E+04  0.28476670936E+04  0.26006581433E+04 0.  0.
        2    1    3    3  502    0 -0.32885564938E+02  0.12347955141E+04  0.10248957691E+04  0.16050584910E+04  0.25500000920E-02 0.  1.
       -2    1    3    3    0  502  0.32885564938E+02 -0.12347955141E+04  0.13518401157E+03  0.12426086025E+04  0.25500000920E-02 0. -1.
</event>
<event>
 5   0  0.2641626E-07  0.2599198E+04  0.7818609E-02  0.8368474E-01
       -1   -1    0    0    0  501  0.00000000000E+00  0.00000000000E+00  0.71061287978E+03  0.71061287980E+03  0.50400001928E-02 0.  1.
        1   -1    0    0  501    0  0.00000000000E+00  0.00000000000E+00 -0.23767624769E+04  0.23767624769E+04  0.50400001928E-02 0. -1.
    10030    2    1    2    0    0  0.00000000000E+00  0.00000000000E+00 -0.16661495971E+04  0.30873753567E+04  0.25991983597E+04 0.  0.
        3    1    3    3  502    0 -0.65349846551E+01 -0.97067439609E+03 -0.18594945092E+04  0.20976108622E+04  0.10100000352E+00 0. -1.
       -3    1    3    3    0  502  0.65349846551E+01  0.97067439609E+03  0.19334491214E+03  0.98976449446E+03  0.10100000352E+00 0.  1.
</event>
<event>
 5   0  0.2793576E-07  0.2599799E+04  0.7818609E-02  0.8368269E-01
       -1   -1    0    0    0  501  0.00000000000E+00  0.00000000000E+00  0.13454871243E+04  0.13454871243E+04  0.50400001928E-02 0. -1.
        1   -1    0    0  501    0  0.00000000000E+00  0.00000000000E+00 -0.12558566668E+04  0.12558566668E+04  0.50400001928E-02 0.  1.
    10030    2    1    2    0    0  0.00000000000E+00  0.00000000000E+00  0.89630457437E+02  0.26013437911E+04  0.25997992039E+04 0.  0.
        2    1    3    3  502    0 -0.12642226913E+04  0.17897473970E+03 -0.19914924363E+03  0.12922659911E+04  0.25500000920E-02 0.  1.
       -2    1    3    3    0  502  0.12642226913E+04 -0.17897473970E+03  0.28877970107E+03  0.13090778000E+04  0.25500000920E-02 0. -1.
</event>
<event>
 5   0  0.7160320E-07  0.2619708E+04  0.7818609E-02  0.8361537E-01
        2   -1    0    0  501    0  0.00000000000E+00  0.00000000000E+00  0.91975025405E+03  0.91975025406E+03  0.25500000920E-02 0.  1.
       -2   -1    0    0    0  501  0.00000000000E+00  0.00000000000E+00 -0.18654168201E+04  0.18654168201E+04  0.25500000920E-02 0. -1.
    10030    2    1    2    0    0  0.00000000000E+00  0.00000000000E+00 -0.94566656603E+03  0.27851670741E+04  0.26197080709E+04 0.  0.
        1    1    3    3  502    0 -0.83271575918E+03  0.90104508349E+03 -0.96052083731E+03  0.15581713824E+04  0.50400001928E-02 0. -1.
       -1    1    3    3    0  502  0.83271575918E+03 -0.90104508349E+03  0.14854271287E+02  0.12269956917E+04  0.50400001928E-02 0.  1.
</event>
<event>
 5   0  0.2793576E-07  0.2599180E+04  0.7818609E-02  0.8368480E-01
        1   -1    0    0  501    0  0.00000000000E+00  0.00000000000E+00  0.15097356180E+04  0.15097356180E+04  0.50400001928E-02 0.  1.
       -1   -1    0    0    0  501  0.00000000000E+00  0.00000000000E+00 -0.11186949525E+04  0.11186949525E+04  0.50400001928E-02 0. -1.
    10030    2    1    2    0    0  0.00000000000E+00  0.00000000000E+00  0.39104066551E+03  0.26284305705E+04  0.25991795747E+04 0.  0.
        2    1    3    3  502    0  0.12107613115E+04 -0.27446472908E+01 -0.28200479202E+03  0.12431722283E+04  0.25500000920E-02 0. -1.
       -2    1    3    3    0  502 -0.12107613115E+04  0.27446472908E+01  0.67304545753E+03  0.13852583421E+04  0.25500000920E-02 0.  1.
</event>
<event>
 5   0  0.2864801E-07  0.2599893E+04  0.7818609E-02  0.8368238E-01
        1   -1    0    0  501    0  0.00000000000E+00  0.00000000000E+00  0.14073120680E+04  0.14073120680E+04  0.50400001928E-02 0. -1.
       -1   -1    0    0    0  501  0.00000000000E+00  0.00000000000E+00 -0.12007720456E+04  0.12007720457E+04  0.50400001928E-02 0.  1.
    10030    2    1    2    0    0  0.00000000000E+00  0.00000000000E+00  0.20654002234E+03  0.26080841137E+04  0.25998930676E+04 0.  0.
        5    1    3    3  502    0  0.33597504686E+03  0.30573478126E+03  0.13250916743E+04  0.14008008509E+04  0.46999998093E+01 0. -1.
       -5    1    3    3    0  502 -0.33597504686E+03 -0.30573478126E+03 -0.11185516519E+04  0.12072832628E+04  0.46999998093E+01 0.  1.
</event>
<event>
 5   0  0.6599814E-07  0.2600139E+04  0.7818609E-02  0.8368154E-01
        2   -1    0    0  501    0  0.00000000000E+00  0.00000000000E+00  0.14350012397E+04  0.14350012397E+04  0.25500000920E-02 0. -1.
       -2   -1    0    0    0  501  0.00000000000E+00  0.00000000000E+00 -0.11778254716E+04  0.11778254716E+04  0.25500000920E-02 0.  1.
    10030    2    1    2    0    0  0.00000000000E+00  0.00000000000E+00  0.25717576811E+03  0.26128267112E+04  0.26001392361E+04 0.  0.
        5    1    3    3  502    0 -0.10183830302E+04  0.73435260279E+03 -0.21037271597E+03  0.12730500819E+04  0.46999998093E+01 0. -1.
       -5    1    3    3    0  502  0.10183830302E+04 -0.73435260279E+03  0.46754848409E+03  0.13397766293E+04  0.46999998093E+01 0.  1.
</event>
<event>
 5   0  0.2793576E-07  0.2580795E+04  0.7818609E-02  0.8374754E-01
        1   -1    0    0  501    0  0.00000000000E+00  0.00000000000E+00  0.15037108629E+04  0.15037108629E+04  0.50400001928E-02 0.  1.
       -1   -1    0    0    0  501  0.00000000000E+00  0.00000000000E+00 -0.11073446032E+04  0.11073446033E+04  0.50400001928E-02 0. -1.
    10030    2    1    2    0    0  0.00000000000E+00  0.00000000000E+00  0.39636625961E+03  0.26110554661E+04  0.25807953106E+04 0.  0.
        2    1    3    3  502    0  0.29288248270E+03 -0.51834585047E+03  0.13564486967E+04  0.14813560126E+04  0.25500000920E-02 0.  1.
       -2    1    3    3    0  502 -0.29288248270E+03  0.51834585047E+03 -0.96008243705E+03  0.11296994535E+04  0.25500000920E-02 0. -1.
</event>
<event>
 5   0  0.2641626E-07  0.2600361E+04  0.7818609E-02  0.8368079E-01
        1   -1    0    0  501    0  0.00000000000E+00  0.00000000000E+00  0.85979384223E+03  0.85979384224E+03  0.50400001928E-02 0. -1.
       -1   -1    0    0    0  501  0.00000000000E+00  0.00000000000E+00 -0.19661330746E+04  0.19661330747E+04  0.50400001928E-02 0.  1.
    10030    2    1    2    0    0  0.00000000000E+00  0.00000000000E+00 -0.11063392324E+04  0.28259269169E+04  0.26003608293E+04 0.  0.
        3    1    3    3  502    0 -0.96382682671E+03 -0.62247007576E+03  0.11146835114E+03  0.11527603179E+04  0.10100000352E+00 0. -1.
       -3    1    3    3    0  502  0.96382682671E+03  0.62247007576E+03 -0.12178075836E+04  0.16731665990E+04  0.10100000352E+00 0.  1.
</event>
<event>
 5   0  0.2864801E-07  0.2599846E+04  0.7818609E-02  0.8368253E-01
       -1   -1    0    0    0  501  0.00000000000E+00  0.00000000000E+00  0.97885302251E+03  0.97885302252E+03  0.50400001928E-02 0.  1.
        1   -1    0    0  501    0  0.00000000000E+00  0.00000000000E+00 -0.17263063292E+04  0.17263063292E+04  0.50400001928E-02 0. -1.
    10030    2    1    2    0    0  0.00000000000E+00  0.00000000000E+00 -0.74745330665E+03  0.27051593517E+04  0.25998462786E+04 0.  0.
        5    1    3    3  502    0 -0.20811233464E+03 -0.12524214355E+04 -0.66415291326E+03  0.14328263601E+04  0.46999998093E+01 0. -1.
       -5    1    3    3    0  502  0.20811233464E+03  0.12524214355E+04 -0.83300393392E+02  0.12723329916E+04  0.46999998093E+01 0.  1.
</event>
<event>
 5   0  0.6780984E-07  0.2599406E+04  0.7818609E-02  0.8368403E-01
       -2   -1    0    0    0  501  0.00000000000E+00  0.00000000000E+00  0.14946441409E+04  0.14946441409E+04  0.25500000920E-02 0.  1.
        2   -1    0    0  501    0  0.00000000000E+00  0.00000000000E+00 -0.11301872412E+04  0.11301872412E+04  0.25500000920E-02 0. -1.
    10030    2    1    2    0    0  0.00000000000E+00  0.00000000000E+00  0.36445689971E+03  0.26248313822E+04  0.25994058846E+04 0.  0.
        2    1    3    3  502    0  0.90480586075E+03  0.88050954511E+03  0.49388469823E+03  0.13556890498E+04  0.25500000920E-02 0. -1.
       -2    1    3    3    0  502 -0.90480586075E+03 -0.88050954511E+03 -0.12942779853E+03  0.12691423323E+04  0.25500000920E-02 0.  1.
</event>
<event>
 5   0  0.6526351E-07  0.2600263E+04  0.7818609E-02  0.8368112E-01
       -2   -1    0    0    0  501  0.00000000000E+00  0.00000000000E+00  0.61300467831E+03  0.61300467832E+03  0.25500000920E-02 0. -1.
        2   -1    0    0  501    0  0.00000000000E+00  0.00000000000E+00 -0.27574707515E+04  0.27574707515E+04  0.25500000920E-02 0.  1.
    10030    2    1    2    0    0  0.00000000000E+00  0.00000000000E+00 -0.21444660732E+04  0.33704754298E+04  0.26002634259E+04 0.  0.
        3    1    3    3  502    0 -0.70055443773E+03  0.10049532265E+04 -0.16366928300E+04  0.20443754395E+04  0.10100000352E+00 0. -1.
       -3    1    3    3    0  502  0.70055443773E+03 -0.10049532265E+04 -0.50777324324E+03  0.13260999904E+04  0.10100000352E+00 0.  1.
</event>
<event>
 5   0  0.2641626E-07  0.2598763E+04  0.7818609E-02  0.8368622E-01
        1   -1    0    0  501    0  0.00000000000E+00  0.00000000000E+00  0.14208768136E+04  0.14208768137E+04  0.50400001928E-02 0.  1.
       -1   -1    0    0    0  501  0.00000000000E+00  0.00000000000E+00 -0.11882745010E+04  0.11882745010E+04  0.50400001928E-02 0. -1.
    10030    2    1    2    0    0  0.00000000000E+00  0.00000000000E+00  0.23260231265E+03  0.26091513147E+04  0.25987625415E+04 0.  0.
        3    1    3    3  502    0  0.89302015798E+03  0.20653841101E+03 -0.80838473907E+03  0.12221411597E+04  0.10100000352E+00 0. -1.
       -3    1    3    3    0  502 -0.89302015798E+03 -0.20653841101E+03  0.10409870517E+04  0.13870101549E+04  0.10100000352E+00 0.  1.
</event>
<event>
 5   0  0.7160320E-07  0.2599617E+04  0.7818609E-02  0.8368331E-01
       -2   -1    0    0    0  501  0.00000000000E+00  0.00000000000E+00  0.10482952542E+04  0.10482952542E+04  0.25500000920E-02 0.  1.
        2   -1    0    0  501    0  0.00000000000E+00  0.00000000000E+00 -0.16116666387E+04  0.16116666387E+04  0.25500000920E-02 0. -1.
    10030    2    1    2    0    0  0.00000000000E+00  0.00000000000E+00 -0.56337138452E+03  0.26599618929E+04  0.25996172708E+04 0.  0.
        1    1    3    3  502    0 -0.10166248216E+04 -0.11123988297E+03  0.53918498859E+03  0.11561231731E+04  0.50400001928E-02 0.  1.
       -1    1    3    3    0  502  0.10166248216E+04  0.11123988297E+03 -0.11025563731E+04  0.15038387198E+04  0.50400001928E-02 0. -1.
</event>
<event>
 5   0  0.7160320E-07  0.2600331E+04  0.7818609E-02  0.8368089E-01
       -2   -1    0    0    0  501  0.00000000000E+00  0.00000000000E+00  0.13569986067E+04  0.13569986067E+04  0.25500000920E-02 0.  1.
        2   -1    0    0  501    0  0.00000000000E+00  0.00000000000E+00 -0.12457122280E+04  0.12457122280E+04  0.25500000920E-02 0. -1.
    10030    2    1    2    0    0  0.00000000000E+00  0.00000000000E+00  0.11128637872E+03  0.26027108347E+04  0.26003305619E+04 0.  0.
        1    1    3    3  502    0 -0.12619215221E+04 -0.23177928832E+03 -0.15493520738E+03  0.12923515331E+04  0.50400001928E-02 0.  1.
       -1    1    3    3    0  502  0.12619215221E+04  0.23177928832E+03  0.26622158610E+03  0.13103593017E+04  0.50400001928E-02 0. -1.
</event>
<event>
 5   0  0.6599814E-07  0.2600284E+04  0.7818609E-02  0.8368105E-01
       -2   -1    0    0    0  501  0.00000000000E+00  0.00000000000E+00  0.96194910971E+03  0.96194910971E+03  0.25500000920E-02 0. -1.
        2   -1    0    0  501    0  0.00000000000E+00  0.00000000000E+00 -0.17572332979E+04  0.17572332979E+04  0.25500000920E-02 0.  1.
    10030    2    1    2    0    0  0.00000000000E+00  0.00000000000E+00 -0.79528418818E+03  0.27191824076E+04  0.26002838356E+04 0.  0.
        5    1    3    3  502    0 -0.56526836086E+02  0.19517749418E+03 -0.17405167244E+04  0.17523441715E+04  0.46999998093E+01 0.  1.
       -5    1    3    3    0  502  0.56526836086E+02 -0.19517749418E+03  0.94523253618E+03  0.96683823615E+03  0.46999998093E+01 0. -1.
</event>
<event>
 5   0  0.6526351E-07  0.2602800E+04  0.7818609E-02  0.8367251E-01
       -2   -1    0    0    0  501  0.00000000000E+00  0.00000000000E+00  0.87041168234E+03  0.87041168234E+03  0.25500000920E-02 0.  1.
        2   -1    0    0  501    0  0.00000000000E+00  0.00000000000E+00 -0.19457944576E+04  0.19457944576E+04  0.25500000920E-02 0. -1.
    10030    2    1    2    0    0  0.00000000000E+00  0.00000000000E+00 -0.10753827752E+04  0.28162061399E+04  0.26028002054E+04 0.  0.
        3    1    3    3  502    0 -0.15670531736E+03 -0.11686666208E+04  0.58193910406E+02  0.11805612091E+04  0.10100000352E+00 0.  1.
       -3    1    3    3    0  502  0.15670531736E+03  0.11686666208E+04 -0.11335766856E+04  0.16356449308E+04  0.10100000352E+00 0. -1.
</event>
<event>
 5   0  0.2623263E-07  0.2602201E+04  0.7818609E-02  0.8367454E-01
       -1   -1    0    0    0  501  0.00000000000E+00  0.00000000000E+00  0.82696517767E+03  0.82696517768E+03  0.50400001928E-02 0. -1.
        1   -1    0    0  501    0  0.00000000000E+00  0.00000000000E+00 -0.20470790561E+04  0.20470790561E+04  0.50400001928E-02 0.  1.
    10030    2    1    2    0    0  0.00000000000E+00  0.00000000000E+00 -0.12201138784E+04  0.28740442337E+04  0.26022014490E+04 0.  0.
        1    1    3    3  502    0 -0.10214293636E+04  0.71120380774E+03 -0.19132823409E+03  0.12592598200E+04  0.50400001928E-02 0.  1.
       -1    1    3    3    0  502  0.10214293636E+04 -0.71120380774E+03 -0.10287856443E+04  0.16147844138E+04  0.50400001928E-02 0. -1.
</event>
<event>
 5   0  0.2623263E-07  0.2600486E+04  0.7818609E-02  0.8368036E-01
        1   -1    0    0  501    0  0.00000000000E+00  0.00000000000E+00  0.76640626003E+03  0.76640626004E+03  0.50400001928E-02 0. -1.
       -1   -1    0    0    0  501  0.00000000000E+00  0.00000000000E+00 -0.22059217391E+04  0.22059217391E+04  0.50400001928E-02 0.  1.
    10030    2    1    2    0    0  0.00000000000E+00  0.00000000000E+00 -0.14395154790E+04  0.29723279991E+04  0.26004862853E+04 0.  0.
        1    1    3    3  502    0 -0.49635538606E+03 -0.49543699128E+03  0.53170110859E+03  0.88007530956E+03  0.50400001928E-02 0. -1.
       -1    1    3    3    0  502  0.49635538606E+03  0.49543699128E+03 -0.19712165876E+04  0.20922526896E+04  0.50400001928E-02 0.  1.
</event>
<event>
 5   0  0.2623263E-07  0.2598302E+04  0.7818609E-02  0.8368778E-01
       -1   -1    0    0    0  501  0.00000000000E+00  0.00000000000E+00  0.12683039589E+04  0.12683039589E+04  0.50400001928E-02 0. -1.
        1   -1    0    0  501    0  0.00000000000E+00  0.00000000000E+00 -0.13307479891E+04  0.13307479891E+04  0.50400001928E-02 0.  1.
    10030    2    1    2    0    0  0.00000000000E+00  0.00000000000E+00 -0.62444030255E+02  0.25990519480E+04  0.25983017091E+04 0.  0.
        1    1    3    3  502    0  0.10867388852E+04  0.43054122871E+03 -0.59832997102E+03  0.13131511370E+04  0.50400001928E-02 0.  1.
       -1    1    3    3    0  502 -0.10867388852E+04 -0.43054122871E+03  0.53588594077E+03  0.12859008110E+04  0.50400001928E-02 0. -1.
</event>
<event>
 5   0  0.6599814E-07  0.2599901E+04  0.7818609E-02  0.8368235E-01
        2   -1    0    0  501    0  0.00000000000E+00  0.00000000000E+00  0.11094903056E+04  0.11094903056E+04  0.25500000920E-02 0. -1.
       -2   -1    0    0    0  501  0.00000000000E+00  0.00000000000E+00 -0.15231058092E+04  0.15231058092E+04  0.25500000920E-02 0.  1.
    10030    2    1    2    0    0  0.00000000000E+00  0.00000000000E+00 -0.41361550357E+03  0.26325961148E+04  0.25999008672E+04 0.  0.
        5    1    3    3  502    0  0.90909556207E+03  0.62580985253E+03  0.48867492026E+03  0.12070285747E+04  0.46999998093E+01 0. -1.
       -5    1    3    3    0  502 -0.90909556207E+03 -0.62580985253E+03 -0.90229042382E+03  0.14255675401E+04  0.46999998093E+01 0.  1.
</event>
<event>
 5   0  0.7160320E-07  0.2599847E+04  0.7818609E-02  0.8368253E-01
        2   -1    0    0  501    0  0.00000000000E+00  0.00000000000E+00  0.75391589176E+03  0.75391589176E+03  0.25500000920E-02 0.  1.
       -2   -1    0    0    0  501  0.00000000000E+00  0.00000000000E+00 -0.22413652664E+04  0.22413652664E+04  0.25500000920E-02 0. -1.
    10030    2    1    2    0    0  0.00000000000E+00  0.00000000000E+00 -0.14874493747E+04  0.29952811582E+04  0.25998468367E+04 0.  0.
        1    1    3    3  502    0  0.16865600779E+02  0.52109955089E+03 -0.21156283429E+04  0.21789246145E+04  0.50400001928E-02 0. -1.
       -1    1    3    3    0  502 -0.16865600779E+02 -0.52109955089E+03  0.62817896817E+03  0.81635654374E+03  0.50400001928E-02 0.  1.
</event>
<event>
 5   0  0.2864801E-07  0.2599436E+04  0.7818609E-02  0.8368393E-01
        1   -1    0    0  501    0  0.00000000000E+00  0.00000000000E+00  0.17295658814E+04  0.17295658815E+04  0.50400001928E-02 0. -1.
       -1   -1    0    0    0  501  0.00000000000E+00  0.00000000000E+00 -0.97670001858E+03  0.97670001860E+03  0.50400001928E-02 0.  1.
    10030    2    1    2    0    0  0.00000000000E+00  0.00000000000E+00  0.75286586286E+03  0.27062659000E+04  0.25994361147E+04 0.  0.
        5    1    3    3  502    0  0.85221600071E+03 -0.94436464587E+03  0.65413134882E+03  0.14303868735E+04  0.46999998093E+01 0.  1.
       -5    1    3    3    0  502 -0.85221600071E+03  0.94436464587E+03  0.98734514041E+02  0.12758790266E+04  0.46999998093E+01 0. -1.
</event>
<event>
 5   0  0.2641626E-07  0.2598417E+04  0.7818609E-02  0.8368739E-01
        1   -1    0    0  501    0  0.00000000000E+00  0.00000000000E+00  0.12065771198E+04  0.12065771198E+04  0.50400001928E-02 0.  1.
       -1   -1    0    0    0  501  0.00000000000E+00  0.00000000000E+00 -0.13989508879E+04  0.13989508879E+04  0.50400001928E-02 0. -1.
    10030    2    1    2    0    0  0.00000000000E+00  0.00000000000E+00 -0.19237376812E+03  0.26055280077E+04  0.25984165433E+04 0.  0.
        3    1    3    3  502    0 -0.28356835018E+03 -0.12210935553E+04  0.24601187432E+03  0.12774984667E+04  0.10100000352E+00 0.  1.
       -3    1    3    3    0  502  0.28356835018E+03  0.12210935553E+04 -0.43838564244E+03  0.13280295410E+04  0.10100000352E+00 0. -1.
</event>
<event>
 5   0  0.7160320E-07  0.2602459E+04  0.7818609E-02  0.8367366E-01
        2   -1    0    0  501    0  0.00000000000E+00  0.00000000000E+00  0.13675034938E+04  0.13675034938E+04  0.25500000920E-02 0.  1.
       -2   -1    0    0    0  501  0.00000000000E+00  0.00000000000E+00 -0.12381672861E+04  0.12381672862E+04  0.25500000920E-02 0. -1.
    10030    2    1    2    0    0  0.00000000000E+00  0.00000000000E+00  0.12933620769E+03  0.26056707800E+04  0.26024589063E+04 0.  0.
        1    1    3    3  502    0 -0.11115786641E+03 -0.16437063219E+03 -0.12229300593E+04  0.12389236078E+04  0.50400001928E-02 0. -1.
       -1    1    3    3    0  502  0.11115786641E+03  0.16437063219E+03  0.13522662670E+04  0.13667471722E+04  0.50400001928E-02 0.  1.
</event>
<event>
 5   0  0.2623263E-07  0.2600424E+04  0.7818609E-02  0.8368057E-01
        1   -1    0    0  501    0  0.00000000000E+00  0.00000000000E+00  0.18885173332E+04  0.18885173332E+04  0.50400001928E-02 0.  1.
       -1   -1    0    0    0  501  0.00000000000E+00  0.00000000000E+00 -0.89517370083E+03  0.89517370084E+03  0.50400001928E-02 0. -1.
    10030    2    1    2    0    0  0.00000000000E+00  0.00000000000E+00  0.99334363237E+03  0.27836910340E+04  0.26004238503E+04 0.  0.
        1    1    3    3  502    0  0.12207294061E+04 -0.44176665017E+03  0.41938231455E+03  0.13642652169E+04  0.50400001928E-02 0. -1.
       -1    1    3    3    0  502 -0.12207294061E+04  0.44176665017E+03  0.57396131783E+03  0.14194258172E+04  0.50400001928E-02 0.  1.
</event>
<event>
 5   0  0.2793576E-07  0.2598105E+04  0.7818609E-02  0.8368845E-01
       -1   -1    0    0    0  501  0.00000000000E+00  0.00000000000E+00  0.85819045557E+03  0.85819045559E+03  0.50400001928E-02 0. -1.
        1   -1    0    0  501    0  0.00000000000E+00  0.00000000000E+00 -0.19663908816E+04  0.19663908816E+04  0.50400001928E-02 0.  1.
    10030    2    1    2    0    0  0.00000000000E+00  0.00000000000E+00 -0.11082004260E+04  0.28245813372E+04  0.25981053763E+04 0.  0.
        2    1    3    3  502    0  0.12335635851E+04  0.28289546322E+03 -0.23559674910E+03  0.12873285478E+04  0.25500000920E-02 0. -1.
       -2    1    3    3    0  502 -0.12335635851E+04 -0.28289546322E+03 -0.87260367693E+03  0.15372527894E+04  0.25500000920E-02 0.  1.
</event>
<event>
 5   0  0.2755061E-07  0.2600939E+04  0.7818609E-02  0.8367882E-01
       -1   -1    0    0    0  501  0.00000000000E+00  0.00000000000E+00  0.13340408246E+04  0.13340408246E+04  0.50400001928E-02 0.  1.
        1   -1    0    0  501    0  0.00000000000E+00  0.00000000000E+00 -0.12677434022E+04  0.12677434023E+04  0.50400001928E-02 0. -1.
    10030    2    1    2    0    0  0.00000000000E+00  0.00000000000E+00  0.66297422337E+02  0.26017842268E+04  0.26009394101E+04 0.  0.
        4    1    3    3  502    0  0.27471941454E+03  0.51249259194E+03 -0.11304575698E+04  0.12712416542E+04  0.12699999809E+01 0. -1.
       -4    1    3    3    0  502 -0.27471941454E+03 -0.51249259194E+03  0.11967549921E+04  0.13305425726E+04  0.12699999809E+01 0.  1.
</event>
<event>
 5   0  0.2755061E-07  0.2599159E+04  0.7818609E-02  0.8368487E-01
       -1   -1    0    0    0  501  0.00000000000E+00  0.00000000000E+00  0.85179187237E+03  0.85179187238E+03  0.50400001928E-02 0. -1.
        1   -1    0    0  501    0  0.00000000000E+00  0.00000000000E+00 -0.19827690464E+04  0.19827690464E+04  0.50400001928E-02 0.  1.
    10030    2    1    2    0    0  0.00000000000E+00  0.00000000000E+00 -0.11309771740E+04  0.28345609188E+04  0.25991587551E+04 0.  0.
        4    1    3    3  502    0  0.11899455991E+04  0.40614381763E+03 -0.20712167888E+03  0.12742936601E+04  0.12699999809E+01 0. -1.
       -4    1    3    3    0  502 -0.11899455991E+04 -0.40614381763E+03 -0.92385549514E+03  0.15602672586E+04  0.12699999809E+01 0.  1.
</event>
<event>
 5   0  0.2623263E-07  0.2597756E+04  0.7818609E-02  0.8368964E-01
        1   -1    0    0  501    0  0.00000000000E+00  0.00000000000E+00  0.24422831487E+04  0.24422831487E+04  0.50400001928E-02 0.  1.
       -1   -1    0    0    0  501  0.00000000000E+00  0.00000000000E+00 -0.69078178007E+03  0.69078178009E+03  0.50400001928E-02 0. -1.
    10030    2    1    2    0    0  0.00000000000E+00  0.00000000000E+00  0.17515013687E+04  0.31330649288E+04  0.25977564943E+04 0.  0.
        1    1    3    3  502    0  0.48464291513E+03  0.11452572353E+04  0.42352943215E+03  0.13137237419E+04  0.50400001928E-02 0. -1.
       -1    1    3    3    0  502 -0.48464291513E+03 -0.11452572353E+04  0.13279719365E+04  0.18193411869E+04  0.50400001928E-02 0.  1.
</event>
<event>
 5   0  0.2641626E-07  0.2601360E+04  0.7818609E-02  0.8367739E-01
        1   -1    0    0  501    0  0.00000000000E+00  0.00000000000E+00  0.14735446687E+04  0.14735446687E+04  0.50400001928E-02 0. -1.
       -1   -1    0    0    0  501  0.00000000000E+00  0.00000000000E+00 -0.11480942384E+04  0.11480942384E+04  0.50400001928E-02 0.  1.
    10030    2    1    2    0    0  0.00000000000E+00  0.00000000000E+00  0.32545043027E+03  0.26216389071E+04  0.26013597553E+04 0.  0.
        3    1    3    3  502    0  0.70373350297E+03  0.82260623155E+03 -0.56389909928E+03  0.12206162623E+04  0.10100000352E+00 0.  1.
       -3    1    3    3    0  502 -0.70373350297E+03 -0.82260623155E+03  0.88934952955E+03  0.14010226448E+04  0.10100000352E+00 0. -1.
</event>
<event>
 5   0  0.2755061E-07  0.2599234E+04  0.7818609E-02  0.8368461E-01
       -1   -1    0    0    0  501  0.00000000000E+00  0.00000000000E+00  0.10785967569E+04  0.10785967570E+04  0.50400001928E-02 0.  1.
        1   -1    0    0  501    0  0.00000000000E+00  0.00000000000E+00 -0.15659275111E+04  0.15659275111E+04  0.50400001928E-02 0. -1.
    10030    2    1    2    0    0  0.00000000000E+00  0.00000000000E+00 -0.48733075412E+03  0.26445242680E+04  0.25992339911E+04 0.  0.
        4    1    3    3  502    0 -0.72337559785E+03 -0.94821220820E+03  0.28168840088E+03  0.12254503725E+04  0.12699999809E+01 0. -1.
       -4    1    3    3    0  502  0.72337559785E+03  0.94821220820E+03 -0.76901915500E+03  0.14190738955E+04  0.12699999809E+01 0.  1.
</event>
<event>
 5   0  0.6526351E-07  0.2601765E+04  0.7818609E-02  0.8367602E-01
       -2   -1    0    0    0  501  0.00000000000E+00  0.00000000000E+00  0.10413086303E+04  0.10413086303E+04  0.25500000920E-02 0. -1.
        2   -1    0    0  501    0  0.00000000000E+00  0.00000000000E+00 -0.16251617728E+04  0.16251617728E+04  0.25500000920E-02 0.  1.
    10030    2    1    2    0    0  0.00000000000E+00  0.00000000000E+00 -0.58385314253E+03  0.26664704031E+04  0.26017647701E+04 0.  0.
        3    1    3    3  502    0 -0.26099203083E+03 -0.97886078698E+02  0.10103425256E+04  0.10480890009E+04  0.10100000352E+00 0. -1.
       -3    1    3    3    0  502  0.26099203083E+03  0.97886078698E+02 -0.15941956681E+04  0.16183814022E+04  0.10100000352E+00 0.  1.
</event>
<event>
 5   0  0.2793576E-07  0.2600489E+04  0.7818609E-02  0.8368035E-01
       -1   -1    0    0    0  501  0.00000000000E+00  0.00000000000E+00  0.74987202749E+03  0.74987202751E+03  0.50400001928E-02 0. -1.
        1   -1    0    0  501    0  0.00000000000E+00  0.00000000000E+00 -0.22545657979E+04  0.22545657979E+04  0.50400001928E-02 0.  1.
    10030    2    1    2    0    0  0.00000000000E+00  0.00000000000E+00 -0.15046937704E+04  0.30044378254E+04  0.26004890509E+04 0.  0.
        2    1    3    3  502    0 -0.43933728687E+03  0.56390782274E+02 -0.21647128311E+04  0.22095652995E+04  0.25500000920E-02 0.  1.
       -2    1    3    3    0  502  0.43933728687E+03 -0.56390782274E+02  0.66001906066E+03  0.79487252588E+03  0.25500000920E-02 0. -1.
</event>
<event>
 5   0  0.2641626E-07  0.2599488E+04  0.7818609E-02  0.8368375E-01
        1   -1    0    0  501    0  0.00000000000E+00  0.00000000000E+00  0.10382098467E+04  0.10382098467E+04  0.50400001928E-02 0.  1.
       -1   -1    0    0    0  501  0.00000000000E+00  0.00000000000E+00 -0.16271606902E+04  0.16271606903E+04  0.50400001928E-02 0. -1.
    10030    2    1    2    0    0  0.00000000000E+00  0.00000000000E+00 -0.58895084355E+03  0.26653705370E+04  0.25994878348E+04 0.  0.
        3    1    3    3  502    0 -0.68315946007E+03  0.10884567095E+04 -0.94890109639E+02  0.12885841064E+04  0.10100000352E+00 0. -1.
       -3    1    3    3    0  502  0.68315946007E+03 -0.10884567095E+04 -0.49406073392E+03  0.13767864305E+04  0.10100000352E+00 0.  1.
</event>
<event>
 5   0  0.2793576E-07  0.2600822E+04  0.7818609E-02  0.8367922E-01
        1   -1    0    0  501    0  0.00000000000E+00  0.00000000000E+00  0.30201201626E+04  0.30201201626E+04  0.50400001928E-02 0. -1.
       -1   -1    0    0    0  501  0.00000000000E+00  0.00000000000E+00 -0.55993428393E+03  0.55993428395E+03  0.50400001928E-02 0.  1.
    10030    2    1    2    0    0  0.00000000000E+00  0.00000000000E+00  0.24601858787E+04  0.35800544466E+04  0.26008220398E+04 0.  0.
        2    1    3    3  502    0 -0.68365351948E+03 -0.40373033237E+03  0.26477556820E+04  0.27642341557E+04  0.25500000920E-02 0. -1.
       -2    1    3    3    0  502  0.68365351948E+03  0.40373033237E+03 -0.18756980326E+03  0.81582029092E+03  0.25500000920E-02 0.  1.
</event>
<event>
 5   0  0.7160320E-07  0.2597621E+04  0.7818609E-02  0.8369010E-01
        2   -1    0    0  501    0  0.00000000000E+00  0.00000000000E+00  0.23849226998E+04  0.23849226998E+04  0.25500000920E-02 0. -1.
       -2   -1    0    0    0  501  0.00000000000E+00  0.00000000000E+00 -0.70732233652E+03  0.70732233653E+03  0.25500000920E-02 0.  1.
    10030    2    1    2    0    0  0.00000000000E+00  0.00000000000E+00  0.16776003633E+04  0.30922450364E+04  0.25976212938E+04 0.  0.
        1    1    3    3  502    0 -0.39444503577E+03  0.11019300245E+04  0.15091126641E+04  0.19097794893E+04  0.50400001928E-02 0. -1.
       -1    1    3    3    0  502  0.39444503577E+03 -0.11019300245E+04  0.16848769924E+03  0.11824655470E+04  0.50400001928E-02 0.  1.
</event>
<event>
 5   0  0.2623263E-07  0.2599146E+04  0.7818609E-02  0.8368491E-01
        1   -1    0    0  501    0  0.00000000000E+00  0.00000000000E+00  0.10449967106E+04  0.10449967106E+04  0.50400001928E-02 0.  1.
       -1   -1    0    0    0  501  0.00000000000E+00  0.00000000000E+00 -0.16161682437E+04  0.16161682437E+04  0.50400001928E-02 0. -1.
    10030    2    1    2    0    0  0.00000000000E+00  0.00000000000E+00 -0.57117153305E+03  0.26611649543E+04  0.25991463972E+04 0.  0.
        1    1    3    3  502    0  0.11454485088E+04  0.54918047264E+03 -0.47434023899E+01  0.12703046791E+04  0.50400001928E-02 0.  1.
       -1    1    3    3    0  502 -0.11454485088E+04 -0.54918047264E+03 -0.56642813066E+03  0.13908602752E+04  0.50400001928E-02 0. -1.
</event>
<event>
 5   0  0.6780984E-07  0.2600299E+04  0.7818609E-02  0.8368100E-01
        2   -1    0    0  501    0  0.00000000000E+00  0.00000000000E+00  0.12966344410E+04  0.12966344410E+04  0.25500000920E-02 0.  1.
       -2   -1    0    0    0  501  0.00000000000E+00  0.00000000000E+00 -0.13036739815E+04  0.13036739815E+04  0.25500000920E-02 0. -1.
    10030    2    1    2    0    0  0.00000000000E+00  0.00000000000E+00 -0.70395404542E+01  0.26003084225E+04  0.26002988938E+04 0.  0.
        2    1    3    3  502    0 -0.88239948748E+03  0.65220781204E+03 -0.70093518683E+03  0.13020422504E+04  0.25500000920E-02 0. -1.
       -2    1    3    3    0  502  0.88239948748E+03 -0.65220781204E+03  0.69389564638E+03  0.12982661721E+04  0.25500000920E-02 0.  1.
</event>
<event>
 5   0  0.2294625E-07  0.2598731E+04  0.7818609E-02  0.8368632E-01
        3   -1    0    0  501    0  0.00000000000E+00  0.00000000000E+00  0.18412830270E+04  0.18412830297E+04  0.10100000352E+00 0.  1.
       -3   -1    0    0    0  501  0.00000000000E+00  0.00000000000E+00 -0.91694235568E+03  0.91694236124E+03  0.10100000352E+00 0. -1.
    10030    2    1    2    0    0  0.00000000000E+00  0.00000000000E+00  0.92434067130E+03  0.27582253910E+04  0.25987307731E+04 0.  0.
        2    1    3    3  502    0  0.12764407642E+03 -0.70393540705E+03  0.16134223354E+04  0.17649220096E+04  0.25500000920E-02 0.  1.
       -2    1    3    3    0  502 -0.12764407642E+03  0.70393540705E+03 -0.68908166415E+03  0.99330338136E+03  0.25500000920E-02 0. -1.
</event>
<event>
 5   0  0.2623263E-07  0.2601689E+04  0.7818609E-02  0.8367628E-01
       -1   -1    0    0    0  501  0.00000000000E+00  0.00000000000E+00  0.13642553929E+04  0.13642553930E+04  0.50400001928E-02 0. -1.
        1   -1    0    0  501    0  0.00000000000E+00  0.00000000000E+00 -0.12403809478E+04  0.12403809478E+04  0.50400001928E-02 0.  1.
    10030    2    1    2    0    0  0.00000000000E+00  0.00000000000E+00  0.12387444514E+03  0.26046363408E+04  0.26016889879E+04 0.  0.
        1    1    3    3  502    0 -0.32877349161E+03  0.43346939176E+01 -0.11980932258E+04  0.12423921184E+04  0.50400001928E-02 0.  1.
       -1    1    3    3    0  502  0.32877349161E+03 -0.43346939176E+01  0.13219676709E+04  0.13622442223E+04  0.50400001928E-02 0. -1.
</event>
<event>
 5   0  0.2641626E-07  0.2599065E+04  0.7818609E-02  0.8368519E-01
        1   -1    0    0  501    0  0.00000000000E+00  0.00000000000E+00  0.15038630022E+04  0.15038630022E+04  0.50400001928E-02 0.  1.
       -1   -1    0    0    0  501  0.00000000000E+00  0.00000000000E+00 -0.11229647763E+04  0.11229647763E+04  0.50400001928E-02 0. -1.
    10030    2    1    2    0    0  0.00000000000E+00  0.00000000000E+00  0.38089822593E+03  0.26268277785E+04  0.25990653549E+04 0.  0.
        3    1    3    3  502    0  0.10516495117E+04 -0.51452988028E+03 -0.37955876583E+03  0.12307609679E+04  0.10100000352E+00 0. -1.
       -3    1    3    3    0  502 -0.10516495117E+04  0.51452988028E+03  0.76045699176E+03  0.13960668106E+04  0.10100000352E+00 0.  1.
</event>
<event>
 5   0  0.6526351E-07  0.2599477E+04  0.7818609E-02  0.8368379E-01
        2   -1    0    0  501    0  0.00000000000E+00  0.00000000000E+00  0.25031495034E+04  0.25031495034E+04  0.25500000920E-02 0.  1.
       -2   -1    0    0    0  501  0.00000000000E+00  0.00000000000E+00 -0.67487790799E+03  0.67487790800E+03  0.25500000920E-02 0. -1.
    10030    2    1    2    0    0  0.00000000000E+00  0.00000000000E+00  0.18282715954E+04  0.31780274114E+04  0.25994771014E+04 0.  0.
        3    1    3    3  502    0 -0.33057928826E+03 -0.19683018864E+03 -0.60366437547E+03  0.71584598721E+03  0.10100000352E+00 0. -1.
       -3    1    3    3    0  502  0.33057928826E+03  0.19683018864E+03  0.24319359708E+04  0.24621814242E+04  0.10100000352E+00 0.  1.
</event>
<event>
 5   0  0.6768478E-07  0.2599754E+04  0.7818609E-02  0.8368285E-01
        2   -1    0    0  501    0  0.00000000000E+00  0.00000000000E+00  0.18738396349E+04  0.18738396349E+04  0.25500000920E-02 0.  1.
       -2   -1    0    0    0  501  0.00000000000E+00  0.00000000000E+00 -0.90172081188E+03  0.90172081188E+03  0.25500000920E-02 0. -1.
    10030    2    1    2    0    0  0.00000000000E+00  0.00000000000E+00  0.97211882298E+03  0.27755604467E+04  0.25997539860E+04 0.  0.
        4    1    3    3  502    0 -0.28694578336E+02 -0.35075125910E+03 -0.84989171316E+03  0.91987355739E+03  0.12699999809E+01 0. -1.
       -4    1    3    3    0  502  0.28694578336E+02  0.35075125910E+03  0.18220105361E+04  0.18556868893E+04  0.12699999809E+01 0.  1.
</event>
<event>
 5   0  0.2623263E-07  0.2600805E+04  0.7818609E-02  0.8367928E-01
       -1   -1    0    0    0  501  0.00000000000E+00  0.00000000000E+00  0.12327294713E+04  0.12327294713E+04  0.50400001928E-02 0. -1.
        1   -1    0    0  501    0  0.00000000000E+00  0.00000000000E+00 -0.13717902051E+04  0.13717902051E+04  0.50400001928E-02 0.  1.
    10030    2    1    2    0    0  0.00000000000E+00  0.00000000000E+00 -0.13906073379E+03  0.26045196764E+04  0.26008046557E+04 0.  0.
        1    1    3    3  502    0  0.74316658805E+00 -0.44441236051E+03 -0.12933821364E+04  0.13676038349E+04  0.50400001928E-02 0.  1.
       -1    1    3    3    0  502 -0.74316658805E+00  0.44441236051E+03  0.11543214026E+04  0.12369158415E+04  0.50400001928E-02 0. -1.
</event>
<event>
 5   0  0.2864801E-07  0.2598695E+04  0.7818609E-02  0.8368644E-01
       -1   -1    0    0    0  501  0.00000000000E+00  0.00000000000E+00  0.84788314729E+03  0.84788314731E+03  0.50400001928E-02 0.  1.
        1   -1    0    0  501    0  0.00000000000E+00  0.00000000000E+00 -0.19911995426E+04  0.19911995426E+04  0.50400001928E-02 0. -1.
    10030    2    1    2    0    0  0.00000000000E+00  0.00000000000E+00 -0.11433163953E+04  0.28390826899E+04  0.25986954690E+04 0.  0.
        5    1    3    3  502    0  0.26617256244E+03  0.12717707030E+04 -0.56529808428E+03  0.14169800874E+04  0.46999998093E+01 0.  1.
       -5    1    3    3    0  502 -0.26617256244E+03 -0.12717707030E+04 -0.57801831106E+03  0.14221026025E+04  0.46999998093E+01 0. -1.
</event>
<event>
 5   0  0.6526351E-07  0.2599943E+04  0.7818609E-02  0.8368221E-01
        2   -1    0    0  501    0  0.00000000000E+00  0.00000000000E+00  0.17251589252E+04  0.17251589252E+04  0.25500000920E-02 0.  1.
       -2   -1    0    0    0  501  0.00000000000E+00  0.00000000000E+00 -0.97957685566E+03  0.97957685567E+03  0.25500000920E-02 0. -1.
    10030    2    1    2    0    0  0.00000000000E+00  0.00000000000E+00  0.74558206954E+03  0.27047357809E+04  0.25999428882E+04 0.  0.
        3    1    3    3  502    0  0.90691837757E+03  0.41754826513E+03 -0.49327732485E+03  0.11136292142E+04  0.10100000352E+00 0. -1.
       -3    1    3    3    0  502 -0.90691837757E+03 -0.41754826513E+03  0.12388593944E+04  0.15911065667E+04  0.10100000352E+00 0.  1.
</event>
<event>
 5   0  0.2755061E-07  0.2599505E+04  0.7818609E-02  0.8368370E-01
       -1   -1    0    0    0  501  0.00000000000E+00  0.00000000000E+00  0.12446467185E+04  0.12446467185E+04  0.50400001928E-02 0.  1.
        1   -1    0    0  501    0  0.00000000000E+00  0.00000000000E+00 -0.13572975961E+04  0.13572975961E+04  0.50400001928E-02 0. -1.
    10030    2    1    2    0    0  0.00000000000E+00  0.00000000000E+00 -0.11265087761E+03  0.26019443146E+04  0.25995045674E+04 0.  0.
        4    1    3    3  502    0  0.65776798749E+03 -0.10740224230E+04  0.26517922429E+03  0.12870526502E+04  0.12699999809E+01 0.  1.
       -4    1    3    3    0  502 -0.65776798749E+03  0.10740224230E+04 -0.37783010189E+03  0.13148916644E+04  0.12699999809E+01 0. -1.
</event>
<event>
 5   0  0.6526351E-07  0.2598963E+04  0.7818609E-02  0.8368553E-01
        2   -1    0    0  501    0  0.00000000000E+00  0.00000000000E+00  0.12442917255E+04  0.12442917255E+04  0.25500000920E-02 0.  1.
       -2   -1    0    0    0  501  0.00000000000E+00  0.00000000000E+00 -0.13571195777E+04  0.13571195777E+04  0.25500000920E-02 0. -1.
    10030    2    1    2    0    0  0.00000000000E+00  0.00000000000E+00 -0.11282785223E+03  0.26014113033E+04  0.25989633788E+04 0.  0.
        3    1    3    3  502    0 -0.65097789332E+02 -0.90190306051E+03 -0.99055915447E+03  0.13412211978E+04  0.10100000352E+00 0. -1.
       -3    1    3    3    0  502  0.65097789332E+02  0.90190306051E+03  0.87773130224E+03  0.12601901054E+04  0.10100000352E+00 0.  1.
</event>
<event>
 5   0  0.2864801E-07  0.2607344E+04  0.7818609E-02  0.8365711E-01
        1   -1    0    0  501    0  0.00000000000E+00  0.00000000000E+00  0.10285024070E+04  0.10285024070E+04  0.50400001928E-02 0.  1.
       -1   -1    0    0    0  501  0.00000000000E+00  0.00000000000E+00 -0.16524617264E+04  0.16524617264E+04  0.50400001928E-02 0. -1.
    10030    2    1    2    0    0  0.00000000000E+00  0.00000000000E+00 -0.62395931941E+03  0.26809641334E+04  0.26073441376E+04 0.  0.
        5    1    3    3  502    0  0.50216491566E+02  0.83580950912E+03  0.71545339423E+03  0.11013604682E+04  0.46999998093E+01 0.  1.
       -5    1    3    3    0  502 -0.50216491566E+02 -0.83580950912E+03 -0.13394127136E+04  0.15796036652E+04  0.46999998093E+01 0. -1.
</event>
<event>
 5   0  0.2793576E-07  0.2599804E+04  0.7818609E-02  0.8368268E-01
       -1   -1    0    0    0  501  0.00000000000E+00  0.00000000000E+00  0.10357938125E+04  0.10357938125E+04  0.50400001928E-02 0.  1.
        1   -1    0    0  501    0  0.00000000000E+00  0.00000000000E+00 -0.16313532964E+04  0.16313532964E+04  0.50400001928E-02 0. -1.
    10030    2    1    2    0    0  0.00000000000E+00  0.00000000000E+00 -0.59555948386E+03  0.26671471090E+04  0.25998043392E+04 0.  0.
        2    1    3    3  502    0 -0.44383803218E+03 -0.98610169474E+03 -0.10378227582E+04  0.14988211463E+04  0.25500000920E-02 0. -1.
       -2    1    3    3    0  502  0.44383803218E+03  0.98610169474E+03  0.44226327433E+03  0.11683259627E+04  0.25500000920E-02 0.  1.
</event>
<event>
 5   0  0.6599814E-07  0.2600635E+04  0.7818609E-02  0.8367986E-01
       -2   -1    0    0    0  501  0.00000000000E+00  0.00000000000E+00  0.11499269914E+04  0.11499269914E+04  0.25500000920E-02 0. -1.
        2   -1    0    0  501    0  0.00000000000E+00  0.00000000000E+00 -0.14703764422E+04  0.14703764422E+04  0.25500000920E-02 0.  1.
    10030    2    1    2    0    0  0.00000000000E+00  0.00000000000E+00 -0.32044945080E+03  0.26203034336E+04  0.26006349674E+04 0.  0.
        5    1    3    3  502    0 -0.67997726284E+03 -0.90383450998E+03  0.48612322947E+03  0.12311067312E+04  0.46999998093E+01 0. -1.
       -5    1    3    3    0  502  0.67997726284E+03  0.90383450998E+03 -0.80657268027E+03  0.13891967024E+04  0.46999998093E+01 0.  1.
</event>
<event>
 5   0  0.2623263E-07  0.2594774E+04  0.7818609E-02  0.8369978E-01
        1   -1    0    0  501    0  0.00000000000E+00  0.00000000000E+00  0.10994097036E+04  0.10994097036E+04  0.50400001928E-02 0.  1.
       -1   -1    0    0    0  501  0.00000000000E+00  0.00000000000E+00 -0.15310156883E+04  0.15310156883E+04  0.50400001928E-02 0. -1.
    10030    2    1    2    0    0  0.00000000000E+00  0.00000000000E+00 -0.43160598466E+03  0.26304253920E+04  0.25947743672E+04 0.  0.
        1    1    3    3  502    0 -0.74446204673E+03  0.10466107056E+04 -0.29993089154E+02  0.12847245983E+04  0.50400001928E-02 0.  1.
       -1    1    3    3    0  502  0.74446204673E+03 -0.10466107056E+04 -0.40161289550E+03  0.13457007936E+04  0.50400001928E-02 0. -1.
</event>
<event>
 5   0  0.2623263E-07  0.2600647E+04  0.7818609E-02  0.8367981E-01
        1   -1    0    0  501    0  0.00000000000E+00  0.00000000000E+00  0.19933763665E+04  0.19933763665E+04  0.50400001928E-02 0.  1.
       -1   -1    0    0    0  501  0.00000000000E+00  0.00000000000E+00 -0.84822982850E+03  0.84822982852E+03  0.50400001928E-02 0. -1.
    10030    2    1    2    0    0  0.00000000000E+00  0.00000000000E+00  0.11451465380E+04  0.28416061950E+04  0.26006470683E+04 0.  0.
        1    1    3    3  502    0  0.27485305270E+03  0.10457999806E+04  0.13617078096E+04  0.17388185526E+04  0.50400001928E-02 0.  1.
       -1    1    3    3    0  502 -0.27485305270E+03 -0.10457999806E+04 -0.21656127159E+03  0.11027876425E+04  0.50400001928E-02 0. -1.
</event>
<event>
 5   0  0.6526351E-07  0.2599691E+04  0.7818609E-02  0.8368306E-01
        2   -1    0    0  501    0  0.00000000000E+00  0.00000000000E+00  0.69567780959E+03  0.69567780959E+03  0.25500000920E-02 0. -1.
       -2   -1    0    0    0  501  0.00000000000E+00  0.00000000000E+00 -0.24287078956E+04  0.24287078956E+04  0.25500000920E-02 0.  1.
    10030    2    1    2    0    0  0.00000000000E+00  0.00000000000E+00 -0.17330300860E+04  0.31243857052E+04  0.25996908962E+04 0.  0.
        3    1    3    3  502    0  0.49768236509E+03  0.43549685963E+03  0.47838174579E+03  0.81620729975E+03  0.10100000352E+00 0. -1.
       -3    1    3    3    0  502 -0.49768236509E+03 -0.43549685963E+03 -0.22114118318E+04  0.23081784054E+04  0.10100000352E+00 0.  1.
</event>
<event>
 5   0  0.2755061E-07  0.2600371E+04  0.7818609E-02  0.8368075E-01
       -1   -1    0    0    0  501  0.00000000000E+00  0.00000000000E+00  0.14203939329E+04  0.14203939329E+04  0.50400001928E-02 0. -1.
        1   -1    0    0  501    0  0.00000000000E+00  0.00000000000E+00 -0.11901499117E+04  0.11901499117E+04  0.50400001928E-02 0.  1.
    10030    2    1    2    0    0  0.00000000000E+00  0.00000000000E+00  0.23024402115E+03  0.26105438446E+04  0.26003705227E+04 0.  0.
        4    1    3    3  502    0 -0.10822797474E+04  0.71629083669E+03  0.36854918608E+02  0.12983689430E+04  0.12699999809E+01 0.  1.
       -4    1    3    3    0  502  0.10822797474E+04 -0.71629083669E+03  0.19338910254E+03  0.13121749015E+04  0.12699999809E+01 0. -1.
</event>
<event>
 5   0  0.2623263E-07  0.2599793E+04  0.7818609E-02  0.8368272E-01
        1   -1    0    0  501    0  0.00000000000E+00  0.00000000000E+00  0.98227560912E+03  0.98227560913E+03  0.50400001928E-02 0.  1.
       -1   -1    0    0    0  501  0.00000000000E+00  0.00000000000E+00 -0.17202201544E+04  0.17202201544E+04  0.50400001928E-02 0. -1.
    10030    2    1    2    0    0  0.00000000000E+00  0.00000000000E+00 -0.73794454532E+03  0.27024957636E+04  0.25997925302E+04 0.  0.
        1    1    3    3  502    0  0.53546678818E+03  0.11776700118E+04 -0.50086634202E+03  0.13872629277E+04  0.50400001928E-02 0.  1.
       -1    1    3    3    0  502 -0.53546678818E+03 -0.11776700118E+04 -0.23707820331E+03  0.13152328359E+04  0.50400001928E-02 0. -1.
</event>
<event>
 5   0  0.6599814E-07  0.2599790E+04  0.7818609E-02  0.8368273E-01
        2   -1    0    0  501    0  0.00000000000E+00  0.00000000000E+00  0.14258469473E+04  0.14258469473E+04  0.25500000920E-02 0.  1.
       -2   -1    0    0    0  501  0.00000000000E+00  0.00000000000E+00 -0.11850687604E+04  0.11850687604E+04  0.25500000920E-02 0. -1.
    10030    2    1    2    0    0  0.00000000000E+00  0.00000000000E+00  0.24077818686E+03  0.26109157077E+04  0.25997897410E+04 0.  0.
        5    1    3    3  502    0 -0.12802619434E+03  0.30451967273E+03 -0.11422030796E+04  0.11890218260E+04  0.46999998093E+01 0. -1.
       -5    1    3    3    0  502  0.12802619434E+03 -0.30451967273E+03  0.13829812665E+04  0.14218938818E+04  0.46999998093E+01 0.  1.
</event>
<event>
 5   0  0.2864801E-07  0.2604510E+04  0.7818609E-02  0.8366671E-01
       -1   -1    0    0    0  501  0.00000000000E+00  0.00000000000E+00  0.10277679676E+04  0.10277679677E+04  0.50400001928E-02 0. -1.
        1   -1    0    0  501    0  0.00000000000E+00  0.00000000000E+00 -0.16500493915E+04  0.16500493915E+04  0.50400001928E-02 0.  1.
    10030    2    1    2    0    0  0.00000000000E+00  0.00000000000E+00 -0.62228142384E+03  0.26778173592E+04  0.26045098653E+04 0.  0.
        5    1    3    3  502    0  0.64826303877E+03  0.70472493074E+03  0.59629012694E+03  0.11280364360E+04  0.46999998093E+01 0. -1.
       -5    1    3    3    0  502 -0.64826303877E+03 -0.70472493074E+03 -0.12185715508E+04  0.15497809232E+04  0.46999998093E+01 0.  1.
</event>
<event>
 5   0  0.6526351E-07  0.2599700E+04  0.7818609E-02  0.8368303E-01
        2   -1    0    0  501    0  0.00000000000E+00  0.00000000000E+00  0.74790674174E+03  0.74790674175E+03  0.25500000920E-02 0. -1.
       -2   -1    0    0    0  501  0.00000000000E+00  0.00000000000E+00 -0.22591192932E+04  0.22591192932E+04  0.25500000920E-02 0.  1.
    10030    2    1    2    0    0  0.00000000000E+00  0.00000000000E+00 -0.15112125515E+04  0.30070260350E+04  0.25997004057E+04 0.  0.
        3    1    3    3  502    0  0.27467209592E+02  0.67695315632E+03  0.52752375131E+03  0.85866253083E+03  0.10100000352E+00 0. -1.
       -3    1    3    3    0  502 -0.27467209592E+02 -0.67695315632E+03 -0.20387363028E+04  0.21483635042E+04  0.10100000352E+00 0.  1.
</event>
<event>
 5   0  0.2793576E-07  0.2602039E+04  0.7818609E-02  0.8367509E-01
       -1   -1    0    0    0  501  0.00000000000E+00  0.00000000000E+00  0.12888248946E+04  0.12888248947E+04  0.50400001928E-02 0.  1.
        1   -1    0    0  501    0  0.00000000000E+00  0.00000000000E+00 -0.13133297287E+04  0.13133297287E+04  0.50400001928E-02 0. -1.
    10030    2    1    2    0    0  0.00000000000E+00  0.00000000000E+00 -0.24504834013E+02  0.26021546233E+04  0.26020392381E+04 0.  0.
        2    1    3    3  502    0 -0.97143197212E+03 -0.10209812393E+03  0.84717381475E+03  0.12929839813E+04  0.25500000920E-02 0. -1.
       -2    1    3    3    0  502  0.97143197212E+03  0.10209812393E+03 -0.87167864876E+03  0.13091706421E+04  0.25500000920E-02 0.  1.
</event>
<event>
 5   0  0.2755061E-07  0.2600349E+04  0.7818609E-02  0.8368083E-01
        1   -1    0    0  501    0  0.00000000000E+00  0.00000000000E+00  0.11772780376E+04  0.11772780377E+04  0.50400001928E-02 0. -1.
       -1   -1    0    0    0  501  0.00000000000E+00  0.00000000000E+00 -0.14359002058E+04  0.14359002058E+04  0.50400001928E-02 0.  1.
    10030    2    1    2    0    0  0.00000000000E+00  0.00000000000E+00 -0.25862216816E+03  0.26131782435E+04  0.26003490355E+04 0.  0.
        4    1    3    3  502    0  0.15425865145E+03 -0.61268284525E+03 -0.12712607324E+04  0.14196060944E+04  0.12699999809E+01 0.  1.
       -4    1    3    3    0  502 -0.15425865145E+03  0.61268284525E+03  0.10126385643E+04  0.11935721491E+04  0.12699999809E+01 0. -1.
</event>
<event>
 5   0  0.2623263E-07  0.2602313E+04  0.7818609E-02  0.8367416E-01
        1   -1    0    0  501    0  0.00000000000E+00  0.00000000000E+00  0.25828105852E+04  0.25828105852E+04  0.50400001928E-02 0.  1.
       -1   -1    0    0    0  501  0.00000000000E+00  0.00000000000E+00 -0.65549077380E+03  0.65549077382E+03  0.50400001928E-02 0. -1.
    10030    2    1    2    0    0  0.00000000000E+00  0.00000000000E+00  0.19273198114E+04  0.32383013590E+04  0.26023132087E+04 0.  0.
        1    1    3    3  502    0 -0.85415273249E+03 -0.18856056161E+03  0.21623386151E+04  0.23325608807E+04  0.50400001928E-02 0.  1.
       -1    1    3    3    0  502  0.85415273249E+03  0.18856056161E+03 -0.23501880376E+03  0.90574047826E+03  0.50400001928E-02 0. -1.
</event>
<event>
 5   0  0.2755061E-07  0.2601154E+04  0.7818609E-02  0.8367809E-01
        1   -1    0    0  501    0  0.00000000000E+00  0.00000000000E+00  0.73436185830E+03  0.73436185831E+03  0.50400001928E-02 0.  1.
       -1   -1    0    0    0  501  0.00000000000E+00  0.00000000000E+00 -0.23033608276E+04  0.23033608276E+04  0.50400001928E-02 0. -1.
    10030    2    1    2    0    0  0.00000000000E+00  0.00000000000E+00 -0.15689989693E+04  0.30377226859E+04  0.26011538499E+04 0.  0.
        4    1    3    3  502    0  0.40974804227E+03  0.97441492594E+03 -0.16693781662E+04  0.19759056103E+04  0.12699999809E+01 0. -1.
       -4    1    3    3    0  502 -0.40974804227E+03 -0.97441492594E+03  0.10037919689E+03  0.10618170756E+04  0.12699999809E+01 0.  1.
</event>
<event>
 5   0  0.6780984E-07  0.2602862E+04  0.7818609E-02  0.8367230E-01
       -2   -1    0    0    0  501  0.00000000000E+00  0.00000000000E+00  0.17412354398E+04  0.17412354398E+04  0.25500000920E-02 0.  1.
        2   -1    0    0  501    0  0.00000000000E+00  0.00000000000E+00 -0.97271342846E+03  0.97271342847E+03  0.25500000920E-02 0. -1.
    10030    2    1    2    0    0  0.00000000000E+00  0.00000000000E+00  0.76852201136E+03  0.27139488683E+04  0.26028623432E+04 0.  0.
        2    1    3    3  502    0  0.38483770404E+03  0.10255534143E+03 -0.90761123362E+03  0.99114873147E+03  0.25500000920E-02 0. -1.
       -2    1    3    3    0  502 -0.38483770404E+03 -0.10255534143E+03  0.16761332450E+04  0.17228001368E+04  0.25500000920E-02 0.  1.
</event>
<event>
 5   0  0.7160320E-07  0.2608442E+04  0.7818609E-02  0.8365339E-01
        2   -1    0    0  501    0  0.00000000000E+00  0.00000000000E+00  0.58154044367E+03  0.58154044367E+03  0.25500000920E-02 0. -1.
       -2   -1    0    0    0  501  0.00000000000E+00  0.00000000000E+00 -0.29249776170E+04  0.29249776170E+04  0.25500000920E-02 0.  1.
    10030    2    1    2    0    0  0.00000000000E+00  0.00000000000E+00 -0.23434371733E+04  0.35065180607E+04  0.26084422793E+04 0.  0.
        1    1    3    3  502    0 -0.59843357385E+03 -0.15433716138E+03 -0.27156410691E+04  0.27850761422E+04  0.50400001928E-02 0.  1.
       -1    1    3    3    0  502  0.59843357385E+03  0.15433716138E+03  0.37220389576E+03  0.72144191848E+03  0.50400001928E-02 0. -1.
</event>
<event>
 5   0  0.6526351E-07  0.2601252E+04  0.7818609E-02  0.8367776E-01
        2   -1    0    0  501    0  0.00000000000E+00  0.00000000000E+00  0.21238811777E+04  0.21238811777E+04  0.25500000920E-02 0.  1.
       -2   -1    0    0    0  501  0.00000000000E+00  0.00000000000E+00 -0.79647930526E+03  0.79647930527E+03  0.25500000920E-02 0. -1.
    10030    2    1    2    0    0  0.00000000000E+00  0.00000000000E+00  0.13274018725E+04  0.29203604830E+04  0.26012515487E+04 0.  0.
        3    1    3    3  502    0  0.13012038727E+03  0.31203058038E+03 -0.74628832692E+03  0.81929278977E+03  0.10100000352E+00 0. -1.
       -3    1    3    3    0  502 -0.13012038727E+03 -0.31203058038E+03  0.20736901994E+04  0.21010676932E+04  0.10100000352E+00 0.  1.
</event>
<event>
 5   0  0.7160320E-07  0.2599707E+04  0.7818609E-02  0.8368301E-01
        2   -1    0    0  501    0  0.00000000000E+00  0.00000000000E+00  0.26938951969E+04  0.26938951969E+04  0.25500000920E-02 0. -1.
       -2   -1    0    0    0  501  0.00000000000E+00  0.00000000000E+00 -0.62720314082E+03  0.62720314083E+03  0.25500000920E-02 0.  1.
    10030    2    1    2    0    0  0.00000000000E+00  0.00000000000E+00  0.20666920561E+04  0.33210983377E+04  0.25997073132E+04 0.  0.
        1    1    3    3  502    0  0.94054197975E+03  0.20191195701E+03 -0.83439694150E+02  0.96558264102E+03  0.50400001928E-02 0.  1.
       -1    1    3    3    0  502 -0.94054197975E+03 -0.20191195701E+03  0.21501317502E+04  0.23555156967E+04  0.50400001928E-02 0. -1.
</event>
<event>
 5   0  0.6768478E-07  0.2596865E+04  0.7818609E-02  0.8369267E-01
       -2   -1    0    0    0  501  0.00000000000E+00  0.00000000000E+00  0.17459645212E+04  0.17459645212E+04  0.25500000920E-02 0.  1.
        2   -1    0    0  501    0  0.00000000000E+00  0.00000000000E+00 -0.96561338797E+03  0.96561338798E+03  0.25500000920E-02 0. -1.
    10030    2    1    2    0    0  0.00000000000E+00  0.00000000000E+00  0.78035113322E+03  0.27115779092E+04  0.25968648148E+04 0.  0.
        4    1    3    3  502    0  0.10476977121E+04 -0.17512907772E+03 -0.38952537329E+03  0.11314028103E+04  0.12699999809E+01 0. -1.
       -4    1    3    3    0  502 -0.10476977121E+04  0.17512907772E+03  0.11698765065E+04  0.15801750989E+04  0.12699999809E+01 0.  1.
</event>
<event>
 5   0  0.2641626E-07  0.2600476E+04  0.7818609E-02  0.8368040E-01
       -1   -1    0    0    0  501  0.00000000000E+00  0.00000000000E+00  0.10059593819E+04  0.10059593819E+04  0.50400001928E-02 0.  1.
        1   -1    0    0  501    0  0.00000000000E+00  0.00000000000E+00 -0.16806035875E+04  0.16806035875E+04  0.50400001928E-02 0. -1.
    10030    2    1    2    0    0  0.00000000000E+00  0.00000000000E+00 -0.67464420561E+03  0.26865629694E+04  0.26004760688E+04 0.  0.
        3    1    3    3  502    0  0.10326119205E+04 -0.41090059026E+03 -0.10345659085E+04  0.15183719251E+04  0.10100000352E+00 0. -1.
       -3    1    3    3    0  502 -0.10326119205E+04  0.41090059026E+03  0.35992170293E+03  0.11681910443E+04  0.10100000352E+00 0.  1.
</event>
<event>
 5   0  0.2623263E-07  0.2598309E+04  0.7818609E-02  0.8368776E-01
       -1   -1    0    0    0  501  0.00000000000E+00  0.00000000000E+00  0.11536911324E+04  0.11536911324E+04  0.50400001928E-02 0. -1.
        1   -1    0    0  501    0  0.00000000000E+00  0.00000000000E+00 -0.14629586433E+04  0.14629586433E+04  0.50400001928E-02 0.  1.
    10030    2    1    2    0    0  0.00000000000E+00  0.00000000000E+00 -0.30926751093E+03  0.26166497757E+04  0.25983089992E+04 0.  0.
        1    1    3    3  502    0 -0.34195606235E+03  0.46247531972E+03  0.10184859546E+04  0.11696713255E+04  0.50400001928E-02 0. -1.
       -1    1    3    3    0  502  0.34195606235E+03 -0.46247531972E+03 -0.13277534656E+04  0.14469784502E+04  0.50400001928E-02 0.  1.
</event>
<event>
 5   0  0.2294625E-07  0.2600854E+04  0.7818609E-02  0.8367911E-01
       -3   -1    0    0    0  501  0.00000000000E+00  0.00000000000E+00  0.11606676273E+04  0.11606676317E+04  0.10100000352E+00 0. -1.
        3   -1    0    0  501    0  0.00000000000E+00  0.00000000000E+00 -0.14570146849E+04  0.14570146884E+04  0.10100000352E+00 0.  1.
    10030    2    1    2    0    0  0.00000000000E+00  0.00000000000E+00 -0.29634705763E+03  0.26176823201E+04  0.26008535427E+04 0.  0.
        4    1    3    3  502    0  0.31548797268E+03 -0.13899389365E+03  0.11138361978E+04  0.11659694043E+04  0.12699999809E+01 0. -1.
       -4    1    3    3    0  502 -0.31548797268E+03  0.13899389365E+03 -0.14101832554E+04  0.14517129159E+04  0.12699999809E+01 0.  1.
</event>
<event>
 5   0  0.2623263E-07  0.2599220E+04  0.7818609E-02  0.8368466E-01
        1   -1    0    0  501    0  0.00000000000E+00  0.00000000000E+00  0.15649559517E+04  0.15649559517E+04  0.50400001928E-02 0. -1.
       -1   -1    0    0    0  501  0.00000000000E+00  0.00000000000E+00 -0.10792545526E+04  0.10792545526E+04  0.50400001928E-02 0.  1.
    10030    2    1    2    0    0  0.00000000000E+00  0.00000000000E+00  0.48570139908E+03  0.26442105043E+04  0.25992197564E+04 0.  0.
        1    1    3    3  502    0  0.50472542868E+02 -0.12810223737E+04  0.26041970736E+02  0.12822807742E+04  0.50400001928E-02 0. -1.
       -1    1    3    3    0  502 -0.50472542868E+02  0.12810223737E+04  0.45965942835E+03  0.13619297301E+04  0.50400001928E-02 0.  1.
</event>
<event>
 5   0  0.2755061E-07  0.2600701E+04  0.7818609E-02  0.8367963E-01
       -1   -1    0    0    0  501  0.00000000000E+00  0.00000000000E+00  0.94649508170E+03  0.94649508171E+03  0.50400001928E-02 0.  1.
        1   -1    0    0  501    0  0.00000000000E+00  0.00000000000E+00 -0.17864977711E+04  0.17864977711E+04  0.50400001928E-02 0. -1.
    10030    2    1    2    0    0  0.00000000000E+00  0.00000000000E+00 -0.84000268937E+03  0.27329928528E+04  0.26007009469E+04 0.  0.
        4    1    3    3  502    0 -0.99527663941E+02 -0.12790325780E+04 -0.64312126434E+03  0.14350737490E+04  0.12699999809E+01 0. -1.
       -4    1    3    3    0  502  0.99527663941E+02  0.12790325780E+04 -0.19688142503E+03  0.12979191038E+04  0.12699999809E+01 0.  1.
</event>
<event>
 5   0  0.2641626E-07  0.2600576E+04  0.7818609E-02  0.8368006E-01
        1   -1    0    0  501    0  0.00000000000E+00  0.00000000000E+00  0.14243199023E+04  0.14243199023E+04  0.50400001928E-02 0. -1.
       -1   -1    0    0    0  501  0.00000000000E+00  0.00000000000E+00 -0.11870565650E+04  0.11870565650E+04  0.50400001928E-02 0.  1.
    10030    2    1    2    0    0  0.00000000000E+00  0.00000000000E+00  0.23726333733E+03  0.26113764673E+04  0.26005755445E+04 0.  0.
        3    1    3    3  502    0  0.79084663426E+03 -0.39768269226E+00  0.11550568529E+04  0.13998553142E+04  0.10100000352E+00 0. -1.
       -3    1    3    3    0  502 -0.79084663426E+03  0.39768269226E+00 -0.91779351556E+03  0.12115211531E+04  0.10100000352E+00 0.  1.
</event>
<event>
 5   0  0.6768478E-07  0.2601679E+04  0.7818609E-02  0.8367631E-01
       -2   -1    0    0    0  501  0.00000000000E+00  0.00000000000E+00  0.88111893096E+03  0.88111893096E+03  0.25500000920E-02 0.  1.
        2   -1    0    0  501    0  0.00000000000E+00  0.00000000000E+00 -0.19204938658E+04  0.19204938658E+04  0.25500000920E-02 0. -1.
    10030    2    1    2    0    0  0.00000000000E+00  0.00000000000E+00 -0.10393749349E+04  0.28016127968E+04  0.26016790747E+04 0.  0.
        4    1    3    3  502    0 -0.73140840641E+03 -0.91464262791E+03 -0.11294653958E+04  0.16270289140E+04  0.12699999809E+01 0. -1.
       -4    1    3    3    0  502  0.73140840641E+03  0.91464262791E+03  0.90090460891E+02  0.11745838828E+04  0.12699999809E+01 0.  1.
</event>
<event>
 5   0  0.2793576E-07  0.2598705E+04  0.7818609E-02  0.8368641E-01
        1   -1    0    0  501    0  0.00000000000E+00  0.00000000000E+00  0.21535800051E+04  0.21535800051E+04  0.50400001928E-02 0. -1.
       -1   -1    0    0    0  501  0.00000000000E+00  0.00000000000E+00 -0.78395853122E+03  0.78395853124E+03  0.50400001928E-02 0.  1.
    10030    2    1    2    0    0  0.00000000000E+00  0.00000000000E+00  0.13696214739E+04  0.29375385364E+04  0.25987053836E+04 0.  0.
        2    1    3    3  502    0 -0.10401862688E+04  0.76739841322E+03  0.53557580983E+03  0.13991887816E+04  0.25500000920E-02 0.  1.
       -2    1    3    3    0  502  0.10401862688E+04 -0.76739841322E+03  0.83404566408E+03  0.15383497548E+04  0.25500000920E-02 0. -1.
</event>
<event>
 5   0  0.2641626E-07  0.2600600E+04  0.7818609E-02  0.8367997E-01
       -1   -1    0    0    0  501  0.00000000000E+00  0.00000000000E+00  0.16117144914E+04  0.16117144914E+04  0.50400001928E-02 0. -1.
        1   -1    0    0  501    0  0.00000000000E+00  0.00000000000E+00 -0.10490571143E+04  0.10490571143E+04  0.50400001928E-02 0.  1.
    10030    2    1    2    0    0  0.00000000000E+00  0.00000000000E+00  0.56265737710E+03  0.26607716058E+04  0.26006003565E+04 0.  0.
        3    1    3    3  502    0 -0.10941561381E+04  0.69404455427E+03  0.39296346525E+03  0.13539925381E+04  0.10100000352E+00 0.  1.
       -3    1    3    3    0  502  0.10941561381E+04 -0.69404455427E+03  0.16969391185E+03  0.13067790677E+04  0.10100000352E+00 0. -1.
</event>
<event>
 5   0  0.6599814E-07  0.2599700E+04  0.7818609E-02  0.8368303E-01
       -2   -1    0    0    0  501  0.00000000000E+00  0.00000000000E+00  0.19085525445E+04  0.19085525445E+04  0.25500000920E-02 0.  1.
        2   -1    0    0  501    0  0.00000000000E+00  0.00000000000E+00 -0.88528352714E+03  0.88528352714E+03  0.25500000920E-02 0. -1.
    10030    2    1    2    0    0  0.00000000000E+00  0.00000000000E+00  0.10232690173E+04  0.27938360716E+04  0.25997000814E+04 0.  0.
        5    1    3    3  502    0 -0.42385000411E+03  0.25945038083E+03 -0.77915181785E+03  0.92415527448E+03  0.46999998093E+01 0. -1.
       -5    1    3    3    0  502  0.42385000411E+03 -0.25945038083E+03  0.18024208352E+04  0.18696807971E+04  0.46999998093E+01 0.  1.
</event>
<event>
 5   0  0.2793576E-07  0.2603232E+04  0.7818609E-02  0.8367104E-01
       -1   -1    0    0    0  501  0.00000000000E+00  0.00000000000E+00  0.84578272626E+03  0.84578272627E+03  0.50400001928E-02 0. -1.
        1   -1    0    0  501    0  0.00000000000E+00  0.00000000000E+00 -0.20031202307E+04  0.20031202307E+04  0.50400001928E-02 0.  1.
    10030    2    1    2    0    0  0.00000000000E+00  0.00000000000E+00 -0.11573375045E+04  0.28489029570E+04  0.26032322138E+04 0.  0.
        2    1    3    3  502    0  0.22035134945E+03 -0.12559689781E+04 -0.29288962827E+03  0.13083566507E+04  0.25500000920E-02 0. -1.
       -2    1    3    3    0  502 -0.22035134945E+03  0.12559689781E+04 -0.86444787621E+03  0.15405463063E+04  0.25500000920E-02 0.  1.
</event>
<event>
 5   0  0.2864801E-07  0.2600349E+04  0.7818609E-02  0.8368083E-01
       -1   -1    0    0    0  501  0.00000000000E+00  0.00000000000E+00  0.13265025268E+04  0.13265025268E+04  0.50400001928E-02 0.  1.
        1   -1    0    0  501    0  0.00000000000E+00  0.00000000000E+00 -0.12743690874E+04  0.12743690874E+04  0.50400001928E-02 0. -1.
    10030    2    1    2    0    0  0.00000000000E+00  0.00000000000E+00  0.52133439374E+02  0.26008716142E+04  0.26003490646E+04 0.  0.
        5    1    3    3  502    0  0.41512886639E+01  0.12969944781E+04 -0.64614695247E+02  0.12986181341E+04  0.46999998093E+01 0. -1.
       -5    1    3    3    0  502 -0.41512886639E+01 -0.12969944781E+04  0.11674813462E+03  0.13022534801E+04  0.46999998093E+01 0.  1.
</event>
<event>
 5   0  0.2864801E-07  0.2600838E+04  0.7818609E-02  0.8367916E-01
        1   -1    0    0  501    0  0.00000000000E+00  0.00000000000E+00  0.15856681761E+04  0.15856681761E+04  0.50400001928E-02 0. -1.
       -1   -1    0    0    0  501  0.00000000000E+00  0.00000000000E+00 -0.10664843014E+04  0.10664843014E+04  0.50400001928E-02 0.  1.
    10030    2    1    2    0    0  0.00000000000E+00  0.00000000000E+00  0.51918387470E+03  0.26521524774E+04  0.26008384932E+04 0.  0.
        5    1    3    3  502    0 -0.11556759636E+04 -0.43339944903E+03  0.67711632446E+03  0.14078105775E+04  0.46999998093E+01 0. -1.
       -5    1    3    3    0  502  0.11556759636E+04  0.43339944903E+03 -0.15793244976E+03  0.12443418999E+04  0.46999998093E+01 0.  1.
</event>
<event>
 5   0  0.6780984E-07  0.2599962E+04  0.7818609E-02  0.8368214E-01
        2   -1    0    0  501    0  0.00000000000E+00  0.00000000000E+00  0.20838777260E+04  0.20838777260E+04  0.25500000920E-02 0. -1.
       -2   -1    0    0    0  501  0.00000000000E+00  0.00000000000E+00 -0.81096411290E+03  0.81096411290E+03  0.25500000920E-02 0.  1.
    10030    2    1    2    0    0  0.00000000000E+00  0.00000000000E+00  0.12729136131E+04  0.28948418389E+04  0.25999615778E+04 0.  0.
        2    1    3    3  502    0 -0.79436815948E+03 -0.98770649628E+03  0.31497959395E+03  0.13060616525E+04  0.25500000920E-02 0.  1.
       -2    1    3    3    0  502  0.79436815948E+03  0.98770649628E+03  0.95793401917E+03  0.15887801864E+04  0.25500000920E-02 0. -1.
</event>
<event>
 5   0  0.6780984E-07  0.2601409E+04  0.7818609E-02  0.8367723E-01
        2   -1    0    0  501    0  0.00000000000E+00  0.00000000000E+00  0.10075175268E+04  0.10075175268E+04  0.25500000920E-02 0. -1.
       -2   -1    0    0    0  501  0.00000000000E+00  0.00000000000E+00 -0.16792091971E+04  0.16792091971E+04  0.25500000920E-02 0.  1.
    10030    2    1    2    0    0  0.00000000000E+00  0.00000000000E+00 -0.67169167036E+03  0.26867267239E+04  0.26014093851E+04 0.  0.
        2    1    3    3  502    0  0.10806692092E+04 -0.64772438972E+03 -0.20753278795E+01  0.12599194941E+04  0.25500000920E-02 0. -1.
       -2    1    3    3    0  502 -0.10806692092E+04  0.64772438972E+03 -0.66961634248E+03  0.14268072297E+04  0.25500000920E-02 0.  1.
</event>
<event>
 5   0  0.6599814E-07  0.2600245E+04  0.7818609E-02  0.8368118E-01
       -2   -1    0    0    0  501  0.00000000000E+00  0.00000000000E+00  0.94253871279E+03  0.94253871279E+03  0.25500000920E-02 0.  1.
        2   -1    0    0  501    0  0.00000000000E+00  0.00000000000E+00 -0.17933680917E+04  0.17933680917E+04  0.25500000920E-02 0. -1.
    10030    2    1    2    0    0  0.00000000000E+00  0.00000000000E+00 -0.85082937895E+03  0.27359068045E+04  0.26002452598E+04 0.  0.
        5    1    3    3  502    0 -0.21334336728E+03 -0.12664452917E+04 -0.21263195085E+03  0.13017808978E+04  0.46999998093E+01 0.  1.
       -5    1    3    3    0  502  0.21334336728E+03  0.12664452917E+04 -0.63819742810E+03  0.14341259068E+04  0.46999998093E+01 0. -1.
</event>
<event>
 5   0  0.6768478E-07  0.2599864E+04  0.7818609E-02  0.8368248E-01
        2   -1    0    0  501    0  0.00000000000E+00  0.00000000000E+00  0.12021710808E+04  0.12021710808E+04  0.25500000920E-02 0.  1.
       -2   -1    0    0    0  501  0.00000000000E+00  0.00000000000E+00 -0.14056425174E+04  0.14056425174E+04  0.25500000920E-02 0. -1.
    10030    2    1    2    0    0  0.00000000000E+00  0.00000000000E+00 -0.20347143660E+03  0.26078135982E+04  0.25998636767E+04 0.  0.
        4    1    3    3  502    0  0.90277599174E+03 -0.89764842472E+03  0.16182998486E+03  0.12833424105E+04  0.12699999809E+01 0.  1.
       -4    1    3    3    0  502 -0.90277599174E+03  0.89764842472E+03 -0.36530142146E+03  0.13244711877E+04  0.12699999809E+01 0. -1.
</event>
<event>
 5   0  0.2623263E-07  0.2600390E+04  0.7818609E-02  0.8368069E-01
        1   -1    0    0  501    0  0.00000000000E+00  0.00000000000E+00  0.12525816038E+04  0.12525816039E+04  0.50400001928E-02 0.  1.
       -1   -1    0    0    0  501  0.00000000000E+00  0.00000000000E+00 -0.13496180006E+04  0.13496180006E+04  0.50400001928E-02 0. -1.
    10030    2    1    2    0    0  0.00000000000E+00  0.00000000000E+00 -0.97036396718E+02  0.26021996044E+04  0.26003897244E+04 0.  0.
        1    1    3    3  502    0  0.20267219941E+03  0.14455217714E+03 -0.13255471911E+04  0.13487203966E+04  0.50400001928E-02 0. -1.
       -1    1    3    3    0  502 -0.20267219941E+03 -0.14455217714E+03  0.12285107944E+04  0.12534792078E+04  0.50400001928E-02 0.  1.
</event>
<event>
 5   0  0.6768478E-07  0.2600369E+04  0.7818609E-02  0.8368076E-01
        2   -1    0    0  501    0  0.00000000000E+00  0.00000000000E+00  0.13830626025E+04  0.13830626025E+04  0.25500000920E-02 0.  1.
       -2   -1    0    0    0  501  0.00000000000E+00  0.00000000000E+00 -0.12222731357E+04  0.12222731357E+04  0.25500000920E-02 0. -1.
    10030    2    1    2    0    0  0.00000000000E+00  0.00000000000E+00  0.16078946680E+03  0.26053357382E+04  0.26003694076E+04 0.  0.
        4    1    3    3  502    0 -0.31302872039E+03 -0.69001738696E+03 -0.97820620728E+03  0.12373358360E+04  0.12699999809E+01 0. -1.
       -4    1    3    3    0  502  0.31302872039E+03  0.69001738696E+03  0.11389956741E+04  0.13679999022E+04  0.12699999809E+01 0.  1.
</event>
<event>
 5   0  0.2755061E-07  0.2596666E+04  0.7818609E-02  0.8369335E-01
       -1   -1    0    0    0  501  0.00000000000E+00  0.00000000000E+00  0.76652987596E+03  0.76652987597E+03  0.50400001928E-02 0. -1.
        1   -1    0    0  501    0  0.00000000000E+00  0.00000000000E+00 -0.21990899821E+04  0.21990899821E+04  0.50400001928E-02 0.  1.
    10030    2    1    2    0    0  0.00000000000E+00  0.00000000000E+00 -0.14325601062E+04  0.29656198581E+04  0.25966656860E+04 0.  0.
        4    1    3    3  502    0  0.13112614757E+03 -0.32699904617E+02  0.75847454371E+03  0.77042105157E+03  0.12699999809E+01 0. -1.
       -4    1    3    3    0  502 -0.13112614757E+03  0.32699904617E+02 -0.21910346499E+04  0.21951988066E+04  0.12699999809E+01 0.  1.
</event>
<event>
 5   0  0.7160320E-07  0.2599792E+04  0.7818609E-02  0.8368272E-01
        2   -1    0    0  501    0  0.00000000000E+00  0.00000000000E+00  0.14770388655E+04  0.14770388655E+04  0.25500000920E-02 0. -1.
       -2   -1    0    0    0  501  0.00000000000E+00  0.00000000000E+00 -0.11439981408E+04  0.11439981408E+04  0.25500000920E-02 0.  1.
    10030    2    1    2    0    0  0.00000000000E+00  0.00000000000E+00  0.33304072469E+03  0.26210370064E+04  0.25997920810E+04 0.  0.
        1    1    3    3  502    0 -0.64941187307E+03 -0.27670433216E+03  0.12669659045E+04  0.14503460523E+04  0.50400001928E-02 0. -1.
       -1    1    3    3    0  502  0.64941187307E+03  0.27670433216E+03 -0.93392517982E+03  0.11706909540E+04  0.50400001928E-02 0.  1.
</event>
<event>
 5   0  0.2641626E-07  0.2600014E+04  0.7818609E-02  0.8368196E-01
        1   -1    0    0  501    0  0.00000000000E+00  0.00000000000E+00  0.16538535934E+04  0.16538535934E+04  0.50400001928E-02 0. -1.
       -1   -1    0    0    0  501  0.00000000000E+00  0.00000000000E+00 -0.10218667780E+04  0.10218667780E+04  0.50400001928E-02 0.  1.
    10030    2    1    2    0    0  0.00000000000E+00  0.00000000000E+00  0.63198681539E+03  0.26757203715E+04  0.26000138791E+04 0.  0.
        3    1    3    3  502    0  0.78781858717E+03 -0.35256701170E+03  0.13164400353E+04  0.15741588233E+04  0.10100000352E+00 0. -1.
       -3    1    3    3    0  502 -0.78781858717E+03  0.35256701170E+03 -0.68445321992E+03  0.11015615482E+04  0.10100000352E+00 0.  1.
</event>
<event>
 5   0  0.6526351E-07  0.2599408E+04  0.7818609E-02  0.8368402E-01
       -2   -1    0    0    0  501  0.00000000000E+00  0.00000000000E+00  0.30277361122E+04  0.30277361122E+04  0.25500000920E-02 0.  1.
        2   -1    0    0  501    0  0.00000000000E+00  0.00000000000E+00 -0.55791873743E+03  0.55791873744E+03  0.25500000920E-02 0. -1.
    10030    2    1    2    0    0  0.00000000000E+00  0.00000000000E+00  0.24698173748E+04  0.35856548496E+04  0.25994081703E+04 0.  0.
        3    1    3    3  502    0 -0.71746351467E+03  0.43344722647E+03  0.26050476794E+04  0.27365861607E+04  0.10100000352E+00 0.  1.
       -3    1    3    3    0  502  0.71746351467E+03 -0.43344722647E+03 -0.13523030461E+03  0.84906868892E+03  0.10100000352E+00 0. -1.
</event>
<event>
 5   0  0.2864801E-07  0.2598910E+04  0.7818609E-02  0.8368571E-01
       -1   -1    0    0    0  501  0.00000000000E+00  0.00000000000E+00  0.12520779643E+04  0.12520779643E+04  0.50400001928E-02 0.  1.
        1   -1    0    0  501    0  0.00000000000E+00  0.00000000000E+00 -0.13486249169E+04  0.13486249169E+04  0.50400001928E-02 0. -1.
    10030    2    1    2    0    0  0.00000000000E+00  0.00000000000E+00 -0.96546952607E+02  0.26007028812E+04  0.25989101874E+04 0.  0.
        5    1    3    3  502    0  0.10746876076E+04  0.11134521267E+03  0.67417343251E+03  0.12735317497E+04  0.46999998093E+01 0.  1.
       -5    1    3    3    0  502 -0.10746876076E+04 -0.11134521267E+03 -0.77072038511E+03  0.13271711315E+04  0.46999998093E+01 0. -1.
</event>
<event>
 5   0  0.7160320E-07  0.2600977E+04  0.7818609E-02  0.8367869E-01
       -2   -1    0    0    0  501  0.00000000000E+00  0.00000000000E+00  0.84777595495E+03  0.84777595495E+03  0.25500000920E-02 0. -1.
        2   -1    0    0  501    0  0.00000000000E+00  0.00000000000E+00 -0.19949494748E+04  0.19949494748E+04  0.25500000920E-02 0.  1.
    10030    2    1    2    0    0  0.00000000000E+00  0.00000000000E+00 -0.11471735198E+04  0.28427254297E+04  0.26009768904E+04 0.  0.
        1    1    3    3  502    0  0.68198408942E+03 -0.58594939547E+03  0.45333476842E+03  0.10069515403E+04  0.50400001928E-02 0. -1.
       -1    1    3    3    0  502 -0.68198408942E+03  0.58594939547E+03 -0.16005082882E+04  0.18357738894E+04  0.50400001928E-02 0.  1.
</event>
<event>
 5   0  0.6526351E-07  0.2599305E+04  0.7818609E-02  0.8368437E-01
        2   -1    0    0  501    0  0.00000000000E+00  0.00000000000E+00  0.11833499218E+04  0.11833499218E+04  0.25500000920E-02 0. -1.
       -2   -1    0    0    0  501  0.00000000000E+00  0.00000000000E+00 -0.14273850897E+04  0.14273850897E+04  0.25500000920E-02 0.  1.
    10030    2    1    2    0    0  0.00000000000E+00  0.00000000000E+00 -0.24403516788E+03  0.26107350116E+04  0.25993045488E+04 0.  0.
        3    1    3    3  502    0 -0.18917133489E+03 -0.30849586275E+03 -0.13757617905E+04  0.14225596668E+04  0.10100000352E+00 0.  1.
       -3    1    3    3    0  502  0.18917133489E+03  0.30849586275E+03  0.11317266226E+04  0.11881753447E+04  0.10100000352E+00 0. -1.
</event>
<event>
 5   0  0.2294625E-07  0.2598792E+04  0.7818609E-02  0.8368611E-01
        3   -1    0    0  501    0  0.00000000000E+00  0.00000000000E+00  0.98415397844E+03  0.98415398362E+03  0.10100000352E+00 0.  1.
       -3   -1    0    0    0  501  0.00000000000E+00  0.00000000000E+00 -0.17156162803E+04  0.17156162833E+04  0.10100000352E+00 0. -1.
    10030    2    1    2    0    0  0.00000000000E+00  0.00000000000E+00 -0.73146230187E+03  0.26997702669E+04  0.25987924879E+04 0.  0.
        4    1    3    3  502    0  0.40220990788E+03 -0.11775596877E+04  0.22986032422E+02  0.12445680370E+04  0.12699999809E+01 0.  1.
       -4    1    3    3    0  502 -0.40220990788E+03  0.11775596877E+04 -0.75444833430E+03  0.14552022300E+04  0.12699999809E+01 0. -1.
</event>
<event>
 5   0  0.2755061E-07  0.2599633E+04  0.7818609E-02  0.8368326E-01
        1   -1    0    0  501    0  0.00000000000E+00  0.00000000000E+00  0.16249422452E+04  0.16249422452E+04  0.50400001928E-02 0. -1.
       -1   -1    0    0    0  501  0.00000000000E+00  0.00000000000E+00 -0.10397434990E+04  0.10397434990E+04  0.50400001928E-02 0.  1.
    10030    2    1    2    0    0  0.00000000000E+00  0.00000000000E+00  0.58519874618E+03  0.26646857441E+04  0.25996331554E+04 0.  0.
        4    1    3    3  502    0 -0.31849386906E+03  0.12318923533E+04  0.20389636000E+02  0.12725621654E+04  0.12699999809E+01 0.  1.
       -4    1    3    3    0  502  0.31849386906E+03 -0.12318923533E+04  0.56480911018E+03  0.13921235787E+04  0.12699999809E+01 0. -1.
</event>
<event>
 5   0  0.2793576E-07  0.2597158E+04  0.7818609E-02  0.8369167E-01
        1   -1    0    0  501    0  0.00000000000E+00  0.00000000000E+00  0.11784837479E+04  0.11784837479E+04  0.50400001928E-02 0. -1.
       -1   -1    0    0    0  501  0.00000000000E+00  0.00000000000E+00 -0.14309128341E+04  0.14309128341E+04  0.50400001928E-02 0.  1.
    10030    2    1    2    0    0  0.00000000000E+00  0.00000000000E+00 -0.25242908622E+03  0.26093965820E+04  0.25971580774E+04 0.  0.
        2    1    3    3  502    0  0.14685349483E+03 -0.96735928872E+03 -0.98402795576E+03  0.13876818656E+04  0.25500000920E-02 0.  1.
       -2    1    3    3    0  502 -0.14685349483E+03  0.96735928872E+03  0.73159886954E+03  0.12217147164E+04  0.25500000920E-02 0. -1.
</event>
<event>
 5   0  0.6768478E-07  0.2600885E+04  0.7818609E-02  0.8367901E-01
        2   -1    0    0  501    0  0.00000000000E+00  0.00000000000E+00  0.94609860891E+03  0.94609860891E+03  0.25500000920E-02 0. -1.
       -2   -1    0    0    0  501  0.00000000000E+00  0.00000000000E+00 -0.17874998634E+04  0.17874998634E+04  0.25500000920E-02 0.  1.
    10030    2    1    2    0    0  0.00000000000E+00  0.00000000000E+00 -0.84140125447E+03  0.27335984723E+04  0.26008853371E+04 0.  0.
        4    1    3    3  502    0 -0.95236254017E+03  0.28857466360E+02 -0.13509165703E+04  0.16531195825E+04  0.12699999809E+01 0.  1.
       -4    1    3    3    0  502  0.95236254017E+03 -0.28857466360E+02  0.50951531583E+03  0.10804788898E+04  0.12699999809E+01 0. -1.
</event>
<event>
 5   0  0.7160320E-07  0.2599810E+04  0.7818609E-02  0.8368266E-01
       -2   -1    0    0    0  501  0.00000000000E+00  0.00000000000E+00  0.21291875187E+04  0.21291875187E+04  0.25500000920E-02 0.  1.
        2   -1    0    0  501    0  0.00000000000E+00  0.00000000000E+00 -0.79361421045E+03  0.79361421046E+03  0.25500000920E-02 0. -1.
    10030    2    1    2    0    0  0.00000000000E+00  0.00000000000E+00  0.13355733082E+04  0.29228017291E+04  0.25998103558E+04 0.  0.
        1    1    3    3  502    0  0.45548265158E+03  0.72242986933E+03  0.17695293223E+04  0.19648418217E+04  0.50400001928E-02 0.  1.
       -1    1    3    3    0  502 -0.45548265158E+03 -0.72242986933E+03 -0.43395601407E+03  0.95795990739E+03  0.50400001928E-02 0. -1.
</event>
<event>
 5   0  0.2623263E-07  0.2599337E+04  0.7818609E-02  0.8368426E-01
        1   -1    0    0  501    0  0.00000000000E+00  0.00000000000E+00  0.20946779271E+04  0.20946779271E+04  0.50400001928E-02 0.  1.
       -1   -1    0    0    0  501  0.00000000000E+00  0.00000000000E+00 -0.80639537883E+03  0.80639537884E+03  0.50400001928E-02 0. -1.
    10030    2    1    2    0    0  0.00000000000E+00  0.00000000000E+00  0.12882825482E+04  0.29010733059E+04  0.25993373006E+04 0.  0.
        1    1    3    3  502    0  0.20781820806E+03  0.10369195510E+04 -0.19903480563E+03  0.10761066010E+04  0.50400001928E-02 0. -1.
       -1    1    3    3    0  502 -0.20781820806E+03 -0.10369195510E+04  0.14873173539E+04  0.18249667049E+04  0.50400001928E-02 0.  1.
</event>
<event>
 5   0  0.6599814E-07  0.2600748E+04  0.7818609E-02  0.8367947E-01
       -2   -1    0    0    0  501  0.00000000000E+00  0.00000000000E+00  0.13318762844E+04  0.13318762844E+04  0.25500000920E-02 0.  1.
        2   -1    0    0  501    0  0.00000000000E+00  0.00000000000E+00 -0.12696170083E+04  0.12696170083E+04  0.25500000920E-02 0. -1.
    10030    2    1    2    0    0  0.00000000000E+00  0.00000000000E+00  0.62259276150E+02  0.26014932927E+04  0.26007481875E+04 0.  0.
        5    1    3    3  502    0  0.40101565692E+02 -0.23842491346E+03  0.13091874073E+04  0.13313332913E+04  0.46999998093E+01 0.  1.
       -5    1    3    3    0  502 -0.40101565692E+02  0.23842491346E+03 -0.12469281312E+04  0.12701600014E+04  0.46999998093E+01 0. -1.
</event>
<event>
 5   0  0.2755061E-07  0.2597678E+04  0.7818609E-02  0.8368990E-01
        1   -1    0    0  501    0  0.00000000000E+00  0.00000000000E+00  0.80320184958E+03  0.80320184959E+03  0.50400001928E-02 0.  1.
       -1   -1    0    0    0  501  0.00000000000E+00  0.00000000000E+00 -0.21003228069E+04  0.21003228069E+04  0.50400001928E-02 0. -1.
    10030    2    1    2    0    0  0.00000000000E+00  0.00000000000E+00 -0.12971209573E+04  0.29035246565E+04  0.25976783198E+04 0.  0.
        4    1    3    3  502    0  0.11156314371E+04  0.16165472897E+02  0.94619301714E+02  0.11197541030E+04  0.12699999809E+01 0.  1.
       -4    1    3    3    0  502 -0.11156314371E+04 -0.16165472897E+02 -0.13917402590E+04  0.17837705535E+04  0.12699999809E+01 0. -1.
</event>
<event>
 5   0  0.2641626E-07  0.2599536E+04  0.7818609E-02  0.8368359E-01
       -1   -1    0    0    0  501  0.00000000000E+00  0.00000000000E+00  0.67822947605E+03  0.67822947607E+03  0.50400001928E-02 0.  1.
        1   -1    0    0  501    0  0.00000000000E+00  0.00000000000E+00 -0.24908923478E+04  0.24908923478E+04  0.50400001928E-02 0. -1.
    10030    2    1    2    0    0  0.00000000000E+00  0.00000000000E+00 -0.18126628718E+04  0.31691218239E+04  0.25995358140E+04 0.  0.
        3    1    3    3  502    0 -0.89720211516E+03  0.61810417194E+03 -0.42247506611E+02  0.10903253023E+04  0.10100000352E+00 0.  1.
       -3    1    3    3    0  502  0.89720211516E+03 -0.61810417194E+03 -0.17704153652E+04  0.20787965216E+04  0.10100000352E+00 0. -1.
</event>
<event>
 5   0  0.2793576E-07  0.2599563E+04  0.7818609E-02  0.8368350E-01
       -1   -1    0    0    0  501  0.00000000000E+00  0.00000000000E+00  0.76042417907E+03  0.76042417909E+03  0.50400001928E-02 0.  1.
        1   -1    0    0  501    0  0.00000000000E+00  0.00000000000E+00 -0.22216961990E+04  0.22216961990E+04  0.50400001928E-02 0. -1.
    10030    2    1    2    0    0  0.00000000000E+00  0.00000000000E+00 -0.14612720199E+04  0.29821203780E+04  0.25995626619E+04 0.  0.
        2    1    3    3  502    0 -0.10930188547E+04  0.42519978304E+03 -0.13734016584E+04  0.18060224771E+04  0.25500000920E-02 0. -1.
       -2    1    3    3    0  502  0.10930188547E+04 -0.42519978304E+03 -0.87870361443E+02  0.11760979010E+04  0.25500000920E-02 0.  1.
</event>
<event>
 5   0  0.6768478E-07  0.2600135E+04  0.7818609E-02  0.8368155E-01
        2   -1    0    0  501    0  0.00000000000E+00  0.00000000000E+00  0.24219047009E+04  0.24219047009E+04  0.25500000920E-02 0. -1.
       -2   -1    0    0    0  501  0.00000000000E+00  0.00000000000E+00 -0.69787041478E+03  0.69787041479E+03  0.25500000920E-02 0.  1.
    10030    2    1    2    0    0  0.00000000000E+00  0.00000000000E+00  0.17240342861E+04  0.31197751157E+04  0.26001351028E+04 0.  0.
        4    1    3    3  502    0  0.10000811004E+04  0.47691920829E+03  0.45977308487E+02  0.11089317673E+04  0.12699999809E+01 0.  1.
       -4    1    3    3    0  502 -0.10000811004E+04 -0.47691920829E+03  0.16780569776E+04  0.20108433484E+04  0.12699999809E+01 0. -1.
</event>
<event>
 5   0  0.2623263E-07  0.2600783E+04  0.7818609E-02  0.8367935E-01
       -1   -1    0    0    0  501  0.00000000000E+00  0.00000000000E+00  0.15545701331E+04  0.15545701332E+04  0.50400001928E-02 0. -1.
        1   -1    0    0  501    0  0.00000000000E+00  0.00000000000E+00 -0.10877718276E+04  0.10877718276E+04  0.50400001928E-02 0.  1.
    10030    2    1    2    0    0  0.00000000000E+00  0.00000000000E+00  0.46679830553E+03  0.26423419608E+04  0.26007826475E+04 0.  0.
        1    1    3    3  502    0 -0.11676213503E+04 -0.16417986285E+03  0.79054416757E+03  0.14195966773E+04  0.50400001928E-02 0. -1.
       -1    1    3    3    0  502  0.11676213503E+04  0.16417986285E+03 -0.32374586204E+03  0.12227452835E+04  0.50400001928E-02 0.  1.
</event>
<event>
 5   0  0.2641626E-07  0.2603508E+04  0.7818609E-02  0.8367011E-01
       -1   -1    0    0    0  501  0.00000000000E+00  0.00000000000E+00  0.11725389428E+04  0.11725389429E+04  0.50400001928E-02 0.  1.
        1   -1    0    0  501    0  0.00000000000E+00  0.00000000000E+00 -0.14452087267E+04  0.14452087267E+04  0.50400001928E-02 0. -1.
    10030    2    1    2    0    0  0.00000000000E+00  0.00000000000E+00 -0.27266978385E+03  0.26177476696E+04  0.26035080277E+04 0.  0.
        3    1    3    3  502    0  0.65443007389E+03 -0.11208111293E+04 -0.35450713551E+02  0.12983655389E+04  0.10100000352E+00 0. -1.
       -3    1    3    3    0  502 -0.65443007389E+03  0.11208111293E+04 -0.23721907030E+03  0.13193821307E+04  0.10100000352E+00 0.  1.
</event>
<event>
 5   0  0.6780984E-07  0.2599141E+04  0.7818609E-02  0.8368493E-01
       -2   -1    0    0    0  501  0.00000000000E+00  0.00000000000E+00  0.10815450621E+04  0.10815450621E+04  0.25500000920E-02 0.  1.
        2   -1    0    0  501    0  0.00000000000E+00  0.00000000000E+00 -0.15615464653E+04  0.15615464653E+04  0.25500000920E-02 0. -1.
    10030    2    1    2    0    0  0.00000000000E+00  0.00000000000E+00 -0.48000140316E+03  0.26430915274E+04  0.25991405263E+04 0.  0.
        2    1    3    3  502    0  0.11144968863E+04 -0.59234274732E+03  0.74928945816E+02  0.12643526355E+04  0.25500000920E-02 0.  1.
       -2    1    3    3    0  502 -0.11144968863E+04  0.59234274732E+03 -0.55493034898E+03  0.13787388919E+04  0.25500000920E-02 0. -1.
</event>
<event>
 5   0  0.6768478E-07  0.2599168E+04  0.7818609E-02  0.8368484E-01
       -2   -1    0    0    0  501  0.00000000000E+00  0.00000000000E+00  0.61961290851E+03  0.61961290851E+03  0.25500000920E-02 0. -1.
        2   -1    0    0  501    0  0.00000000000E+00  0.00000000000E+00 -0.27257640208E+04  0.27257640208E+04  0.25500000920E-02 0.  1.
    10030    2    1    2    0    0  0.00000000000E+00  0.00000000000E+00 -0.21061511123E+04  0.33453769293E+04  0.25991679998E+04 0.  0.
        4    1    3    3  502    0 -0.60442827079E+02 -0.26648582538E+03 -0.26883699942E+04  0.27022218393E+04  0.12699999809E+01 0.  1.
       -4    1    3    3    0  502  0.60442827079E+02  0.26648582538E+03  0.58221888187E+03  0.64315508999E+03  0.12699999809E+01 0. -1.
</event>
<event>
 5   0  0.2864801E-07  0.2601178E+04  0.7818609E-02  0.8367801E-01
        1   -1    0    0  501    0  0.00000000000E+00  0.00000000000E+00  0.65727117138E+03  0.65727117140E+03  0.50400001928E-02 0.  1.
       -1   -1    0    0    0  501  0.00000000000E+00  0.00000000000E+00 -0.25735670985E+04  0.25735670986E+04  0.50400001928E-02 0. -1.
    10030    2    1    2    0    0  0.00000000000E+00  0.00000000000E+00 -0.19162959272E+04  0.32308382700E+04  0.26011777806E+04 0.  0.
        5    1    3    3  502    0 -0.86552316680E+03 -0.28743992295E+03  0.19353547458E+03  0.93232512113E+03  0.46999998093E+01 0.  1.
       -5    1    3    3    0  502  0.86552316680E+03  0.28743992295E+03 -0.21098314017E+04  0.22985131488E+04  0.46999998093E+01 0. -1.
</event>
<event>
 5   0  0.6768478E-07  0.2602155E+04  0.7818609E-02  0.8367470E-01
       -2   -1    0    0    0  501  0.00000000000E+00  0.00000000000E+00  0.16271577359E+04  0.16271577359E+04  0.25500000920E-02 0.  1.
        2   -1    0    0  501    0  0.00000000000E+00  0.00000000000E+00 -0.10403434103E+04  0.10403434103E+04  0.25500000920E-02 0. -1.
    10030    2    1    2    0    0  0.00000000000E+00  0.00000000000E+00  0.58681432563E+03  0.26675011462E+04  0.26021551284E+04 0.  0.
        4    1    3    3  502    0  0.97670185083E+03 -0.83294996538E+03  0.51098483269E+03  0.13816147301E+04  0.12699999809E+01 0.  1.
       -4    1    3    3    0  502 -0.97670185083E+03  0.83294996538E+03  0.75829492944E+02  0.12858864161E+04  0.12699999809E+01 0. -1.
</event>
<event>
 5   0  0.2793576E-07  0.2599592E+04  0.7818609E-02  0.8368340E-01
        1   -1    0    0  501    0  0.00000000000E+00  0.00000000000E+00  0.22523157555E+04  0.22523157555E+04  0.50400001928E-02 0.  1.
       -1   -1    0    0    0  501  0.00000000000E+00  0.00000000000E+00 -0.75010334573E+03  0.75010334574E+03  0.50400001928E-02 0. -1.
    10030    2    1    2    0    0  0.00000000000E+00  0.00000000000E+00  0.15022124098E+04  0.30024191013E+04  0.25995919556E+04 0.  0.
        2    1    3    3  502    0 -0.51287401255E+03 -0.68259348821E+03 -0.38080902001E+03  0.93487385920E+03  0.25500000920E-02 0. -1.
       -2    1    3    3    0  502  0.51287401255E+03  0.68259348821E+03  0.18830214298E+04  0.20675452421E+04  0.25500000920E-02 0.  1.
</event>
<event>
 5   0  0.6599814E-07  0.2599729E+04  0.7818609E-02  0.8368293E-01
       -2   -1    0    0    0  501  0.00000000000E+00  0.00000000000E+00  0.92272808515E+03  0.92272808516E+03  0.25500000920E-02 0.  1.
        2   -1    0    0  501    0  0.00000000000E+00  0.00000000000E+00 -0.18311431495E+04  0.18311431495E+04  0.25500000920E-02 0. -1.
    10030    2    1    2    0    0  0.00000000000E+00  0.00000000000E+00 -0.90841506434E+03  0.27538712347E+04  0.25997286104E+04 0.  0.
        5    1    3    3  502    0  0.82137937956E+03 -0.35894475916E+03 -0.14513605572E+04  0.17058648781E+04  0.46999998093E+01 0.  1.
       -5    1    3    3    0  502 -0.82137937956E+03  0.35894475916E+03  0.54294549283E+03  0.10480063566E+04  0.46999998093E+01 0. -1.
</event>
<event>
 5   0  0.2755061E-07  0.2599910E+04  0.7818609E-02  0.8368232E-01
        1   -1    0    0  501    0  0.00000000000E+00  0.00000000000E+00  0.16584472054E+04  0.16584472054E+04  0.50400001928E-02 0. -1.
       -1   -1    0    0    0  501  0.00000000000E+00  0.00000000000E+00 -0.10189548243E+04  0.10189548243E+04  0.50400001928E-02 0.  1.
    10030    2    1    2    0    0  0.00000000000E+00  0.00000000000E+00  0.63949238108E+03  0.26774020297E+04  0.25999098298E+04 0.  0.
        4    1    3    3  502    0 -0.98126017218E+02  0.79894206943E+03 -0.73143479380E+03  0.10876284366E+04  0.12699999809E+01 0.  1.
       -4    1    3    3    0  502  0.98126017218E+02 -0.79894206943E+03  0.13709271749E+04  0.15897735931E+04  0.12699999809E+01 0. -1.
</event>
<event>
 5   0  0.6526351E-07  0.2601110E+04  0.7818609E-02  0.8367824E-01
        2   -1    0    0  501    0  0.00000000000E+00  0.00000000000E+00  0.12155337597E+04  0.12155337597E+04  0.25500000920E-02 0.  1.
       -2   -1    0    0    0  501  0.00000000000E+00  0.00000000000E+00 -0.13915226148E+04  0.13915226148E+04  0.25500000920E-02 0. -1.
    10030    2    1    2    0    0  0.00000000000E+00  0.00000000000E+00 -0.17598885511E+03  0.26070563744E+04  0.26011095445E+04 0.  0.
        3    1    3    3  502    0  0.57628727317E+03 -0.51546875121E+03  0.96016301097E+03  0.12327725145E+04  0.10100000352E+00 0.  1.
       -3    1    3    3    0  502 -0.57628727317E+03  0.51546875121E+03 -0.11361518661E+04  0.13742838599E+04  0.10100000352E+00 0. -1.
</event>
<event>
 5   0  0.2294625E-07  0.2600144E+04  0.7818609E-02  0.8368152E-01
        4   -1    0    0  501    0  0.00000000000E+00  0.00000000000E+00  0.17159630300E+04  0.17159635000E+04  0.12699999809E+01 0. -1.
       -4   -1    0    0    0  501  0.00000000000E+00  0.00000000000E+00 -0.98497772906E+03  0.98497854781E+03  0.12699999809E+01 0.  1.
    10030    2    1    2    0    0  0.00000000000E+00  0.00000000000E+00  0.73098530099E+03  0.27009420478E+04  0.26001439259E+04 0.  0.
        5    1    3    3  502    0 -0.26125759014E+03 -0.16963995955E+01 -0.95741887462E+03  0.99243710010E+03  0.46999998093E+01 0.  1.
       -5    1    3    3    0  502  0.26125759014E+03  0.16963995955E+01  0.16884041756E+04  0.17085049477E+04  0.46999998093E+01 0. -1.
</event>
<event>
 5   0  0.6780984E-07  0.2599678E+04  0.7818609E-02  0.8368311E-01
       -2   -1    0    0    0  501  0.00000000000E+00  0.00000000000E+00  0.12140024944E+04  0.12140024944E+04  0.25500000920E-02 0. -1.
        2   -1    0    0  501    0  0.00000000000E+00  0.00000000000E+00 -0.13917441666E+04  0.13917441666E+04  0.25500000920E-02 0.  1.
    10030    2    1    2    0    0  0.00000000000E+00  0.00000000000E+00 -0.17774167220E+03  0.26057466610E+04  0.25996775876E+04 0.  0.
        2    1    3    3  502    0  0.12547616640E+04  0.20315455039E+03  0.18357668410E+03  0.12842892991E+04  0.25500000920E-02 0.  1.
       -2    1    3    3    0  502 -0.12547616640E+04 -0.20315455039E+03 -0.36131835630E+03  0.13214573619E+04  0.25500000920E-02 0. -1.
</event>
<event>
 5   0  0.2294625E-07  0.2594798E+04  0.7818609E-02  0.8369970E-01
        3   -1    0    0  501    0  0.00000000000E+00  0.00000000000E+00  0.23379186171E+04  0.23379186193E+04  0.10100000352E+00 0.  1.
       -3   -1    0    0    0  501  0.00000000000E+00  0.00000000000E+00 -0.71997571056E+03  0.71997571765E+03  0.10100000352E+00 0. -1.
    10030    2    1    2    0    0  0.00000000000E+00  0.00000000000E+00  0.16179429065E+04  0.30578943369E+04  0.25947983596E+04 0.  0.
        3    1    3    3  502    0  0.31379193792E+03  0.12579034040E+04  0.75054178375E+03  0.14980318199E+04  0.10100000352E+00 0.  1.
       -3    1    3    3    0  502 -0.31379193792E+03 -0.12579034040E+04  0.86740112280E+03  0.15598625170E+04  0.10100000352E+00 0. -1.
</event>
<event>
 5   0  0.6768478E-07  0.2600165E+04  0.7818609E-02  0.8368145E-01
        2   -1    0    0  501    0  0.00000000000E+00  0.00000000000E+00  0.12790324713E+04  0.12790324713E+04  0.25500000920E-02 0.  1.
       -2   -1    0    0    0  501  0.00000000000E+00  0.00000000000E+00 -0.13214794045E+04  0.13214794045E+04  0.25500000920E-02 0. -1.
    10030    2    1    2    0    0  0.00000000000E+00  0.00000000000E+00 -0.42446933199E+02  0.26005118758E+04  0.26001654320E+04 0.  0.
        4    1    3    3  502    0  0.24086167214E+02 -0.49045844587E+03  0.11827159007E+04  0.12806046014E+04  0.12699999809E+01 0.  1.
       -4    1    3    3    0  502 -0.24086167214E+02  0.49045844587E+03 -0.12251628339E+04  0.13199072744E+04  0.12699999809E+01 0. -1.
</event>
<event>
 5   0  0.6599814E-07  0.2596951E+04  0.7818609E-02  0.8369238E-01
       -2   -1    0    0    0  501  0.00000000000E+00  0.00000000000E+00  0.13187275092E+04  0.13187275092E+04  0.25500000920E-02 0. -1.
        2   -1    0    0  501    0  0.00000000000E+00  0.00000000000E+00 -0.12785346894E+04  0.12785346894E+04  0.25500000920E-02 0.  1.
    10030    2    1    2    0    0  0.00000000000E+00  0.00000000000E+00  0.40192819770E+02  0.25972621987E+04  0.25969511866E+04 0.  0.
        5    1    3    3  502    0  0.77801023923E+02 -0.12826255332E+04  0.20676151917E+03  0.13015197554E+04  0.46999998093E+01 0. -1.
       -5    1    3    3    0  502 -0.77801023923E+02  0.12826255332E+04 -0.16656869940E+03  0.12957424433E+04  0.46999998093E+01 0.  1.
</event>
<event>
 5   0  0.2755061E-07  0.2600909E+04  0.7818609E-02  0.8367893E-01
       -1   -1    0    0    0  501  0.00000000000E+00  0.00000000000E+00  0.98656575441E+03  0.98656575442E+03  0.50400001928E-02 0.  1.
        1   -1    0    0  501    0  0.00000000000E+00  0.00000000000E+00 -0.17142109181E+04  0.17142109181E+04  0.50400001928E-02 0. -1.
    10030    2    1    2    0    0  0.00000000000E+00  0.00000000000E+00 -0.72764516366E+03  0.27007766725E+04  0.26009089085E+04 0.  0.
        4    1    3    3  502    0  0.49000054738E+03 -0.73305269031E+03  0.62876428959E+03  0.10829648785E+04  0.12699999809E+01 0.  1.
       -4    1    3    3    0  502 -0.49000054738E+03  0.73305269031E+03 -0.13564094533E+04  0.16178117941E+04  0.12699999809E+01 0. -1.
</event>
<event>
 5   0  0.2793576E-07  0.2600268E+04  0.7818609E-02  0.8368110E-01
        1   -1    0    0  501    0  0.00000000000E+00  0.00000000000E+00  0.10146587619E+04  0.10146587619E+04  0.50400001928E-02 0. -1.
       -1   -1    0    0    0  501  0.00000000000E+00  0.00000000000E+00 -0.16659286058E+04  0.16659286058E+04  0.50400001928E-02 0.  1.
    10030    2    1    2    0    0  0.00000000000E+00  0.00000000000E+00 -0.65126984388E+03  0.26805873677E+04  0.26002684912E+04 0.  0.
        2    1    3    3  502    0  0.11533511261E+04  0.59967587629E+03 -0.30214784641E+03  0.13345873136E+04  0.25500000920E-02 0. -1.
       -2    1    3    3    0  502 -0.11533511261E+04 -0.59967587629E+03 -0.34912199746E+03  0.13460000541E+04  0.25500000920E-02 0.  1.
</event>
<event>
 5   0  0.6599814E-07  0.2599921E+04  0.7818609E-02  0.8368228E-01
       -2   -1    0    0    0  501  0.00000000000E+00  0.00000000000E+00  0.14784246834E+04  0.14784246834E+04  0.25500000920E-02 0. -1.
        2   -1    0    0  501    0  0.00000000000E+00  0.00000000000E+00 -0.11430391499E+04  0.11430391499E+04  0.25500000920E-02 0.  1.
    10030    2    1    2    0    0  0.00000000000E+00  0.00000000000E+00  0.33538553356E+03  0.26214638333E+04  0.25999209937E+04 0.  0.
        5    1    3    3  502    0  0.66378532734E+03 -0.11163816706E+04  0.22251430496E+03  0.13177456891E+04  0.46999998093E+01 0. -1.
       -5    1    3    3    0  502 -0.66378532734E+03  0.11163816706E+04  0.11287122860E+03  0.13037181442E+04  0.46999998093E+01 0.  1.
</event>
<event>
 5   0  0.2641626E-07  0.2609768E+04  0.7818609E-02  0.8364891E-01
       -1   -1    0    0    0  501  0.00000000000E+00  0.00000000000E+00  0.99814759673E+03  0.99814759674E+03  0.50400001928E-02 0. -1.
        1   -1    0    0  501    0  0.00000000000E+00  0.00000000000E+00 -0.17058824936E+04  0.17058824936E+04  0.50400001928E-02 0.  1.
    10030    2    1    2    0    0  0.00000000000E+00  0.00000000000E+00 -0.70773489690E+03  0.27040300904E+04  0.26097681976E+04 0.  0.
        3    1    3    3  502    0 -0.96042168671E+03  0.34228706245E+03 -0.11976221579E+04  0.15728538052E+04  0.10100000352E+00 0.  1.
       -3    1    3    3    0  502  0.96042168671E+03 -0.34228706245E+03  0.48988726096E+03  0.11311762852E+04  0.10100000352E+00 0. -1.
</event>
<event>
 5   0  0.7160320E-07  0.2602054E+04  0.7818609E-02  0.8367504E-01
       -2   -1    0    0    0  501  0.00000000000E+00  0.00000000000E+00  0.85813360696E+03  0.85813360697E+03  0.25500000920E-02 0. -1.
        2   -1    0    0  501    0  0.00000000000E+00  0.00000000000E+00 -0.19725028812E+04  0.19725028812E+04  0.25500000920E-02 0.  1.
    10030    2    1    2    0    0  0.00000000000E+00  0.00000000000E+00 -0.11143692742E+04  0.28306364882E+04  0.26020538136E+04 0.  0.
        1    1    3    3  502    0 -0.12954963873E+03  0.32376899142E+03 -0.19207137831E+04  0.19521144704E+04  0.50400001928E-02 0.  1.
       -1    1    3    3    0  502  0.12954963873E+03 -0.32376899142E+03  0.80634450889E+03  0.87852201779E+03  0.50400001928E-02 0. -1.
</event>
<event>
 5   0  0.2623263E-07  0.2600786E+04  0.7818609E-02  0.8367934E-01
       -1   -1    0    0    0  501  0.00000000000E+00  0.00000000000E+00  0.96404020644E+03  0.96404020645E+03  0.50400001928E-02 0. -1.
        1   -1    0    0  501    0  0.00000000000E+00  0.00000000000E+00 -0.17540994562E+04  0.17540994562E+04  0.50400001928E-02 0.  1.
    10030    2    1    2    0    0  0.00000000000E+00  0.00000000000E+00 -0.79005924978E+03  0.27181396627E+04  0.26007863441E+04 0.  0.
        1    1    3    3  502    0  0.90377552753E+03 -0.59036234353E+03  0.36272688833E+03  0.11388189919E+04  0.50400001928E-02 0.  1.
       -1    1    3    3    0  502 -0.90377552753E+03  0.59036234353E+03 -0.11527861381E+04  0.15793206708E+04  0.50400001928E-02 0. -1.
</event>
<event>
 5   0  0.7160320E-07  0.2600232E+04  0.7818609E-02  0.8368123E-01
       -2   -1    0    0    0  501  0.00000000000E+00  0.00000000000E+00  0.16529247503E+04  0.16529247503E+04  0.25500000920E-02 0. -1.
        2   -1    0    0  501    0  0.00000000000E+00  0.00000000000E+00 -0.10226122141E+04  0.10226122141E+04  0.25500000920E-02 0.  1.
    10030    2    1    2    0    0  0.00000000000E+00  0.00000000000E+00  0.63031253622E+03  0.26755369643E+04  0.26002315578E+04 0.  0.
        1    1    3    3  502    0 -0.11013635528E+03 -0.73508849280E+03  0.14127331107E+04  0.15963395476E+04  0.50400001928E-02 0. -1.
       -1    1    3    3    0  502  0.11013635528E+03  0.73508849280E+03 -0.78242057447E+03  0.10791974168E+04  0.50400001928E-02 0.  1.
</event>
<event>
 5   0  0.7160320E-07  0.2595299E+04  0.7818609E-02  0.8369800E-01
        2   -1    0    0  501    0  0.00000000000E+00  0.00000000000E+00  0.17487049432E+04  0.17487049432E+04  0.25500000920E-02 0.  1.
       -2   -1    0    0    0  501  0.00000000000E+00  0.00000000000E+00 -0.96293758017E+03  0.96293758017E+03  0.25500000920E-02 0. -1.
    10030    2    1    2    0    0  0.00000000000E+00  0.00000000000E+00  0.78576736302E+03  0.27116425234E+04  0.25952986005E+04 0.  0.
        1    1    3    3  502    0  0.54755331166E+03  0.17561504811E+03 -0.82255279241E+03  0.10036176416E+04  0.50400001928E-02 0. -1.
       -1    1    3    3    0  502 -0.54755331166E+03 -0.17561504811E+03  0.16083201554E+04  0.17080248817E+04  0.50400001928E-02 0.  1.
</event>
<event>
 5   0  0.6599814E-07  0.2599697E+04  0.7818609E-02  0.8368304E-01
       -2   -1    0    0    0  501  0.00000000000E+00  0.00000000000E+00  0.11969005641E+04  0.11969005641E+04  0.25500000920E-02 0.  1.
        2   -1    0    0  501    0  0.00000000000E+00  0.00000000000E+00 -0.14116513313E+04  0.14116513313E+04  0.25500000920E-02 0. -1.
    10030    2    1    2    0    0  0.00000000000E+00  0.00000000000E+00 -0.21475076726E+03  0.26085518954E+04  0.25996971168E+04 0.  0.
        5    1    3    3  502    0  0.58085698954E+03  0.28889964623E+03  0.10228386779E+04  0.12112303245E+04  0.46999998093E+01 0.  1.
       -5    1    3    3    0  502 -0.58085698954E+03 -0.28889964623E+03 -0.12375894452E+04  0.13973215710E+04  0.46999998093E+01 0. -1.
</event>
<event>
 5   0  0.6526351E-07  0.2597390E+04  0.7818609E-02  0.8369088E-01
       -2   -1    0    0    0  501  0.00000000000E+00  0.00000000000E+00  0.16361942840E+04  0.16361942840E+04  0.25500000920E-02 0. -1.
        2   -1    0    0  501    0  0.00000000000E+00  0.00000000000E+00 -0.10308119452E+04  0.10308119452E+04  0.25500000920E-02 0.  1.
    10030    2    1    2    0    0  0.00000000000E+00  0.00000000000E+00  0.60538233874E+03  0.26670062292E+04  0.25973899304E+04 0.  0.
        3    1    3    3  502    0 -0.94472331284E+03  0.82587166983E+03 -0.41007756658E+02  0.12554870765E+04  0.10100000352E+00 0. -1.
       -3    1    3    3    0  502  0.94472331284E+03 -0.82587166983E+03  0.64639009540E+03  0.14115191527E+04  0.10100000352E+00 0.  1.
</event>
<event>
 5   0  0.2793576E-07  0.2600411E+04  0.7818609E-02  0.8368062E-01
       -1   -1    0    0    0  501  0.00000000000E+00  0.00000000000E+00  0.20537944878E+04  0.20537944878E+04  0.50400001928E-02 0. -1.
        1   -1    0    0  501    0  0.00000000000E+00  0.00000000000E+00 -0.82312706393E+03  0.82312706395E+03  0.50400001928E-02 0.  1.
    10030    2    1    2    0    0  0.00000000000E+00  0.00000000000E+00  0.12306674239E+04  0.28769215518E+04  0.26004106035E+04 0.  0.
        2    1    3    3  502    0  0.95434333219E+03 -0.85513758436E+03  0.85898429208E+03  0.15426877513E+04  0.25500000920E-02 0.  1.
       -2    1    3    3    0  502 -0.95434333219E+03  0.85513758436E+03  0.37168313179E+03  0.13342338005E+04  0.25500000920E-02 0. -1.
</event>
<event>
 5   0  0.2641626E-07  0.2599105E+04  0.7818609E-02  0.8368505E-01
       -1   -1    0    0    0  501  0.00000000000E+00  0.00000000000E+00  0.19388194943E+04  0.19388194943E+04  0.50400001928E-02 0. -1.
        1   -1    0    0  501    0  0.00000000000E+00  0.00000000000E+00 -0.87106424883E+03  0.87106424885E+03  0.50400001928E-02 0.  1.
    10030    2    1    2    0    0  0.00000000000E+00  0.00000000000E+00  0.10677552455E+04  0.28098837432E+04  0.25991047278E+04 0.  0.
        3    1    3    3  502    0 -0.10606770823E+04 -0.71233705584E+03  0.27718512599E+03  0.13073987755E+04  0.10100000352E+00 0. -1.
       -3    1    3    3    0  502  0.10606770823E+04  0.71233705584E+03  0.79057011949E+03  0.15024849676E+04  0.10100000352E+00 0.  1.
</event>
<event>
 5   0  0.2793576E-07  0.2600070E+04  0.7818609E-02  0.8368178E-01
        1   -1    0    0  501    0  0.00000000000E+00  0.00000000000E+00  0.26989640118E+04  0.26989640118E+04  0.50400001928E-02 0.  1.
       -1   -1    0    0    0  501  0.00000000000E+00  0.00000000000E+00 -0.62619971918E+03  0.62619971920E+03  0.50400001928E-02 0. -1.
    10030    2    1    2    0    0  0.00000000000E+00  0.00000000000E+00  0.20727642926E+04  0.33251637310E+04  0.26000696193E+04 0.  0.
        2    1    3    3  502    0  0.71645259049E+03 -0.34623496995E+03 -0.27837807437E+03  0.84301679766E+03  0.25500000920E-02 0. -1.
       -2    1    3    3    0  502 -0.71645259049E+03  0.34623496995E+03  0.23511423670E+04  0.24821469333E+04  0.25500000920E-02 0.  1.
</event>
<event>
 5   0  0.2623263E-07  0.2599499E+04  0.7818609E-02  0.8368371E-01
       -1   -1    0    0    0  501  0.00000000000E+00  0.00000000000E+00  0.11193553147E+04  0.11193553147E+04  0.50400001928E-02 0.  1.
        1   -1    0    0  501    0  0.00000000000E+00  0.00000000000E+00 -0.15092158522E+04  0.15092158523E+04  0.50400001928E-02 0. -1.
    10030    2    1    2    0    0  0.00000000000E+00  0.00000000000E+00 -0.38986053759E+03  0.26285711669E+04  0.25994990173E+04 0.  0.
        1    1    3    3  502    0  0.73142713599E+03  0.99197474743E+03 -0.61228003071E+03  0.13761854493E+04  0.50400001928E-02 0. -1.
       -1    1    3    3    0  502 -0.73142713599E+03 -0.99197474743E+03  0.22241949312E+03  0.12523857176E+04  0.50400001928E-02 0.  1.
</event>
<event>
 5   0  0.7160320E-07  0.2600507E+04  0.7818609E-02  0.8368029E-01
       -2   -1    0    0    0  501  0.00000000000E+00  0.00000000000E+00  0.10677433522E+04  0.10677433522E+04  0.25500000920E-02 0. -1.
        2   -1    0    0  501    0  0.00000000000E+00  0.00000000000E+00 -0.15833944211E+04  0.15833944211E+04  0.25500000920E-02 0.  1.
    10030    2    1    2    0    0  0.00000000000E+00  0.00000000000E+00 -0.51565106889E+03  0.26511377733E+04  0.26005067714E+04 0.  0.
        1    1    3    3  502    0  0.78791087607E+03 -0.49426575795E+03 -0.11841171996E+04  0.15057342828E+04  0.50400001928E-02 0.  1.
       -1    1    3    3    0  502 -0.78791087607E+03  0.49426575795E+03  0.66846613067E+03  0.11454034905E+04  0.50400001928E-02 0. -1.
</event>
<event>
 5   0  0.2641626E-07  0.2605933E+04  0.7818609E-02  0.8366189E-01
        1   -1    0    0  501    0  0.00000000000E+00  0.00000000000E+00  0.12279660614E+04  0.12279660615E+04  0.50400001928E-02 0. -1.
       -1   -1    0    0    0  501  0.00000000000E+00  0.00000000000E+00 -0.13825476361E+04  0.13825476361E+04  0.50400001928E-02 0.  1.
    10030    2    1    2    0    0  0.00000000000E+00  0.00000000000E+00 -0.15458157466E+03  0.26105136976E+04  0.26059329044E+04 0.  0.
        3    1    3    3  502    0  0.12433570339E+04  0.18671502315E+03 -0.41983096432E+03  0.13255403662E+04  0.10100000352E+00 0. -1.
       -3    1    3    3    0  502 -0.12433570339E+04 -0.18671502315E+03  0.26524938966E+03  0.12849733314E+04  0.10100000352E+00 0.  1.
</event>
<event>
 5   0  0.6780984E-07  0.2599833E+04  0.7818609E-02  0.8368258E-01
        2   -1    0    0  501    0  0.00000000000E+00  0.00000000000E+00  0.23516918242E+04  0.23516918242E+04  0.25500000920E-02 0.  1.
       -2   -1    0    0    0  501  0.00000000000E+00  0.00000000000E+00 -0.71853927669E+03  0.71853927670E+03  0.25500000920E-02 0. -1.
    10030    2    1    2    0    0  0.00000000000E+00  0.00000000000E+00  0.16331525475E+04  0.30702311008E+04  0.25998330272E+04 0.  0.
        2    1    3    3  502    0 -0.93740047168E+03  0.39520538764E+03  0.17722400998E+04  0.20434632157E+04  0.25500000920E-02 0.  1.
       -2    1    3    3    0  502  0.93740047168E+03 -0.39520538764E+03 -0.13908755232E+03  0.10267678851E+04  0.25500000920E-02 0. -1.
</event>
<event>
 5   0  0.2864801E-07  0.2598444E+04  0.7818609E-02  0.8368730E-01
       -1   -1    0    0    0  501  0.00000000000E+00  0.00000000000E+00  0.88836722906E+03  0.88836722907E+03  0.50400001928E-02 0. -1.
        1   -1    0    0  501    0  0.00000000000E+00  0.00000000000E+00 -0.19000896254E+04  0.19000896254E+04  0.50400001928E-02 0.  1.
    10030    2    1    2    0    0  0.00000000000E+00  0.00000000000E+00 -0.10117223964E+04  0.27884568545E+04  0.25984436538E+04 0.  0.
        5    1    3    3  502    0  0.12896125106E+03  0.51996285499E+03  0.76431491492E+03  0.93337653389E+03  0.46999998093E+01 0. -1.
       -5    1    3    3    0  502 -0.12896125106E+03 -0.51996285499E+03 -0.17760373113E+04  0.18550803206E+04  0.46999998093E+01 0.  1.
</event>
<event>
 5   0  0.6768478E-07  0.2600477E+04  0.7818609E-02  0.8368039E-01
        2   -1    0    0  501    0  0.00000000000E+00  0.00000000000E+00  0.20247266416E+04  0.20247266416E+04  0.25500000920E-02 0.  1.
       -2   -1    0    0    0  501  0.00000000000E+00  0.00000000000E+00 -0.83498706457E+03  0.83498706457E+03  0.25500000920E-02 0. -1.
    10030    2    1    2    0    0  0.00000000000E+00  0.00000000000E+00  0.11897395771E+04  0.28597137062E+04  0.26004773062E+04 0.  0.
        4    1    3    3  502    0 -0.71417771725E+03 -0.97764469446E+03  0.11162425096E+04  0.16467658952E+04  0.12699999809E+01 0.  1.
       -4    1    3    3    0  502  0.71417771725E+03  0.97764469446E+03  0.73497067465E+02  0.12129478110E+04  0.12699999809E+01 0. -1.
</event>
<event>
 5   0  0.7160320E-07  0.2599547E+04  0.7818609E-02  0.8368355E-01
       -2   -1    0    0    0  501  0.00000000000E+00  0.00000000000E+00  0.14849453906E+04  0.14849453906E+04  0.25500000920E-02 0.  1.
        2   -1    0    0  501    0  0.00000000000E+00  0.00000000000E+00 -0.11376927161E+04  0.11376927161E+04  0.25500000920E-02 0. -1.
    10030    2    1    2    0    0  0.00000000000E+00  0.00000000000E+00  0.34725267449E+03  0.26226381067E+04  0.25995473103E+04 0.  0.
        1    1    3    3  502    0  0.24671461625E+03 -0.10714628503E+04 -0.52571987024E+03  0.12187215118E+04  0.50400001928E-02 0. -1.
       -1    1    3    3    0  502 -0.24671461625E+03  0.10714628503E+04  0.87297254473E+03  0.14039165948E+04  0.50400001928E-02 0.  1.
</event>
<event>
 5   0  0.7160320E-07  0.2600291E+04  0.7818609E-02  0.8368102E-01
        2   -1    0    0  501    0  0.00000000000E+00  0.00000000000E+00  0.10934558076E+04  0.10934558076E+04  0.25500000920E-02 0.  1.
       -2   -1    0    0    0  501  0.00000000000E+00  0.00000000000E+00 -0.15459042021E+04  0.15459042021E+04  0.25500000920E-02 0. -1.
    10030    2    1    2    0    0  0.00000000000E+00  0.00000000000E+00 -0.45244839446E+03  0.26393600097E+04  0.26002906975E+04 0.  0.
        1    1    3    3  502    0 -0.30549087401E+03  0.38619534264E+03 -0.14475934296E+04  0.15290514230E+04  0.50400001928E-02 0. -1.
       -1    1    3    3    0  502  0.30549087401E+03 -0.38619534264E+03  0.99514503514E+03  0.11103085867E+04  0.50400001928E-02 0.  1.
</event>
<event>
 5   0  0.2755061E-07  0.2600445E+04  0.7818609E-02  0.8368050E-01
       -1   -1    0    0    0  501  0.00000000000E+00  0.00000000000E+00  0.60377468252E+03  0.60377468254E+03  0.50400001928E-02 0. -1.
        1   -1    0    0  501    0  0.00000000000E+00  0.00000000000E+00 -0.28000161885E+04  0.28000161886E+04  0.50400001928E-02 0.  1.
    10030    2    1    2    0    0  0.00000000000E+00  0.00000000000E+00 -0.21962415060E+04  0.34037908711E+04  0.26004452583E+04 0.  0.
        4    1    3    3  502    0 -0.25255321530E+03 -0.68747190013E+03  0.30809277981E+03  0.79455869128E+03  0.12699999809E+01 0. -1.
       -4    1    3    3    0  502  0.25255321530E+03  0.68747190013E+03 -0.25043342858E+04  0.26092321798E+04  0.12699999809E+01 0.  1.
</event>
<event>
 5   0  0.6768478E-07  0.2600329E+04  0.7818609E-02  0.8368090E-01
       -2   -1    0    0    0  501  0.00000000000E+00  0.00000000000E+00  0.62385588178E+03  0.62385588179E+03  0.25500000920E-02 0. -1.
        2   -1    0    0  501    0  0.00000000000E+00  0.00000000000E+00 -0.27096440712E+04  0.27096440712E+04  0.25500000920E-02 0.  1.
    10030    2    1    2    0    0  0.00000000000E+00  0.00000000000E+00 -0.20857881895E+04  0.33334999530E+04  0.26003287418E+04 0.  0.
        4    1    3    3  502    0  0.28813992943E+03 -0.58983614067E+03  0.39580619941E+03  0.76654774944E+03  0.12699999809E+01 0. -1.
       -4    1    3    3    0  502 -0.28813992943E+03  0.58983614067E+03 -0.24815943889E+04  0.25669522036E+04  0.12699999809E+01 0.  1.
</event>
<event>
 5   0  0.6768478E-07  0.2600237E+04  0.7818609E-02  0.8368121E-01
        2   -1    0    0  501    0  0.00000000000E+00  0.00000000000E+00  0.13582528060E+04  0.13582528060E+04  0.25500000920E-02 0.  1.
       -2   -1    0    0    0  501  0.00000000000E+00  0.00000000000E+00 -0.12444728386E+04  0.12444728386E+04  0.25500000920E-02 0. -1.
    10030    2    1    2    0    0  0.00000000000E+00  0.00000000000E+00  0.11377996735E+03  0.26027256446E+04  0.26002374699E+04 0.  0.
        4    1    3    3  502    0  0.41787372606E+03  0.11893228712E+04 -0.26153353721E+03  0.12874427159E+04  0.12699999809E+01 0. -1.
       -4    1    3    3    0  502 -0.41787372606E+03 -0.11893228712E+04  0.37531350456E+03  0.13152829287E+04  0.12699999809E+01 0.  1.
</event>
<event>
 5   0  0.2793576E-07  0.2599037E+04  0.7818609E-02  0.8368528E-01
        1   -1    0    0  501    0  0.00000000000E+00  0.00000000000E+00  0.17594602388E+04  0.17594602388E+04  0.50400001928E-02 0. -1.
       -1   -1    0    0    0  501  0.00000000000E+00  0.00000000000E+00 -0.95981040249E+03  0.95981040250E+03  0.50400001928E-02 0.  1.
    10030    2    1    2    0    0  0.00000000000E+00  0.00000000000E+00  0.79964983634E+03  0.27192706413E+04  0.25990369293E+04 0.  0.
        2    1    3    3  502    0 -0.47760704683E+03 -0.32525076158E+03  0.16176526582E+04  0.17177592007E+04  0.25500000920E-02 0. -1.
       -2    1    3    3    0  502  0.47760704683E+03  0.32525076158E+03 -0.81800282186E+03  0.10015114406E+04  0.25500000920E-02 0.  1.
</event>
<event>
 5   0  0.7160320E-07  0.2598917E+04  0.7818609E-02  0.8368569E-01
       -2   -1    0    0    0  501  0.00000000000E+00  0.00000000000E+00  0.11084725385E+04  0.11084725386E+04  0.25500000920E-02 0. -1.
        2   -1    0    0  501    0  0.00000000000E+00  0.00000000000E+00 -0.15233510941E+04  0.15233510941E+04  0.25500000920E-02 0.  1.
    10030    2    1    2    0    0  0.00000000000E+00  0.00000000000E+00 -0.41487855555E+03  0.26318236326E+04  0.25989173549E+04 0.  0.
        1    1    3    3  502    0 -0.96382586105E+03 -0.86459781235E+03 -0.96031841197E+02  0.12983496378E+04  0.50400001928E-02 0. -1.
       -1    1    3    3    0  502  0.96382586105E+03  0.86459781235E+03 -0.31884671435E+03  0.13334739948E+04  0.50400001928E-02 0.  1.
</event>
<event>
 5   0  0.2864801E-07  0.2600413E+04  0.7818609E-02  0.8368061E-01
       -1   -1    0    0    0  501  0.00000000000E+00  0.00000000000E+00  0.69747891389E+03  0.69747891391E+03  0.50400001928E-02 0.  1.
        1   -1    0    0  501    0  0.00000000000E+00  0.00000000000E+00 -0.24237821234E+04  0.24237821234E+04  0.50400001928E-02 0. -1.
    10030    2    1    2    0    0  0.00000000000E+00  0.00000000000E+00 -0.17263032095E+04  0.31212610373E+04  0.26004129849E+04 0.  0.
        5    1    3    3  502    0 -0.53411061281E+03 -0.82364960318E+03 -0.18864629232E+04  0.21266022820E+04  0.46999998093E+01 0.  1.
       -5    1    3    3    0  502  0.53411061281E+03  0.82364960318E+03  0.16015971368E+03  0.99465875526E+03  0.46999998093E+01 0. -1.
</event>
<event>
 5   0  0.2864801E-07  0.2606519E+04  0.7818609E-02  0.8365990E-01
        1   -1    0    0  501    0  0.00000000000E+00  0.00000000000E+00  0.14834475226E+04  0.14834475226E+04  0.50400001928E-02 0. -1.
       -1   -1    0    0    0  501  0.00000000000E+00  0.00000000000E+00 -0.11449583921E+04  0.11449583921E+04  0.50400001928E-02 0.  1.
    10030    2    1    2    0    0  0.00000000000E+00  0.00000000000E+00  0.33848913048E+03  0.26284059147E+04  0.26065192808E+04 0.  0.
        5    1    3    3  502    0  0.96567057050E+03 -0.58206666704E+03  0.82829372037E+03  0.13990760640E+04  0.46999998093E+01 0. -1.
       -5    1    3    3    0  502 -0.96567057050E+03  0.58206666704E+03 -0.48980458989E+03  0.12293298507E+04  0.46999998093E+01 0.  1.
</event>
<event>
 5   0  0.2864801E-07  0.2599869E+04  0.7818609E-02  0.8368246E-01
       -1   -1    0    0    0  501  0.00000000000E+00  0.00000000000E+00  0.59120358696E+03  0.59120358698E+03  0.50400001928E-02 0. -1.
        1   -1    0    0  501    0  0.00000000000E+00  0.00000000000E+00 -0.28582879225E+04  0.28582879225E+04  0.50400001928E-02 0.  1.
    10030    2    1    2    0    0  0.00000000000E+00  0.00000000000E+00 -0.22670843355E+04  0.34494915094E+04  0.25998692831E+04 0.  0.
        5    1    3    3  502    0  0.40598649675E+03  0.91878004201E+03 -0.22283091517E+04  0.24442515351E+04  0.46999998093E+01 0.  1.
       -5    1    3    3    0  502 -0.40598649675E+03 -0.91878004201E+03 -0.38775183769E+02  0.10052399743E+04  0.46999998093E+01 0. -1.
</event>
<event>
 5   0  0.2793576E-07  0.2600468E+04  0.7818609E-02  0.8368042E-01
        1   -1    0    0  501    0  0.00000000000E+00  0.00000000000E+00  0.21145747161E+04  0.21145747161E+04  0.50400001928E-02 0.  1.
       -1   -1    0    0    0  501  0.00000000000E+00  0.00000000000E+00 -0.79950286845E+03  0.79950286847E+03  0.50400001928E-02 0. -1.
    10030    2    1    2    0    0  0.00000000000E+00  0.00000000000E+00  0.13150718477E+04  0.29140775846E+04  0.26004680741E+04 0.  0.
        2    1    3    3  502    0  0.96629340859E+03  0.85057763634E+03  0.45272921996E+03  0.13646131369E+04  0.25500000920E-02 0.  1.
       -2    1    3    3    0  502 -0.96629340859E+03 -0.85057763634E+03  0.86234262770E+03  0.15494644476E+04  0.25500000920E-02 0. -1.
</event>
<event>
 5   0  0.6526351E-07  0.2602053E+04  0.7818609E-02  0.8367504E-01
       -2   -1    0    0    0  501  0.00000000000E+00  0.00000000000E+00  0.93937160487E+03  0.93937160487E+03  0.25500000920E-02 0. -1.
        2   -1    0    0  501    0  0.00000000000E+00  0.00000000000E+00 -0.18019176904E+04  0.18019176904E+04  0.25500000920E-02 0.  1.
    10030    2    1    2    0    0  0.00000000000E+00  0.00000000000E+00 -0.86254608548E+03  0.27412892952E+04  0.26020532759E+04 0.  0.
        3    1    3    3  502    0  0.12328773301E+04  0.18103469725E+03 -0.37212073855E+02  0.12466534487E+04  0.10100000352E+00 0. -1.
       -3    1    3    3    0  502 -0.12328773301E+04 -0.18103469725E+03 -0.82533401162E+03  0.14946358465E+04  0.10100000352E+00 0.  1.
</event>
<event>
 5   0  0.6599814E-07  0.2605226E+04  0.7818609E-02  0.8366428E-01
       -2   -1    0    0    0  501  0.00000000000E+00  0.00000000000E+00  0.78409561787E+03  0.78409561788E+03  0.25500000920E-02 0.  1.
        2   -1    0    0  501    0  0.00000000000E+00  0.00000000000E+00 -0.21640219538E+04  0.21640219538E+04  0.25500000920E-02 0. -1.
    10030    2    1    2    0    0  0.00000000000E+00  0.00000000000E+00 -0.13799263359E+04  0.29481175717E+04  0.26052256186E+04 0.  0.
        5    1    3    3  502    0  0.62912341680E+03  0.98919851795E+03 -0.13325662604E+04  0.17748422211E+04  0.46999998093E+01 0. -1.
       -5    1    3    3    0  502 -0.62912341680E+03 -0.98919851795E+03 -0.47360075517E+02  0.11732753506E+04  0.46999998093E+01 0.  1.
</event>
<event>
 5   0  0.6780984E-07  0.2599542E+04  0.7818609E-02  0.8368357E-01
       -2   -1    0    0    0  501  0.00000000000E+00  0.00000000000E+00  0.12117064854E+04  0.12117064854E+04  0.25500000920E-02 0. -1.
        2   -1    0    0  501    0  0.00000000000E+00  0.00000000000E+00 -0.13942355427E+04  0.13942355427E+04  0.25500000920E-02 0.  1.
    10030    2    1    2    0    0  0.00000000000E+00  0.00000000000E+00 -0.18252905734E+03  0.26059420280E+04  0.25995416898E+04 0.  0.
        2    1    3    3  502    0 -0.55881926462E+03 -0.11557371492E+04  0.11269874863E+03  0.12886847312E+04  0.25500000920E-02 0. -1.
       -2    1    3    3    0  502  0.55881926462E+03  0.11557371492E+04 -0.29522780597E+03  0.13172572968E+04  0.25500000920E-02 0.  1.
</event>
<event>
 5   0  0.2755061E-07  0.2601290E+04  0.7818609E-02  0.8367763E-01
       -1   -1    0    0    0  501  0.00000000000E+00  0.00000000000E+00  0.12890027910E+04  0.12890027910E+04  0.50400001928E-02 0.  1.
        1   -1    0    0  501    0  0.00000000000E+00  0.00000000000E+00 -0.13123922264E+04  0.13123922264E+04  0.50400001928E-02 0. -1.
    10030    2    1    2    0    0  0.00000000000E+00  0.00000000000E+00 -0.23389435398E+02  0.26013950174E+04  0.26012898668E+04 0.  0.
        4    1    3    3  502    0  0.11366215658E+04 -0.13673820469E+03 -0.62902811026E+03  0.13062480227E+04  0.12699999809E+01 0. -1.
       -4    1    3    3    0  502 -0.11366215658E+04  0.13673820469E+03  0.60563867486E+03  0.12951469947E+04  0.12699999809E+01 0.  1.
</event>
<event>
 5   0  0.7160320E-07  0.2600384E+04  0.7818609E-02  0.8368071E-01
       -2   -1    0    0    0  501  0.00000000000E+00  0.00000000000E+00  0.15194515380E+04  0.15194515380E+04  0.25500000920E-02 0.  1.
        2   -1    0    0  501    0  0.00000000000E+00  0.00000000000E+00 -0.11125715855E+04  0.11125715855E+04  0.25500000920E-02 0. -1.
    10030    2    1    2    0    0  0.00000000000E+00  0.00000000000E+00  0.40687995247E+03  0.26320231235E+04  0.26003835154E+04 0.  0.
        1    1    3    3  502    0 -0.39795338325E+03 -0.16654879443E+03 -0.10380207312E+04  0.11240962746E+04  0.50400001928E-02 0. -1.
       -1    1    3    3    0  502  0.39795338325E+03  0.16654879443E+03  0.14449006836E+04  0.15079268489E+04  0.50400001928E-02 0.  1.
</event>
<event>
 5   0  0.2793576E-07  0.2597096E+04  0.7818609E-02  0.8369188E-01
        1   -1    0    0  501    0  0.00000000000E+00  0.00000000000E+00  0.14497858184E+04  0.14497858184E+04  0.50400001928E-02 0.  1.
       -1   -1    0    0    0  501  0.00000000000E+00  0.00000000000E+00 -0.11630868617E+04  0.11630868617E+04  0.50400001928E-02 0. -1.
    10030    2    1    2    0    0  0.00000000000E+00  0.00000000000E+00  0.28669895667E+03  0.26128726801E+04  0.25970959456E+04 0.  0.
        2    1    3    3  502    0  0.28012282523E+03 -0.62850625400E+03  0.12512830802E+04  0.14280049914E+04  0.25500000920E-02 0.  1.
       -2    1    3    3    0  502 -0.28012282523E+03  0.62850625400E+03 -0.96458412353E+03  0.11848676888E+04  0.25500000920E-02 0. -1.
</event>
<event>
 5   0  0.2623263E-07  0.2600017E+04  0.7818609E-02  0.8368195E-01
       -1   -1    0    0    0  501  0.00000000000E+00  0.00000000000E+00  0.96016851900E+03  0.96016851901E+03  0.50400001928E-02 0.  1.
        1   -1    0    0  501    0  0.00000000000E+00  0.00000000000E+00 -0.17601308639E+04  0.17601308639E+04  0.50400001928E-02 0. -1.
    10030    2    1    2    0    0  0.00000000000E+00  0.00000000000E+00 -0.79996234487E+03  0.27202993829E+04  0.26000171114E+04 0.  0.
        1    1    3    3  502    0 -0.28004132165E+03  0.61241682418E+02 -0.17266516572E+04  0.17502855855E+04  0.50400001928E-02 0. -1.
       -1    1    3    3    0  502  0.28004132165E+03 -0.61241682418E+02  0.92668931233E+03  0.97001379738E+03  0.50400001928E-02 0.  1.
</event>
<event>
 5   0  0.2641626E-07  0.2599527E+04  0.7818609E-02  0.8368362E-01
        1   -1    0    0  501    0  0.00000000000E+00  0.00000000000E+00  0.51213572142E+03  0.51213572144E+03  0.50400001928E-02 0.  1.
       -1   -1    0    0    0  501  0.00000000000E+00  0.00000000000E+00 -0.32987054772E+04  0.32987054773E+04  0.50400001928E-02 0. -1.
    10030    2    1    2    0    0  0.00000000000E+00  0.00000000000E+00 -0.27865697558E+04  0.38108411987E+04  0.25995268103E+04 0.  0.
        3    1    3    3  502    0 -0.17620150411E+03 -0.26474136049E+03  0.45422162090E+03  0.55448376811E+03  0.10100000352E+00 0.  1.
       -3    1    3    3    0  502  0.17620150411E+03  0.26474136049E+03 -0.32407913767E+04  0.32563574306E+04  0.10100000352E+00 0. -1.
</event>
<event>
 5   0  0.2793576E-07  0.2601186E+04  0.7818609E-02  0.8367799E-01
       -1   -1    0    0    0  501  0.00000000000E+00  0.00000000000E+00  0.28617947153E+04  0.28617947153E+04  0.50400001928E-02 0.  1.
        1   -1    0    0  501    0  0.00000000000E+00  0.00000000000E+00 -0.59107725378E+03  0.59107725380E+03  0.50400001928E-02 0. -1.
    10030    2    1    2    0    0  0.00000000000E+00  0.00000000000E+00  0.22707174615E+04  0.34528719691E+04  0.26011856998E+04 0.  0.
        2    1    3    3  502    0  0.12995298303E+04  0.31157776748E+02  0.10791478519E+04  0.16894699385E+04  0.25500000920E-02 0.  1.
       -2    1    3    3    0  502 -0.12995298303E+04 -0.31157776748E+02  0.11915696096E+04  0.17634020306E+04  0.25500000920E-02 0. -1.
</event>
<event>
 5   0  0.2641626E-07  0.2598716E+04  0.7818609E-02  0.8368637E-01
        1   -1    0    0  501    0  0.00000000000E+00  0.00000000000E+00  0.17886310753E+04  0.17886310753E+04  0.50400001928E-02 0. -1.
       -1   -1    0    0    0  501  0.00000000000E+00  0.00000000000E+00 -0.94392371898E+03  0.94392371900E+03  0.50400001928E-02 0.  1.
    10030    2    1    2    0    0  0.00000000000E+00  0.00000000000E+00  0.84470735633E+03  0.27325547943E+04  0.25987160649E+04 0.  0.
        3    1    3    3  502    0  0.92976817372E+03 -0.89354534482E+03  0.59006458756E+03  0.14181214221E+04  0.10100000352E+00 0. -1.
       -3    1    3    3    0  502 -0.92976817372E+03  0.89354534482E+03  0.25464276877E+03  0.13144333722E+04  0.10100000352E+00 0.  1.
</event>
<event>
 5   0  0.2623263E-07  0.2604595E+04  0.7818609E-02  0.8366642E-01
        1   -1    0    0  501    0  0.00000000000E+00  0.00000000000E+00  0.10895573812E+04  0.10895573812E+04  0.50400001928E-02 0. -1.
       -1   -1    0    0    0  501  0.00000000000E+00  0.00000000000E+00 -0.15565757541E+04  0.15565757541E+04  0.50400001928E-02 0.  1.
    10030    2    1    2    0    0  0.00000000000E+00  0.00000000000E+00 -0.46701837293E+03  0.26461331353E+04  0.26045948647E+04 0.  0.
        1    1    3    3  502    0  0.59046335321E+03 -0.14154861722E+03  0.93694748594E+03  0.11164916363E+04  0.50400001928E-02 0. -1.
       -1    1    3    3    0  502 -0.59046335321E+03  0.14154861722E+03 -0.14039658589E+04  0.15296414990E+04  0.50400001928E-02 0.  1.
</event>
<event>
 5   0  0.2793576E-07  0.2599492E+04  0.7818609E-02  0.8368374E-01
        1   -1    0    0  501    0  0.00000000000E+00  0.00000000000E+00  0.13780018004E+04  0.13780018004E+04  0.50400001928E-02 0.  1.
       -1   -1    0    0    0  501  0.00000000000E+00  0.00000000000E+00 -0.12259340079E+04  0.12259340079E+04  0.50400001928E-02 0. -1.
    10030    2    1    2    0    0  0.00000000000E+00  0.00000000000E+00  0.15206779250E+03  0.26039358083E+04  0.25994916965E+04 0.  0.
        2    1    3    3  502    0 -0.21382688215E+03  0.76667115370E+03  0.11053277719E+04  0.13620778527E+04  0.25500000920E-02 0.  1.
       -2    1    3    3    0  502  0.21382688215E+03 -0.76667115370E+03 -0.95325997941E+03  0.12418579556E+04  0.25500000920E-02 0. -1.
</event>
<event>
 5   0  0.6780984E-07  0.2600244E+04  0.7818609E-02  0.8368118E-01
        2   -1    0    0  501    0  0.00000000000E+00  0.00000000000E+00  0.14661876422E+04  0.14661876422E+04  0.25500000920E-02 0.  1.
       -2   -1    0    0    0  501  0.00000000000E+00  0.00000000000E+00 -0.11528652662E+04  0.11528652662E+04  0.25500000920E-02 0. -1.
    10030    2    1    2    0    0  0.00000000000E+00  0.00000000000E+00  0.31332237602E+03  0.26190529084E+04  0.26002436858E+04 0.  0.
        2    1    3    3  502    0  0.11828649473E+04 -0.39840495017E+03 -0.20986782326E+03  0.12656778781E+04  0.25500000920E-02 0. -1.
       -2    1    3    3    0  502 -0.11828649473E+04  0.39840495017E+03  0.52319019927E+03  0.13533750303E+04  0.25500000920E-02 0.  1.
</event>
<event>
 5   0  0.2793576E-07  0.2598611E+04  0.7818609E-02  0.8368673E-01
        1   -1    0    0  501    0  0.00000000000E+00  0.00000000000E+00  0.11577873020E+04  0.11577873020E+04  0.50400001928E-02 0.  1.
       -1   -1    0    0    0  501  0.00000000000E+00  0.00000000000E+00 -0.14581219959E+04  0.14581219959E+04  0.50400001928E-02 0. -1.
    10030    2    1    2    0    0  0.00000000000E+00  0.00000000000E+00 -0.30033469393E+03  0.26159092979E+04  0.25986112688E+04 0.  0.
        2    1    3    3  502    0  0.68320509766E+03  0.77970160110E+03 -0.93863808839E+03  0.13984796220E+04  0.25500000920E-02 0.  1.
       -2    1    3    3    0  502 -0.68320509766E+03 -0.77970160110E+03  0.63830339446E+03  0.12174296758E+04  0.25500000920E-02 0. -1.
</event>
<event>
 5   0  0.2864801E-07  0.2600255E+04  0.7818609E-02  0.8368115E-01
        1   -1    0    0  501    0  0.00000000000E+00  0.00000000000E+00  0.13973907487E+04  0.13973907487E+04  0.50400001928E-02 0.  1.
       -1   -1    0    0    0  501  0.00000000000E+00  0.00000000000E+00 -0.12096338885E+04  0.12096338885E+04  0.50400001928E-02 0. -1.
    10030    2    1    2    0    0  0.00000000000E+00  0.00000000000E+00  0.18775686024E+03  0.26070246372E+04  0.26002547606E+04 0.  0.
        5    1    3    3  502    0  0.15891762099E+03  0.51532145328E+03  0.12799622803E+04  0.13889335979E+04  0.46999998093E+01 0.  1.
       -5    1    3    3    0  502 -0.15891762099E+03 -0.51532145328E+03 -0.10922054200E+04  0.12180910393E+04  0.46999998093E+01 0. -1.
</event>
<event>
 5   0  0.2294625E-07  0.2598866E+04  0.7818609E-02  0.8368586E-01
       -3   -1    0    0    0  501  0.00000000000E+00  0.00000000000E+00  0.12867836907E+04  0.12867836946E+04  0.10100000352E+00 0.  1.
        3   -1    0    0  501    0  0.00000000000E+00  0.00000000000E+00 -0.13122066606E+04  0.13122066645E+04  0.10100000352E+00 0. -1.
    10030    2    1    2    0    0  0.00000000000E+00  0.00000000000E+00 -0.25422969911E+02  0.25989903591E+04  0.25988660141E+04 0.  0.
        5    1    3    3  502    0  0.82888870216E+02 -0.10054872828E+04  0.80624699040E+03  0.12914842392E+04  0.46999998093E+01 0.  1.
       -5    1    3    3    0  502 -0.82888870216E+02  0.10054872828E+04 -0.83166996031E+03  0.13075061199E+04  0.46999998093E+01 0. -1.
</event>
<event>
 5   0  0.6526351E-07  0.2600749E+04  0.7818609E-02  0.8367947E-01
        2   -1    0    0  501    0  0.00000000000E+00  0.00000000000E+00  0.15626125949E+04  0.15626125949E+04  0.25500000920E-02 0. -1.
       -2   -1    0    0    0  501  0.00000000000E+00  0.00000000000E+00 -0.10821455675E+04  0.10821455675E+04  0.25500000920E-02 0.  1.
    10030    2    1    2    0    0  0.00000000000E+00  0.00000000000E+00  0.48046702738E+03  0.26447581624E+04  0.26007493484E+04 0.  0.
        3    1    3    3  502    0  0.36115001194E+03 -0.77712564238E+03 -0.75438686260E+03  0.11416887246E+04  0.10100000352E+00 0.  1.
       -3    1    3    3    0  502 -0.36115001194E+03  0.77712564238E+03  0.12348538900E+04  0.15030694378E+04  0.10100000352E+00 0. -1.
</event>
<event>
 5   0  0.6526351E-07  0.2594729E+04  0.7818609E-02  0.8369994E-01
       -2   -1    0    0    0  501  0.00000000000E+00  0.00000000000E+00  0.10706319770E+04  0.10706319770E+04  0.25500000920E-02 0.  1.
        2   -1    0    0  501    0  0.00000000000E+00  0.00000000000E+00 -0.15721129468E+04  0.15721129468E+04  0.25500000920E-02 0. -1.
    10030    2    1    2    0    0  0.00000000000E+00  0.00000000000E+00 -0.50148096977E+03  0.26427449239E+04  0.25947288046E+04 0.  0.
        3    1    3    3  502    0  0.86654010278E+03  0.93304139779E+03  0.22435554940E+01  0.12733668142E+04  0.10100000352E+00 0.  1.
       -3    1    3    3    0  502 -0.86654010278E+03 -0.93304139779E+03 -0.50372452526E+03  0.13693781097E+04  0.10100000352E+00 0. -1.
</event>
<event>
 5   0  0.6768478E-07  0.2600185E+04  0.7818609E-02  0.8368138E-01
       -2   -1    0    0    0  501  0.00000000000E+00  0.00000000000E+00  0.12181436871E+04  0.12181436871E+04  0.25500000920E-02 0. -1.
        2   -1    0    0  501    0  0.00000000000E+00  0.00000000000E+00 -0.13875540320E+04  0.13875540320E+04  0.25500000920E-02 0.  1.
    10030    2    1    2    0    0  0.00000000000E+00  0.00000000000E+00 -0.16941034492E+03  0.26056977191E+04  0.26001847508E+04 0.  0.
        4    1    3    3  502    0 -0.11775018996E+04  0.71565474310E+02  0.46290216509E+03  0.12672459777E+04  0.12699999809E+01 0. -1.
       -4    1    3    3    0  502  0.11775018996E+04 -0.71565474310E+02 -0.63231251001E+03  0.13384517413E+04  0.12699999809E+01 0.  1.
</event>
<event>
 5   0  0.6526351E-07  0.2599595E+04  0.7818609E-02  0.8368339E-01
        2   -1    0    0  501    0  0.00000000000E+00  0.00000000000E+00  0.14471933287E+04  0.14471933287E+04  0.25500000920E-02 0. -1.
       -2   -1    0    0    0  501  0.00000000000E+00  0.00000000000E+00 -0.11674137063E+04  0.11674137063E+04  0.25500000920E-02 0.  1.
    10030    2    1    2    0    0  0.00000000000E+00  0.00000000000E+00  0.27977962247E+03  0.26146070350E+04  0.25995948358E+04 0.  0.
        3    1    3    3  502    0 -0.12619946081E+04  0.29495147348E+03  0.23969265310E+03  0.13179830579E+04  0.10100000352E+00 0.  1.
       -3    1    3    3    0  502  0.12619946081E+04 -0.29495147348E+03  0.40086969377E+02  0.12966239771E+04  0.10100000352E+00 0. -1.
</event>
<event>
 5   0  0.7160320E-07  0.2598268E+04  0.7818609E-02  0.8368790E-01
        2   -1    0    0  501    0  0.00000000000E+00  0.00000000000E+00  0.21180333336E+04  0.21180333336E+04  0.25500000920E-02 0. -1.
       -2   -1    0    0    0  501  0.00000000000E+00  0.00000000000E+00 -0.79684718039E+03  0.79684718040E+03  0.25500000920E-02 0.  1.
    10030    2    1    2    0    0  0.00000000000E+00  0.00000000000E+00  0.13211861533E+04  0.29148805140E+04  0.25982677998E+04 0.  0.
        1    1    3    3  502    0 -0.11457562266E+04  0.54698671090E+03  0.35173203459E+03  0.13174472350E+04  0.50400001928E-02 0.  1.
       -1    1    3    3    0  502  0.11457562266E+04 -0.54698671090E+03  0.96945411866E+03  0.15974332790E+04  0.50400001928E-02 0. -1.
</event>
<event>
 5   0  0.6526351E-07  0.2597567E+04  0.7818609E-02  0.8369028E-01
        2   -1    0    0  501    0  0.00000000000E+00  0.00000000000E+00  0.13102316370E+04  0.13102316370E+04  0.25500000920E-02 0.  1.
       -2   -1    0    0    0  501  0.00000000000E+00  0.00000000000E+00 -0.12874354194E+04  0.12874354194E+04  0.25500000920E-02 0. -1.
    10030    2    1    2    0    0  0.00000000000E+00  0.00000000000E+00  0.22796217635E+02  0.25976670564E+04  0.25975670287E+04 0.  0.
        3    1    3    3  502    0 -0.93995013981E+02  0.59400841825E+03 -0.11398010939E+04  0.12887310066E+04  0.10100000352E+00 0. -1.
       -3    1    3    3    0  502  0.93995013981E+02 -0.59400841825E+03  0.11625973115E+04  0.13089360498E+04  0.10100000352E+00 0.  1.
</event>
<event>
 5   0  0.6599814E-07  0.2599799E+04  0.7818609E-02  0.8368269E-01
       -2   -1    0    0    0  501  0.00000000000E+00  0.00000000000E+00  0.97837286351E+03  0.97837286352E+03  0.25500000920E-02 0. -1.
        2   -1    0    0  501    0  0.00000000000E+00  0.00000000000E+00 -0.17270906723E+04  0.17270906723E+04  0.25500000920E-02 0.  1.
    10030    2    1    2    0    0  0.00000000000E+00  0.00000000000E+00 -0.74871780875E+03  0.27054635358E+04  0.25997989511E+04 0.  0.
        5    1    3    3  502    0  0.35742757746E+03  0.11294753257E+04  0.18240724981E+03  0.11986506911E+04  0.46999998093E+01 0. -1.
       -5    1    3    3    0  502 -0.35742757746E+03 -0.11294753257E+04 -0.93112505856E+03  0.15068128447E+04  0.46999998093E+01 0.  1.
</event>
<event>
 5   0  0.2641626E-07  0.2599944E+04  0.7818609E-02  0.8368220E-01
        1   -1    0    0  501    0  0.00000000000E+00  0.00000000000E+00  0.15829572914E+04  0.15829572914E+04  0.50400001928E-02 0.  1.
       -1   -1    0    0    0  501  0.00000000000E+00  0.00000000000E+00 -0.10675760968E+04  0.10675760968E+04  0.50400001928E-02 0. -1.
    10030    2    1    2    0    0  0.00000000000E+00  0.00000000000E+00  0.51538119459E+03  0.26505333883E+04  0.25999441276E+04 0.  0.
        3    1    3    3  502    0  0.93958675023E+03 -0.22336976820E+03 -0.62941934490E+03  0.11527731939E+04  0.10100000352E+00 0. -1.
       -3    1    3    3    0  502 -0.93958675023E+03  0.22336976820E+03  0.11448005395E+04  0.14977601944E+04  0.10100000352E+00 0.  1.
</event>
<event>
 5   0  0.2623263E-07  0.2601160E+04  0.7818609E-02  0.8367807E-01
        1   -1    0    0  501    0  0.00000000000E+00  0.00000000000E+00  0.19163954699E+04  0.19163954699E+04  0.50400001928E-02 0. -1.
       -1   -1    0    0    0  501  0.00000000000E+00  0.00000000000E+00 -0.88265105893E+03  0.88265105894E+03  0.50400001928E-02 0.  1.
    10030    2    1    2    0    0  0.00000000000E+00  0.00000000000E+00  0.10337444109E+04  0.27990465288E+04  0.26011601187E+04 0.  0.
        1    1    3    3  502    0  0.72426567038E+03 -0.10159352416E+04  0.12175537363E+03  0.12535986389E+04  0.50400001928E-02 0. -1.
       -1    1    3    3    0  502 -0.72426567038E+03  0.10159352416E+04  0.91198903730E+03  0.15454478899E+04  0.50400001928E-02 0.  1.
</event>
<event>
 5   0  0.2641626E-07  0.2599154E+04  0.7818609E-02  0.8368489E-01
       -1   -1    0    0    0  501  0.00000000000E+00  0.00000000000E+00  0.95021279382E+03  0.95021279383E+03  0.50400001928E-02 0. -1.
        1   -1    0    0  501    0  0.00000000000E+00  0.00000000000E+00 -0.17773913090E+04  0.17773913090E+04  0.50400001928E-02 0.  1.
    10030    2    1    2    0    0  0.00000000000E+00  0.00000000000E+00 -0.82717851518E+03  0.27276041028E+04  0.25991536788E+04 0.  0.
        3    1    3    3  502    0 -0.41492602822E+03 -0.12059704179E+04 -0.67567484861E+03  0.14432826365E+04  0.10100000352E+00 0.  1.
       -3    1    3    3    0  502  0.41492602822E+03  0.12059704179E+04 -0.15150366657E+03  0.12843214663E+04  0.10100000352E+00 0. -1.
</event>
<event>
 5   0  0.2623263E-07  0.2595572E+04  0.7818609E-02  0.8369707E-01
       -1   -1    0    0    0  501  0.00000000000E+00  0.00000000000E+00  0.11364430115E+04  0.11364430115E+04  0.50400001928E-02 0. -1.
        1   -1    0    0  501    0  0.00000000000E+00  0.00000000000E+00 -0.14820355298E+04  0.14820355298E+04  0.50400001928E-02 0.  1.
    10030    2    1    2    0    0  0.00000000000E+00  0.00000000000E+00 -0.34559251833E+03  0.26184785413E+04  0.25955723227E+04 0.  0.
        1    1    3    3  502    0 -0.66040742570E+03 -0.49503218239E+03 -0.11831607195E+04  0.14425893794E+04  0.50400001928E-02 0.  1.
       -1    1    3    3    0  502  0.66040742570E+03  0.49503218239E+03  0.83756820113E+03  0.11758891619E+04  0.50400001928E-02 0. -1.
</event>
<event>
 5   0  0.2755061E-07  0.2600424E+04  0.7818609E-02  0.8368057E-01
        1   -1    0    0  501    0  0.00000000000E+00  0.00000000000E+00  0.22027602607E+04  0.22027602607E+04  0.50400001928E-02 0. -1.
       -1   -1    0    0    0  501  0.00000000000E+00  0.00000000000E+00 -0.76746967697E+03  0.76746967699E+03  0.50400001928E-02 0.  1.
    10030    2    1    2    0    0  0.00000000000E+00  0.00000000000E+00  0.14352905837E+04  0.29702299377E+04  0.26004243544E+04 0.  0.
        4    1    3    3  502    0 -0.93363276047E+03  0.63771510559E+03 -0.15684834561E+02  0.11307512168E+04  0.12699999809E+01 0.  1.
       -4    1    3    3    0  502  0.93363276047E+03 -0.63771510559E+03  0.14509754183E+04  0.18394787209E+04  0.12699999809E+01 0. -1.
</event>
<event>
 5   0  0.6768478E-07  0.2599588E+04  0.7818609E-02  0.8368341E-01
        2   -1    0    0  501    0  0.00000000000E+00  0.00000000000E+00  0.13452719937E+04  0.13452719937E+04  0.25500000920E-02 0.  1.
       -2   -1    0    0    0  501  0.00000000000E+00  0.00000000000E+00 -0.12558532883E+04  0.12558532883E+04  0.25500000920E-02 0. -1.
    10030    2    1    2    0    0  0.00000000000E+00  0.00000000000E+00  0.89418705386E+02  0.26011252820E+04  0.25995878573E+04 0.  0.
        4    1    3    3  502    0  0.41783858644E+03  0.49814193213E+03  0.11708651732E+04  0.13392764224E+04  0.12699999809E+01 0.  1.
       -4    1    3    3    0  502 -0.41783858644E+03 -0.49814193213E+03 -0.10814464678E+04  0.12618488596E+04  0.12699999809E+01 0. -1.
</event>
<event>
 5   0  0.6599814E-07  0.2601139E+04  0.7818609E-02  0.8367814E-01
       -2   -1    0    0    0  501  0.00000000000E+00  0.00000000000E+00  0.68646016906E+03  0.68646016907E+03  0.25500000920E-02 0.  1.
        2   -1    0    0  501    0  0.00000000000E+00  0.00000000000E+00 -0.24640627687E+04  0.24640627687E+04  0.25500000920E-02 0. -1.
    10030    2    1    2    0    0  0.00000000000E+00  0.00000000000E+00 -0.17776025997E+04  0.31505229378E+04  0.26011389389E+04 0.  0.
        5    1    3    3  502    0  0.31931069573E+03 -0.26220854270E+03  0.60484396858E+03  0.73251003857E+03  0.46999998093E+01 0.  1.
       -5    1    3    3    0  502 -0.31931069573E+03  0.26220854270E+03 -0.23824465683E+04  0.24180128992E+04  0.46999998093E+01 0. -1.
</event>
<event>
 5   0  0.2623263E-07  0.2600432E+04  0.7818609E-02  0.8368054E-01
       -1   -1    0    0    0  501  0.00000000000E+00  0.00000000000E+00  0.19748804887E+04  0.19748804887E+04  0.50400001928E-02 0. -1.
        1   -1    0    0  501    0  0.00000000000E+00  0.00000000000E+00 -0.85603243770E+03  0.85603243771E+03  0.50400001928E-02 0.  1.
    10030    2    1    2    0    0  0.00000000000E+00  0.00000000000E+00  0.11188480510E+04  0.28309129264E+04  0.26004320864E+04 0.  0.
        1    1    3    3  502    0 -0.10450891339E+04 -0.24432631997E+03  0.13584049075E+04  0.17312338205E+04  0.50400001928E-02 0. -1.
       -1    1    3    3    0  502  0.10450891339E+04  0.24432631997E+03 -0.23955685647E+03  0.10996791059E+04  0.50400001928E-02 0.  1.
</event>
<event>
 5   0  0.6526351E-07  0.2599563E+04  0.7818609E-02  0.8368350E-01
       -2   -1    0    0    0  501  0.00000000000E+00  0.00000000000E+00  0.11200504783E+04  0.11200504783E+04  0.25500000920E-02 0.  1.
        2   -1    0    0  501    0  0.00000000000E+00  0.00000000000E+00 -0.15083529066E+04  0.15083529066E+04  0.25500000920E-02 0. -1.
    10030    2    1    2    0    0  0.00000000000E+00  0.00000000000E+00 -0.38830242826E+03  0.26284033849E+04  0.25995625744E+04 0.  0.
        3    1    3    3  502    0  0.23790025356E+03 -0.30132707923E+03  0.10614135444E+04  0.11287130999E+04  0.10100000352E+00 0.  1.
       -3    1    3    3    0  502 -0.23790025356E+03  0.30132707923E+03 -0.14497159727E+04  0.14996902850E+04  0.10100000352E+00 0. -1.
</event>
<event>
 5   0  0.7160320E-07  0.2601091E+04  0.7818609E-02  0.8367831E-01
        2   -1    0    0  501    0  0.00000000000E+00  0.00000000000E+00  0.11142724502E+04  0.11142724502E+04  0.25500000920E-02 0.  1.
       -2   -1    0    0    0  501  0.00000000000E+00  0.00000000000E+00 -0.15179582217E+04  0.15179582217E+04  0.25500000920E-02 0. -1.
    10030    2    1    2    0    0  0.00000000000E+00  0.00000000000E+00 -0.40368577148E+03  0.26322306720E+04  0.26010913302E+04 0.  0.
        1    1    3    3  502    0  0.65442009604E+03  0.10252787711E+04  0.26405638165E+03  0.12446638074E+04  0.50400001928E-02 0.  1.
       -1    1    3    3    0  502 -0.65442009604E+03 -0.10252787711E+04 -0.66774215314E+03  0.13875668646E+04  0.50400001928E-02 0. -1.
</event>
<event>
 5   0  0.6780984E-07  0.2600351E+04  0.7818609E-02  0.8368082E-01
        2   -1    0    0  501    0  0.00000000000E+00  0.00000000000E+00  0.93191296155E+03  0.93191296156E+03  0.25500000920E-02 0. -1.
       -2   -1    0    0    0  501  0.00000000000E+00  0.00000000000E+00 -0.18139642147E+04  0.18139642147E+04  0.25500000920E-02 0.  1.
    10030    2    1    2    0    0  0.00000000000E+00  0.00000000000E+00 -0.88205125318E+03  0.27458771763E+04  0.26003513328E+04 0.  0.
        2    1    3    3  502    0  0.24398337205E+03 -0.71465528459E+03  0.67659966893E+03  0.10139266116E+04  0.25500000920E-02 0. -1.
       -2    1    3    3    0  502 -0.24398337205E+03  0.71465528459E+03 -0.15586509221E+04  0.17319505647E+04  0.25500000920E-02 0.  1.
</event>
<event>
 5   0  0.2793576E-07  0.2600782E+04  0.7818609E-02  0.8367936E-01
        1   -1    0    0  501    0  0.00000000000E+00  0.00000000000E+00  0.15051222599E+04  0.15051222599E+04  0.50400001928E-02 0. -1.
       -1   -1    0    0    0  501  0.00000000000E+00  0.00000000000E+00 -0.11235081623E+04  0.11235081624E+04  0.50400001928E-02 0.  1.
    10030    2    1    2    0    0  0.00000000000E+00  0.00000000000E+00  0.38161409752E+03  0.26286304222E+04  0.26007823010E+04 0.  0.
        2    1    3    3  502    0  0.36815158038E+03 -0.12311637741E+04 -0.10618935170E+02  0.12850729888E+04  0.25500000920E-02 0.  1.
       -2    1    3    3    0  502 -0.36815158038E+03  0.12311637741E+04  0.39223303269E+03  0.13435574334E+04  0.25500000920E-02 0. -1.
</event>
<event>
 5   0  0.2755061E-07  0.2598062E+04  0.7818609E-02  0.8368860E-01
       -1   -1    0    0    0  501  0.00000000000E+00  0.00000000000E+00  0.82550011725E+03  0.82550011726E+03  0.50400001928E-02 0.  1.
        1   -1    0    0  501    0  0.00000000000E+00  0.00000000000E+00 -0.20441923246E+04  0.20441923246E+04  0.50400001928E-02 0. -1.
    10030    2    1    2    0    0  0.00000000000E+00  0.00000000000E+00 -0.12186922074E+04  0.28696924419E+04  0.25980615879E+04 0.  0.
        4    1    3    3  502    0  0.78079655295E+03  0.96230377700E+03 -0.17898537661E+03  0.12520819439E+04  0.12699999809E+01 0.  1.
       -4    1    3    3    0  502 -0.78079655295E+03 -0.96230377700E+03 -0.10397068308E+04  0.16176104980E+04  0.12699999809E+01 0. -1.
</event>
<event>
 5   0  0.6599814E-07  0.2599632E+04  0.7818609E-02  0.8368326E-01
        2   -1    0    0  501    0  0.00000000000E+00  0.00000000000E+00  0.17810021546E+04  0.17810021546E+04  0.25500000920E-02 0.  1.
       -2   -1    0    0    0  501  0.00000000000E+00  0.00000000000E+00 -0.94863553722E+03  0.94863553723E+03  0.25500000920E-02 0. -1.
    10030    2    1    2    0    0  0.00000000000E+00  0.00000000000E+00  0.83236661737E+03  0.27296376918E+04  0.25996322322E+04 0.  0.
        5    1    3    3  502    0  0.71768335246E+03 -0.89684119358E+03  0.10549707170E+04  0.15596085486E+04  0.46999998093E+01 0.  1.
       -5    1    3    3    0  502 -0.71768335246E+03  0.89684119358E+03 -0.22260409968E+03  0.11700291433E+04  0.46999998093E+01 0. -1.
</event>
<event>
 5   0  0.2294625E-07  0.2601475E+04  0.7818609E-02  0.8367700E-01
       -4   -1    0    0    0  501  0.00000000000E+00  0.00000000000E+00  0.16202601616E+04  0.16202606593E+04  0.12699999809E+01 0.  1.
        4   -1    0    0  501    0  0.00000000000E+00  0.00000000000E+00 -0.10442254050E+04  0.10442261773E+04  0.12699999809E+01 0. -1.
    10030    2    1    2    0    0  0.00000000000E+00  0.00000000000E+00  0.57603475653E+03  0.26644868366E+04  0.26014753625E+04 0.  0.
        5    1    3    3  502    0  0.11796451002E+02  0.51987524165E+03  0.15091569592E+04  0.15962412852E+04  0.46999998093E+01 0.  1.
       -5    1    3    3    0  502 -0.11796451002E+02 -0.51987524165E+03 -0.93312220262E+03  0.10682455514E+04  0.46999998093E+01 0. -1.
</event>
<event>
 5   0  0.2864801E-07  0.2602969E+04  0.7818609E-02  0.8367193E-01
        1   -1    0    0  501    0  0.00000000000E+00  0.00000000000E+00  0.16288593948E+04  0.16288593948E+04  0.50400001928E-02 0. -1.
       -1   -1    0    0    0  501  0.00000000000E+00  0.00000000000E+00 -0.10399067917E+04  0.10399067917E+04  0.50400001928E-02 0.  1.
    10030    2    1    2    0    0  0.00000000000E+00  0.00000000000E+00  0.58895260315E+03  0.26687661866E+04  0.26029690336E+04 0.  0.
        5    1    3    3  502    0  0.86183328414E+03 -0.95261342421E+03  0.50858736493E+03  0.13816338673E+04  0.46999998093E+01 0. -1.
       -5    1    3    3    0  502 -0.86183328414E+03  0.95261342421E+03  0.80365238222E+02  0.12871323192E+04  0.46999998093E+01 0.  1.
</event>
<event>
 5   0  0.2755061E-07  0.2599557E+04  0.7818609E-02  0.8368352E-01
       -1   -1    0    0    0  501  0.00000000000E+00  0.00000000000E+00  0.13194437717E+04  0.13194437717E+04  0.50400001928E-02 0.  1.
        1   -1    0    0  501    0  0.00000000000E+00  0.00000000000E+00 -0.12804065568E+04  0.12804065568E+04  0.50400001928E-02 0. -1.
    10030    2    1    2    0    0  0.00000000000E+00  0.00000000000E+00  0.39037214963E+02  0.25998503285E+04  0.25995572366E+04 0.  0.
        4    1    3    3  502    0 -0.11082586383E+04 -0.57973284752E+03 -0.33420963530E+03  0.12946138718E+04  0.12699999809E+01 0. -1.
       -4    1    3    3    0  502  0.11082586383E+04  0.57973284752E+03  0.37324685026E+03  0.13052364567E+04  0.12699999809E+01 0.  1.
</event>
<event>
 5   0  0.2641626E-07  0.2600537E+04  0.7818609E-02  0.8368019E-01
       -1   -1    0    0    0  501  0.00000000000E+00  0.00000000000E+00  0.20254673109E+04  0.20254673109E+04  0.50400001928E-02 0. -1.
        1   -1    0    0  501    0  0.00000000000E+00  0.00000000000E+00 -0.83472012998E+03  0.83472013000E+03  0.50400001928E-02 0.  1.
    10030    2    1    2    0    0  0.00000000000E+00  0.00000000000E+00  0.11907471809E+04  0.28601874409E+04  0.26005371269E+04 0.  0.
        3    1    3    3  502    0 -0.49327283186E+03 -0.11409215343E+04  0.10151604682E+04  0.16048585048E+04  0.10100000352E+00 0. -1.
       -3    1    3    3    0  502  0.49327283186E+03  0.11409215343E+04  0.17558671276E+03  0.12553289361E+04  0.10100000352E+00 0.  1.
</event>
<event>
 5   0  0.2864801E-07  0.2600862E+04  0.7818609E-02  0.8367908E-01
       -1   -1    0    0    0  501  0.00000000000E+00  0.00000000000E+00  0.14321154469E+04  0.14321154469E+04  0.50400001928E-02 0.  1.
        1   -1    0    0  501    0  0.00000000000E+00  0.00000000000E+00 -0.11808549911E+04  0.11808549912E+04  0.50400001928E-02 0. -1.
    10030    2    1    2    0    0  0.00000000000E+00  0.00000000000E+00  0.25126045575E+03  0.26129704381E+04  0.26008619136E+04 0.  0.
        5    1    3    3  502    0 -0.15357003923E+03  0.37096572425E+03 -0.11170191832E+04  0.11869933745E+04  0.46999998093E+01 0. -1.
       -5    1    3    3    0  502  0.15357003923E+03 -0.37096572425E+03  0.13682796389E+04  0.14259770636E+04  0.46999998093E+01 0.  1.
</event>
<event>
 5   0  0.2623263E-07  0.2599603E+04  0.7818609E-02  0.8368336E-01
       -1   -1    0    0    0  501  0.00000000000E+00  0.00000000000E+00  0.13522690856E+04  0.13522690856E+04  0.50400001928E-02 0.  1.
        1   -1    0    0  501    0  0.00000000000E+00  0.00000000000E+00 -0.12493693526E+04  0.12493693526E+04  0.50400001928E-02 0. -1.
    10030    2    1    2    0    0  0.00000000000E+00  0.00000000000E+00  0.10289973305E+03  0.26016384382E+04  0.25996027020E+04 0.  0.
        1    1    3    3  502    0  0.59198435329E+03  0.13431732180E+03  0.12016962215E+04  0.13463136434E+04  0.50400001928E-02 0.  1.
       -1    1    3    3    0  502 -0.59198435329E+03 -0.13431732180E+03 -0.10987964885E+04  0.12553247949E+04  0.50400001928E-02 0. -1.
</event>
<event>
 5   0  0.2294625E-07  0.2599435E+04  0.7818609E-02  0.8368393E-01
        3   -1    0    0  501    0  0.00000000000E+00  0.00000000000E+00  0.18830207515E+04  0.18830207542E+04  0.10100000352E+00 0.  1.
       -3   -1    0    0    0  501  0.00000000000E+00  0.00000000000E+00 -0.89710390469E+03  0.89710391038E+03  0.10100000352E+00 0. -1.
    10030    2    1    2    0    0  0.00000000000E+00  0.00000000000E+00  0.98591684676E+03  0.27801246645E+04  0.25994347696E+04 0.  0.
        5    1    3    3  502    0  0.11476329328E+04  0.24601579636E+03  0.10900274404E+04  0.16018011834E+04  0.46999998093E+01 0.  1.
       -5    1    3    3    0  502 -0.11476329328E+04 -0.24601579636E+03 -0.10411059366E+03  0.11783234811E+04  0.46999998093E+01 0. -1.
</event>
<event>
 5   0  0.7160320E-07  0.2599244E+04  0.7818609E-02  0.8368458E-01
        2   -1    0    0  501    0  0.00000000000E+00  0.00000000000E+00  0.13648998641E+04  0.13648998641E+04  0.25500000920E-02 0.  1.
       -2   -1    0    0    0  501  0.00000000000E+00  0.00000000000E+00 -0.12374660048E+04  0.12374660048E+04  0.25500000920E-02 0. -1.
    10030    2    1    2    0    0  0.00000000000E+00  0.00000000000E+00  0.12743385938E+03  0.26023658689E+04  0.25992438760E+04 0.  0.
        1    1    3    3  502    0 -0.38410751585E+03  0.72413313116E+03  0.10734468971E+04  0.13506278600E+04  0.50400001928E-02 0.  1.
       -1    1    3    3    0  502  0.38410751585E+03 -0.72413313116E+03 -0.94601303770E+03  0.12517380089E+04  0.50400001928E-02 0. -1.
</event>
<event>
 5   0  0.2623263E-07  0.2600254E+04  0.7818609E-02  0.8368115E-01
       -1   -1    0    0    0  501  0.00000000000E+00  0.00000000000E+00  0.88308192109E+03  0.88308192110E+03  0.50400001928E-02 0.  1.
        1   -1    0    0  501    0  0.00000000000E+00  0.00000000000E+00 -0.19141260326E+04  0.19141260326E+04  0.50400001928E-02 0. -1.
    10030    2    1    2    0    0  0.00000000000E+00  0.00000000000E+00 -0.10310441115E+04  0.27972079537E+04  0.26002539061E+04 0.  0.
        1    1    3    3  502    0 -0.11997527883E+04  0.25846992823E+03 -0.97711112300E+03  0.15687445948E+04  0.50400001928E-02 0. -1.
       -1    1    3    3    0  502  0.11997527883E+04 -0.25846992823E+03 -0.53932988498E+02  0.12284633589E+04  0.50400001928E-02 0.  1.
</event>
<event>
 5   0  0.6768478E-07  0.2608084E+04  0.7818609E-02  0.8365460E-01
       -2   -1    0    0    0  501  0.00000000000E+00  0.00000000000E+00  0.95917509192E+03  0.95917509193E+03  0.25500000920E-02 0. -1.
        2   -1    0    0  501    0  0.00000000000E+00  0.00000000000E+00 -0.17729039514E+04  0.17729039514E+04  0.25500000920E-02 0.  1.
    10030    2    1    2    0    0  0.00000000000E+00  0.00000000000E+00 -0.81372885946E+03  0.27320790433E+04  0.26080838258E+04 0.  0.
        4    1    3    3  502    0 -0.52984425353E+03  0.11899062936E+04 -0.34134671151E+03  0.13465255701E+04  0.12699999809E+01 0.  1.
       -4    1    3    3    0  502  0.52984425353E+03 -0.11899062936E+04 -0.47238214795E+03  0.13855534732E+04  0.12699999809E+01 0. -1.
</event>
<event>
 5   0  0.6599814E-07  0.2598811E+04  0.7818609E-02  0.8368605E-01
        2   -1    0    0  501    0  0.00000000000E+00  0.00000000000E+00  0.17740872219E+04  0.17740872219E+04  0.25500000920E-02 0.  1.
       -2   -1    0    0    0  501  0.00000000000E+00  0.00000000000E+00 -0.95173171317E+03  0.95173171317E+03  0.25500000920E-02 0. -1.
    10030    2    1    2    0    0  0.00000000000E+00  0.00000000000E+00  0.82235550877E+03  0.27258189351E+04  0.25988113214E+04 0.  0.
        5    1    3    3  502    0 -0.83468018534E+03 -0.99585439622E+03  0.41537203141E+03  0.13641748439E+04  0.46999998093E+01 0. -1.
       -5    1    3    3    0  502  0.83468018534E+03  0.99585439622E+03  0.40698347736E+03  0.13616440912E+04  0.46999998093E+01 0.  1.
</event>
<event>
 5   0  0.2793576E-07  0.2601402E+04  0.7818609E-02  0.8367725E-01
        1   -1    0    0  501    0  0.00000000000E+00  0.00000000000E+00  0.98580424848E+03  0.98580424849E+03  0.50400001928E-02 0.  1.
       -1   -1    0    0    0  501  0.00000000000E+00  0.00000000000E+00 -0.17161855812E+04  0.17161855812E+04  0.50400001928E-02 0. -1.
    10030    2    1    2    0    0  0.00000000000E+00  0.00000000000E+00 -0.73038133277E+03  0.27019898297E+04  0.26014019583E+04 0.  0.
        2    1    3    3  502    0 -0.11020669789E+04 -0.48707561321E+03  0.14368054996E+03  0.12134407194E+04  0.25500000920E-02 0. -1.
       -2    1    3    3    0  502  0.11020669789E+04  0.48707561321E+03 -0.87406188272E+03  0.14885491103E+04  0.25500000920E-02 0.  1.
</event>
<event>
 5   0  0.2623263E-07  0.2602799E+04  0.7818609E-02  0.8367251E-01
       -1   -1    0    0    0  501  0.00000000000E+00  0.00000000000E+00  0.82922512577E+03  0.82922512579E+03  0.50400001928E-02 0.  1.
        1   -1    0    0  501    0  0.00000000000E+00  0.00000000000E+00 -0.20424382757E+04  0.20424382757E+04  0.50400001928E-02 0. -1.
    10030    2    1    2    0    0  0.00000000000E+00  0.00000000000E+00 -0.12132131499E+04  0.28716634015E+04  0.26027993669E+04 0.  0.
        1    1    3    3  502    0  0.17115586918E+03 -0.18141652933E+03 -0.20158230380E+04  0.20311939368E+04  0.50400001928E-02 0. -1.
       -1    1    3    3    0  502 -0.17115586918E+03  0.18141652933E+03  0.80260988802E+03  0.84046946467E+03  0.50400001928E-02 0.  1.
</event>
<event>
 5   0  0.6780984E-07  0.2599878E+04  0.7818609E-02  0.8368243E-01
       -2   -1    0    0    0  501  0.00000000000E+00  0.00000000000E+00  0.10247102050E+04  0.10247102050E+04  0.25500000920E-02 0. -1.
        2   -1    0    0  501    0  0.00000000000E+00  0.00000000000E+00 -0.16490921419E+04  0.16490921419E+04  0.25500000920E-02 0.  1.
    10030    2    1    2    0    0  0.00000000000E+00  0.00000000000E+00 -0.62438193682E+03  0.26738023469E+04  0.25998781101E+04 0.  0.
        2    1    3    3  502    0  0.13012997244E+03 -0.12291068349E+04  0.10200632875E+03  0.12401785002E+04  0.25500000920E-02 0. -1.
       -2    1    3    3    0  502 -0.13012997244E+03  0.12291068349E+04 -0.72638826557E+03  0.14336238467E+04  0.25500000920E-02 0.  1.
</event>
<event>
 5   0  0.2641626E-07  0.2601759E+04  0.7818609E-02  0.8367604E-01
       -1   -1    0    0    0  501  0.00000000000E+00  0.00000000000E+00  0.15411389524E+04  0.15411389525E+04  0.50400001928E-02 0.  1.
        1   -1    0    0  501    0  0.00000000000E+00  0.00000000000E+00 -0.10980755932E+04  0.10980755932E+04  0.50400001928E-02 0. -1.
    10030    2    1    2    0    0  0.00000000000E+00  0.00000000000E+00  0.44306335929E+03  0.26392145456E+04  0.26017586893E+04 0.  0.
        3    1    3    3  502    0  0.34986365722E+03  0.87925372454E+02 -0.10463224008E+04  0.11067637627E+04  0.10100000352E+00 0. -1.
       -3    1    3    3    0  502 -0.34986365722E+03 -0.87925372454E+02  0.14893857601E+04  0.15324507830E+04  0.10100000352E+00 0.  1.
</event>
<event>
 5   0  0.2641626E-07  0.2588488E+04  0.7818609E-02  0.8372122E-01
        1   -1    0    0  501    0  0.00000000000E+00  0.00000000000E+00  0.21061040128E+04  0.21061040128E+04  0.50400001928E-02 0.  1.
       -1   -1    0    0    0  501  0.00000000000E+00  0.00000000000E+00 -0.79533970185E+03  0.79533970186E+03  0.50400001928E-02 0. -1.
    10030    2    1    2    0    0  0.00000000000E+00  0.00000000000E+00  0.13107643110E+04  0.29014437147E+04  0.25884884683E+04 0.  0.
        3    1    3    3  502    0  0.84912283794E+03 -0.35681589867E+02  0.17495034048E+04  0.19450051268E+04  0.10100000352E+00 0.  1.
       -3    1    3    3    0  502 -0.84912283794E+03  0.35681589867E+02 -0.43873909380E+03  0.95643858789E+03  0.10100000352E+00 0. -1.
</event>
<event>
 5   0  0.6780984E-07  0.2598739E+04  0.7818609E-02  0.8368630E-01
       -2   -1    0    0    0  501  0.00000000000E+00  0.00000000000E+00  0.87070693901E+03  0.87070693901E+03  0.25500000920E-02 0. -1.
        2   -1    0    0  501    0  0.00000000000E+00  0.00000000000E+00 -0.19390693135E+04  0.19390693135E+04  0.25500000920E-02 0.  1.
    10030    2    1    2    0    0  0.00000000000E+00  0.00000000000E+00 -0.10683623744E+04  0.28097762525E+04  0.25987390069E+04 0.  0.
        2    1    3    3  502    0 -0.49657044940E+03 -0.97886304423E+03  0.21770988605E+03  0.11189962757E+04  0.25500000920E-02 0. -1.
       -2    1    3    3    0  502  0.49657044940E+03  0.97886304423E+03 -0.12860722605E+04  0.16907799768E+04  0.25500000920E-02 0.  1.
</event>
<event>
 5   0  0.2864801E-07  0.2600425E+04  0.7818609E-02  0.8368057E-01
        1   -1    0    0  501    0  0.00000000000E+00  0.00000000000E+00  0.14114571957E+04  0.14114571957E+04  0.50400001928E-02 0. -1.
       -1   -1    0    0    0  501  0.00000000000E+00  0.00000000000E+00 -0.11977358236E+04  0.11977358236E+04  0.50400001928E-02 0.  1.
    10030    2    1    2    0    0  0.00000000000E+00  0.00000000000E+00  0.21372137209E+03  0.26091930193E+04  0.26004252320E+04 0.  0.
        5    1    3    3  502    0  0.31611624220E+03 -0.10719935256E+04 -0.55978232336E+03  0.12499911748E+04  0.46999998093E+01 0.  1.
       -5    1    3    3    0  502 -0.31611624220E+03  0.10719935256E+04  0.77350369545E+03  0.13592018446E+04  0.46999998093E+01 0. -1.
</event>
<event>
 5   0  0.6526351E-07  0.2599677E+04  0.7818609E-02  0.8368311E-01
       -2   -1    0    0    0  501  0.00000000000E+00  0.00000000000E+00  0.80362675186E+03  0.80362675186E+03  0.25500000920E-02 0. -1.
        2   -1    0    0  501    0  0.00000000000E+00  0.00000000000E+00 -0.21024445298E+04  0.21024445298E+04  0.25500000920E-02 0.  1.
    10030    2    1    2    0    0  0.00000000000E+00  0.00000000000E+00 -0.12988177780E+04  0.29060712817E+04  0.25996774173E+04 0.  0.
        3    1    3    3  502    0  0.12662469111E+04  0.42720431290E+02 -0.97411622958E+03  0.15981579127E+04  0.10100000352E+00 0.  1.
       -3    1    3    3    0  502 -0.12662469111E+04 -0.42720431290E+02 -0.32470154838E+03  0.13079133690E+04  0.10100000352E+00 0. -1.
</event>
<event>
 5   0  0.6526351E-07  0.2599220E+04  0.7818609E-02  0.8368466E-01
        2   -1    0    0  501    0  0.00000000000E+00  0.00000000000E+00  0.23626751781E+04  0.23626751781E+04  0.25500000920E-02 0.  1.
       -2   -1    0    0    0  501  0.00000000000E+00  0.00000000000E+00 -0.71486160466E+03  0.71486160466E+03  0.25500000920E-02 0. -1.
    10030    2    1    2    0    0  0.00000000000E+00  0.00000000000E+00  0.16478135734E+04  0.30775367827E+04  0.25992197053E+04 0.  0.
        3    1    3    3  502    0  0.10173078099E+04  0.71820732683E+03  0.38366529712E+03  0.13030487385E+04  0.10100000352E+00 0. -1.
       -3    1    3    3    0  502 -0.10173078099E+04 -0.71820732683E+03  0.12641482763E+04  0.17744880442E+04  0.10100000352E+00 0.  1.
</event>
<event>
 5   0  0.6780984E-07  0.2599983E+04  0.7818609E-02  0.8368207E-01
        2   -1    0    0  501    0  0.00000000000E+00  0.00000000000E+00  0.56021916173E+03  0.56021916174E+03  0.25500000920E-02 0.  1.
       -2   -1    0    0    0  501  0.00000000000E+00  0.00000000000E+00 -0.30166366193E+04  0.30166366193E+04  0.25500000920E-02 0. -1.
    10030    2    1    2    0    0  0.00000000000E+00  0.00000000000E+00 -0.24564174575E+04  0.35768557810E+04  0.25999827985E+04 0.  0.
        2    1    3    3  502    0  0.82414866431E+03 -0.87536593190E+02 -0.26060581660E+04  0.27346705177E+04  0.25500000920E-02 0. -1.
       -2    1    3    3    0  502 -0.82414866431E+03  0.87536593190E+02  0.14964070847E+03  0.84218526327E+03  0.25500000920E-02 0.  1.
</event>
<event>
 5   0  0.2755061E-07  0.2600455E+04  0.7818609E-02  0.8368047E-01
        1   -1    0    0  501    0  0.00000000000E+00  0.00000000000E+00  0.14291529835E+04  0.14291529835E+04  0.50400001928E-02 0. -1.
       -1   -1    0    0    0  501  0.00000000000E+00  0.00000000000E+00 -0.11829326448E+04  0.11829326448E+04  0.50400001928E-02 0.  1.
    10030    2    1    2    0    0  0.00000000000E+00  0.00000000000E+00  0.24622033866E+03  0.26120856283E+04  0.26004551283E+04 0.  0.
        4    1    3    3  502    0 -0.90003155351E+03  0.46398260161E+03  0.94238877572E+03  0.13832696301E+04  0.12699999809E+01 0. -1.
       -4    1    3    3    0  502  0.90003155351E+03 -0.46398260161E+03 -0.69616843706E+03  0.12288159983E+04  0.12699999809E+01 0.  1.
</event>
<event>
 5   0  0.7160320E-07  0.2600168E+04  0.7818609E-02  0.8368144E-01
        2   -1    0    0  501    0  0.00000000000E+00  0.00000000000E+00  0.24340347610E+04  0.24340347610E+04  0.25500000920E-02 0. -1.
       -2   -1    0    0    0  501  0.00000000000E+00  0.00000000000E+00 -0.69440999655E+03  0.69440999655E+03  0.25500000920E-02 0.  1.
    10030    2    1    2    0    0  0.00000000000E+00  0.00000000000E+00  0.17396247645E+04  0.31284447576E+04  0.26001677407E+04 0.  0.
        1    1    3    3  502    0 -0.52343488917E+03  0.74274878344E+03 -0.24891495266E+03  0.94213507110E+03  0.50400001928E-02 0.  1.
       -1    1    3    3    0  502  0.52343488917E+03 -0.74274878344E+03  0.19885397171E+04  0.21863096865E+04  0.50400001928E-02 0. -1.
</event>
<event>
 5   0  0.6780984E-07  0.2599105E+04  0.7818609E-02  0.8368505E-01
       -2   -1    0    0    0  501  0.00000000000E+00  0.00000000000E+00  0.99434857120E+03  0.99434857121E+03  0.25500000920E-02 0. -1.
        2   -1    0    0  501    0  0.00000000000E+00  0.00000000000E+00 -0.16984351494E+04  0.16984351494E+04  0.25500000920E-02 0.  1.
    10030    2    1    2    0    0  0.00000000000E+00  0.00000000000E+00 -0.70408657817E+03  0.26927837206E+04  0.25991048952E+04 0.  0.
        2    1    3    3  502    0 -0.29208488861E+02  0.11647579379E+04 -0.94839579468E+03  0.15023211285E+04  0.25500000920E-02 0.  1.
       -2    1    3    3    0  502  0.29208488861E+02 -0.11647579379E+04  0.24430921650E+03  0.11904625921E+04  0.25500000920E-02 0. -1.
</event>
<event>
 5   0  0.7160320E-07  0.2600959E+04  0.7818609E-02  0.8367876E-01
       -2   -1    0    0    0  501  0.00000000000E+00  0.00000000000E+00  0.66302806041E+03  0.66302806041E+03  0.25500000920E-02 0. -1.
        2   -1    0    0  501    0  0.00000000000E+00  0.00000000000E+00 -0.25507922923E+04  0.25507922923E+04  0.25500000920E-02 0.  1.
    10030    2    1    2    0    0  0.00000000000E+00  0.00000000000E+00 -0.18877642319E+04  0.32138203527E+04  0.26009589509E+04 0.  0.
        1    1    3    3  502    0 -0.68440236037E+03 -0.27115234993E+03  0.38078865355E+03  0.82881251586E+03  0.50400001928E-02 0. -1.
       -1    1    3    3    0  502  0.68440236037E+03  0.27115234993E+03 -0.22685528855E+04  0.23850078369E+04  0.50400001928E-02 0.  1.
</event>
<event>
 5   0  0.6526351E-07  0.2599794E+04  0.7818609E-02  0.8368271E-01
        2   -1    0    0  501    0  0.00000000000E+00  0.00000000000E+00  0.24197369591E+04  0.24197369591E+04  0.25500000920E-02 0. -1.
       -2   -1    0    0    0  501  0.00000000000E+00  0.00000000000E+00 -0.69831228735E+03  0.69831228735E+03  0.25500000920E-02 0.  1.
    10030    2    1    2    0    0  0.00000000000E+00  0.00000000000E+00  0.17214246717E+04  0.31180492465E+04  0.25997938770E+04 0.  0.
        3    1    3    3  502    0  0.91067480206E+03  0.51459327141E+03  0.17863060169E+04  0.20700299579E+04  0.10100000352E+00 0. -1.
       -3    1    3    3    0  502 -0.91067480206E+03 -0.51459327141E+03 -0.64881345200E+02  0.10480192886E+04  0.10100000352E+00 0.  1.
</event>
<event>
 5   0  0.2793576E-07  0.2600301E+04  0.7818609E-02  0.8368099E-01
       -1   -1    0    0    0  501  0.00000000000E+00  0.00000000000E+00  0.62448707702E+03  0.62448707704E+03  0.50400001928E-02 0. -1.
        1   -1    0    0  501    0  0.00000000000E+00  0.00000000000E+00 -0.27068467362E+04  0.27068467362E+04  0.50400001928E-02 0.  1.
    10030    2    1    2    0    0  0.00000000000E+00  0.00000000000E+00 -0.20823596592E+04  0.33313338133E+04  0.26003006029E+04 0.  0.
        2    1    3    3  502    0 -0.41156267824E+03  0.17399211424E+03  0.52302863883E+03  0.68790700751E+03  0.25500000920E-02 0. -1.
       -2    1    3    3    0  502  0.41156267824E+03 -0.17399211424E+03 -0.26053882980E+04  0.26434268058E+04  0.25500000920E-02 0.  1.
</event>
<event>
 5   0  0.6526351E-07  0.2605574E+04  0.7818609E-02  0.8366310E-01
        2   -1    0    0  501    0  0.00000000000E+00  0.00000000000E+00  0.24268542853E+04  0.24268542853E+04  0.25500000920E-02 0.  1.
       -2   -1    0    0    0  501  0.00000000000E+00  0.00000000000E+00 -0.69936365235E+03  0.69936365236E+03  0.25500000920E-02 0. -1.
    10030    2    1    2    0    0  0.00000000000E+00  0.00000000000E+00  0.17274906330E+04  0.31262179377E+04  0.26055737769E+04 0.  0.
        3    1    3    3  502    0  0.13098093952E+03  0.47105592910E+03  0.23126006182E+04  0.23637198066E+04  0.10100000352E+00 0.  1.
       -3    1    3    3    0  502 -0.13098093952E+03 -0.47105592910E+03 -0.58510998521E+03  0.76249813105E+03  0.10100000352E+00 0. -1.
</event>
<event>
 5   0  0.6768478E-07  0.2598107E+04  0.7818609E-02  0.8368845E-01
        2   -1    0    0  501    0  0.00000000000E+00  0.00000000000E+00  0.16826606748E+04  0.16826606748E+04  0.25500000920E-02 0.  1.
       -2   -1    0    0    0  501  0.00000000000E+00  0.00000000000E+00 -0.10028996019E+04  0.10028996019E+04  0.25500000920E-02 0. -1.
    10030    2    1    2    0    0  0.00000000000E+00  0.00000000000E+00  0.67976107290E+03  0.26855602767E+04  0.25981067883E+04 0.  0.
        4    1    3    3  502    0  0.91780090761E+03 -0.91856738729E+03  0.37874337937E+03  0.13526169862E+04  0.12699999809E+01 0. -1.
       -4    1    3    3    0  502 -0.91780090761E+03  0.91856738729E+03  0.30101769353E+03  0.13329432905E+04  0.12699999809E+01 0.  1.
</event>
<event>
 5   0  0.2623263E-07  0.2601597E+04  0.7818609E-02  0.8367659E-01
        1   -1    0    0  501    0  0.00000000000E+00  0.00000000000E+00  0.15237007850E+04  0.15237007850E+04  0.50400001928E-02 0.  1.
       -1   -1    0    0    0  501  0.00000000000E+00  0.00000000000E+00 -0.11105043155E+04  0.11105043155E+04  0.50400001928E-02 0. -1.
    10030    2    1    2    0    0  0.00000000000E+00  0.00000000000E+00  0.41319646947E+03  0.26342051005E+04  0.26015966615E+04 0.  0.
        1    1    3    3  502    0 -0.12838039045E+04  0.18947167899E+03  0.29729955382E+03  0.13313297890E+04  0.50400001928E-02 0.  1.
       -1    1    3    3    0  502  0.12838039045E+04 -0.18947167899E+03  0.11589691565E+03  0.13028753115E+04  0.50400001928E-02 0. -1.
</event>
<event>
 5   0  0.2793576E-07  0.2603068E+04  0.7818609E-02  0.8367160E-01
        1   -1    0    0  501    0  0.00000000000E+00  0.00000000000E+00  0.60996005187E+03  0.60996005189E+03  0.50400001928E-02 0.  1.
       -1   -1    0    0    0  501  0.00000000000E+00  0.00000000000E+00 -0.27772159370E+04  0.27772159370E+04  0.50400001928E-02 0. -1.
    10030    2    1    2    0    0  0.00000000000E+00  0.00000000000E+00 -0.21672558852E+04  0.33871759889E+04  0.26030680184E+04 0.  0.
        2    1    3    3  502    0 -0.10448909520E+04 -0.43053155728E+03 -0.24352019922E+03  0.11560521661E+04  0.25500000920E-02 0. -1.
       -2    1    3    3    0  502  0.10448909520E+04  0.43053155728E+03 -0.19237356859E+04  0.22311238228E+04  0.25500000920E-02 0.  1.
</event>
<event>
 5   0  0.2864801E-07  0.2598870E+04  0.7818609E-02  0.8368585E-01
       -1   -1    0    0    0  501  0.00000000000E+00  0.00000000000E+00  0.18903429819E+04  0.18903429819E+04  0.50400001928E-02 0.  1.
        1   -1    0    0  501    0  0.00000000000E+00  0.00000000000E+00 -0.89324078414E+03  0.89324078416E+03  0.50400001928E-02 0. -1.
    10030    2    1    2    0    0  0.00000000000E+00  0.00000000000E+00  0.99710219771E+03  0.27835837660E+04  0.25988700987E+04 0.  0.
        5    1    3    3  502    0  0.51465159606E+03  0.60217241550E+03  0.16018262991E+04  0.17869939747E+04  0.46999998093E+01 0.  1.
       -5    1    3    3    0  502 -0.51465159606E+03 -0.60217241550E+03 -0.60472410136E+03  0.99658979128E+03  0.46999998093E+01 0. -1.
</event>
<event>
 5   0  0.2294625E-07  0.2600333E+04  0.7818609E-02  0.8368088E-01
        3   -1    0    0  501    0  0.00000000000E+00  0.00000000000E+00  0.16268733112E+04  0.16268733143E+04  0.10100000352E+00 0.  1.
       -3   -1    0    0    0  501  0.00000000000E+00  0.00000000000E+00 -0.10390685340E+04  0.10390685389E+04  0.10100000352E+00 0. -1.
    10030    2    1    2    0    0  0.00000000000E+00  0.00000000000E+00  0.58780477716E+03  0.26659418533E+04  0.26003329612E+04 0.  0.
        3    1    3    3  502    0  0.84352510454E+03 -0.14724665840E+03 -0.70915745025E+03  0.11118095520E+04  0.10100000352E+00 0. -1.
       -3    1    3    3    0  502 -0.84352510454E+03  0.14724665840E+03  0.12969622274E+04  0.15541323013E+04  0.10100000352E+00 0.  1.
</event>
<event>
 5   0  0.2641626E-07  0.2595005E+04  0.7818609E-02  0.8369900E-01
       -1   -1    0    0    0  501  0.00000000000E+00  0.00000000000E+00  0.11447464093E+04  0.11447464093E+04  0.50400001928E-02 0.  1.
        1   -1    0    0  501    0  0.00000000000E+00  0.00000000000E+00 -0.14706421437E+04  0.14706421437E+04  0.50400001928E-02 0. -1.
    10030    2    1    2    0    0  0.00000000000E+00  0.00000000000E+00 -0.32589573437E+03  0.26153885530E+04  0.25950046731E+04 0.  0.
        3    1    3    3  502    0  0.77122136476E+03 -0.17968273090E+03  0.87296045027E+03  0.11786128436E+04  0.10100000352E+00 0.  1.
       -3    1    3    3    0  502 -0.77122136476E+03  0.17968273090E+03 -0.11988561846E+04  0.14367757093E+04  0.10100000352E+00 0. -1.
</event>
<event>
 5   0  0.6768478E-07  0.2600664E+04  0.7818609E-02  0.8367976E-01
        2   -1    0    0  501    0  0.00000000000E+00  0.00000000000E+00  0.13303941322E+04  0.13303941322E+04  0.25500000920E-02 0.  1.
       -2   -1    0    0    0  501  0.00000000000E+00  0.00000000000E+00 -0.12709495047E+04  0.12709495047E+04  0.25500000920E-02 0. -1.
    10030    2    1    2    0    0  0.00000000000E+00  0.00000000000E+00  0.59444627417E+02  0.26013436369E+04  0.26006643485E+04 0.  0.
        4    1    3    3  502    0  0.16563291064E+03  0.12672001682E+04  0.26985089080E+03  0.13061591188E+04  0.12699999809E+01 0. -1.
       -4    1    3    3    0  502 -0.16563291064E+03 -0.12672001682E+04 -0.21040626339E+03  0.12951845181E+04  0.12699999809E+01 0.  1.
</event>
<event>
 5   0  0.2623263E-07  0.2600510E+04  0.7818609E-02  0.8368028E-01
        1   -1    0    0  501    0  0.00000000000E+00  0.00000000000E+00  0.12505909757E+04  0.12505909757E+04  0.50400001928E-02 0.  1.
       -1   -1    0    0    0  501  0.00000000000E+00  0.00000000000E+00 -0.13518909331E+04  0.13518909331E+04  0.50400001928E-02 0. -1.
    10030    2    1    2    0    0  0.00000000000E+00  0.00000000000E+00 -0.10129995738E+03  0.26024819088E+04  0.26005096432E+04 0.  0.
        1    1    3    3  502    0  0.44544542550E+03  0.10659477602E+04  0.54645682693E+03  0.12779989508E+04  0.50400001928E-02 0.  1.
       -1    1    3    3    0  502 -0.44544542550E+03 -0.10659477602E+04 -0.64775678431E+03  0.13244829580E+04  0.50400001928E-02 0. -1.
</event>
<event>
 5   0  0.6599814E-07  0.2600486E+04  0.7818609E-02  0.8368036E-01
       -2   -1    0    0    0  501  0.00000000000E+00  0.00000000000E+00  0.23669954412E+04  0.23669954412E+04  0.25500000920E-02 0.  1.
        2   -1    0    0  501    0  0.00000000000E+00  0.00000000000E+00 -0.71425236918E+03  0.71425236918E+03  0.25500000920E-02 0. -1.
    10030    2    1    2    0    0  0.00000000000E+00  0.00000000000E+00  0.16527430720E+04  0.30812478103E+04  0.26004861866E+04 0.  0.
        5    1    3    3  502    0  0.73025963336E+03  0.50902174556E+03  0.19493341787E+04  0.21429671252E+04  0.46999998093E+01 0.  1.
       -5    1    3    3    0  502 -0.73025963336E+03 -0.50902174556E+03 -0.29659110667E+03  0.93828068515E+03  0.46999998093E+01 0. -1.
</event>
<event>
 5   0  0.6599814E-07  0.2600668E+04  0.7818609E-02  0.8367974E-01
        2   -1    0    0  501    0  0.00000000000E+00  0.00000000000E+00  0.16187310802E+04  0.16187310802E+04  0.25500000920E-02 0.  1.
       -2   -1    0    0    0  501  0.00000000000E+00  0.00000000000E+00 -0.10445643399E+04  0.10445643399E+04  0.25500000920E-02 0. -1.
    10030    2    1    2    0    0  0.00000000000E+00  0.00000000000E+00  0.57416674031E+03  0.26632954202E+04  0.26006681929E+04 0.  0.
        5    1    3    3  502    0  0.31267781893E+03 -0.11738061584E+04 -0.18804876675E+03  0.12292163132E+04  0.46999998093E+01 0. -1.
       -5    1    3    3    0  502 -0.31267781893E+03  0.11738061584E+04  0.76221550705E+03  0.14340791070E+04  0.46999998093E+01 0.  1.
</event>
<event>
 5   0  0.6599814E-07  0.2600871E+04  0.7818609E-02  0.8367905E-01
        2   -1    0    0  501    0  0.00000000000E+00  0.00000000000E+00  0.13240670305E+04  0.13240670305E+04  0.25500000920E-02 0.  1.
       -2   -1    0    0    0  501  0.00000000000E+00  0.00000000000E+00 -0.12772256632E+04  0.12772256632E+04  0.25500000920E-02 0. -1.
    10030    2    1    2    0    0  0.00000000000E+00  0.00000000000E+00  0.46841367321E+02  0.26012926938E+04  0.26008709243E+04 0.  0.
        5    1    3    3  502    0  0.48146533769E+03  0.11908857064E+04 -0.17932544545E+03  0.12969955059E+04  0.46999998093E+01 0. -1.
       -5    1    3    3    0  502 -0.48146533769E+03 -0.11908857064E+04  0.22616681277E+03  0.13042971878E+04  0.46999998093E+01 0.  1.
</event>
<event>
 5   0  0.6780984E-07  0.2602879E+04  0.7818609E-02  0.8367224E-01
       -2   -1    0    0    0  501  0.00000000000E+00  0.00000000000E+00  0.92890403635E+03  0.92890403636E+03  0.25500000920E-02 0. -1.
        2   -1    0    0  501    0  0.00000000000E+00  0.00000000000E+00 -0.18233797604E+04  0.18233797604E+04  0.25500000920E-02 0.  1.
    10030    2    1    2    0    0  0.00000000000E+00  0.00000000000E+00 -0.89447572407E+03  0.27522837968E+04  0.26028790362E+04 0.  0.
        2    1    3    3  502    0 -0.29472533269E+02 -0.45239589725E+03 -0.17371850831E+04  0.17953670074E+04  0.25500000920E-02 0.  1.
       -2    1    3    3    0  502  0.29472533269E+02  0.45239589725E+03  0.84270935905E+03  0.95691678943E+03  0.25500000920E-02 0. -1.
</event>
<event>
 5   0  0.2755061E-07  0.2595736E+04  0.7818609E-02  0.8369651E-01
       -1   -1    0    0    0  501  0.00000000000E+00  0.00000000000E+00  0.92516155452E+03  0.92516155453E+03  0.50400001928E-02 0. -1.
        1   -1    0    0  501    0  0.00000000000E+00  0.00000000000E+00 -0.18207208408E+04  0.18207208408E+04  0.50400001928E-02 0.  1.
    10030    2    1    2    0    0  0.00000000000E+00  0.00000000000E+00 -0.89555928627E+03  0.27458823953E+04  0.25957356749E+04 0.  0.
        4    1    3    3  502    0 -0.84159410346E+03 -0.93871013321E+03 -0.77383230685E+03  0.14792820560E+04  0.12699999809E+01 0. -1.
       -4    1    3    3    0  502  0.84159410346E+03  0.93871013321E+03 -0.12172697942E+03  0.12666003393E+04  0.12699999809E+01 0.  1.
</event>
<event>
 5   0  0.7160320E-07  0.2600111E+04  0.7818609E-02  0.8368163E-01
        2   -1    0    0  501    0  0.00000000000E+00  0.00000000000E+00  0.98982967471E+03  0.98982967471E+03  0.25500000920E-02 0.  1.
       -2   -1    0    0    0  501  0.00000000000E+00  0.00000000000E+00 -0.17075102675E+04  0.17075102675E+04  0.25500000920E-02 0. -1.
    10030    2    1    2    0    0  0.00000000000E+00  0.00000000000E+00 -0.71768059282E+03  0.26973399422E+04  0.26001110228E+04 0.  0.
        1    1    3    3  502    0  0.60818505439E+03 -0.25685624155E+03 -0.15206662253E+04  0.16577967179E+04  0.50400001928E-02 0. -1.
       -1    1    3    3    0  502 -0.60818505439E+03  0.25685624155E+03  0.80298563248E+03  0.10395432243E+04  0.50400001928E-02 0.  1.
</event>
<event>
 5   0  0.6599814E-07  0.2600939E+04  0.7818609E-02  0.8367882E-01
       -2   -1    0    0    0  501  0.00000000000E+00  0.00000000000E+00  0.96990260932E+03  0.96990260933E+03  0.25500000920E-02 0.  1.
        2   -1    0    0  501    0  0.00000000000E+00  0.00000000000E+00 -0.17437020392E+04  0.17437020392E+04  0.25500000920E-02 0. -1.
    10030    2    1    2    0    0  0.00000000000E+00  0.00000000000E+00 -0.77379942986E+03  0.27136046485E+04  0.26009391824E+04 0.  0.
        5    1    3    3  502    0  0.76112587864E+03 -0.92672799138E+03 -0.91174292516E+03  0.15064642793E+04  0.46999998093E+01 0.  1.
       -5    1    3    3    0  502 -0.76112587864E+03  0.92672799138E+03  0.13794349530E+03  0.12071403692E+04  0.46999998093E+01 0. -1.
</event>
<event>
 5   0  0.6768478E-07  0.2599644E+04  0.7818609E-02  0.8368322E-01
        2   -1    0    0  501    0  0.00000000000E+00  0.00000000000E+00  0.12340239715E+04  0.12340239715E+04  0.25500000920E-02 0.  1.
       -2   -1    0    0    0  501  0.00000000000E+00  0.00000000000E+00 -0.13691288101E+04  0.13691288101E+04  0.25500000920E-02 0. -1.
    10030    2    1    2    0    0  0.00000000000E+00  0.00000000000E+00 -0.13510483863E+03  0.26031527816E+04  0.25996444155E+04 0.  0.
        4    1    3    3  502    0  0.53557222759E+03 -0.72072725620E+03  0.87353013378E+03  0.12527337691E+04  0.12699999809E+01 0.  1.
       -4    1    3    3    0  502 -0.53557222759E+03  0.72072725620E+03 -0.10086349724E+04  0.13504190125E+04  0.12699999809E+01 0. -1.
</event>
<event>
 5   0  0.6526351E-07  0.2599699E+04  0.7818609E-02  0.8368303E-01
       -2   -1    0    0    0  501  0.00000000000E+00  0.00000000000E+00  0.12950813852E+04  0.12950813852E+04  0.25500000920E-02 0.  1.
        2   -1    0    0  501    0  0.00000000000E+00  0.00000000000E+00 -0.13046356019E+04  0.13046356019E+04  0.25500000920E-02 0. -1.
    10030    2    1    2    0    0  0.00000000000E+00  0.00000000000E+00 -0.95542166969E+01  0.25997169871E+04  0.25996994307E+04 0.  0.
        3    1    3    3  502    0 -0.64647855182E+03 -0.55663453957E+03 -0.98551445069E+03  0.13034628001E+04  0.10100000352E+00 0. -1.
       -3    1    3    3    0  502  0.64647855182E+03  0.55663453957E+03  0.97596023399E+03  0.12962541869E+04  0.10100000352E+00 0.  1.
</event>
<event>
 5   0  0.6599814E-07  0.2596820E+04  0.7818609E-02  0.8369282E-01
       -2   -1    0    0    0  501  0.00000000000E+00  0.00000000000E+00  0.13011243123E+04  0.13011243123E+04  0.25500000920E-02 0. -1.
        2   -1    0    0  501    0  0.00000000000E+00  0.00000000000E+00 -0.12957013342E+04  0.12957013342E+04  0.25500000920E-02 0.  1.
    10030    2    1    2    0    0  0.00000000000E+00  0.00000000000E+00  0.54229781269E+01  0.25968256466E+04  0.25968199841E+04 0.  0.
        5    1    3    3  502    0 -0.71189000341E+03  0.24827843578E+03  0.10597931945E+04  0.13006203380E+04  0.46999998093E+01 0. -1.
       -5    1    3    3    0  502  0.71189000341E+03 -0.24827843578E+03 -0.10543702164E+04  0.12962053085E+04  0.46999998093E+01 0.  1.
</event>
<event>
 5   0  0.2755061E-07  0.2601718E+04  0.7818609E-02  0.8367618E-01
        1   -1    0    0  501    0  0.00000000000E+00  0.00000000000E+00  0.17007330548E+04  0.17007330548E+04  0.50400001928E-02 0. -1.
       -1   -1    0    0    0  501  0.00000000000E+00  0.00000000000E+00 -0.99500297153E+03  0.99500297154E+03  0.50400001928E-02 0.  1.
    10030    2    1    2    0    0  0.00000000000E+00  0.00000000000E+00  0.70573008322E+03  0.26957360263E+04  0.26017182348E+04 0.  0.
        4    1    3    3  502    0  0.12905054690E+04 -0.97898982868E+02  0.21680227134E+03  0.13122474668E+04  0.12699999809E+01 0. -1.
       -4    1    3    3    0  502 -0.12905054690E+04  0.97898982868E+02  0.48892781188E+03  0.13834885595E+04  0.12699999809E+01 0.  1.
</event>
<event>
 5   0  0.2641626E-07  0.2600396E+04  0.7818609E-02  0.8368067E-01
        1   -1    0    0  501    0  0.00000000000E+00  0.00000000000E+00  0.18967846237E+04  0.18967846237E+04  0.50400001928E-02 0.  1.
       -1   -1    0    0    0  501  0.00000000000E+00  0.00000000000E+00 -0.89125293427E+03  0.89125293429E+03  0.50400001928E-02 0. -1.
    10030    2    1    2    0    0  0.00000000000E+00  0.00000000000E+00  0.10055316894E+04  0.27880375580E+04  0.26003960172E+04 0.  0.
        3    1    3    3  502    0  0.12806353350E+04  0.85619004694E+02  0.28003177925E+03  0.13136876656E+04  0.10100000352E+00 0.  1.
       -3    1    3    3    0  502 -0.12806353350E+04 -0.85619004694E+02  0.72549991014E+03  0.14743498923E+04  0.10100000352E+00 0. -1.
</event>
<event>
 5   0  0.2864801E-07  0.2601956E+04  0.7818609E-02  0.8367537E-01
        1   -1    0    0  501    0  0.00000000000E+00  0.00000000000E+00  0.16797023758E+04  0.16797023758E+04  0.50400001928E-02 0.  1.
       -1   -1    0    0    0  501  0.00000000000E+00  0.00000000000E+00 -0.10076452239E+04  0.10076452239E+04  0.50400001928E-02 0. -1.
    10030    2    1    2    0    0  0.00000000000E+00  0.00000000000E+00  0.67205715184E+03  0.26873475997E+04  0.26019562460E+04 0.  0.
        5    1    3    3  502    0 -0.17648820874E+03 -0.79767080649E+03 -0.70966864010E+03  0.10821637917E+04  0.46999998093E+01 0. -1.
       -5    1    3    3    0  502  0.17648820874E+03  0.79767080649E+03  0.13817257919E+04  0.16051838080E+04  0.46999998093E+01 0.  1.
</event>
<event>
 5   0  0.7160320E-07  0.2599872E+04  0.7818609E-02  0.8368245E-01
       -2   -1    0    0    0  501  0.00000000000E+00  0.00000000000E+00  0.13104503115E+04  0.13104503115E+04  0.25500000920E-02 0.  1.
        2   -1    0    0  501    0  0.00000000000E+00  0.00000000000E+00 -0.12895060032E+04  0.12895060032E+04  0.25500000920E-02 0. -1.
    10030    2    1    2    0    0  0.00000000000E+00  0.00000000000E+00  0.20944308316E+02  0.25999563147E+04  0.25998719534E+04 0.  0.
        1    1    3    3  502    0 -0.11257238576E+04 -0.47499686636E+03  0.45428528927E+03  0.13035533555E+04  0.50400001928E-02 0. -1.
       -1    1    3    3    0  502  0.11257238576E+04  0.47499686636E+03 -0.43334098096E+03  0.12964029591E+04  0.50400001928E-02 0.  1.
</event>
<event>
 5   0  0.6599814E-07  0.2599727E+04  0.7818609E-02  0.8368294E-01
       -2   -1    0    0    0  501  0.00000000000E+00  0.00000000000E+00  0.72287971492E+03  0.72287971493E+03  0.25500000920E-02 0. -1.
        2   -1    0    0  501    0  0.00000000000E+00  0.00000000000E+00 -0.23373808839E+04  0.23373808839E+04  0.25500000920E-02 0.  1.
    10030    2    1    2    0    0  0.00000000000E+00  0.00000000000E+00 -0.16145011690E+04  0.30602605988E+04  0.25997270834E+04 0.  0.
        5    1    3    3  502    0  0.11103266890E+04  0.11285935340E+03 -0.22825005494E+02  0.11162910287E+04  0.46999998093E+01 0. -1.
       -5    1    3    3    0  502 -0.11103266890E+04 -0.11285935340E+03 -0.15916761635E+04  0.19439695701E+04  0.46999998093E+01 0.  1.
</event>
<event>
 5   0  0.2864801E-07  0.2600703E+04  0.7818609E-02  0.8367962E-01
       -1   -1    0    0    0  501  0.00000000000E+00  0.00000000000E+00  0.14766319399E+04  0.14766319399E+04  0.50400001928E-02 0.  1.
        1   -1    0    0  501    0  0.00000000000E+00  0.00000000000E+00 -0.11451156890E+04  0.11451156890E+04  0.50400001928E-02 0. -1.
    10030    2    1    2    0    0  0.00000000000E+00  0.00000000000E+00  0.33151625093E+03  0.26217476289E+04  0.26007032904E+04 0.  0.
        5    1    3    3  502    0  0.10330357936E+02  0.62886114694E+03 -0.98157223793E+03  0.11657955252E+04  0.46999998093E+01 0. -1.
       -5    1    3    3    0  502 -0.10330357936E+02 -0.62886114694E+03  0.13130884889E+04  0.14559521036E+04  0.46999998093E+01 0.  1.
</event>
<event>
 5   0  0.2623263E-07  0.2600768E+04  0.7818609E-02  0.8367940E-01
        1   -1    0    0  501    0  0.00000000000E+00  0.00000000000E+00  0.13878413906E+04  0.13878413906E+04  0.50400001928E-02 0. -1.
       -1   -1    0    0    0  501  0.00000000000E+00  0.00000000000E+00 -0.12184377364E+04  0.12184377364E+04  0.50400001928E-02 0.  1.
    10030    2    1    2    0    0  0.00000000000E+00  0.00000000000E+00  0.16940365423E+03  0.26062791271E+04  0.26007678270E+04 0.  0.
        1    1    3    3  502    0  0.32257402329E+03 -0.16946625212E+03  0.13356361162E+04  0.13844481377E+04  0.50400001928E-02 0. -1.
       -1    1    3    3    0  502 -0.32257402329E+03  0.16946625212E+03 -0.11662324620E+04  0.12218309893E+04  0.50400001928E-02 0.  1.
</event>
<event>
 5   0  0.6768478E-07  0.2599173E+04  0.7818609E-02  0.8368482E-01
        2   -1    0    0  501    0  0.00000000000E+00  0.00000000000E+00  0.15636031835E+04  0.15636031835E+04  0.25500000920E-02 0.  1.
       -2   -1    0    0    0  501  0.00000000000E+00  0.00000000000E+00 -0.10801497026E+04  0.10801497026E+04  0.25500000920E-02 0. -1.
    10030    2    1    2    0    0  0.00000000000E+00  0.00000000000E+00  0.48345348093E+03  0.26437528861E+04  0.25991733406E+04 0.  0.
        4    1    3    3  502    0  0.48711036297E+03  0.10190198490E+04 -0.41214100394E+03  0.12023060252E+04  0.12699999809E+01 0. -1.
       -4    1    3    3    0  502 -0.48711036297E+03 -0.10190198490E+04  0.89559448487E+03  0.14414468608E+04  0.12699999809E+01 0.  1.
</event>
<event>
 5   0  0.2623263E-07  0.2599729E+04  0.7818609E-02  0.8368293E-01
        1   -1    0    0  501    0  0.00000000000E+00  0.00000000000E+00  0.78105257074E+03  0.78105257076E+03  0.50400001928E-02 0.  1.
       -1   -1    0    0    0  501  0.00000000000E+00  0.00000000000E+00 -0.21632962807E+04  0.21632962807E+04  0.50400001928E-02 0. -1.
    10030    2    1    2    0    0  0.00000000000E+00  0.00000000000E+00 -0.13822437099E+04  0.29443488514E+04  0.25997293100E+04 0.  0.
        1    1    3    3  502    0 -0.23939616718E+03 -0.65540373885E+03 -0.19332170204E+04  0.20552840762E+04  0.50400001928E-02 0. -1.
       -1    1    3    3    0  502  0.23939616718E+03  0.65540373885E+03  0.55097331046E+03  0.88906477527E+03  0.50400001928E-02 0.  1.
</event>
<event>
 5   0  0.6768478E-07  0.2599381E+04  0.7818609E-02  0.8368412E-01
        2   -1    0    0  501    0  0.00000000000E+00  0.00000000000E+00  0.20589686200E+04  0.20589686200E+04  0.25500000920E-02 0. -1.
       -2   -1    0    0    0  501  0.00000000000E+00  0.00000000000E+00 -0.82040849637E+03  0.82040849637E+03  0.25500000920E-02 0.  1.
    10030    2    1    2    0    0  0.00000000000E+00  0.00000000000E+00  0.12385601237E+04  0.28793771164E+04  0.25993809645E+04 0.  0.
        4    1    3    3  502    0 -0.47549469985E+03 -0.12816377871E+03  0.19516159874E+04  0.20127910321E+04  0.12699999809E+01 0. -1.
       -4    1    3    3    0  502  0.47549469985E+03  0.12816377871E+03 -0.71305586375E+03  0.86658608429E+03  0.12699999809E+01 0.  1.
</event>
<event>
 5   0  0.7160320E-07  0.2598911E+04  0.7818609E-02  0.8368571E-01
        2   -1    0    0  501    0  0.00000000000E+00  0.00000000000E+00  0.23917865676E+04  0.23917865676E+04  0.25500000920E-02 0.  1.
       -2   -1    0    0    0  501  0.00000000000E+00  0.00000000000E+00 -0.70599323147E+03  0.70599323148E+03  0.25500000920E-02 0. -1.
    10030    2    1    2    0    0  0.00000000000E+00  0.00000000000E+00  0.16857933361E+04  0.30977797991E+04  0.25989114089E+04 0.  0.
        1    1    3    3  502    0  0.71913711992E+03 -0.82950546013E+03  0.16715804912E+04  0.19998547057E+04  0.50400001928E-02 0.  1.
       -1    1    3    3    0  502 -0.71913711992E+03  0.82950546013E+03  0.14212844994E+02  0.10979250934E+04  0.50400001928E-02 0. -1.
</event>
<event>
 5   0  0.2294625E-07  0.2599990E+04  0.7818609E-02  0.8368205E-01
        4   -1    0    0  501    0  0.00000000000E+00  0.00000000000E+00  0.13872048585E+04  0.13872054399E+04  0.12699999809E+01 0. -1.
       -4   -1    0    0    0  501  0.00000000000E+00  0.00000000000E+00 -0.12182667740E+04  0.12182674360E+04  0.12699999809E+01 0.  1.
    10030    2    1    2    0    0  0.00000000000E+00  0.00000000000E+00  0.16893808447E+03  0.26054728759E+04  0.25999901597E+04 0.  0.
        1    1    3    3  502    0  0.84876280264E+03 -0.47012527081E+03  0.95149358757E+03  0.13589540510E+04  0.50400001928E-02 0. -1.
       -1    1    3    3    0  502 -0.84876280264E+03  0.47012527081E+03 -0.78255550310E+03  0.12465188249E+04  0.50400001928E-02 0.  1.
</event>
<event>
 5   0  0.2623263E-07  0.2600527E+04  0.7818609E-02  0.8368022E-01
        1   -1    0    0  501    0  0.00000000000E+00  0.00000000000E+00  0.15329611738E+04  0.15329611738E+04  0.50400001928E-02 0.  1.
       -1   -1    0    0    0  501  0.00000000000E+00  0.00000000000E+00 -0.11028883349E+04  0.11028883349E+04  0.50400001928E-02 0. -1.
    10030    2    1    2    0    0  0.00000000000E+00  0.00000000000E+00  0.43007283892E+03  0.26358495087E+04  0.26005268669E+04 0.  0.
        1    1    3    3  502    0 -0.26424743809E+03  0.10852663060E+04 -0.45962868879E+03  0.12078444415E+04  0.50400001928E-02 0.  1.
       -1    1    3    3    0  502  0.26424743809E+03 -0.10852663060E+04  0.88970152770E+03  0.14280050671E+04  0.50400001928E-02 0. -1.
</event>
<event>
 5   0  0.2294625E-07  0.2600690E+04  0.7818609E-02  0.8367967E-01
       -3   -1    0    0    0  501  0.00000000000E+00  0.00000000000E+00  0.16312432736E+04  0.16312432767E+04  0.10100000352E+00 0. -1.
        3   -1    0    0  501    0  0.00000000000E+00  0.00000000000E+00 -0.10365693702E+04  0.10365693752E+04  0.10100000352E+00 0.  1.
    10030    2    1    2    0    0  0.00000000000E+00  0.00000000000E+00  0.59467390337E+03  0.26678126519E+04  0.26006897728E+04 0.  0.
        4    1    3    3  502    0  0.10088677309E+04 -0.28939357163E+03  0.10848304267E+04  0.15094440716E+04  0.12699999809E+01 0. -1.
       -4    1    3    3    0  502 -0.10088677309E+04  0.28939357163E+03 -0.49015652330E+03  0.11583685803E+04  0.12699999809E+01 0.  1.
</event>
<event>
 5   0  0.6768478E-07  0.2599683E+04  0.7818609E-02  0.8368309E-01
       -2   -1    0    0    0  501  0.00000000000E+00  0.00000000000E+00  0.10119847958E+04  0.10119847958E+04  0.25500000920E-02 0. -1.
        2   -1    0    0  501    0  0.00000000000E+00  0.00000000000E+00 -0.16695788498E+04  0.16695788498E+04  0.25500000920E-02 0.  1.
    10030    2    1    2    0    0  0.00000000000E+00  0.00000000000E+00 -0.65759405406E+03  0.26815636456E+04  0.25996833741E+04 0.  0.
        4    1    3    3  502    0 -0.27013360283E+03  0.12521304672E+04 -0.10096958358E+03  0.12849121915E+04  0.12699999809E+01 0.  1.
       -4    1    3    3    0  502  0.27013360283E+03 -0.12521304672E+04 -0.55662447048E+03  0.13966514541E+04  0.12699999809E+01 0. -1.
</event>
<event>
 5   0  0.2755061E-07  0.2600533E+04  0.7818609E-02  0.8368020E-01
        1   -1    0    0  501    0  0.00000000000E+00  0.00000000000E+00  0.16273656091E+04  0.16273656091E+04  0.50400001928E-02 0. -1.
       -1   -1    0    0    0  501  0.00000000000E+00  0.00000000000E+00 -0.10389143073E+04  0.10389143073E+04  0.50400001928E-02 0.  1.
    10030    2    1    2    0    0  0.00000000000E+00  0.00000000000E+00  0.58845130178E+03  0.26662799164E+04  0.26005333410E+04 0.  0.
        4    1    3    3  502    0  0.11828261962E+04 -0.60603456049E+02 -0.25594222630E+03  0.12117172218E+04  0.12699999809E+01 0. -1.
       -4    1    3    3    0  502 -0.11828261962E+04  0.60603456049E+02  0.84439352809E+03  0.14545626946E+04  0.12699999809E+01 0.  1.
</event>
<event>
 5   0  0.6768478E-07  0.2598446E+04  0.7818609E-02  0.8368729E-01
       -2   -1    0    0    0  501  0.00000000000E+00  0.00000000000E+00  0.11736166206E+04  0.11736166206E+04  0.25500000920E-02 0.  1.
        2   -1    0    0  501    0  0.00000000000E+00  0.00000000000E+00 -0.14382724722E+04  0.14382724722E+04  0.25500000920E-02 0. -1.
    10030    2    1    2    0    0  0.00000000000E+00  0.00000000000E+00 -0.26465585161E+03  0.26118890928E+04  0.25984460574E+04 0.  0.
        4    1    3    3  502    0 -0.10338975264E+04 -0.12410237609E+03  0.64863001766E+03  0.12268121322E+04  0.12699999809E+01 0.  1.
       -4    1    3    3    0  502  0.10338975264E+04  0.12410237609E+03 -0.91328586927E+03  0.13850769606E+04  0.12699999809E+01 0. -1.
</event>
<event>
 5   0  0.2793576E-07  0.2597459E+04  0.7818609E-02  0.8369065E-01
        1   -1    0    0  501    0  0.00000000000E+00  0.00000000000E+00  0.12985065395E+04  0.12985065395E+04  0.50400001928E-02 0. -1.
       -1   -1    0    0    0  501  0.00000000000E+00  0.00000000000E+00 -0.12989524113E+04  0.12989524113E+04  0.50400001928E-02 0.  1.
    10030    2    1    2    0    0  0.00000000000E+00  0.00000000000E+00 -0.44587178300E+00  0.25974589508E+04  0.25974589125E+04 0.  0.
        2    1    3    3  502    0 -0.10196544594E+04 -0.76137489626E+03  0.25922118778E+03  0.12986849400E+04  0.25500000920E-02 0. -1.
       -2    1    3    3    0  502  0.10196544594E+04  0.76137489626E+03 -0.25966705956E+03  0.12987740108E+04  0.25500000920E-02 0.  1.
</event>
<event>
 5   0  0.7160320E-07  0.2599821E+04  0.7818609E-02  0.8368262E-01
        2   -1    0    0  501    0  0.00000000000E+00  0.00000000000E+00  0.23469380645E+04  0.23469380645E+04  0.25500000920E-02 0. -1.
       -2   -1    0    0    0  501  0.00000000000E+00  0.00000000000E+00 -0.71998806813E+03  0.71998806814E+03  0.25500000920E-02 0.  1.
    10030    2    1    2    0    0  0.00000000000E+00  0.00000000000E+00  0.16269499964E+04  0.30669261327E+04  0.25998210732E+04 0.  0.
        1    1    3    3  502    0 -0.62427627898E+03 -0.72241509696E+03  0.18541021024E+04  0.20854973150E+04  0.50400001928E-02 0. -1.
       -1    1    3    3    0  502  0.62427627898E+03  0.72241509696E+03 -0.22715210601E+03  0.98142881764E+03  0.50400001928E-02 0.  1.
</event>
<event>
 5   0  0.2641626E-07  0.2601834E+04  0.7818609E-02  0.8367578E-01
        1   -1    0    0  501    0  0.00000000000E+00  0.00000000000E+00  0.81491142829E+03  0.81491142831E+03  0.50400001928E-02 0. -1.
       -1   -1    0    0    0  501  0.00000000000E+00  0.00000000000E+00 -0.20767724764E+04  0.20767724765E+04  0.50400001928E-02 0.  1.
    10030    2    1    2    0    0  0.00000000000E+00  0.00000000000E+00 -0.12618610482E+04  0.28916839048E+04  0.26018344490E+04 0.  0.
        3    1    3    3  502    0 -0.63192604844E+03  0.23460201842E+02  0.63260432387E+03  0.89446584762E+03  0.10100000352E+00 0. -1.
       -3    1    3    3    0  502  0.63192604844E+03 -0.23460201842E+02 -0.18944653720E+04  0.19972180571E+04  0.10100000352E+00 0.  1.
</event>
<event>
 5   0  0.2623263E-07  0.2599955E+04  0.7818609E-02  0.8368217E-01
        1   -1    0    0  501    0  0.00000000000E+00  0.00000000000E+00  0.12493245525E+04  0.12493245526E+04  0.50400001928E-02 0.  1.
       -1   -1    0    0    0  501  0.00000000000E+00  0.00000000000E+00 -0.13526838818E+04  0.13526838818E+04  0.50400001928E-02 0. -1.
    10030    2    1    2    0    0  0.00000000000E+00  0.00000000000E+00 -0.10335932923E+03  0.26020084343E+04  0.25999547576E+04 0.  0.
        1    1    3    3  502    0  0.46454662960E+03  0.10889722753E+04 -0.58901809772E+03  0.13223488597E+04  0.50400001928E-02 0.  1.
       -1    1    3    3    0  502 -0.46454662960E+03 -0.10889722753E+04  0.48565876849E+03  0.12796595746E+04  0.50400001928E-02 0. -1.
</event>
<event>
 5   0  0.2641626E-07  0.2598676E+04  0.7818609E-02  0.8368651E-01
        1   -1    0    0  501    0  0.00000000000E+00  0.00000000000E+00  0.18391714344E+04  0.18391714344E+04  0.50400001928E-02 0.  1.
       -1   -1    0    0    0  501  0.00000000000E+00  0.00000000000E+00 -0.91795617575E+03  0.91795617576E+03  0.50400001928E-02 0. -1.
    10030    2    1    2    0    0  0.00000000000E+00  0.00000000000E+00  0.92121525869E+03  0.27571276102E+04  0.25986756447E+04 0.  0.
        3    1    3    3  502    0  0.28010031960E+03 -0.11464702684E+04 -0.11606718785E+03  0.11858844242E+04  0.10100000352E+00 0.  1.
       -3    1    3    3    0  502 -0.28010031960E+03  0.11464702684E+04  0.10372824465E+04  0.15712431860E+04  0.10100000352E+00 0. -1.
</event>
<event>
 5   0  0.6526351E-07  0.2612532E+04  0.7818609E-02  0.8363957E-01
        2   -1    0    0  501    0  0.00000000000E+00  0.00000000000E+00  0.24120355026E+04  0.24120355026E+04  0.25500000920E-02 0. -1.
       -2   -1    0    0    0  501  0.00000000000E+00  0.00000000000E+00 -0.70742360505E+03  0.70742360506E+03  0.25500000920E-02 0.  1.
    10030    2    1    2    0    0  0.00000000000E+00  0.00000000000E+00  0.17046118975E+04  0.31194591076E+04  0.26125319908E+04 0.  0.
        3    1    3    3  502    0 -0.12251216117E+04 -0.17221633724E+03  0.35173617924E+03  0.12861958561E+04  0.10100000352E+00 0.  1.
       -3    1    3    3    0  502  0.12251216117E+04  0.17221633724E+03  0.13528757183E+04  0.18332632516E+04  0.10100000352E+00 0. -1.
</event>
<event>
 5   0  0.6780984E-07  0.2599689E+04  0.7818609E-02  0.8368307E-01
        2   -1    0    0  501    0  0.00000000000E+00  0.00000000000E+00  0.21310123939E+04  0.21310123939E+04  0.25500000920E-02 0.  1.
       -2   -1    0    0    0  501  0.00000000000E+00  0.00000000000E+00 -0.79286087154E+03  0.79286087154E+03  0.25500000920E-02 0. -1.
    10030    2    1    2    0    0  0.00000000000E+00  0.00000000000E+00  0.13381515223E+04  0.29238732654E+04  0.25996894767E+04 0.  0.
        2    1    3    3  502    0 -0.81489329140E+03 -0.40969338777E+03 -0.37253129004E+03  0.98523058743E+03  0.25500000920E-02 0. -1.
       -2    1    3    3    0  502  0.81489329140E+03  0.40969338777E+03  0.17106828124E+04  0.19386426780E+04  0.25500000920E-02 0.  1.
</event>
<event>
 5   0  0.2755061E-07  0.2600034E+04  0.7818609E-02  0.8368190E-01
        1   -1    0    0  501    0  0.00000000000E+00  0.00000000000E+00  0.87666651747E+03  0.87666651749E+03  0.50400001928E-02 0.  1.
       -1   -1    0    0    0  501  0.00000000000E+00  0.00000000000E+00 -0.19278070921E+04  0.19278070921E+04  0.50400001928E-02 0. -1.
    10030    2    1    2    0    0  0.00000000000E+00  0.00000000000E+00 -0.10511405746E+04  0.28044736096E+04  0.26000337919E+04 0.  0.
        4    1    3    3  502    0  0.10598163258E+04  0.20887625145E+03  0.25463200563E+03  0.11098103460E+04  0.12699999809E+01 0.  1.
       -4    1    3    3    0  502 -0.10598163258E+04 -0.20887625145E+03 -0.13057725803E+04  0.16946632636E+04  0.12699999809E+01 0. -1.
</event>
<event>
 5   0  0.7160320E-07  0.2599161E+04  0.7818609E-02  0.8368486E-01
        2   -1    0    0  501    0  0.00000000000E+00  0.00000000000E+00  0.22293230489E+04  0.22293230489E+04  0.25500000920E-02 0. -1.
       -2   -1    0    0    0  501  0.00000000000E+00  0.00000000000E+00 -0.75758832930E+03  0.75758832930E+03  0.25500000920E-02 0.  1.
    10030    2    1    2    0    0  0.00000000000E+00  0.00000000000E+00  0.14717347196E+04  0.29869113782E+04  0.25991607292E+04 0.  0.
        1    1    3    3  502    0  0.74810941170E+03  0.18766550946E+03 -0.46612704055E+03  0.90119945255E+03  0.50400001928E-02 0.  1.
       -1    1    3    3    0  502 -0.74810941170E+03 -0.18766550946E+03  0.19378617601E+04  0.20857119256E+04  0.50400001928E-02 0. -1.
</event>
<event>
 5   0  0.6599814E-07  0.2601388E+04  0.7818609E-02  0.8367730E-01
        2   -1    0    0  501    0  0.00000000000E+00  0.00000000000E+00  0.12433538888E+04  0.12433538888E+04  0.25500000920E-02 0.  1.
       -2   -1    0    0    0  501  0.00000000000E+00  0.00000000000E+00 -0.13606787019E+04  0.13606787019E+04  0.25500000920E-02 0. -1.
    10030    2    1    2    0    0  0.00000000000E+00  0.00000000000E+00 -0.11732481312E+03  0.26040325907E+04  0.26013882105E+04 0.  0.
        5    1    3    3  502    0 -0.11254697509E+04 -0.50651120715E+03  0.35230005163E+03  0.12835003621E+04  0.46999998093E+01 0.  1.
       -5    1    3    3    0  502  0.11254697509E+04  0.50651120715E+03 -0.46962486475E+03  0.13205322286E+04  0.46999998093E+01 0. -1.
</event>
<event>
 5   0  0.2755061E-07  0.2600074E+04  0.7818609E-02  0.8368176E-01
        1   -1    0    0  501    0  0.00000000000E+00  0.00000000000E+00  0.11103166650E+04  0.11103166650E+04  0.50400001928E-02 0. -1.
       -1   -1    0    0    0  501  0.00000000000E+00  0.00000000000E+00 -0.15221750232E+04  0.15221750232E+04  0.50400001928E-02 0.  1.
    10030    2    1    2    0    0  0.00000000000E+00  0.00000000000E+00 -0.41185835822E+03  0.26324916882E+04  0.26000740723E+04 0.  0.
        4    1    3    3  502    0  0.82608785188E+02 -0.88112711971E+03  0.75824946944E+03  0.11653982509E+04  0.12699999809E+01 0. -1.
       -4    1    3    3    0  502 -0.82608785188E+02  0.88112711971E+03 -0.11701078277E+04  0.14670934373E+04  0.12699999809E+01 0.  1.
</event>
<event>
 5   0  0.7160320E-07  0.2593034E+04  0.7818609E-02  0.8370571E-01
       -2   -1    0    0    0  501  0.00000000000E+00  0.00000000000E+00  0.74353006365E+03  0.74353006365E+03  0.25500000920E-02 0. -1.
        2   -1    0    0  501    0  0.00000000000E+00  0.00000000000E+00 -0.22607772312E+04  0.22607772312E+04  0.25500000920E-02 0.  1.
    10030    2    1    2    0    0  0.00000000000E+00  0.00000000000E+00 -0.15172471676E+04  0.30043072949E+04  0.25930336200E+04 0.  0.
        1    1    3    3  502    0 -0.89668475200E+03 -0.36751659143E+03 -0.17565360655E+04  0.20061233609E+04  0.50400001928E-02 0.  1.
       -1    1    3    3    0  502  0.89668475200E+03  0.36751659143E+03  0.23928889795E+03  0.99818393403E+03  0.50400001928E-02 0. -1.
</event>
<event>
 5   0  0.2623263E-07  0.2600621E+04  0.7818609E-02  0.8367990E-01
        1   -1    0    0  501    0  0.00000000000E+00  0.00000000000E+00  0.17917613180E+04  0.17917613180E+04  0.50400001928E-02 0. -1.
       -1   -1    0    0    0  501  0.00000000000E+00  0.00000000000E+00 -0.94365683639E+03  0.94365683641E+03  0.50400001928E-02 0.  1.
    10030    2    1    2    0    0  0.00000000000E+00  0.00000000000E+00  0.84810448160E+03  0.27354181544E+04  0.26006213234E+04 0.  0.
        1    1    3    3  502    0 -0.14156064960E+03 -0.11917229664E+04 -0.10245774266E+03  0.12044669506E+04  0.50400001928E-02 0.  1.
       -1    1    3    3    0  502  0.14156064960E+03  0.11917229664E+04  0.95056222426E+03  0.15309512038E+04  0.50400001928E-02 0. -1.
</event>
<event>
 5   0  0.7160320E-07  0.2600850E+04  0.7818609E-02  0.8367912E-01
       -2   -1    0    0    0  501  0.00000000000E+00  0.00000000000E+00  0.20119351367E+04  0.20119351367E+04  0.25500000920E-02 0. -1.
        2   -1    0    0  501    0  0.00000000000E+00  0.00000000000E+00 -0.84053691926E+03  0.84053691926E+03  0.25500000920E-02 0.  1.
    10030    2    1    2    0    0  0.00000000000E+00  0.00000000000E+00  0.11713982175E+04  0.28524720560E+04  0.26008504468E+04 0.  0.
        1    1    3    3  502    0  0.18969528524E+03  0.10071664133E+03 -0.82095077611E+03  0.84858017884E+03  0.50400001928E-02 0.  1.
       -1    1    3    3    0  502 -0.18969528524E+03 -0.10071664133E+03  0.19923489936E+04  0.20038918772E+04  0.50400001928E-02 0. -1.
</event>
<event>
 5   0  0.2755061E-07  0.2600358E+04  0.7818609E-02  0.8368080E-01
       -1   -1    0    0    0  501  0.00000000000E+00  0.00000000000E+00  0.82086307551E+03  0.82086307553E+03  0.50400001928E-02 0. -1.
        1   -1    0    0  501    0  0.00000000000E+00  0.00000000000E+00 -0.20593759351E+04  0.20593759351E+04  0.50400001928E-02 0.  1.
    10030    2    1    2    0    0  0.00000000000E+00  0.00000000000E+00 -0.12385128595E+04  0.28802390106E+04  0.26003581782E+04 0.  0.
        4    1    3    3  502    0  0.11095957745E+04 -0.66004442714E+03 -0.44908937421E+03  0.13669470756E+04  0.12699999809E+01 0. -1.
       -4    1    3    3    0  502 -0.11095957745E+04  0.66004442714E+03 -0.78942348533E+03  0.15132919350E+04  0.12699999809E+01 0.  1.
</event>
<event>
 5   0  0.6780984E-07  0.2600218E+04  0.7818609E-02  0.8368127E-01
        2   -1    0    0  501    0  0.00000000000E+00  0.00000000000E+00  0.31918584314E+04  0.31918584314E+04  0.25500000920E-02 0. -1.
       -2   -1    0    0    0  501  0.00000000000E+00  0.00000000000E+00 -0.52956102855E+03  0.52956102856E+03  0.25500000920E-02 0.  1.
    10030    2    1    2    0    0  0.00000000000E+00  0.00000000000E+00  0.26622974029E+04  0.37214194600E+04  0.26002183246E+04 0.  0.
        2    1    3    3  502    0  0.49526214870E+03 -0.94640176422E+03  0.27039958895E+03  0.11018515476E+04  0.25500000920E-02 0.  1.
       -2    1    3    3    0  502 -0.49526214870E+03  0.94640176422E+03  0.23918978139E+04  0.26195679124E+04  0.25500000920E-02 0. -1.
</event>
<event>
 5   0  0.6780984E-07  0.2598559E+04  0.7818609E-02  0.8368691E-01
       -2   -1    0    0    0  501  0.00000000000E+00  0.00000000000E+00  0.14426760818E+04  0.14426760818E+04  0.25500000920E-02 0. -1.
        2   -1    0    0  501    0  0.00000000000E+00  0.00000000000E+00 -0.11701361277E+04  0.11701361277E+04  0.25500000920E-02 0.  1.
    10030    2    1    2    0    0  0.00000000000E+00  0.00000000000E+00  0.27253995417E+03  0.26128122095E+04  0.25985591422E+04 0.  0.
        2    1    3    3  502    0 -0.35043936217E+03 -0.10070222708E+04 -0.61024815510E+03  0.12285375091E+04  0.25500000920E-02 0.  1.
       -2    1    3    3    0  502  0.35043936217E+03  0.10070222708E+04  0.88278810927E+03  0.13842747004E+04  0.25500000920E-02 0. -1.
</event>
<event>
 5   0  0.2755061E-07  0.2598849E+04  0.7818609E-02  0.8368592E-01
        1   -1    0    0  501    0  0.00000000000E+00  0.00000000000E+00  0.17525274408E+04  0.17525274408E+04  0.50400001928E-02 0. -1.
       -1   -1    0    0    0  501  0.00000000000E+00  0.00000000000E+00 -0.96346803936E+03  0.96346803938E+03  0.50400001928E-02 0.  1.
    10030    2    1    2    0    0  0.00000000000E+00  0.00000000000E+00  0.78905940141E+03  0.27159954802E+04  0.25988491125E+04 0.  0.
        4    1    3    3  502    0  0.67771422731E+02 -0.63450919882E+03  0.15775023163E+04  0.17016786007E+04  0.12699999809E+01 0. -1.
       -4    1    3    3    0  502 -0.67771422731E+02  0.63450919882E+03 -0.78844291488E+03  0.10143168795E+04  0.12699999809E+01 0.  1.
</event>
<event>
 5   0  0.2864801E-07  0.2599987E+04  0.7818609E-02  0.8368206E-01
       -1   -1    0    0    0  501  0.00000000000E+00  0.00000000000E+00  0.13605205996E+04  0.13605205996E+04  0.50400001928E-02 0. -1.
        1   -1    0    0  501    0  0.00000000000E+00  0.00000000000E+00 -0.12421586779E+04  0.12421586779E+04  0.50400001928E-02 0.  1.
    10030    2    1    2    0    0  0.00000000000E+00  0.00000000000E+00  0.11836192164E+03  0.26026792775E+04  0.25999865148E+04 0.  0.
        5    1    3    3  502    0 -0.82174505444E+03 -0.99893558939E+03 -0.70657392386E+02  0.12954349862E+04  0.46999998093E+01 0. -1.
       -5    1    3    3    0  502  0.82174505444E+03  0.99893558939E+03  0.18901931402E+03  0.13072442914E+04  0.46999998093E+01 0.  1.
</event>
<event>
 5   0  0.2793576E-07  0.2612548E+04  0.7818609E-02  0.8363951E-01
       -1   -1    0    0    0  501  0.00000000000E+00  0.00000000000E+00  0.75808666493E+03  0.75808666495E+03  0.50400001928E-02 0.  1.
        1   -1    0    0  501    0  0.00000000000E+00  0.00000000000E+00 -0.22508658703E+04  0.22508658703E+04  0.50400001928E-02 0. -1.
    10030    2    1    2    0    0  0.00000000000E+00  0.00000000000E+00 -0.14927792054E+04  0.30089525353E+04  0.26125477227E+04 0.  0.
        2    1    3    3  502    0 -0.11465950149E+04  0.48231905378E+03 -0.28708188148E+03  0.12766079290E+04  0.25500000920E-02 0.  1.
       -2    1    3    3    0  502  0.11465950149E+04 -0.48231905378E+03 -0.12056973239E+04  0.17323446062E+04  0.25500000920E-02 0. -1.
</event>
<event>
 5   0  0.6526351E-07  0.2600248E+04  0.7818609E-02  0.8368117E-01
        2   -1    0    0  501    0  0.00000000000E+00  0.00000000000E+00  0.23315190352E+04  0.23315190352E+04  0.25500000920E-02 0.  1.
       -2   -1    0    0    0  501  0.00000000000E+00  0.00000000000E+00 -0.72498784581E+03  0.72498784581E+03  0.25500000920E-02 0. -1.
    10030    2    1    2    0    0  0.00000000000E+00  0.00000000000E+00  0.16065311894E+04  0.30565068810E+04  0.26002484211E+04 0.  0.
        3    1    3    3  502    0 -0.10412318513E+04 -0.61225409479E+03  0.23793536442E+03  0.12311101058E+04  0.10100000352E+00 0. -1.
       -3    1    3    3    0  502  0.10412318513E+04  0.61225409479E+03  0.13685958250E+04  0.18253967753E+04  0.10100000352E+00 0.  1.
</event>
<event>
 5   0  0.2793576E-07  0.2601641E+04  0.7818609E-02  0.8367644E-01
       -1   -1    0    0    0  501  0.00000000000E+00  0.00000000000E+00  0.17193126326E+04  0.17193126326E+04  0.50400001928E-02 0.  1.
        1   -1    0    0  501    0  0.00000000000E+00  0.00000000000E+00 -0.98419189385E+03  0.98419189386E+03  0.50400001928E-02 0. -1.
    10030    2    1    2    0    0  0.00000000000E+00  0.00000000000E+00  0.73512073877E+03  0.27035045265E+04  0.26016406793E+04 0.  0.
        2    1    3    3  502    0 -0.12546524139E+04 -0.31126344438E+03  0.51849165622E+03  0.13927925937E+04  0.25500000920E-02 0. -1.
       -2    1    3    3    0  502  0.12546524139E+04  0.31126344438E+03  0.21662908254E+03  0.13107119328E+04  0.25500000920E-02 0.  1.
</event>
<event>
 5   0  0.2623263E-07  0.2599478E+04  0.7818609E-02  0.8368379E-01
        1   -1    0    0  501    0  0.00000000000E+00  0.00000000000E+00  0.12249321112E+04  0.12249321112E+04  0.50400001928E-02 0. -1.
       -1   -1    0    0    0  501  0.00000000000E+00  0.00000000000E+00 -0.13791143599E+04  0.13791143599E+04  0.50400001928E-02 0.  1.
    10030    2    1    2    0    0  0.00000000000E+00  0.00000000000E+00 -0.15418224871E+03  0.26040464711E+04  0.25994779972E+04 0.  0.
        1    1    3    3  502    0  0.76709724965E+03 -0.87706402239E+03 -0.65398686257E+03  0.13361804916E+04  0.50400001928E-02 0.  1.
       -1    1    3    3    0  502 -0.76709724965E+03  0.87706402239E+03  0.49980461386E+03  0.12678659794E+04  0.50400001928E-02 0. -1.
</event>
<event>
 5   0  0.7160320E-07  0.2599763E+04  0.7818609E-02  0.8368282E-01
        2   -1    0    0  501    0  0.00000000000E+00  0.00000000000E+00  0.12134990725E+04  0.12134990725E+04  0.25500000920E-02 0.  1.
       -2   -1    0    0    0  501  0.00000000000E+00  0.00000000000E+00 -0.13924133408E+04  0.13924133408E+04  0.25500000920E-02 0. -1.
    10030    2    1    2    0    0  0.00000000000E+00  0.00000000000E+00 -0.17891426831E+03  0.26059124134E+04  0.25997632951E+04 0.  0.
        1    1    3    3  502    0  0.67339242313E+03 -0.41960486969E+03  0.94262220776E+03  0.12320966800E+04  0.50400001928E-02 0.  1.
       -1    1    3    3    0  502 -0.67339242313E+03  0.41960486969E+03 -0.11215364761E+04  0.13738157334E+04  0.50400001928E-02 0. -1.
</event>
<event>
 5   0  0.2864801E-07  0.2601545E+04  0.7818609E-02  0.8367677E-01
        1   -1    0    0  501    0  0.00000000000E+00  0.00000000000E+00  0.11848210753E+04  0.11848210753E+04  0.50400001928E-02 0.  1.
       -1   -1    0    0    0  501  0.00000000000E+00  0.00000000000E+00 -0.14280710800E+04  0.14280710800E+04  0.50400001928E-02 0. -1.
    10030    2    1    2    0    0  0.00000000000E+00  0.00000000000E+00 -0.24325000472E+03  0.26128921554E+04  0.26015447047E+04 0.  0.
        5    1    3    3  502    0  0.85304538992E+03 -0.97474463982E+03 -0.20550111668E+01  0.12953145808E+04  0.46999998093E+01 0.  1.
       -5    1    3    3    0  502 -0.85304538992E+03  0.97474463982E+03 -0.24119499355E+03  0.13175775746E+04  0.46999998093E+01 0. -1.
</event>
<event>
 5   0  0.2864801E-07  0.2600109E+04  0.7818609E-02  0.8368164E-01
       -1   -1    0    0    0  501  0.00000000000E+00  0.00000000000E+00  0.62977503627E+03  0.62977503629E+03  0.50400001928E-02 0. -1.
        1   -1    0    0  501    0  0.00000000000E+00  0.00000000000E+00 -0.26837219530E+04  0.26837219530E+04  0.50400001928E-02 0.  1.
    10030    2    1    2    0    0  0.00000000000E+00  0.00000000000E+00 -0.20539469168E+04  0.33134969893E+04  0.26001085288E+04 0.  0.
        5    1    3    3  502    0  0.33943896160E+03 -0.89241179858E+03 -0.21513837087E+04  0.23537399131E+04  0.46999998093E+01 0.  1.
       -5    1    3    3    0  502 -0.33943896160E+03  0.89241179858E+03  0.97436791877E+02  0.95975707619E+03  0.46999998093E+01 0. -1.
</event>
<event>
 5   0  0.6780984E-07  0.2599462E+04  0.7818609E-02  0.8368384E-01
        2   -1    0    0  501    0  0.00000000000E+00  0.00000000000E+00  0.10044274942E+04  0.10044274942E+04  0.25500000920E-02 0.  1.
       -2   -1    0    0    0  501  0.00000000000E+00  0.00000000000E+00 -0.16818538414E+04  0.16818538414E+04  0.25500000920E-02 0. -1.
    10030    2    1    2    0    0  0.00000000000E+00  0.00000000000E+00 -0.67742634725E+03  0.26862813356E+04  0.25994616670E+04 0.  0.
        2    1    3    3  502    0 -0.10601413442E+04 -0.72867500953E+03 -0.14695344674E+03  0.12947827056E+04  0.25500000920E-02 0. -1.
       -2    1    3    3    0  502  0.10601413442E+04  0.72867500953E+03 -0.53047290051E+03  0.13914986300E+04  0.25500000920E-02 0.  1.
</event>
<event>
 5   0  0.6780984E-07  0.2599413E+04  0.7818609E-02  0.8368401E-01
        2   -1    0    0  501    0  0.00000000000E+00  0.00000000000E+00  0.16418534563E+04  0.16418534563E+04  0.25500000920E-02 0. -1.
       -2   -1    0    0    0  501  0.00000000000E+00  0.00000000000E+00 -0.10288597992E+04  0.10288597992E+04  0.25500000920E-02 0.  1.
    10030    2    1    2    0    0  0.00000000000E+00  0.00000000000E+00  0.61299365710E+03  0.26707132555E+04  0.25994130241E+04 0.  0.
        2    1    3    3  502    0  0.34307938061E+03 -0.43631202446E+03  0.15139625549E+04  0.16124993835E+04  0.25500000920E-02 0. -1.
       -2    1    3    3    0  502 -0.34307938061E+03  0.43631202446E+03 -0.90096889783E+03  0.10582138720E+04  0.25500000920E-02 0.  1.
</event>
<event>
 5   0  0.2641626E-07  0.2599858E+04  0.7818609E-02  0.8368249E-01
       -1   -1    0    0    0  501  0.00000000000E+00  0.00000000000E+00  0.99010730504E+03  0.99010730505E+03  0.50400001928E-02 0.  1.
        1   -1    0    0  501    0  0.00000000000E+00  0.00000000000E+00 -0.17066990517E+04  0.17066990517E+04  0.50400001928E-02 0. -1.
    10030    2    1    2    0    0  0.00000000000E+00  0.00000000000E+00 -0.71659174663E+03  0.26968063567E+04  0.25998578412E+04 0.  0.
        3    1    3    3  502    0 -0.91950371703E+03 -0.91553902464E+03 -0.43941961962E+03  0.13699592708E+04  0.10100000352E+00 0. -1.
       -3    1    3    3    0  502  0.91950371703E+03  0.91553902464E+03 -0.27717212700E+03  0.13268470859E+04  0.10100000352E+00 0.  1.
</event>
<event>
 5   0  0.6599814E-07  0.2601085E+04  0.7818609E-02  0.8367833E-01
        2   -1    0    0  501    0  0.00000000000E+00  0.00000000000E+00  0.16381925183E+04  0.16381925183E+04  0.25500000920E-02 0. -1.
       -2   -1    0    0    0  501  0.00000000000E+00  0.00000000000E+00 -0.10324859603E+04  0.10324859603E+04  0.25500000920E-02 0.  1.
    10030    2    1    2    0    0  0.00000000000E+00  0.00000000000E+00  0.60570655796E+03  0.26706784786E+04  0.26010849855E+04 0.  0.
        5    1    3    3  502    0  0.15607771674E+03  0.11122743210E+04  0.97604348426E+03  0.14880179408E+04  0.46999998093E+01 0. -1.
       -5    1    3    3    0  502 -0.15607771674E+03 -0.11122743210E+04 -0.37033692630E+03  0.11826605379E+04  0.46999998093E+01 0.  1.
</event>
<event>
 5   0  0.2755061E-07  0.2600758E+04  0.7818609E-02  0.8367944E-01
        1   -1    0    0  501    0  0.00000000000E+00  0.00000000000E+00  0.14078643388E+04  0.14078643389E+04  0.50400001928E-02 0.  1.
       -1   -1    0    0    0  501  0.00000000000E+00  0.00000000000E+00 -0.12010997374E+04  0.12010997374E+04  0.50400001928E-02 0. -1.
    10030    2    1    2    0    0  0.00000000000E+00  0.00000000000E+00  0.20676460141E+03  0.26089640763E+04  0.26007579570E+04 0.  0.
        4    1    3    3  502    0 -0.50174165381E+03  0.22935532391E+02  0.13066306366E+04  0.13998414050E+04  0.12699999809E+01 0.  1.
       -4    1    3    3    0  502  0.50174165381E+03 -0.22935532391E+02 -0.10998660352E+04  0.12091226712E+04  0.12699999809E+01 0. -1.
</event>
<event>
 5   0  0.6780984E-07  0.2601677E+04  0.7818609E-02  0.8367632E-01
        2   -1    0    0  501    0  0.00000000000E+00  0.00000000000E+00  0.17574119761E+04  0.17574119761E+04  0.25500000920E-02 0. -1.
       -2   -1    0    0    0  501  0.00000000000E+00  0.00000000000E+00 -0.96288247173E+03  0.96288247174E+03  0.25500000920E-02 0.  1.
    10030    2    1    2    0    0  0.00000000000E+00  0.00000000000E+00  0.79452950441E+03  0.27202944479E+04  0.26016772955E+04 0.  0.
        2    1    3    3  502    0  0.21252214548E+02  0.81973218201E+03 -0.65861223129E+03  0.10517521467E+04  0.25500000920E-02 0.  1.
       -2    1    3    3    0  502 -0.21252214548E+02 -0.81973218201E+03  0.14531417357E+04  0.16685423012E+04  0.25500000920E-02 0. -1.
</event>
<event>
 5   0  0.2864801E-07  0.2599651E+04  0.7818609E-02  0.8368320E-01
       -1   -1    0    0    0  501  0.00000000000E+00  0.00000000000E+00  0.13419869365E+04  0.13419869365E+04  0.50400001928E-02 0. -1.
        1   -1    0    0  501    0  0.00000000000E+00  0.00000000000E+00 -0.12589883685E+04  0.12589883685E+04  0.50400001928E-02 0.  1.
    10030    2    1    2    0    0  0.00000000000E+00  0.00000000000E+00  0.82998567975E+02  0.26009753049E+04  0.25996507024E+04 0.  0.
        5    1    3    3  502    0 -0.11980158545E+03  0.12866179780E+04  0.18223229459E+03  0.13049785211E+04  0.46999998093E+01 0.  1.
       -5    1    3    3    0  502  0.11980158545E+03 -0.12866179780E+04 -0.99233726611E+02  0.12959967839E+04  0.46999998093E+01 0. -1.
</event>
<event>
 5   0  0.2294625E-07  0.2598019E+04  0.7818609E-02  0.8368874E-01
        3   -1    0    0  501    0  0.00000000000E+00  0.00000000000E+00  0.25148678427E+04  0.25148678448E+04  0.10100000352E+00 0.  1.
       -3   -1    0    0    0  501  0.00000000000E+00  0.00000000000E+00 -0.67097998794E+03  0.67097999554E+03  0.10100000352E+00 0. -1.
    10030    2    1    2    0    0  0.00000000000E+00  0.00000000000E+00  0.18438878548E+04  0.31858478403E+04  0.25980192533E+04 0.  0.
        2    1    3    3  502    0  0.43707421568E+02 -0.15706815754E+03  0.25022719849E+04  0.25075776820E+04  0.25500000920E-02 0.  1.
       -2    1    3    3    0  502 -0.43707421568E+02  0.15706815754E+03 -0.65838413013E+03  0.67827015829E+03  0.25500000920E-02 0. -1.
</event>
<event>
 5   0  0.2793576E-07  0.2599029E+04  0.7818609E-02  0.8368531E-01
        1   -1    0    0  501    0  0.00000000000E+00  0.00000000000E+00  0.14982039685E+04  0.14982039685E+04  0.50400001928E-02 0. -1.
       -1   -1    0    0    0  501  0.00000000000E+00  0.00000000000E+00 -0.11271750961E+04  0.11271750961E+04  0.50400001928E-02 0.  1.
    10030    2    1    2    0    0  0.00000000000E+00  0.00000000000E+00  0.37102887233E+03  0.26253790646E+04  0.25990292051E+04 0.  0.
        2    1    3    3  502    0 -0.48360045304E+03  0.98124992999E+03  0.89406537797E+03  0.14128247320E+04  0.25500000920E-02 0. -1.
       -2    1    3    3    0  502  0.48360045304E+03 -0.98124992999E+03 -0.52303650564E+03  0.12125543326E+04  0.25500000920E-02 0.  1.
</event>
<event>
 5   0  0.2864801E-07  0.2600284E+04  0.7818609E-02  0.8368105E-01
        1   -1    0    0  501    0  0.00000000000E+00  0.00000000000E+00  0.12776779655E+04  0.12776779655E+04  0.50400001928E-02 0. -1.
       -1   -1    0    0    0  501  0.00000000000E+00  0.00000000000E+00 -0.13230008011E+04  0.13230008011E+04  0.50400001928E-02 0.  1.
    10030    2    1    2    0    0  0.00000000000E+00  0.00000000000E+00 -0.45322835546E+02  0.26006787666E+04  0.26002838090E+04 0.  0.
        5    1    3    3  502    0  0.10971992387E+04  0.20158846001E+03  0.64516959371E+03  0.12887008851E+04  0.46999998093E+01 0. -1.
       -5    1    3    3    0  502 -0.10971992387E+04 -0.20158846001E+03 -0.69049242926E+03  0.13119778815E+04  0.46999998093E+01 0.  1.
</event>
<event>
 5   0  0.6780984E-07  0.2600220E+04  0.7818609E-02  0.8368127E-01
       -2   -1    0    0    0  501  0.00000000000E+00  0.00000000000E+00  0.77601306181E+03  0.77601306181E+03  0.25500000920E-02 0. -1.
        2   -1    0    0  501    0  0.00000000000E+00  0.00000000000E+00 -0.21781665755E+04  0.21781665755E+04  0.25500000920E-02 0.  1.
    10030    2    1    2    0    0  0.00000000000E+00  0.00000000000E+00 -0.14021535137E+04  0.29541796373E+04  0.26002197702E+04 0.  0.
        2    1    3    3  502    0 -0.29891252613E+03  0.55914425414E+03  0.58846217243E+03  0.86503105355E+03  0.25500000920E-02 0. -1.
       -2    1    3    3    0  502  0.29891252613E+03 -0.55914425414E+03 -0.19906156861E+04  0.20891485837E+04  0.25500000920E-02 0.  1.
</event>
<event>
 5   0  0.6780984E-07  0.2598472E+04  0.7818609E-02  0.8368720E-01
        2   -1    0    0  501    0  0.00000000000E+00  0.00000000000E+00  0.10275426606E+04  0.10275426606E+04  0.25500000920E-02 0.  1.
       -2   -1    0    0    0  501  0.00000000000E+00  0.00000000000E+00 -0.16427685336E+04  0.16427685336E+04  0.25500000920E-02 0. -1.
    10030    2    1    2    0    0  0.00000000000E+00  0.00000000000E+00 -0.61522587301E+03  0.26703111941E+04  0.25984724356E+04 0.  0.
        2    1    3    3  502    0 -0.16701342824E+03  0.19423807264E+03  0.10013331893E+04  0.10335811870E+04  0.25500000920E-02 0.  1.
       -2    1    3    3    0  502  0.16701342824E+03 -0.19423807264E+03 -0.16165590623E+04  0.16367300071E+04  0.25500000920E-02 0. -1.
</event>
<event>
 5   0  0.2755061E-07  0.2596375E+04  0.7818609E-02  0.8369434E-01
        1   -1    0    0  501    0  0.00000000000E+00  0.00000000000E+00  0.25931632510E+04  0.25931632510E+04  0.50400001928E-02 0. -1.
       -1   -1    0    0    0  501  0.00000000000E+00  0.00000000000E+00 -0.64989772627E+03  0.64989772629E+03  0.50400001928E-02 0.  1.
    10030    2    1    2    0    0  0.00000000000E+00  0.00000000000E+00  0.19432655248E+04  0.32430609773E+04  0.25963750890E+04 0.  0.
        4    1    3    3  502    0 -0.11974165688E+04 -0.12821786078E+03  0.15771986019E+04  0.19843899067E+04  0.12699999809E+01 0. -1.
       -4    1    3    3    0  502  0.11974165688E+04  0.12821786078E+03  0.36606692288E+03  0.12586710706E+04  0.12699999809E+01 0.  1.
</event>
<event>
 5   0  0.6768478E-07  0.2600101E+04  0.7818609E-02  0.8368167E-01
        2   -1    0    0  501    0  0.00000000000E+00  0.00000000000E+00  0.24628216438E+04  0.24628216438E+04  0.25500000920E-02 0.  1.
       -2   -1    0    0    0  501  0.00000000000E+00  0.00000000000E+00 -0.68625824549E+03  0.68625824550E+03  0.25500000920E-02 0. -1.
    10030    2    1    2    0    0  0.00000000000E+00  0.00000000000E+00  0.17765633983E+04  0.31490798893E+04  0.26001012752E+04 0.  0.
        4    1    3    3  502    0  0.87321917232E+03  0.83233821564E+02 -0.27383631856E+03  0.91892738245E+03  0.12699999809E+01 0. -1.
       -4    1    3    3    0  502 -0.87321917232E+03 -0.83233821564E+02  0.20503997169E+04  0.22301525069E+04  0.12699999809E+01 0.  1.
</event>
<event>
 5   0  0.2294625E-07  0.2600387E+04  0.7818609E-02  0.8368070E-01
       -3   -1    0    0    0  501  0.00000000000E+00  0.00000000000E+00  0.20838282253E+04  0.20838282278E+04  0.10100000352E+00 0. -1.
        3   -1    0    0  501    0  0.00000000000E+00  0.00000000000E+00 -0.81124883858E+03  0.81124884487E+03  0.10100000352E+00 0.  1.
    10030    2    1    2    0    0  0.00000000000E+00  0.00000000000E+00  0.12725793867E+04  0.28950770726E+04  0.26003870791E+04 0.  0.
        1    1    3    3  502    0  0.11562798021E+04  0.46488419839E+03  0.22360330418E+03  0.12661353547E+04  0.50400001928E-02 0.  1.
       -1    1    3    3    0  502 -0.11562798021E+04 -0.46488419839E+03  0.10489760826E+04  0.16289417180E+04  0.50400001928E-02 0. -1.
</event>
<event>
 5   0  0.2864801E-07  0.2600133E+04  0.7818609E-02  0.8368156E-01
        1   -1    0    0  501    0  0.00000000000E+00  0.00000000000E+00  0.13956789685E+04  0.13956789685E+04  0.50400001928E-02 0. -1.
       -1   -1    0    0    0  501  0.00000000000E+00  0.00000000000E+00 -0.12110040015E+04  0.12110040015E+04  0.50400001928E-02 0.  1.
    10030    2    1    2    0    0  0.00000000000E+00  0.00000000000E+00  0.18467496704E+03  0.26066829700E+04  0.26001329318E+04 0.  0.
        5    1    3    3  502    0 -0.55834802167E+03  0.26561264035E+03  0.12388302578E+04  0.13845667501E+04  0.46999998093E+01 0. -1.
       -5    1    3    3    0  502  0.55834802167E+03 -0.26561264035E+03 -0.10541552907E+04  0.12221162199E+04  0.46999998093E+01 0.  1.
</event>
<event>
 5   0  0.2641626E-07  0.2600106E+04  0.7818609E-02  0.8368165E-01
        1   -1    0    0  501    0  0.00000000000E+00  0.00000000000E+00  0.11420271293E+04  0.11420271293E+04  0.50400001928E-02 0.  1.
       -1   -1    0    0    0  501  0.00000000000E+00  0.00000000000E+00 -0.14799452030E+04  0.14799452030E+04  0.50400001928E-02 0. -1.
    10030    2    1    2    0    0  0.00000000000E+00  0.00000000000E+00 -0.33791807367E+03  0.26219723323E+04  0.26001058222E+04 0.  0.
        3    1    3    3  502    0  0.63677621510E+03 -0.17513162752E+03  0.96027204436E+03  0.11654516054E+04  0.10100000352E+00 0.  1.
       -3    1    3    3    0  502 -0.63677621510E+03  0.17513162752E+03 -0.12981901180E+04  0.14565207269E+04  0.10100000352E+00 0. -1.
</event>
<event>
 5   0  0.6780984E-07  0.2600264E+04  0.7818609E-02  0.8368111E-01
       -2   -1    0    0    0  501  0.00000000000E+00  0.00000000000E+00  0.20799768021E+04  0.20799768021E+04  0.25500000920E-02 0.  1.
        2   -1    0    0  501    0  0.00000000000E+00  0.00000000000E+00 -0.81267427258E+03  0.81267427259E+03  0.25500000920E-02 0. -1.
    10030    2    1    2    0    0  0.00000000000E+00  0.00000000000E+00  0.12673025295E+04  0.28926510747E+04  0.26002643209E+04 0.  0.
        2    1    3    3  502    0 -0.20943085322E+02 -0.12174813050E+04  0.11405702462E+04  0.16684123674E+04  0.25500000920E-02 0.  1.
       -2    1    3    3    0  502  0.20943085322E+02  0.12174813050E+04  0.12673228330E+03  0.12242387074E+04  0.25500000920E-02 0. -1.
</event>
<event>
 5   0  0.2623263E-07  0.2597964E+04  0.7818609E-02  0.8368893E-01
       -1   -1    0    0    0  501  0.00000000000E+00  0.00000000000E+00  0.13923544894E+04  0.13923544894E+04  0.50400001928E-02 0. -1.
        1   -1    0    0  501    0  0.00000000000E+00  0.00000000000E+00 -0.12118710347E+04  0.12118710347E+04  0.50400001928E-02 0.  1.
    10030    2    1    2    0    0  0.00000000000E+00  0.00000000000E+00  0.18048345470E+03  0.26042255242E+04  0.25979638764E+04 0.  0.
        1    1    3    3  502    0 -0.67174034205E+03 -0.42202142930E+03  0.11213203574E+04  0.13735707182E+04  0.50400001928E-02 0. -1.
       -1    1    3    3    0  502  0.67174034205E+03  0.42202142930E+03 -0.94083690271E+03  0.12306548060E+04  0.50400001928E-02 0.  1.
</event>
<event>
 5   0  0.6780984E-07  0.2599557E+04  0.7818609E-02  0.8368352E-01
        2   -1    0    0  501    0  0.00000000000E+00  0.00000000000E+00  0.23635154415E+04  0.23635154415E+04  0.25500000920E-02 0.  1.
       -2   -1    0    0    0  501  0.00000000000E+00  0.00000000000E+00 -0.71479320347E+03  0.71479320347E+03  0.25500000920E-02 0. -1.
    10030    2    1    2    0    0  0.00000000000E+00  0.00000000000E+00  0.16487222381E+04  0.30783086450E+04  0.25995574807E+04 0.  0.
        2    1    3    3  502    0  0.11075808584E+03 -0.12939114614E+04  0.76003842095E+03  0.15047035006E+04  0.25500000920E-02 0. -1.
       -2    1    3    3    0  502 -0.11075808584E+03  0.12939114614E+04  0.88868381712E+03  0.15736051444E+04  0.25500000920E-02 0.  1.
</event>
<event>
 5   0  0.6780984E-07  0.2601030E+04  0.7818609E-02  0.8367851E-01
       -2   -1    0    0    0  501  0.00000000000E+00  0.00000000000E+00  0.13483891583E+04  0.13483891583E+04  0.25500000920E-02 0.  1.
        2   -1    0    0  501    0  0.00000000000E+00  0.00000000000E+00 -0.12543409320E+04  0.12543409320E+04  0.25500000920E-02 0. -1.
    10030    2    1    2    0    0  0.00000000000E+00  0.00000000000E+00  0.94048226365E+02  0.26027300903E+04  0.26010303447E+04 0.  0.
        2    1    3    3  502    0 -0.34254439621E+02 -0.12963228332E+04 -0.51597174173E+02  0.12978014189E+04  0.25500000920E-02 0. -1.
       -2    1    3    3    0  502  0.34254439621E+02  0.12963228332E+04  0.14564540054E+03  0.13049286713E+04  0.25500000920E-02 0.  1.
</event>
<event>
 5   0  0.2641626E-07  0.2598882E+04  0.7818609E-02  0.8368581E-01
        1   -1    0    0  501    0  0.00000000000E+00  0.00000000000E+00  0.14254020558E+04  0.14254020558E+04  0.50400001928E-02 0. -1.
       -1   -1    0    0    0  501  0.00000000000E+00  0.00000000000E+00 -0.11846105265E+04  0.11846105265E+04  0.50400001928E-02 0.  1.
    10030    2    1    2    0    0  0.00000000000E+00  0.00000000000E+00  0.24079152924E+03  0.26100125823E+04  0.25988815131E+04 0.  0.
        3    1    3    3  502    0 -0.60345068804E+03 -0.28800902806E+03 -0.99857759480E+03  0.12017733381E+04  0.10100000352E+00 0.  1.
       -3    1    3    3    0  502  0.60345068804E+03  0.28800902806E+03  0.12393691240E+04  0.14082392442E+04  0.10100000352E+00 0. -1.
</event>
<event>
 5   0  0.2623263E-07  0.2599781E+04  0.7818609E-02  0.8368276E-01
        1   -1    0    0  501    0  0.00000000000E+00  0.00000000000E+00  0.10419017424E+04  0.10419017424E+04  0.50400001928E-02 0. -1.
       -1   -1    0    0    0  501  0.00000000000E+00  0.00000000000E+00 -0.16217602306E+04  0.16217602306E+04  0.50400001928E-02 0.  1.
    10030    2    1    2    0    0  0.00000000000E+00  0.00000000000E+00 -0.57985848823E+03  0.26636619730E+04  0.25997806138E+04 0.  0.
        1    1    3    3  502    0 -0.58012749901E+03  0.12921188009E+03  0.89453569397E+03  0.10739821846E+04  0.50400001928E-02 0. -1.
       -1    1    3    3    0  502  0.58012749901E+03 -0.12921188009E+03 -0.14743941822E+04  0.15896797884E+04  0.50400001928E-02 0.  1.
</event>
<event>
 5   0  0.2641626E-07  0.2600054E+04  0.7818609E-02  0.8368183E-01
       -1   -1    0    0    0  501  0.00000000000E+00  0.00000000000E+00  0.11605956093E+04  0.11605956093E+04  0.50400001928E-02 0. -1.
        1   -1    0    0  501    0  0.00000000000E+00  0.00000000000E+00 -0.14562092280E+04  0.14562092280E+04  0.50400001928E-02 0.  1.
    10030    2    1    2    0    0  0.00000000000E+00  0.00000000000E+00 -0.29561361871E+03  0.26168048374E+04  0.26000538735E+04 0.  0.
        3    1    3    3  502    0  0.53227369063E+03  0.24921113461E+03 -0.13148673406E+04  0.14402422036E+04  0.10100000352E+00 0.  1.
       -3    1    3    3    0  502 -0.53227369063E+03 -0.24921113461E+03  0.10192537219E+04  0.11765626338E+04  0.10100000352E+00 0. -1.
</event>
<event>
 5   0  0.2294625E-07  0.2601259E+04  0.7818609E-02  0.8367774E-01
       -3   -1    0    0    0  501  0.00000000000E+00  0.00000000000E+00  0.17778533836E+04  0.17778533865E+04  0.10100000352E+00 0.  1.
        3   -1    0    0  501    0  0.00000000000E+00  0.00000000000E+00 -0.95150532037E+03  0.95150532573E+03  0.10100000352E+00 0. -1.
    10030    2    1    2    0    0  0.00000000000E+00  0.00000000000E+00  0.82634806327E+03  0.27293587122E+04  0.26012588988E+04 0.  0.
        4    1    3    3  502    0 -0.98600837874E+03  0.11319054147E+03 -0.46882305921E+03  0.10976435193E+04  0.12699999809E+01 0. -1.
       -4    1    3    3    0  502  0.98600837874E+03 -0.11319054147E+03  0.12951711225E+04  0.16317151930E+04  0.12699999809E+01 0.  1.
</event>
<event>
 5   0  0.2755061E-07  0.2600315E+04  0.7818609E-02  0.8368094E-01
        1   -1    0    0  501    0  0.00000000000E+00  0.00000000000E+00  0.10628307996E+04  0.10628307996E+04  0.50400001928E-02 0. -1.
       -1   -1    0    0    0  501  0.00000000000E+00  0.00000000000E+00 -0.15904780481E+04  0.15904780481E+04  0.50400001928E-02 0.  1.
    10030    2    1    2    0    0  0.00000000000E+00  0.00000000000E+00 -0.52764724853E+03  0.26533088477E+04  0.26003146391E+04 0.  0.
        4    1    3    3  502    0 -0.12796798533E+04 -0.16354689232E+03 -0.99041492261E+02  0.12938852124E+04  0.12699999809E+01 0. -1.
       -4    1    3    3    0  502  0.12796798533E+04  0.16354689232E+03 -0.42860575627E+03  0.13594236352E+04  0.12699999809E+01 0.  1.
</event>
<event>
 5   0  0.2755061E-07  0.2599598E+04  0.7818609E-02  0.8368338E-01
       -1   -1    0    0    0  501  0.00000000000E+00  0.00000000000E+00  0.14176159599E+04  0.14176159599E+04  0.50400001928E-02 0.  1.
        1   -1    0    0  501    0  0.00000000000E+00  0.00000000000E+00 -0.11917738991E+04  0.11917738991E+04  0.50400001928E-02 0. -1.
    10030    2    1    2    0    0  0.00000000000E+00  0.00000000000E+00  0.22584206079E+03  0.26093898590E+04  0.25995981997E+04 0.  0.
        4    1    3    3  502    0  0.95885620211E+02 -0.17745419422E+03 -0.11759684653E+04  0.11931418556E+04  0.12699999809E+01 0. -1.
       -4    1    3    3    0  502 -0.95885620211E+02  0.17745419422E+03  0.14018105261E+04  0.14162480034E+04  0.12699999809E+01 0.  1.
</event>
<event>
 5   0  0.7160320E-07  0.2599365E+04  0.7818609E-02  0.8368417E-01
       -2   -1    0    0    0  501  0.00000000000E+00  0.00000000000E+00  0.65562353158E+03  0.65562353158E+03  0.25500000920E-02 0.  1.
        2   -1    0    0  501    0  0.00000000000E+00  0.00000000000E+00 -0.25764389229E+04  0.25764389229E+04  0.25500000920E-02 0. -1.
    10030    2    1    2    0    0  0.00000000000E+00  0.00000000000E+00 -0.19208153913E+04  0.32320624545E+04  0.25993645266E+04 0.  0.
        1    1    3    3  502    0  0.10044489393E+04 -0.33720149268E+03 -0.24501675954E+02  0.10598220844E+04  0.50400001928E-02 0.  1.
       -1    1    3    3    0  502 -0.10044489393E+04  0.33720149268E+03 -0.18963137154E+04  0.21722403701E+04  0.50400001928E-02 0. -1.
</event>
<event>
 5   0  0.6526351E-07  0.2599516E+04  0.7818609E-02  0.8368366E-01
       -2   -1    0    0    0  501  0.00000000000E+00  0.00000000000E+00  0.10990729979E+04  0.10990729979E+04  0.25500000920E-02 0. -1.
        2   -1    0    0  501    0  0.00000000000E+00  0.00000000000E+00 -0.15370871455E+04  0.15370871455E+04  0.25500000920E-02 0.  1.
    10030    2    1    2    0    0  0.00000000000E+00  0.00000000000E+00 -0.43801414762E+03  0.26361601434E+04  0.25995160912E+04 0.  0.
        3    1    3    3  502    0 -0.64534087336E+03  0.86292244371E+03  0.51806109570E+03  0.11956116827E+04  0.10100000352E+00 0. -1.
       -3    1    3    3    0  502  0.64534087336E+03 -0.86292244371E+03 -0.95607524332E+03  0.14405484607E+04  0.10100000352E+00 0.  1.
</event>
<event>
 5   0  0.2294625E-07  0.2600842E+04  0.7818609E-02  0.8367915E-01
        3   -1    0    0  501    0  0.00000000000E+00  0.00000000000E+00  0.11861973210E+04  0.11861973253E+04  0.10100000352E+00 0. -1.
       -3   -1    0    0    0  501  0.00000000000E+00  0.00000000000E+00 -0.14256439335E+04  0.14256439371E+04  0.10100000352E+00 0.  1.
    10030    2    1    2    0    0  0.00000000000E+00  0.00000000000E+00 -0.23944661255E+03  0.26118412623E+04  0.26008421904E+04 0.  0.
        2    1    3    3  502    0  0.42527250887E+03  0.10046593197E+04 -0.83045783151E+03  0.13710788691E+04  0.25500000920E-02 0.  1.
       -2    1    3    3    0  502 -0.42527250887E+03 -0.10046593197E+04  0.59101121896E+03  0.12407623932E+04  0.25500000920E-02 0. -1.
</event>
<event>
 5   0  0.6780984E-07  0.2599819E+04  0.7818609E-02  0.8368263E-01
       -2   -1    0    0    0  501  0.00000000000E+00  0.00000000000E+00  0.68166871193E+03  0.68166871194E+03  0.25500000920E-02 0.  1.
        2   -1    0    0  501    0  0.00000000000E+00  0.00000000000E+00 -0.24788649815E+04  0.24788649815E+04  0.25500000920E-02 0. -1.
    10030    2    1    2    0    0  0.00000000000E+00  0.00000000000E+00 -0.17971962695E+04  0.31605336934E+04  0.25998189929E+04 0.  0.
        2    1    3    3  502    0  0.12525781807E+04 -0.13350334536E+03 -0.50846422816E+03  0.13584222883E+04  0.25500000920E-02 0. -1.
       -2    1    3    3    0  502 -0.12525781807E+04  0.13350334536E+03 -0.12887320414E+04  0.18021114051E+04  0.25500000920E-02 0.  1.
</event>
<event>
 5   0  0.6768478E-07  0.2601045E+04  0.7818609E-02  0.8367846E-01
        2   -1    0    0  501    0  0.00000000000E+00  0.00000000000E+00  0.14874910238E+04  0.14874910238E+04  0.25500000920E-02 0. -1.
       -2   -1    0    0    0  501  0.00000000000E+00  0.00000000000E+00 -0.11370551533E+04  0.11370551533E+04  0.25500000920E-02 0.  1.
    10030    2    1    2    0    0  0.00000000000E+00  0.00000000000E+00  0.35043587045E+03  0.26245461771E+04  0.26010454315E+04 0.  0.
        4    1    3    3  502    0 -0.66957221869E+03 -0.11082772767E+04  0.29777414256E+03  0.13286370953E+04  0.12699999809E+01 0.  1.
       -4    1    3    3    0  502  0.66957221869E+03  0.11082772767E+04  0.52661727894E+02  0.12959090819E+04  0.12699999809E+01 0. -1.
</event>
<event>
 5   0  0.2755061E-07  0.2600672E+04  0.7818609E-02  0.8367973E-01
        1   -1    0    0  501    0  0.00000000000E+00  0.00000000000E+00  0.16902052761E+04  0.16902052761E+04  0.50400001928E-02 0. -1.
       -1   -1    0    0    0  501  0.00000000000E+00  0.00000000000E+00 -0.10003951038E+04  0.10003951038E+04  0.50400001928E-02 0.  1.
    10030    2    1    2    0    0  0.00000000000E+00  0.00000000000E+00  0.68981017224E+03  0.26906003799E+04  0.26006715153E+04 0.  0.
        4    1    3    3  502    0  0.85242101145E+03  0.52382742050E+03  0.12042005497E+04  0.15656044596E+04  0.12699999809E+01 0. -1.
       -4    1    3    3    0  502 -0.85242101145E+03 -0.52382742050E+03 -0.51439037748E+03  0.11249959202E+04  0.12699999809E+01 0.  1.
</event>
<event>
 5   0  0.6599814E-07  0.2602195E+04  0.7818609E-02  0.8367456E-01
        2   -1    0    0  501    0  0.00000000000E+00  0.00000000000E+00  0.14700878119E+04  0.14700878119E+04  0.25500000920E-02 0. -1.
       -2   -1    0    0    0  501  0.00000000000E+00  0.00000000000E+00 -0.11515327232E+04  0.11515327232E+04  0.25500000920E-02 0.  1.
    10030    2    1    2    0    0  0.00000000000E+00  0.00000000000E+00  0.31855508874E+03  0.26216205351E+04  0.26021946287E+04 0.  0.
        5    1    3    3  502    0 -0.40800906738E+03  0.73269099389E+03 -0.84289698450E+03  0.11890352846E+04  0.46999998093E+01 0.  1.
       -5    1    3    3    0  502  0.40800906738E+03 -0.73269099389E+03  0.11614520732E+04  0.14325852505E+04  0.46999998093E+01 0. -1.
</event>
<event>
 5   0  0.6526351E-07  0.2605021E+04  0.7818609E-02  0.8366498E-01
        2   -1    0    0  501    0  0.00000000000E+00  0.00000000000E+00  0.19484260155E+04  0.19484260155E+04  0.25500000920E-02 0. -1.
       -2   -1    0    0    0  501  0.00000000000E+00  0.00000000000E+00 -0.87071999939E+03  0.87071999939E+03  0.25500000920E-02 0.  1.
    10030    2    1    2    0    0  0.00000000000E+00  0.00000000000E+00  0.10777060161E+04  0.28191460149E+04  0.26050209205E+04 0.  0.
        3    1    3    3  502    0  0.74134405049E+03  0.11690925189E+03  0.16909099743E+04  0.18499825204E+04  0.10100000352E+00 0. -1.
       -3    1    3    3    0  502 -0.74134405049E+03 -0.11690925189E+03 -0.61320395824E+03  0.96916349445E+03  0.10100000352E+00 0.  1.
</event>
<event>
 5   0  0.2755061E-07  0.2599704E+04  0.7818609E-02  0.8368302E-01
       -1   -1    0    0    0  501  0.00000000000E+00  0.00000000000E+00  0.12432871366E+04  0.12432871366E+04  0.50400001928E-02 0. -1.
        1   -1    0    0  501    0  0.00000000000E+00  0.00000000000E+00 -0.13589900198E+04  0.13589900198E+04  0.50400001928E-02 0.  1.
    10030    2    1    2    0    0  0.00000000000E+00  0.00000000000E+00 -0.11570288323E+03  0.26022771564E+04  0.25997036834E+04 0.  0.
        4    1    3    3  502    0  0.49945631153E+03  0.10986989945E+04 -0.54104774773E+03  0.13226225334E+04  0.12699999809E+01 0.  1.
       -4    1    3    3    0  502 -0.49945631153E+03 -0.10986989945E+04  0.42534486450E+03  0.12796546230E+04  0.12699999809E+01 0. -1.
</event>
<event>
 5   0  0.2641626E-07  0.2599549E+04  0.7818609E-02  0.8368354E-01
       -1   -1    0    0    0  501  0.00000000000E+00  0.00000000000E+00  0.15373219720E+04  0.15373219720E+04  0.50400001928E-02 0.  1.
        1   -1    0    0  501    0  0.00000000000E+00  0.00000000000E+00 -0.10989333399E+04  0.10989333399E+04  0.50400001928E-02 0. -1.
    10030    2    1    2    0    0  0.00000000000E+00  0.00000000000E+00  0.43838863218E+03  0.26362553119E+04  0.25995494757E+04 0.  0.
        3    1    3    3  502    0 -0.60098430090E+03 -0.81910634344E+03  0.10413805753E+04  0.14548507980E+04  0.10100000352E+00 0.  1.
       -3    1    3    3    0  502  0.60098430090E+03  0.81910634344E+03 -0.60299194309E+03  0.11814045139E+04  0.10100000352E+00 0. -1.
</event>
<event>
 5   0  0.6768478E-07  0.2596203E+04  0.7818609E-02  0.8369492E-01
        2   -1    0    0  501    0  0.00000000000E+00  0.00000000000E+00  0.11802822499E+04  0.11802822499E+04  0.25500000920E-02 0.  1.
       -2   -1    0    0    0  501  0.00000000000E+00  0.00000000000E+00 -0.14276821734E+04  0.14276821734E+04  0.25500000920E-02 0. -1.
    10030    2    1    2    0    0  0.00000000000E+00  0.00000000000E+00 -0.24739992358E+03  0.26079644233E+04  0.25962033262E+04 0.  0.
        4    1    3    3  502    0 -0.11158081739E+04  0.64659749991E+03 -0.27252680919E+03  0.13181004068E+04  0.12699999809E+01 0. -1.
       -4    1    3    3    0  502  0.11158081739E+04 -0.64659749991E+03  0.25126885601E+02  0.12898640165E+04  0.12699999809E+01 0.  1.
</event>
<event>
 5   0  0.6526351E-07  0.2600043E+04  0.7818609E-02  0.8368187E-01
       -2   -1    0    0    0  501  0.00000000000E+00  0.00000000000E+00  0.21080589208E+04  0.21080589208E+04  0.25500000920E-02 0.  1.
        2   -1    0    0  501    0  0.00000000000E+00  0.00000000000E+00 -0.80171164929E+03  0.80171164929E+03  0.25500000920E-02 0. -1.
    10030    2    1    2    0    0  0.00000000000E+00  0.00000000000E+00  0.13063472716E+04  0.29097705701E+04  0.26000426106E+04 0.  0.
        3    1    3    3  502    0  0.11636455885E+04  0.50630741916E+03  0.33735622395E+03  0.13130984313E+04  0.10100000352E+00 0. -1.
       -3    1    3    3    0  502 -0.11636455885E+04 -0.50630741916E+03  0.96899104761E+03  0.15966721388E+04  0.10100000352E+00 0.  1.
</event>
<event>
 5   0  0.6780984E-07  0.2598998E+04  0.7818609E-02  0.8368542E-01
       -2   -1    0    0    0  501  0.00000000000E+00  0.00000000000E+00  0.14811703505E+04  0.14811703505E+04  0.25500000920E-02 0. -1.
        2   -1    0    0  501    0  0.00000000000E+00  0.00000000000E+00 -0.11401101457E+04  0.11401101457E+04  0.25500000920E-02 0.  1.
    10030    2    1    2    0    0  0.00000000000E+00  0.00000000000E+00  0.34106020476E+03  0.26212804962E+04  0.25989977638E+04 0.  0.
        2    1    3    3  502    0  0.46989246981E+03  0.19020131122E+02 -0.10512753747E+04  0.11516686208E+04  0.25500000920E-02 0.  1.
       -2    1    3    3    0  502 -0.46989246981E+03 -0.19020131122E+02  0.13923355795E+04  0.14696118754E+04  0.25500000920E-02 0. -1.
</event>
<event>
 5   0  0.6780984E-07  0.2598836E+04  0.7818609E-02  0.8368597E-01
        2   -1    0    0  501    0  0.00000000000E+00  0.00000000000E+00  0.82868341709E+03  0.82868341709E+03  0.25500000920E-02 0. -1.
       -2   -1    0    0    0  501  0.00000000000E+00  0.00000000000E+00 -0.20375541417E+04  0.20375541417E+04  0.25500000920E-02 0.  1.
    10030    2    1    2    0    0  0.00000000000E+00  0.00000000000E+00 -0.12088707246E+04  0.28662375587E+04  0.25988361461E+04 0.  0.
        2    1    3    3  502    0  0.47898984798E+03  0.40376603596E+03  0.65113382986E+03  0.90356712570E+03  0.25500000920E-02 0. -1.
       -2    1    3    3    0  502 -0.47898984798E+03 -0.40376603596E+03 -0.18600045544E+04  0.19626704330E+04  0.25500000920E-02 0.  1.
</event>
<event>
 5   0  0.6768478E-07  0.2599279E+04  0.7818609E-02  0.8368446E-01
        2   -1    0    0  501    0  0.00000000000E+00  0.00000000000E+00  0.15632055946E+04  0.15632055946E+04  0.25500000920E-02 0. -1.
       -2   -1    0    0    0  501  0.00000000000E+00  0.00000000000E+00 -0.10805120460E+04  0.10805120460E+04  0.25500000920E-02 0.  1.
    10030    2    1    2    0    0  0.00000000000E+00  0.00000000000E+00  0.48269354864E+03  0.26437176406E+04  0.25992787271E+04 0.  0.
        4    1    3    3  502    0 -0.12908165694E+04  0.49077777480E+02  0.38677672071E+03  0.13484116169E+04  0.12699999809E+01 0.  1.
       -4    1    3    3    0  502  0.12908165694E+04 -0.49077777480E+02  0.95916827932E+02  0.12953060237E+04  0.12699999809E+01 0. -1.
</event>
<event>
 5   0  0.6599814E-07  0.2600828E+04  0.7818609E-02  0.8367920E-01
       -2   -1    0    0    0  501  0.00000000000E+00  0.00000000000E+00  0.96268168798E+03  0.96268168798E+03  0.25500000920E-02 0.  1.
        2   -1    0    0  501    0  0.00000000000E+00  0.00000000000E+00 -0.17566317129E+04  0.17566317129E+04  0.25500000920E-02 0. -1.
    10030    2    1    2    0    0  0.00000000000E+00  0.00000000000E+00 -0.79395002491E+03  0.27193134009E+04  0.26008284699E+04 0.  0.
        5    1    3    3  502    0  0.81689744947E+03 -0.37755777857E+03  0.58450350450E+03  0.10730972723E+04  0.46999998093E+01 0.  1.
       -5    1    3    3    0  502 -0.81689744947E+03  0.37755777857E+03 -0.13784535294E+04  0.16462161285E+04  0.46999998093E+01 0. -1.
</event>
<event>
 5   0  0.6599814E-07  0.2600085E+04  0.7818609E-02  0.8368172E-01
        2   -1    0    0  501    0  0.00000000000E+00  0.00000000000E+00  0.14874475779E+04  0.14874475779E+04  0.25500000920E-02 0. -1.
       -2   -1    0    0    0  501  0.00000000000E+00  0.00000000000E+00 -0.11362483637E+04  0.11362483637E+04  0.25500000920E-02 0.  1.
    10030    2    1    2    0    0  0.00000000000E+00  0.00000000000E+00  0.35119921427E+03  0.26236959416E+04  0.26000845190E+04 0.  0.
        5    1    3    3  502    0 -0.20422365284E+03  0.16239969334E+03 -0.11095461204E+04  0.11398226371E+04  0.46999998093E+01 0.  1.
       -5    1    3    3    0  502  0.20422365284E+03 -0.16239969334E+03  0.14607453347E+04  0.14838733045E+04  0.46999998093E+01 0. -1.
</event>
<event>
 5   0  0.6526351E-07  0.2600244E+04  0.7818609E-02  0.8368118E-01
       -2   -1    0    0    0  501  0.00000000000E+00  0.00000000000E+00  0.11398060430E+04  0.11398060430E+04  0.25500000920E-02 0.  1.
        2   -1    0    0  501    0  0.00000000000E+00  0.00000000000E+00 -0.14829870888E+04  0.14829870888E+04  0.25500000920E-02 0. -1.
    10030    2    1    2    0    0  0.00000000000E+00  0.00000000000E+00 -0.34318104583E+03  0.26227931317E+04  0.26002443312E+04 0.  0.
        3    1    3    3  502    0 -0.69233389744E+03 -0.34680700665E+02  0.93785155633E+03  0.11662309070E+04  0.10100000352E+00 0.  1.
       -3    1    3    3    0  502  0.69233389744E+03  0.34680700665E+02 -0.12810326022E+04  0.14565622247E+04  0.10100000352E+00 0. -1.
</event>
<event>
 5   0  0.2623263E-07  0.2600399E+04  0.7818609E-02  0.8368066E-01
        1   -1    0    0  501    0  0.00000000000E+00  0.00000000000E+00  0.15210454981E+04  0.15210454981E+04  0.50400001928E-02 0.  1.
       -1   -1    0    0    0  501  0.00000000000E+00  0.00000000000E+00 -0.11114191568E+04  0.11114191568E+04  0.50400001928E-02 0. -1.
    10030    2    1    2    0    0  0.00000000000E+00  0.00000000000E+00  0.40962634123E+03  0.26324646549E+04  0.26003992809E+04 0.  0.
        1    1    3    3  502    0 -0.29575449695E+02 -0.84216324432E+02  0.15179402582E+04  0.15205623053E+04  0.50400001928E-02 0.  1.
       -1    1    3    3    0  502  0.29575449695E+02  0.84216324432E+02 -0.11083139170E+04  0.11119023497E+04  0.50400001928E-02 0. -1.
</event>
<event>
 5   0  0.2623263E-07  0.2600458E+04  0.7818609E-02  0.8368046E-01
       -1   -1    0    0    0  501  0.00000000000E+00  0.00000000000E+00  0.96580526203E+03  0.96580526204E+03  0.50400001928E-02 0. -1.
        1   -1    0    0  501    0  0.00000000000E+00  0.00000000000E+00 -0.17504512558E+04  0.17504512558E+04  0.50400001928E-02 0.  1.
    10030    2    1    2    0    0  0.00000000000E+00  0.00000000000E+00 -0.78464599375E+03  0.27162565178E+04  0.26004576780E+04 0.  0.
        1    1    3    3  502    0  0.11423183467E+04  0.51927351932E+03 -0.36478621540E+02  0.12553353667E+04  0.50400001928E-02 0. -1.
       -1    1    3    3    0  502 -0.11423183467E+04 -0.51927351932E+03 -0.74816737221E+03  0.14609211511E+04  0.50400001928E-02 0.  1.
</event>
<event>
 5   0  0.6780984E-07  0.2595523E+04  0.7818609E-02  0.8369723E-01
       -2   -1    0    0    0  501  0.00000000000E+00  0.00000000000E+00  0.24094328296E+04  0.24094328296E+04  0.25500000920E-02 0. -1.
        2   -1    0    0  501    0  0.00000000000E+00  0.00000000000E+00 -0.69899646174E+03  0.69899646175E+03  0.25500000920E-02 0.  1.
    10030    2    1    2    0    0  0.00000000000E+00  0.00000000000E+00  0.17104363679E+04  0.31084292914E+04  0.25955230862E+04 0.  0.
        2    1    3    3  502    0 -0.41602306709E+03 -0.11300682624E+04  0.27582207942E+03  0.12353976241E+04  0.25500000920E-02 0.  1.
       -2    1    3    3    0  502  0.41602306709E+03  0.11300682624E+04  0.14346142885E+04  0.18730316673E+04  0.25500000920E-02 0. -1.
</event>
<event>
 5   0  0.6768478E-07  0.2600098E+04  0.7818609E-02  0.8368168E-01
        2   -1    0    0  501    0  0.00000000000E+00  0.00000000000E+00  0.90762511994E+03  0.90762511995E+03  0.25500000920E-02 0.  1.
       -2   -1    0    0    0  501  0.00000000000E+00  0.00000000000E+00 -0.18621429416E+04  0.18621429416E+04  0.25500000920E-02 0. -1.
    10030    2    1    2    0    0  0.00000000000E+00  0.00000000000E+00 -0.95451782167E+03  0.27697680616E+04  0.26000982372E+04 0.  0.
        4    1    3    3  502    0 -0.73083035467E+03 -0.17068209546E+03 -0.16080766668E+04  0.17745865897E+04  0.12699999809E+01 0. -1.
       -4    1    3    3    0  502  0.73083035467E+03  0.17068209546E+03  0.65355884514E+03  0.99518147189E+03  0.12699999809E+01 0.  1.
</event>
<event>
 5   0  0.2864801E-07  0.2603593E+04  0.7818609E-02  0.8366982E-01
        1   -1    0    0  501    0  0.00000000000E+00  0.00000000000E+00  0.17359905311E+04  0.17359905311E+04  0.50400001928E-02 0.  1.
       -1   -1    0    0    0  501  0.00000000000E+00  0.00000000000E+00 -0.97620035871E+03  0.97620035872E+03  0.50400001928E-02 0. -1.
    10030    2    1    2    0    0  0.00000000000E+00  0.00000000000E+00  0.75979017242E+03  0.27121908899E+04  0.26035933471E+04 0.  0.
        5    1    3    3  502    0  0.83822663046E+03  0.53389047784E+03 -0.49600304746E+03  0.11107223053E+04  0.46999998093E+01 0. -1.
       -5    1    3    3    0  502 -0.83822663046E+03 -0.53389047784E+03  0.12557932199E+04  0.16014685846E+04  0.46999998093E+01 0.  1.
</event>
<event>
 5   0  0.7160320E-07  0.2599474E+04  0.7818609E-02  0.8368380E-01
       -2   -1    0    0    0  501  0.00000000000E+00  0.00000000000E+00  0.92643638142E+03  0.92643638142E+03  0.25500000920E-02 0. -1.
        2   -1    0    0  501    0  0.00000000000E+00  0.00000000000E+00 -0.18234557079E+04  0.18234557079E+04  0.25500000920E-02 0.  1.
    10030    2    1    2    0    0  0.00000000000E+00  0.00000000000E+00 -0.89701932645E+03  0.27498920893E+04  0.25994735680E+04 0.  0.
        1    1    3    3  502    0 -0.61852116062E+03 -0.10164216097E+04  0.10486030645E+03  0.11944358496E+04  0.50400001928E-02 0. -1.
       -1    1    3    3    0  502  0.61852116062E+03  0.10164216097E+04 -0.10018796329E+04  0.15554562397E+04  0.50400001928E-02 0.  1.
</event>
<event>
 5   0  0.2864801E-07  0.2599325E+04  0.7818609E-02  0.8368430E-01
        1   -1    0    0  501    0  0.00000000000E+00  0.00000000000E+00  0.11167961640E+04  0.11167961640E+04  0.50400001928E-02 0. -1.
       -1   -1    0    0    0  501  0.00000000000E+00  0.00000000000E+00 -0.15124719971E+04  0.15124719972E+04  0.50400001928E-02 0.  1.
    10030    2    1    2    0    0  0.00000000000E+00  0.00000000000E+00 -0.39567583316E+03  0.26292681612E+04  0.25993252390E+04 0.  0.
        5    1    3    3  502    0 -0.16337603757E+03  0.70192628359E+03 -0.12918272804E+04  0.14792674030E+04  0.46999998093E+01 0.  1.
       -5    1    3    3    0  502  0.16337603757E+03 -0.70192628359E+03  0.89615144726E+03  0.11500007581E+04  0.46999998093E+01 0. -1.
</event>
<event>
 5   0  0.2755061E-07  0.2599923E+04  0.7818609E-02  0.8368227E-01
        1   -1    0    0  501    0  0.00000000000E+00  0.00000000000E+00  0.11300748121E+04  0.11300748121E+04  0.50400001928E-02 0. -1.
       -1   -1    0    0    0  501  0.00000000000E+00  0.00000000000E+00 -0.14953875514E+04  0.14953875514E+04  0.50400001928E-02 0.  1.
    10030    2    1    2    0    0  0.00000000000E+00  0.00000000000E+00 -0.36531273927E+03  0.26254623635E+04  0.25999229267E+04 0.  0.
        4    1    3    3  502    0  0.12975771735E+04 -0.77183596574E+02 -0.16719701436E+03  0.13105801323E+04  0.12699999809E+01 0.  1.
       -4    1    3    3    0  502 -0.12975771735E+04  0.77183596574E+02 -0.19811572490E+03  0.13148822312E+04  0.12699999809E+01 0. -1.
</event>
<event>
 5   0  0.2623263E-07  0.2599693E+04  0.7818609E-02  0.8368305E-01
       -1   -1    0    0    0  501  0.00000000000E+00  0.00000000000E+00  0.13126628198E+04  0.13126628198E+04  0.50400001928E-02 0. -1.
        1   -1    0    0  501    0  0.00000000000E+00  0.00000000000E+00 -0.12871555595E+04  0.12871555595E+04  0.50400001928E-02 0.  1.
    10030    2    1    2    0    0  0.00000000000E+00  0.00000000000E+00  0.25507260367E+02  0.25998183793E+04  0.25996932483E+04 0.  0.
        1    1    3    3  502    0 -0.11283633357E+04 -0.33126614604E+03 -0.54104208213E+03  0.12944758057E+04  0.50400001928E-02 0.  1.
       -1    1    3    3    0  502  0.11283633357E+04  0.33126614604E+03  0.56654934250E+03  0.13053425736E+04  0.50400001928E-02 0. -1.
</event>
<event>
 5   0  0.2623263E-07  0.2600355E+04  0.7818609E-02  0.8368080E-01
       -1   -1    0    0    0  501  0.00000000000E+00  0.00000000000E+00  0.16899821420E+04  0.16899821420E+04  0.50400001928E-02 0. -1.
        1   -1    0    0  501    0  0.00000000000E+00  0.00000000000E+00 -0.10002840049E+04  0.10002840050E+04  0.50400001928E-02 0.  1.
    10030    2    1    2    0    0  0.00000000000E+00  0.00000000000E+00  0.68969813709E+03  0.26902661470E+04  0.26003554414E+04 0.  0.
        1    1    3    3  502    0 -0.84114728615E+03 -0.28246879683E+03  0.13280475668E+04  0.15971937008E+04  0.50400001928E-02 0. -1.
       -1    1    3    3    0  502  0.84114728615E+03  0.28246879683E+03 -0.63834942971E+03  0.10930724462E+04  0.50400001928E-02 0.  1.
</event>
<event>
 5   0  0.2623263E-07  0.2600357E+04  0.7818609E-02  0.8368080E-01
        1   -1    0    0  501    0  0.00000000000E+00  0.00000000000E+00  0.15607382247E+04  0.15607382247E+04  0.50400001928E-02 0.  1.
       -1   -1    0    0    0  501  0.00000000000E+00  0.00000000000E+00 -0.10831184059E+04  0.10831184059E+04  0.50400001928E-02 0. -1.
    10030    2    1    2    0    0  0.00000000000E+00  0.00000000000E+00  0.47761981874E+03  0.26438566306E+04  0.26003571278E+04 0.  0.
        1    1    3    3  502    0 -0.20632320548E+03  0.23620297034E+02 -0.10661469219E+04  0.10861843502E+04  0.50400001928E-02 0. -1.
       -1    1    3    3    0  502  0.20632320548E+03 -0.23620297034E+02  0.15437667407E+04  0.15576722804E+04  0.50400001928E-02 0.  1.
</event>
<event>
 5   0  0.2793576E-07  0.2599515E+04  0.7818609E-02  0.8368366E-01
       -1   -1    0    0    0  501  0.00000000000E+00  0.00000000000E+00  0.12122986831E+04  0.12122986831E+04  0.50400001928E-02 0.  1.
        1   -1    0    0  501    0  0.00000000000E+00  0.00000000000E+00 -0.13935257600E+04  0.13935257600E+04  0.50400001928E-02 0. -1.
    10030    2    1    2    0    0  0.00000000000E+00  0.00000000000E+00 -0.18122707687E+03  0.26058244432E+04  0.25995149115E+04 0.  0.
        2    1    3    3  502    0 -0.29040659861E+03  0.32898282301E+03 -0.13170223785E+04  0.13882051851E+04  0.25500000920E-02 0. -1.
       -2    1    3    3    0  502  0.29040659861E+03 -0.32898282301E+03  0.11357953017E+04  0.12176192581E+04  0.25500000920E-02 0.  1.
</event>
<event>
 5   0  0.2864801E-07  0.2596214E+04  0.7818609E-02  0.8369489E-01
        1   -1    0    0  501    0  0.00000000000E+00  0.00000000000E+00  0.15914468252E+04  0.15914468252E+04  0.50400001928E-02 0. -1.
       -1   -1    0    0    0  501  0.00000000000E+00  0.00000000000E+00 -0.10588359781E+04  0.10588359781E+04  0.50400001928E-02 0.  1.
    10030    2    1    2    0    0  0.00000000000E+00  0.00000000000E+00  0.53261084712E+03  0.26502828032E+04  0.25962135164E+04 0.  0.
        5    1    3    3  502    0 -0.12047387256E+04 -0.20216572320E+03 -0.18192062550E+03  0.12350642010E+04  0.46999998093E+01 0.  1.
       -5    1    3    3    0  502  0.12047387256E+04  0.20216572320E+03  0.71453147262E+03  0.14152186022E+04  0.46999998093E+01 0. -1.
</event>
<event>
 5   0  0.6526351E-07  0.2599143E+04  0.7818609E-02  0.8368492E-01
       -2   -1    0    0    0  501  0.00000000000E+00  0.00000000000E+00  0.11124748670E+04  0.11124748670E+04  0.25500000920E-02 0. -1.
        2   -1    0    0  501    0  0.00000000000E+00  0.00000000000E+00 -0.15181342033E+04  0.15181342033E+04  0.25500000920E-02 0.  1.
    10030    2    1    2    0    0  0.00000000000E+00  0.00000000000E+00 -0.40565933634E+03  0.26306090703E+04  0.25991430480E+04 0.  0.
        3    1    3    3  502    0 -0.70348990803E+03  0.59730507866E+03  0.72324192122E+03  0.11724974603E+04  0.10100000352E+00 0. -1.
       -3    1    3    3    0  502  0.70348990803E+03 -0.59730507866E+03 -0.11289012576E+04  0.14581116100E+04  0.10100000352E+00 0.  1.
</event>
<event>
 5   0  0.2641626E-07  0.2600857E+04  0.7818609E-02  0.8367910E-01
       -1   -1    0    0    0  501  0.00000000000E+00  0.00000000000E+00  0.11050054984E+04  0.11050054984E+04  0.50400001928E-02 0.  1.
        1   -1    0    0  501    0  0.00000000000E+00  0.00000000000E+00 -0.15304125507E+04  0.15304125507E+04  0.50400001928E-02 0. -1.
    10030    2    1    2    0    0  0.00000000000E+00  0.00000000000E+00 -0.42540705229E+03  0.26354180490E+04  0.26008569997E+04 0.  0.
        3    1    3    3  502    0  0.11561981608E+04  0.58651573458E+03 -0.31563775715E+03  0.13343245849E+04  0.10100000352E+00 0. -1.
       -3    1    3    3    0  502 -0.11561981608E+04 -0.58651573458E+03 -0.10976929514E+03  0.13010934641E+04  0.10100000352E+00 0.  1.
</event>
<event>
 5   0  0.2793576E-07  0.2599700E+04  0.7818609E-02  0.8368303E-01
        1   -1    0    0  501    0  0.00000000000E+00  0.00000000000E+00  0.24469001890E+04  0.24469001890E+04  0.50400001928E-02 0.  1.
       -1   -1    0    0    0  501  0.00000000000E+00  0.00000000000E+00 -0.69051036062E+03  0.69051036064E+03  0.50400001928E-02 0. -1.
    10030    2    1    2    0    0  0.00000000000E+00  0.00000000000E+00  0.17563898284E+04  0.31374105497E+04  0.25996999304E+04 0.  0.
        2    1    3    3  502    0  0.21405117710E+03 -0.11121841667E+03 -0.66326186617E+03  0.70576465323E+03  0.25500000920E-02 0. -1.
       -2    1    3    3    0  502 -0.21405117710E+03  0.11121841667E+03  0.24196516946E+04  0.24316458964E+04  0.25500000920E-02 0.  1.
</event>
<event>
 5   0  0.6599814E-07  0.2607820E+04  0.7818609E-02  0.8365550E-01
        2   -1    0    0  501    0  0.00000000000E+00  0.00000000000E+00  0.15170860001E+04  0.15170860001E+04  0.25500000920E-02 0. -1.
       -2   -1    0    0    0  501  0.00000000000E+00  0.00000000000E+00 -0.11206886514E+04  0.11206886514E+04  0.25500000920E-02 0.  1.
    10030    2    1    2    0    0  0.00000000000E+00  0.00000000000E+00  0.39639734873E+03  0.26377746515E+04  0.26078198277E+04 0.  0.
        5    1    3    3  502    0 -0.21053218175E+03 -0.12807610355E+04  0.32407224612E+03  0.13378032517E+04  0.46999998093E+01 0. -1.
       -5    1    3    3    0  502  0.21053218175E+03  0.12807610355E+04  0.72325102606E+02  0.12999713997E+04  0.46999998093E+01 0.  1.
</event>
<event>
 5   0  0.6526351E-07  0.2600348E+04  0.7818609E-02  0.8368083E-01
       -2   -1    0    0    0  501  0.00000000000E+00  0.00000000000E+00  0.11494700405E+04  0.11494700405E+04  0.25500000920E-02 0. -1.
        2   -1    0    0  501    0  0.00000000000E+00  0.00000000000E+00 -0.14706358991E+04  0.14706358991E+04  0.25500000920E-02 0.  1.
    10030    2    1    2    0    0  0.00000000000E+00  0.00000000000E+00 -0.32116585856E+03  0.26201059396E+04  0.26003475971E+04 0.  0.
        3    1    3    3  502    0  0.57644624919E+03  0.59096188824E+03 -0.11726680289E+04  0.14341117626E+04  0.10100000352E+00 0.  1.
       -3    1    3    3    0  502 -0.57644624919E+03 -0.59096188824E+03  0.85150217030E+03  0.11859941770E+04  0.10100000352E+00 0. -1.
</event>
<event>
 5   0  0.2623263E-07  0.2602085E+04  0.7818609E-02  0.8367493E-01
       -1   -1    0    0    0  501  0.00000000000E+00  0.00000000000E+00  0.20237597785E+04  0.20237597785E+04  0.50400001928E-02 0.  1.
        1   -1    0    0  501    0  0.00000000000E+00  0.00000000000E+00 -0.83641908736E+03  0.83641908738E+03  0.50400001928E-02 0. -1.
    10030    2    1    2    0    0  0.00000000000E+00  0.00000000000E+00  0.11873406911E+04  0.28601788659E+04  0.26020847849E+04 0.  0.
        1    1    3    3  502    0  0.44459536185E+03 -0.45343512144E+03 -0.65449695615E+03  0.91194008069E+03  0.50400001928E-02 0. -1.
       -1    1    3    3    0  502 -0.44459536185E+03  0.45343512144E+03  0.18418376473E+04  0.19482387852E+04  0.50400001928E-02 0.  1.
</event>
<event>
 5   0  0.6768478E-07  0.2606473E+04  0.7818609E-02  0.8366006E-01
       -2   -1    0    0    0  501  0.00000000000E+00  0.00000000000E+00  0.70294258116E+03  0.70294258116E+03  0.25500000920E-02 0.  1.
        2   -1    0    0  501    0  0.00000000000E+00  0.00000000000E+00 -0.24161646076E+04  0.24161646076E+04  0.25500000920E-02 0. -1.
    10030    2    1    2    0    0  0.00000000000E+00  0.00000000000E+00 -0.17132220265E+04  0.31191071888E+04  0.26064727014E+04 0.  0.
        4    1    3    3  502    0 -0.55369794637E+03  0.24821589659E+03 -0.22368065628E+04  0.23176491882E+04  0.12699999809E+01 0. -1.
       -4    1    3    3    0  502  0.55369794637E+03 -0.24821589659E+03  0.52358453635E+03  0.80145800061E+03  0.12699999809E+01 0.  1.
</event>
<event>
 5   0  0.7160320E-07  0.2608325E+04  0.7818609E-02  0.8365379E-01
        2   -1    0    0  501    0  0.00000000000E+00  0.00000000000E+00  0.27510051909E+04  0.27510051909E+04  0.25500000920E-02 0. -1.
       -2   -1    0    0    0  501  0.00000000000E+00  0.00000000000E+00 -0.61826130548E+03  0.61826130548E+03  0.25500000920E-02 0.  1.
    10030    2    1    2    0    0  0.00000000000E+00  0.00000000000E+00  0.21327438854E+04  0.33692664964E+04  0.26083251797E+04 0.  0.
        1    1    3    3  502    0 -0.70926024416E+03  0.76935423275E+02  0.24765963895E+04  0.25773045668E+04  0.50400001928E-02 0. -1.
       -1    1    3    3    0  502  0.70926024416E+03 -0.76935423275E+02 -0.34385250412E+03  0.79196192959E+03  0.50400001928E-02 0.  1.
</event>
<event>
 5   0  0.6526351E-07  0.2598197E+04  0.7818609E-02  0.8368814E-01
       -2   -1    0    0    0  501  0.00000000000E+00  0.00000000000E+00  0.15901643558E+04  0.15901643558E+04  0.25500000920E-02 0.  1.
        2   -1    0    0  501    0  0.00000000000E+00  0.00000000000E+00 -0.10613097616E+04  0.10613097616E+04  0.25500000920E-02 0. -1.
    10030    2    1    2    0    0  0.00000000000E+00  0.00000000000E+00  0.52885459423E+03  0.26514741174E+04  0.25981970313E+04 0.  0.
        3    1    3    3  502    0 -0.94925409517E+03 -0.86386391012E+03  0.59529859744E+02  0.12848688676E+04  0.10100000352E+00 0.  1.
       -3    1    3    3    0  502  0.94925409517E+03  0.86386391012E+03  0.46932473448E+03  0.13666052499E+04  0.10100000352E+00 0. -1.
</event>
<event>
 5   0  0.2864801E-07  0.2599949E+04  0.7818609E-02  0.8368218E-01
       -1   -1    0    0    0  501  0.00000000000E+00  0.00000000000E+00  0.97722472164E+03  0.97722472165E+03  0.50400001928E-02 0. -1.
        1   -1    0    0  501    0  0.00000000000E+00  0.00000000000E+00 -0.17293199800E+04  0.17293199800E+04  0.50400001928E-02 0.  1.
    10030    2    1    2    0    0  0.00000000000E+00  0.00000000000E+00 -0.75209525833E+03  0.27065447016E+04  0.25999494119E+04 0.  0.
        5    1    3    3  502    0  0.21253936893E+03  0.10333095600E+04  0.41470777853E+03  0.11335370580E+04  0.46999998093E+01 0. -1.
       -5    1    3    3    0  502 -0.21253936893E+03 -0.10333095600E+04 -0.11668030369E+04  0.15730076437E+04  0.46999998093E+01 0.  1.
</event>
<event>
 5   0  0.2793576E-07  0.2599593E+04  0.7818609E-02  0.8368339E-01
        1   -1    0    0  501    0  0.00000000000E+00  0.00000000000E+00  0.19266354711E+04  0.19266354711E+04  0.50400001928E-02 0. -1.
       -1   -1    0    0    0  501  0.00000000000E+00  0.00000000000E+00 -0.87690254993E+03  0.87690254994E+03  0.50400001928E-02 0.  1.
    10030    2    1    2    0    0  0.00000000000E+00  0.00000000000E+00  0.10497329212E+04  0.28035380211E+04  0.25995934739E+04 0.  0.
        2    1    3    3  502    0 -0.65514450889E+03 -0.11020237487E+04  0.75566760499E+03  0.14881882271E+04  0.25500000920E-02 0.  1.
       -2    1    3    3    0  502  0.65514450889E+03  0.11020237487E+04  0.29406531622E+03  0.13153497939E+04  0.25500000920E-02 0. -1.
</event>
<event>
 5   0  0.2623263E-07  0.2599823E+04  0.7818609E-02  0.8368261E-01
       -1   -1    0    0    0  501  0.00000000000E+00  0.00000000000E+00  0.14574145953E+04  0.14574145953E+04  0.50400001928E-02 0.  1.
        1   -1    0    0  501    0  0.00000000000E+00  0.00000000000E+00 -0.11594302190E+04  0.11594302190E+04  0.50400001928E-02 0. -1.
    10030    2    1    2    0    0  0.00000000000E+00  0.00000000000E+00  0.29798437637E+03  0.26168448143E+04  0.25998234736E+04 0.  0.
        1    1    3    3  502    0  0.42669516639E+03 -0.79092797990E+03 -0.79637724977E+03  0.12007716512E+04  0.50400001928E-02 0. -1.
       -1    1    3    3    0  502 -0.42669516639E+03  0.79092797990E+03  0.10943616261E+04  0.14160731631E+04  0.50400001928E-02 0.  1.
</event>
<event>
 5   0  0.6780984E-07  0.2601055E+04  0.7818609E-02  0.8367843E-01
       -2   -1    0    0    0  501  0.00000000000E+00  0.00000000000E+00  0.70248677846E+03  0.70248677846E+03  0.25500000920E-02 0. -1.
        2   -1    0    0  501    0  0.00000000000E+00  0.00000000000E+00 -0.24076912135E+04  0.24076912135E+04  0.25500000920E-02 0.  1.
    10030    2    1    2    0    0  0.00000000000E+00  0.00000000000E+00 -0.17052044350E+04  0.31101779919E+04  0.26010545893E+04 0.  0.
        2    1    3    3  502    0 -0.66724738909E+02 -0.10727370722E+04 -0.17281515961E+04  0.20351228356E+04  0.25500000920E-02 0.  1.
       -2    1    3    3    0  502  0.66724738909E+02  0.10727370722E+04  0.22947161132E+02  0.10750551563E+04  0.25500000920E-02 0. -1.
</event>
<event>
 5   0  0.6768478E-07  0.2600279E+04  0.7818609E-02  0.8368106E-01
        2   -1    0    0  501    0  0.00000000000E+00  0.00000000000E+00  0.10166362269E+04  0.10166362269E+04  0.25500000920E-02 0. -1.
       -2   -1    0    0    0  501  0.00000000000E+00  0.00000000000E+00 -0.16627018091E+04  0.16627018091E+04  0.25500000920E-02 0.  1.
    10030    2    1    2    0    0  0.00000000000E+00  0.00000000000E+00 -0.64606558220E+03  0.26793380360E+04  0.26002791339E+04 0.  0.
        4    1    3    3  502    0 -0.60361033423E+03  0.76778825356E+02 -0.15069310579E+04  0.16251409938E+04  0.12699999809E+01 0.  1.
       -4    1    3    3    0  502  0.60361033423E+03 -0.76778825356E+02  0.86086547567E+03  0.10541970422E+04  0.12699999809E+01 0. -1.
</event>
<event>
 5   0  0.2793576E-07  0.2600103E+04  0.7818609E-02  0.8368166E-01
        1   -1    0    0  501    0  0.00000000000E+00  0.00000000000E+00  0.12431667644E+04  0.12431667644E+04  0.50400001928E-02 0. -1.
       -1   -1    0    0    0  501  0.00000000000E+00  0.00000000000E+00 -0.13595393820E+04  0.13595393821E+04  0.50400001928E-02 0.  1.
    10030    2    1    2    0    0  0.00000000000E+00  0.00000000000E+00 -0.11637261768E+03  0.26027061464E+04  0.26001032092E+04 0.  0.
        2    1    3    3  502    0 -0.97262604543E+02 -0.89239776071E+03  0.88312756644E+03  0.12592648952E+04  0.25500000920E-02 0. -1.
       -2    1    3    3    0  502  0.97262604543E+02  0.89239776071E+03 -0.99950018412E+03  0.13434412513E+04  0.25500000920E-02 0.  1.
</event>
<event>
 5   0  0.2864801E-07  0.2598788E+04  0.7818609E-02  0.8368613E-01
       -1   -1    0    0    0  501  0.00000000000E+00  0.00000000000E+00  0.67669499175E+03  0.67669499177E+03  0.50400001928E-02 0.  1.
        1   -1    0    0  501    0  0.00000000000E+00  0.00000000000E+00 -0.24951049943E+04  0.24951049943E+04  0.50400001928E-02 0. -1.
    10030    2    1    2    0    0  0.00000000000E+00  0.00000000000E+00 -0.18184100026E+04  0.31717999861E+04  0.25987882204E+04 0.  0.
        5    1    3    3  502    0  0.12846408267E+04 -0.19261818968E+03 -0.94778380016E+03  0.16080174261E+04  0.46999998093E+01 0.  1.
       -5    1    3    3    0  502 -0.12846408267E+04  0.19261818968E+03 -0.87062620243E+03  0.15637825600E+04  0.46999998093E+01 0. -1.
</event>
<event>
 5   0  0.2793576E-07  0.2600363E+04  0.7818609E-02  0.8368078E-01
        1   -1    0    0  501    0  0.00000000000E+00  0.00000000000E+00  0.24313879819E+04  0.24313879819E+04  0.50400001928E-02 0. -1.
       -1   -1    0    0    0  501  0.00000000000E+00  0.00000000000E+00 -0.69527015380E+03  0.69527015382E+03  0.50400001928E-02 0.  1.
    10030    2    1    2    0    0  0.00000000000E+00  0.00000000000E+00  0.17361178281E+04  0.31266581357E+04  0.26003626641E+04 0.  0.
        2    1    3    3  502    0 -0.12830114892E+04  0.76980410653E+02  0.11037617959E+04  0.16942061761E+04  0.25500000920E-02 0.  1.
       -2    1    3    3    0  502  0.12830114892E+04 -0.76980410653E+02  0.63235603222E+03  0.14324519596E+04  0.25500000920E-02 0. -1.
</event>
<event>
 5   0  0.6780984E-07  0.2597751E+04  0.7818609E-02  0.8368966E-01
       -2   -1    0    0    0  501  0.00000000000E+00  0.00000000000E+00  0.12422462479E+04  0.12422462479E+04  0.25500000920E-02 0.  1.
        2   -1    0    0  501    0  0.00000000000E+00  0.00000000000E+00 -0.13580862504E+04  0.13580862504E+04  0.25500000920E-02 0. -1.
    10030    2    1    2    0    0  0.00000000000E+00  0.00000000000E+00 -0.11584000247E+03  0.26003324983E+04  0.25977509880E+04 0.  0.
        2    1    3    3  502    0 -0.44269285567E+03  0.87020919692E+03 -0.91541388467E+03  0.13383660154E+04  0.25500000920E-02 0. -1.
       -2    1    3    3    0  502  0.44269285567E+03 -0.87020919692E+03  0.79957388220E+03  0.12619664829E+04  0.25500000920E-02 0.  1.
</event>
<event>
 5   0  0.6526351E-07  0.2600765E+04  0.7818609E-02  0.8367941E-01
        2   -1    0    0  501    0  0.00000000000E+00  0.00000000000E+00  0.13620962814E+04  0.13620962814E+04  0.25500000920E-02 0.  1.
       -2   -1    0    0    0  501  0.00000000000E+00  0.00000000000E+00 -0.12414648611E+04  0.12414648611E+04  0.25500000920E-02 0. -1.
    10030    2    1    2    0    0  0.00000000000E+00  0.00000000000E+00  0.12063142025E+03  0.26035611425E+04  0.26007650188E+04 0.  0.
        3    1    3    3  502    0 -0.61073342065E+03  0.27406087504E+03  0.11763640623E+04  0.13534907061E+04  0.10100000352E+00 0.  1.
       -3    1    3    3    0  502  0.61073342065E+03 -0.27406087504E+03 -0.10557326420E+04  0.12500704364E+04  0.10100000352E+00 0. -1.
</event>
<event>
 5   0  0.6780984E-07  0.2599549E+04  0.7818609E-02  0.8368354E-01
       -2   -1    0    0    0  501  0.00000000000E+00  0.00000000000E+00  0.84104794193E+03  0.84104794194E+03  0.25500000920E-02 0. -1.
        2   -1    0    0  501    0  0.00000000000E+00  0.00000000000E+00 -0.20087006244E+04  0.20087006244E+04  0.25500000920E-02 0.  1.
    10030    2    1    2    0    0  0.00000000000E+00  0.00000000000E+00 -0.11676526825E+04  0.28497485664E+04  0.25995488271E+04 0.  0.
        2    1    3    3  502    0 -0.11696896032E+04  0.55271091520E+03 -0.44624662973E+03  0.13685025313E+04  0.25500000920E-02 0. -1.
       -2    1    3    3    0  502  0.11696896032E+04 -0.55271091520E+03 -0.72140605277E+03  0.14812460351E+04  0.25500000920E-02 0.  1.
</event>
<event>
 5   0  0.2641626E-07  0.2600302E+04  0.7818609E-02  0.8368099E-01
        1   -1    0    0  501    0  0.00000000000E+00  0.00000000000E+00  0.23333126054E+04  0.23333126054E+04  0.50400001928E-02 0.  1.
       -1   -1    0    0    0  501  0.00000000000E+00  0.00000000000E+00 -0.72446019573E+03  0.72446019575E+03  0.50400001928E-02 0. -1.
    10030    2    1    2    0    0  0.00000000000E+00  0.00000000000E+00  0.16088524097E+04  0.30577728012E+04  0.26003016032E+04 0.  0.
        3    1    3    3  502    0 -0.11699529972E+03 -0.73745506145E+03 -0.44718782147E+03  0.87034753156E+03  0.10100000352E+00 0. -1.
       -3    1    3    3    0  502  0.11699529972E+03  0.73745506145E+03  0.20560402312E+04  0.21874252696E+04  0.10100000352E+00 0.  1.
</event>
<event>
 5   0  0.2864801E-07  0.2599869E+04  0.7818609E-02  0.8368246E-01
       -1   -1    0    0    0  501  0.00000000000E+00  0.00000000000E+00  0.11759173384E+04  0.11759173384E+04  0.50400001928E-02 0. -1.
        1   -1    0    0  501    0  0.00000000000E+00  0.00000000000E+00 -0.14370312837E+04  0.14370312837E+04  0.50400001928E-02 0.  1.
    10030    2    1    2    0    0  0.00000000000E+00  0.00000000000E+00 -0.26111394528E+03  0.26129486220E+04  0.25998692292E+04 0.  0.
        5    1    3    3  502    0 -0.12282102685E+04  0.41926201507E+03 -0.20527350078E+03  0.13139407906E+04  0.46999998093E+01 0.  1.
       -5    1    3    3    0  502  0.12282102685E+04 -0.41926201507E+03 -0.55840444498E+02  0.12990078315E+04  0.46999998093E+01 0. -1.
</event>
<event>
 5   0  0.6599814E-07  0.2601358E+04  0.7818609E-02  0.8367740E-01
       -2   -1    0    0    0  501  0.00000000000E+00  0.00000000000E+00  0.14297889503E+04  0.14297889503E+04  0.25500000920E-02 0.  1.
        2   -1    0    0  501    0  0.00000000000E+00  0.00000000000E+00 -0.11832278844E+04  0.11832278844E+04  0.25500000920E-02 0. -1.
    10030    2    1    2    0    0  0.00000000000E+00  0.00000000000E+00  0.24656106591E+03  0.26130168347E+04  0.26013582258E+04 0.  0.
        5    1    3    3  502    0  0.60338720995E+03 -0.16872318666E+02  0.12805652418E+04  0.14157083841E+04  0.46999998093E+01 0.  1.
       -5    1    3    3    0  502 -0.60338720995E+03  0.16872318666E+02 -0.10340041759E+04  0.11973084506E+04  0.46999998093E+01 0. -1.
</event>
<event>
 5   0  0.2864801E-07  0.2600129E+04  0.7818609E-02  0.8368157E-01
        1   -1    0    0  501    0  0.00000000000E+00  0.00000000000E+00  0.23197777368E+04  0.23197777368E+04  0.50400001928E-02 0.  1.
       -1   -1    0    0    0  501  0.00000000000E+00  0.00000000000E+00 -0.72859036628E+03  0.72859036630E+03  0.50400001928E-02 0. -1.
    10030    2    1    2    0    0  0.00000000000E+00  0.00000000000E+00  0.15911873705E+04  0.30483681031E+04  0.26001290052E+04 0.  0.
        5    1    3    3  502    0 -0.98437105577E+03  0.82703737994E+03  0.10216202838E+04  0.16421654294E+04  0.46999998093E+01 0.  1.
       -5    1    3    3    0  502  0.98437105577E+03 -0.82703737994E+03  0.56956708675E+03  0.14062026737E+04  0.46999998093E+01 0. -1.
</event>
<event>
 5   0  0.2793576E-07  0.2600500E+04  0.7818609E-02  0.8368032E-01
       -1   -1    0    0    0  501  0.00000000000E+00  0.00000000000E+00  0.26808881403E+04  0.26808881403E+04  0.50400001928E-02 0. -1.
        1   -1    0    0  501    0  0.00000000000E+00  0.00000000000E+00 -0.63063038684E+03  0.63063038686E+03  0.50400001928E-02 0.  1.
    10030    2    1    2    0    0  0.00000000000E+00  0.00000000000E+00  0.20502577535E+04  0.33115185272E+04  0.26004995866E+04 0.  0.
        2    1    3    3  502    0  0.57873621571E+03  0.32914137130E+03  0.24473586520E+04  0.25363032195E+04  0.25500000920E-02 0. -1.
       -2    1    3    3    0  502 -0.57873621571E+03 -0.32914137130E+03 -0.39710089852E+03  0.77521530769E+03  0.25500000920E-02 0.  1.
</event>
<event>
 5   0  0.6599814E-07  0.2600141E+04  0.7818609E-02  0.8368153E-01
        2   -1    0    0  501    0  0.00000000000E+00  0.00000000000E+00  0.13589830158E+04  0.13589830158E+04  0.25500000920E-02 0.  1.
       -2   -1    0    0    0  501  0.00000000000E+00  0.00000000000E+00 -0.12437122216E+04  0.12437122216E+04  0.25500000920E-02 0. -1.
    10030    2    1    2    0    0  0.00000000000E+00  0.00000000000E+00  0.11527079419E+03  0.26026952375E+04  0.26001413698E+04 0.  0.
        5    1    3    3  502    0 -0.81212525259E+03  0.23033635613E+03  0.10473225701E+04  0.13451798834E+04  0.46999998093E+01 0.  1.
       -5    1    3    3    0  502  0.81212525259E+03 -0.23033635613E+03 -0.93205177589E+03  0.12575153541E+04  0.46999998093E+01 0. -1.
</event>
<event>
 5   0  0.2623263E-07  0.2599548E+04  0.7818609E-02  0.8368355E-01
       -1   -1    0    0    0  501  0.00000000000E+00  0.00000000000E+00  0.78262122249E+03  0.78262122251E+03  0.50400001928E-02 0. -1.
        1   -1    0    0  501    0  0.00000000000E+00  0.00000000000E+00 -0.21586593902E+04  0.21586593902E+04  0.50400001928E-02 0.  1.
    10030    2    1    2    0    0  0.00000000000E+00  0.00000000000E+00 -0.13760381677E+04  0.29412806127E+04  0.25995481538E+04 0.  0.
        1    1    3    3  502    0 -0.43092314422E+03  0.28169000095E+03 -0.20383797994E+04  0.21023882180E+04  0.50400001928E-02 0.  1.
       -1    1    3    3    0  502  0.43092314422E+03 -0.28169000095E+03  0.66234163164E+03  0.83889239470E+03  0.50400001928E-02 0. -1.
</event>
<event>
 5   0  0.6526351E-07  0.2597127E+04  0.7818609E-02  0.8369178E-01
       -2   -1    0    0    0  501  0.00000000000E+00  0.00000000000E+00  0.95814883605E+03  0.95814883605E+03  0.25500000920E-02 0.  1.
        2   -1    0    0  501    0  0.00000000000E+00  0.00000000000E+00 -0.17599214675E+04  0.17599214675E+04  0.25500000920E-02 0. -1.
    10030    2    1    2    0    0  0.00000000000E+00  0.00000000000E+00 -0.80177263143E+03  0.27180703035E+04  0.25971266474E+04 0.  0.
        3    1    3    3  502    0 -0.10182197601E+04  0.40853161173E+03  0.32615640118E+03  0.11445730933E+04  0.10100000352E+00 0.  1.
       -3    1    3    3    0  502  0.10182197601E+04 -0.40853161173E+03 -0.11279290326E+04  0.15734972102E+04  0.10100000352E+00 0. -1.
</event>
<event>
 5   0  0.7160320E-07  0.2599930E+04  0.7818609E-02  0.8368225E-01
        2   -1    0    0  501    0  0.00000000000E+00  0.00000000000E+00  0.13406824464E+04  0.13406824464E+04  0.25500000920E-02 0.  1.
       -2   -1    0    0    0  501  0.00000000000E+00  0.00000000000E+00 -0.12604840762E+04  0.12604840762E+04  0.25500000920E-02 0. -1.
    10030    2    1    2    0    0  0.00000000000E+00  0.00000000000E+00  0.80198370182E+02  0.26011665226E+04  0.25999299028E+04 0.  0.
        1    1    3    3  502    0 -0.76486768722E+03 -0.10476281524E+04 -0.45741100949E+02  0.12979366599E+04  0.50400001928E-02 0. -1.
       -1    1    3    3    0  502  0.76486768722E+03  0.10476281524E+04  0.12593947113E+03  0.13032298627E+04  0.50400001928E-02 0.  1.
</event>
<event>
 5   0  0.6526351E-07  0.2600766E+04  0.7818609E-02  0.8367941E-01
        2   -1    0    0  501    0  0.00000000000E+00  0.00000000000E+00  0.11347827250E+04  0.11347827250E+04  0.25500000920E-02 0. -1.
       -2   -1    0    0    0  501  0.00000000000E+00  0.00000000000E+00 -0.14901497032E+04  0.14901497032E+04  0.25500000920E-02 0.  1.
    10030    2    1    2    0    0  0.00000000000E+00  0.00000000000E+00 -0.35536697824E+03  0.26249324282E+04  0.26007661493E+04 0.  0.
        3    1    3    3  502    0 -0.10651802336E+04 -0.51142496777E+03  0.37034598283E+03  0.12382732271E+04  0.10100000352E+00 0. -1.
       -3    1    3    3    0  502  0.10651802336E+04  0.51142496777E+03 -0.72571296108E+03  0.13866592010E+04  0.10100000352E+00 0.  1.
</event>
<event>
 5   0  0.2793576E-07  0.2600854E+04  0.7818609E-02  0.8367911E-01
       -1   -1    0    0    0  501  0.00000000000E+00  0.00000000000E+00  0.80375196757E+03  0.80375196759E+03  0.50400001928E-02 0.  1.
        1   -1    0    0  501    0  0.00000000000E+00  0.00000000000E+00 -0.21040198753E+04  0.21040198753E+04  0.50400001928E-02 0. -1.
    10030    2    1    2    0    0  0.00000000000E+00  0.00000000000E+00 -0.13002679077E+04  0.29077718429E+04  0.26008537941E+04 0.  0.
        2    1    3    3  502    0  0.49906447404E+03  0.88789617878E+03 -0.15540512449E+04  0.18580904837E+04  0.25500000920E-02 0. -1.
       -2    1    3    3    0  502 -0.49906447404E+03 -0.88789617878E+03  0.25378333727E+03  0.10496813592E+04  0.25500000920E-02 0.  1.
</event>
<event>
 5   0  0.6768478E-07  0.2598716E+04  0.7818609E-02  0.8368638E-01
       -2   -1    0    0    0  501  0.00000000000E+00  0.00000000000E+00  0.65335293581E+03  0.65335293581E+03  0.25500000920E-02 0.  1.
        2   -1    0    0  501    0  0.00000000000E+00  0.00000000000E+00 -0.25841020325E+04  0.25841020325E+04  0.25500000920E-02 0. -1.
    10030    2    1    2    0    0  0.00000000000E+00  0.00000000000E+00 -0.19307490967E+04  0.32374549683E+04  0.25987155669E+04 0.  0.
        4    1    3    3  502    0  0.95405658976E+03 -0.84526947486E+03 -0.65113746501E+03  0.14313231895E+04  0.12699999809E+01 0.  1.
       -4    1    3    3    0  502 -0.95405658976E+03  0.84526947486E+03 -0.12796116317E+04  0.18061317788E+04  0.12699999809E+01 0. -1.
</event>
<event>
 5   0  0.2864801E-07  0.2600976E+04  0.7818609E-02  0.8367870E-01
        1   -1    0    0  501    0  0.00000000000E+00  0.00000000000E+00  0.25514519489E+04  0.25514519489E+04  0.50400001928E-02 0.  1.
       -1   -1    0    0    0  501  0.00000000000E+00  0.00000000000E+00 -0.66286509716E+03  0.66286509718E+03  0.50400001928E-02 0. -1.
    10030    2    1    2    0    0  0.00000000000E+00  0.00000000000E+00  0.18885868517E+04  0.32143170461E+04  0.26009755432E+04 0.  0.
        5    1    3    3  502    0 -0.45536057747E+03 -0.10974695400E+04  0.15975854869E+04  0.19910032960E+04  0.46999998093E+01 0.  1.
       -5    1    3    3    0  502  0.45536057747E+03  0.10974695400E+04  0.29100136479E+03  0.12233137500E+04  0.46999998093E+01 0. -1.
</event>
<event>
 5   0  0.2793576E-07  0.2599662E+04  0.7818609E-02  0.8368316E-01
        1   -1    0    0  501    0  0.00000000000E+00  0.00000000000E+00  0.68600363636E+03  0.68600363638E+03  0.50400001928E-02 0. -1.
       -1   -1    0    0    0  501  0.00000000000E+00  0.00000000000E+00 -0.24629024467E+04  0.24629024467E+04  0.50400001928E-02 0.  1.
    10030    2    1    2    0    0  0.00000000000E+00  0.00000000000E+00 -0.17768988104E+04  0.31489060831E+04  0.25996615430E+04 0.  0.
        2    1    3    3  502    0  0.37143335250E+03  0.58834035125E+03  0.44144765724E+03  0.82400433151E+03  0.25500000920E-02 0. -1.
       -2    1    3    3    0  502 -0.37143335250E+03 -0.58834035125E+03 -0.22183464676E+04  0.23249017516E+04  0.25500000920E-02 0.  1.
</event>
<event>
 5   0  0.2294625E-07  0.2601647E+04  0.7818609E-02  0.8367642E-01
        3   -1    0    0  501    0  0.00000000000E+00  0.00000000000E+00  0.10193196414E+04  0.10193196464E+04  0.10100000352E+00 0. -1.
       -3   -1    0    0    0  501  0.00000000000E+00  0.00000000000E+00 -0.16600700893E+04  0.16600700924E+04  0.10100000352E+00 0.  1.
    10030    2    1    2    0    0  0.00000000000E+00  0.00000000000E+00 -0.64075044790E+03  0.26793897388E+04  0.26016472159E+04 0.  0.
        5    1    3    3  502    0  0.98643531685E+03 -0.78039075972E+03  0.21284315134E+02  0.12579902560E+04  0.46999998093E+01 0.  1.
       -5    1    3    3    0  502 -0.98643531685E+03  0.78039075972E+03 -0.66203476303E+03  0.14213994828E+04  0.46999998093E+01 0. -1.
</event>
<event>
 5   0  0.2793576E-07  0.2601075E+04  0.7818609E-02  0.8367836E-01
       -1   -1    0    0    0  501  0.00000000000E+00  0.00000000000E+00  0.22089380874E+04  0.22089380874E+04  0.50400001928E-02 0.  1.
        1   -1    0    0  501    0  0.00000000000E+00  0.00000000000E+00 -0.76570625724E+03  0.76570625726E+03  0.50400001928E-02 0. -1.
    10030    2    1    2    0    0  0.00000000000E+00  0.00000000000E+00  0.14432318301E+04  0.29746443446E+04  0.26010749435E+04 0.  0.
        2    1    3    3  502    0 -0.52539215589E+03  0.42169487769E+03  0.19938317365E+04  0.21045732301E+04  0.25500000920E-02 0.  1.
       -2    1    3    3    0  502  0.52539215589E+03 -0.42169487769E+03 -0.55059990641E+03  0.87007111450E+03  0.25500000920E-02 0. -1.
</event>
<event>
 5   0  0.2641626E-07  0.2599218E+04  0.7818609E-02  0.8368467E-01
       -1   -1    0    0    0  501  0.00000000000E+00  0.00000000000E+00  0.10123764059E+04  0.10123764059E+04  0.50400001928E-02 0.  1.
        1   -1    0    0  501    0  0.00000000000E+00  0.00000000000E+00 -0.16683355166E+04  0.16683355166E+04  0.50400001928E-02 0. -1.
    10030    2    1    2    0    0  0.00000000000E+00  0.00000000000E+00 -0.65595911069E+03  0.26807119225E+04  0.25992179702E+04 0.  0.
        3    1    3    3  502    0  0.83370074504E+03  0.89377772043E+03 -0.78351552663E+03  0.14518237278E+04  0.10100000352E+00 0. -1.
       -3    1    3    3    0  502 -0.83370074504E+03 -0.89377772043E+03  0.12755641594E+03  0.12288881948E+04  0.10100000352E+00 0.  1.
</event>
<event>
 5   0  0.2864801E-07  0.2601399E+04  0.7818609E-02  0.8367726E-01
       -1   -1    0    0    0  501  0.00000000000E+00  0.00000000000E+00  0.84110567512E+03  0.84110567513E+03  0.50400001928E-02 0.  1.
        1   -1    0    0  501    0  0.00000000000E+00  0.00000000000E+00 -0.20114232019E+04  0.20114232019E+04  0.50400001928E-02 0. -1.
    10030    2    1    2    0    0  0.00000000000E+00  0.00000000000E+00 -0.11703175267E+04  0.28525288770E+04  0.26013992160E+04 0.  0.
        5    1    3    3  502    0  0.77083124771E+02 -0.95460216466E+03  0.37991179310E+03  0.10303213874E+04  0.46999998093E+01 0.  1.
       -5    1    3    3    0  502 -0.77083124771E+02  0.95460216466E+03 -0.15502293198E+04  0.18222074896E+04  0.46999998093E+01 0. -1.
</event>
<event>
 5   0  0.6599814E-07  0.2600318E+04  0.7818609E-02  0.8368093E-01
       -2   -1    0    0    0  501  0.00000000000E+00  0.00000000000E+00  0.16273409450E+04  0.16273409450E+04  0.25500000920E-02 0. -1.
        2   -1    0    0  501    0  0.00000000000E+00  0.00000000000E+00 -0.10387578236E+04  0.10387578236E+04  0.25500000920E-02 0.  1.
    10030    2    1    2    0    0  0.00000000000E+00  0.00000000000E+00  0.58858312141E+03  0.26660987685E+04  0.26003177792E+04 0.  0.
        5    1    3    3  502    0  0.75707059633E+02 -0.86403803634E+03 -0.69876471111E+03  0.11138166360E+04  0.46999998093E+01 0.  1.
       -5    1    3    3    0  502 -0.75707059633E+02  0.86403803634E+03  0.12873478325E+04  0.15522821325E+04  0.46999998093E+01 0. -1.
</event>
<event>
 5   0  0.2623263E-07  0.2598611E+04  0.7818609E-02  0.8368673E-01
        1   -1    0    0  501    0  0.00000000000E+00  0.00000000000E+00  0.11725532056E+04  0.11725532056E+04  0.50400001928E-02 0. -1.
       -1   -1    0    0    0  501  0.00000000000E+00  0.00000000000E+00 -0.14397593399E+04  0.14397593399E+04  0.50400001928E-02 0.  1.
    10030    2    1    2    0    0  0.00000000000E+00  0.00000000000E+00 -0.26720613424E+03  0.26123125455E+04  0.25986107283E+04 0.  0.
        1    1    3    3  502    0  0.18947112086E+03  0.61854559884E+03  0.99914639435E+03  0.11902905027E+04  0.50400001928E-02 0. -1.
       -1    1    3    3    0  502 -0.18947112086E+03 -0.61854559884E+03 -0.12663525286E+04  0.14220220428E+04  0.50400001928E-02 0.  1.
</event>
<event>
 5   0  0.2864801E-07  0.2603446E+04  0.7818609E-02  0.8367032E-01
       -1   -1    0    0    0  501  0.00000000000E+00  0.00000000000E+00  0.13556515766E+04  0.13556515767E+04  0.50400001928E-02 0.  1.
        1   -1    0    0  501    0  0.00000000000E+00  0.00000000000E+00 -0.12499395674E+04  0.12499395674E+04  0.50400001928E-02 0. -1.
    10030    2    1    2    0    0  0.00000000000E+00  0.00000000000E+00  0.10571200927E+03  0.26055911440E+04  0.26034458283E+04 0.  0.
        5    1    3    3  502    0  0.10338530676E+03 -0.25559043688E+03 -0.12203736896E+04  0.12511390911E+04  0.46999998093E+01 0. -1.
       -5    1    3    3    0  502 -0.10338530676E+03  0.25559043688E+03  0.13260856988E+04  0.13544520530E+04  0.46999998093E+01 0.  1.
</event>
<event>
 5   0  0.2755061E-07  0.2598077E+04  0.7818609E-02  0.8368855E-01
        1   -1    0    0  501    0  0.00000000000E+00  0.00000000000E+00  0.11105357292E+04  0.11105357292E+04  0.50400001928E-02 0. -1.
       -1   -1    0    0    0  501  0.00000000000E+00  0.00000000000E+00 -0.15195379893E+04  0.15195379894E+04  0.50400001928E-02 0.  1.
    10030    2    1    2    0    0  0.00000000000E+00  0.00000000000E+00 -0.40900226015E+03  0.26300737186E+04  0.25980771575E+04 0.  0.
        4    1    3    3  502    0  0.81476722732E+03  0.62929484764E+03 -0.10064965120E+04  0.14397550075E+04  0.12699999809E+01 0.  1.
       -4    1    3    3    0  502 -0.81476722732E+03 -0.62929484764E+03  0.59749425188E+03  0.11903187111E+04  0.12699999809E+01 0. -1.
</event>
<event>
 5   0  0.2793576E-07  0.2599559E+04  0.7818609E-02  0.8368351E-01
       -1   -1    0    0    0  501  0.00000000000E+00  0.00000000000E+00  0.85862107029E+03  0.85862107030E+03  0.50400001928E-02 0. -1.
        1   -1    0    0  501    0  0.00000000000E+00  0.00000000000E+00 -0.19676051038E+04  0.19676051038E+04  0.50400001928E-02 0.  1.
    10030    2    1    2    0    0  0.00000000000E+00  0.00000000000E+00 -0.11089840335E+04  0.28262261741E+04  0.25995593474E+04 0.  0.
        2    1    3    3  502    0 -0.10772781088E+04 -0.77954015969E+02 -0.13406036213E+04  0.17215757381E+04  0.25500000920E-02 0.  1.
       -2    1    3    3    0  502  0.10772781088E+04  0.77954015969E+02  0.23161958787E+03  0.11046504360E+04  0.25500000920E-02 0. -1.
</event>
<event>
 5   0  0.6780984E-07  0.2600240E+04  0.7818609E-02  0.8368120E-01
       -2   -1    0    0    0  501  0.00000000000E+00  0.00000000000E+00  0.10854218032E+04  0.10854218032E+04  0.25500000920E-02 0. -1.
        2   -1    0    0  501    0  0.00000000000E+00  0.00000000000E+00 -0.15572855992E+04  0.15572855992E+04  0.25500000920E-02 0.  1.
    10030    2    1    2    0    0  0.00000000000E+00  0.00000000000E+00 -0.47186379602E+03  0.26427074025E+04  0.26002397914E+04 0.  0.
        2    1    3    3  502    0 -0.30545462008E+03  0.10861417275E+04  0.42061033179E+03  0.12041260019E+04  0.25500000920E-02 0. -1.
       -2    1    3    3    0  502  0.30545462008E+03 -0.10861417275E+04 -0.89247412781E+03  0.14385814006E+04  0.25500000920E-02 0.  1.
</event>
<event>
 5   0  0.6526351E-07  0.2600400E+04  0.7818609E-02  0.8368065E-01
        2   -1    0    0  501    0  0.00000000000E+00  0.00000000000E+00  0.16847027168E+04  0.16847027168E+04  0.25500000920E-02 0. -1.
       -2   -1    0    0    0  501  0.00000000000E+00  0.00000000000E+00 -0.10034530786E+04  0.10034530786E+04  0.25500000920E-02 0.  1.
    10030    2    1    2    0    0  0.00000000000E+00  0.00000000000E+00  0.68124963822E+03  0.26881557954E+04  0.26004000674E+04 0.  0.
        3    1    3    3  502    0 -0.25522833230E+03 -0.12733655662E+04  0.27591233302E+03  0.13276780455E+04  0.10100000352E+00 0.  1.
       -3    1    3    3    0  502  0.25522833230E+03  0.12733655662E+04  0.40533730520E+03  0.13604777499E+04  0.10100000352E+00 0. -1.
</event>
<event>
 5   0  0.6768478E-07  0.2600164E+04  0.7818609E-02  0.8368146E-01
       -2   -1    0    0    0  501  0.00000000000E+00  0.00000000000E+00  0.16807458343E+04  0.16807458343E+04  0.25500000920E-02 0.  1.
        2   -1    0    0  501    0  0.00000000000E+00  0.00000000000E+00 -0.10056325197E+04  0.10056325197E+04  0.25500000920E-02 0. -1.
    10030    2    1    2    0    0  0.00000000000E+00  0.00000000000E+00  0.67511331455E+03  0.26863783540E+04  0.26001635859E+04 0.  0.
        4    1    3    3  502    0 -0.69510333485E+03 -0.43844890799E+03  0.13783339276E+04  0.16047467464E+04  0.12699999809E+01 0.  1.
       -4    1    3    3    0  502  0.69510333485E+03  0.43844890799E+03 -0.70322061308E+03  0.10816316076E+04  0.12699999809E+01 0. -1.
</event>
<event>
 5   0  0.2864801E-07  0.2599158E+04  0.7818609E-02  0.8368487E-01
        1   -1    0    0  501    0  0.00000000000E+00  0.00000000000E+00  0.16705240838E+04  0.16705240838E+04  0.50400001928E-02 0. -1.
       -1   -1    0    0    0  501  0.00000000000E+00  0.00000000000E+00 -0.10110031264E+04  0.10110031265E+04  0.50400001928E-02 0.  1.
    10030    2    1    2    0    0  0.00000000000E+00  0.00000000000E+00  0.65952095734E+03  0.26815272103E+04  0.25991576109E+04 0.  0.
        5    1    3    3  502    0  0.17319187555E+03  0.91372408051E+03  0.12662698070E+04  0.15710978439E+04  0.46999998093E+01 0. -1.
       -5    1    3    3    0  502 -0.17319187555E+03 -0.91372408051E+03 -0.60674884966E+03  0.11104293663E+04  0.46999998093E+01 0.  1.
</event>
<event>
 5   0  0.7160320E-07  0.2596890E+04  0.7818609E-02  0.8369258E-01
        2   -1    0    0  501    0  0.00000000000E+00  0.00000000000E+00  0.90913036477E+03  0.90913036477E+03  0.25500000920E-02 0. -1.
       -2   -1    0    0    0  501  0.00000000000E+00  0.00000000000E+00 -0.18544753761E+04  0.18544753761E+04  0.25500000920E-02 0.  1.
    10030    2    1    2    0    0  0.00000000000E+00  0.00000000000E+00 -0.94534501131E+03  0.27636057408E+04  0.25968903520E+04 0.  0.
        1    1    3    3  502    0  0.79132947051E+03 -0.63632199551E+03  0.38850763609E+03  0.10872194793E+04  0.50400001928E-02 0. -1.
       -1    1    3    3    0  502 -0.79132947051E+03  0.63632199551E+03 -0.13338526474E+04  0.16763862615E+04  0.50400001928E-02 0.  1.
</event>
<event>
 5   0  0.6599814E-07  0.2600306E+04  0.7818609E-02  0.8368097E-01
        2   -1    0    0  501    0  0.00000000000E+00  0.00000000000E+00  0.15028711865E+04  0.15028711865E+04  0.25500000920E-02 0.  1.
       -2   -1    0    0    0  501  0.00000000000E+00  0.00000000000E+00 -0.11247791773E+04  0.11247791773E+04  0.25500000920E-02 0. -1.
    10030    2    1    2    0    0  0.00000000000E+00  0.00000000000E+00  0.37809200920E+03  0.26276503639E+04  0.26003063026E+04 0.  0.
        5    1    3    3  502    0  0.12351740849E+04 -0.17788068587E+03 -0.17959085753E+03  0.12607821082E+04  0.46999998093E+01 0.  1.
       -5    1    3    3    0  502 -0.12351740849E+04  0.17788068587E+03  0.55768286673E+03  0.13668682556E+04  0.46999998093E+01 0. -1.
</event>
<event>
 5   0  0.2755061E-07  0.2600609E+04  0.7818609E-02  0.8367994E-01
       -1   -1    0    0    0  501  0.00000000000E+00  0.00000000000E+00  0.83858534435E+03  0.83858534437E+03  0.50400001928E-02 0.  1.
        1   -1    0    0  501    0  0.00000000000E+00  0.00000000000E+00 -0.20162434635E+04  0.20162434635E+04  0.50400001928E-02 0. -1.
    10030    2    1    2    0    0  0.00000000000E+00  0.00000000000E+00 -0.11776581192E+04  0.28548288079E+04  0.26006093280E+04 0.  0.
        4    1    3    3  502    0 -0.10344457259E+04 -0.67497831780E+03 -0.10348967216E+04  0.16114237577E+04  0.12699999809E+01 0.  1.
       -4    1    3    3    0  502  0.10344457259E+04  0.67497831780E+03 -0.14276139753E+03  0.12434050502E+04  0.12699999809E+01 0. -1.
</event>
<event>
 5   0  0.2793576E-07  0.2599130E+04  0.7818609E-02  0.8368497E-01
       -1   -1    0    0    0  501  0.00000000000E+00  0.00000000000E+00  0.67345810175E+03  0.67345810177E+03  0.50400001928E-02 0.  1.
        1   -1    0    0  501    0  0.00000000000E+00  0.00000000000E+00 -0.25077577775E+04  0.25077577775E+04  0.50400001928E-02 0. -1.
    10030    2    1    2    0    0  0.00000000000E+00  0.00000000000E+00 -0.18342996757E+04  0.31812158792E+04  0.25991304642E+04 0.  0.
        2    1    3    3  502    0 -0.93845920553E+03 -0.12391324730E+03  0.17265697215E+03  0.96222170176E+03  0.25500000920E-02 0.  1.
       -2    1    3    3    0  502  0.93845920553E+03  0.12391324730E+03 -0.20069566478E+04  0.22189941775E+04  0.25500000920E-02 0. -1.
</event>
<event>
 5   0  0.2793576E-07  0.2599575E+04  0.7818609E-02  0.8368346E-01
       -1   -1    0    0    0  501  0.00000000000E+00  0.00000000000E+00  0.18071910642E+04  0.18071910642E+04  0.50400001928E-02 0.  1.
        1   -1    0    0  501    0  0.00000000000E+00  0.00000000000E+00 -0.93484690350E+03  0.93484690352E+03  0.50400001928E-02 0. -1.
    10030    2    1    2    0    0  0.00000000000E+00  0.00000000000E+00  0.87234416072E+03  0.27420379677E+04  0.25995745578E+04 0.  0.
        2    1    3    3  502    0  0.72040195761E+03 -0.10613961163E+04  0.21515060232E+03  0.13007038394E+04  0.25500000920E-02 0.  1.
       -2    1    3    3    0  502 -0.72040195761E+03  0.10613961163E+04  0.65719355839E+03  0.14413341283E+04  0.25500000920E-02 0. -1.
</event>
<event>
 5   0  0.2641626E-07  0.2600033E+04  0.7818609E-02  0.8368190E-01
       -1   -1    0    0    0  501  0.00000000000E+00  0.00000000000E+00  0.95586984901E+03  0.95586984902E+03  0.50400001928E-02 0. -1.
        1   -1    0    0  501    0  0.00000000000E+00  0.00000000000E+00 -0.17680676759E+04  0.17680676759E+04  0.50400001928E-02 0.  1.
    10030    2    1    2    0    0  0.00000000000E+00  0.00000000000E+00 -0.81219782687E+03  0.27239375249E+04  0.26000327555E+04 0.  0.
        3    1    3    3  502    0  0.50782186672E+03 -0.39735785791E+02 -0.16591664754E+04  0.17355965500E+04  0.10100000352E+00 0.  1.
       -3    1    3    3    0  502 -0.50782186672E+03  0.39735785791E+02  0.84696864852E+03  0.98834097495E+03  0.10100000352E+00 0. -1.
</event>
<event>
 5   0  0.2793576E-07  0.2600780E+04  0.7818609E-02  0.8367936E-01
        1   -1    0    0  501    0  0.00000000000E+00  0.00000000000E+00  0.16034521262E+04  0.16034521262E+04  0.50400001928E-02 0.  1.
       -1   -1    0    0    0  501  0.00000000000E+00  0.00000000000E+00 -0.10546088250E+04  0.10546088251E+04  0.50400001928E-02 0. -1.
    10030    2    1    2    0    0  0.00000000000E+00  0.00000000000E+00  0.54884330115E+03  0.26580609513E+04  0.26007804697E+04 0.  0.
        2    1    3    3  502    0  0.43956558244E+03 -0.47386465942E+03 -0.87881367473E+03  0.10909074624E+04  0.25500000920E-02 0. -1.
       -2    1    3    3    0  502 -0.43956558244E+03  0.47386465942E+03  0.14276569759E+04  0.15671534888E+04  0.25500000920E-02 0.  1.
</event>
<event>
 5   0  0.6780984E-07  0.2599054E+04  0.7818609E-02  0.8368523E-01
        2   -1    0    0  501    0  0.00000000000E+00  0.00000000000E+00  0.23201132666E+04  0.23201132666E+04  0.25500000920E-02 0. -1.
       -2   -1    0    0    0  501  0.00000000000E+00  0.00000000000E+00 -0.72788285108E+03  0.72788285108E+03  0.25500000920E-02 0.  1.
    10030    2    1    2    0    0  0.00000000000E+00  0.00000000000E+00  0.15922304156E+04  0.30479961177E+04  0.25990541813E+04 0.  0.
        2    1    3    3  502    0 -0.96808740165E+03 -0.76173539079E+03  0.31068791013E+03  0.12704176480E+04  0.25500000920E-02 0. -1.
       -2    1    3    3    0  502  0.96808740165E+03  0.76173539079E+03  0.12815425054E+04  0.17775784697E+04  0.25500000920E-02 0.  1.
</event>
<event>
 5   0  0.6780984E-07  0.2600282E+04  0.7818609E-02  0.8368105E-01
       -2   -1    0    0    0  501  0.00000000000E+00  0.00000000000E+00  0.10190518426E+04  0.10190518426E+04  0.25500000920E-02 0.  1.
        2   -1    0    0  501    0  0.00000000000E+00  0.00000000000E+00 -0.16587645629E+04  0.16587645629E+04  0.25500000920E-02 0. -1.
    10030    2    1    2    0    0  0.00000000000E+00  0.00000000000E+00 -0.63971272029E+03  0.26778164055E+04  0.26002823571E+04 0.  0.
        2    1    3    3  502    0  0.10141744741E+04 -0.19722451410E+03  0.49292984770E+03  0.11447389255E+04  0.25500000920E-02 0.  1.
       -2    1    3    3    0  502 -0.10141744741E+04  0.19722451410E+03 -0.11326425680E+04  0.15330774800E+04  0.25500000920E-02 0. -1.
</event>
<event>
 5   0  0.6526351E-07  0.2599881E+04  0.7818609E-02  0.8368242E-01
        2   -1    0    0  501    0  0.00000000000E+00  0.00000000000E+00  0.88050561015E+03  0.88050561015E+03  0.25500000920E-02 0. -1.
       -2   -1    0    0    0  501  0.00000000000E+00  0.00000000000E+00 -0.19191754609E+04  0.19191754609E+04  0.25500000920E-02 0.  1.
    10030    2    1    2    0    0  0.00000000000E+00  0.00000000000E+00 -0.10386698508E+04  0.27996810711E+04  0.25998805820E+04 0.  0.
        3    1    3    3  502    0  0.37599065264E+03 -0.78955608146E+03  0.51638920843E+03  0.10155912571E+04  0.10100000352E+00 0.  1.
       -3    1    3    3    0  502 -0.37599065264E+03  0.78955608146E+03 -0.15550590592E+04  0.17840898140E+04  0.10100000352E+00 0. -1.
</event>
<event>
 5   0  0.2623263E-07  0.2596811E+04  0.7818609E-02  0.8369285E-01
        1   -1    0    0  501    0  0.00000000000E+00  0.00000000000E+00  0.15029627897E+04  0.15029627897E+04  0.50400001928E-02 0.  1.
       -1   -1    0    0    0  501  0.00000000000E+00  0.00000000000E+00 -0.11216891906E+04  0.11216891906E+04  0.50400001928E-02 0. -1.
    10030    2    1    2    0    0  0.00000000000E+00  0.00000000000E+00  0.38127359912E+03  0.26246519803E+04  0.25968112099E+04 0.  0.
        1    1    3    3  502    0 -0.10501838753E+03  0.18464431255E+03  0.14852813096E+04  0.15003942657E+04  0.50400001928E-02 0.  1.
       -1    1    3    3    0  502  0.10501838753E+03 -0.18464431255E+03 -0.11040077105E+04  0.11242577145E+04  0.50400001928E-02 0. -1.
</event>
<event>
 5   0  0.2793576E-07  0.2600184E+04  0.7818609E-02  0.8368139E-01
        1   -1    0    0  501    0  0.00000000000E+00  0.00000000000E+00  0.10308975879E+04  0.10308975879E+04  0.50400001928E-02 0.  1.
       -1   -1    0    0    0  501  0.00000000000E+00  0.00000000000E+00 -0.16395806184E+04  0.16395806184E+04  0.50400001928E-02 0. -1.
    10030    2    1    2    0    0  0.00000000000E+00  0.00000000000E+00 -0.60868303045E+03  0.26704782063E+04  0.26001843817E+04 0.  0.
        2    1    3    3  502    0  0.43696829122E+03  0.10552197439E+04  0.33358619772E+03  0.11898360167E+04  0.25500000920E-02 0.  1.
       -2    1    3    3    0  502 -0.43696829122E+03 -0.10552197439E+04 -0.94226922817E+03  0.14806421896E+04  0.25500000920E-02 0. -1.
</event>
<event>
 5   0  0.2793576E-07  0.2599109E+04  0.7818609E-02  0.8368504E-01
       -1   -1    0    0    0  501  0.00000000000E+00  0.00000000000E+00  0.17198990320E+04  0.17198990320E+04  0.50400001928E-02 0. -1.
        1   -1    0    0  501    0  0.00000000000E+00  0.00000000000E+00 -0.98194219300E+03  0.98194219301E+03  0.50400001928E-02 0.  1.
    10030    2    1    2    0    0  0.00000000000E+00  0.00000000000E+00  0.73795683901E+03  0.27018412250E+04  0.25991086374E+04 0.  0.
        2    1    3    3  502    0  0.13607984723E+03  0.71104334593E+03  0.14908679230E+04  0.16573435156E+04  0.25500000920E-02 0. -1.
       -2    1    3    3    0  502 -0.13607984723E+03 -0.71104334593E+03 -0.75291108403E+03  0.10444977095E+04  0.25500000920E-02 0.  1.
</event>
<event>
 5   0  0.6526351E-07  0.2600624E+04  0.7818609E-02  0.8367989E-01
        2   -1    0    0  501    0  0.00000000000E+00  0.00000000000E+00  0.17848441008E+04  0.17848441008E+04  0.25500000920E-02 0. -1.
       -2   -1    0    0    0  501  0.00000000000E+00  0.00000000000E+00 -0.94731625429E+03  0.94731625429E+03  0.25500000920E-02 0.  1.
    10030    2    1    2    0    0  0.00000000000E+00  0.00000000000E+00  0.83752784647E+03  0.27321603551E+04  0.26006244081E+04 0.  0.
        3    1    3    3  502    0  0.28226434852E+03 -0.10915786994E+03 -0.90980195343E+03  0.95881604476E+03  0.10100000352E+00 0.  1.
       -3    1    3    3    0  502 -0.28226434852E+03  0.10915786994E+03  0.17473297999E+04  0.17733443103E+04  0.10100000352E+00 0. -1.
</event>
<event>
 5   0  0.6780984E-07  0.2600033E+04  0.7818609E-02  0.8368190E-01
        2   -1    0    0  501    0  0.00000000000E+00  0.00000000000E+00  0.14018419541E+04  0.14018419541E+04  0.25500000920E-02 0. -1.
       -2   -1    0    0    0  501  0.00000000000E+00  0.00000000000E+00 -0.12055875543E+04  0.12055875543E+04  0.25500000920E-02 0.  1.
    10030    2    1    2    0    0  0.00000000000E+00  0.00000000000E+00  0.19625439982E+03  0.26074295084E+04  0.26000332405E+04 0.  0.
        2    1    3    3  502    0  0.11822726319E+04  0.22817446812E+03 -0.39338031875E+03  0.12667202687E+04  0.25500000920E-02 0.  1.
       -2    1    3    3    0  502 -0.11822726319E+04 -0.22817446812E+03  0.58963471857E+03  0.13407092397E+04  0.25500000920E-02 0. -1.
</event>
<event>
 5   0  0.6780984E-07  0.2606374E+04  0.7818609E-02  0.8366039E-01
        2   -1    0    0  501    0  0.00000000000E+00  0.00000000000E+00  0.10484070991E+04  0.10484070991E+04  0.25500000920E-02 0.  1.
       -2   -1    0    0    0  501  0.00000000000E+00  0.00000000000E+00 -0.16198825704E+04  0.16198825704E+04  0.25500000920E-02 0. -1.
    10030    2    1    2    0    0  0.00000000000E+00  0.00000000000E+00 -0.57147547133E+03  0.26682896694E+04  0.26063740226E+04 0.  0.
        2    1    3    3  502    0 -0.47532882055E+03 -0.82259697404E+02  0.95363750229E+03  0.10687041832E+04  0.25500000920E-02 0.  1.
       -2    1    3    3    0  502  0.47532882055E+03  0.82259697404E+02 -0.15251129736E+04  0.15995854862E+04  0.25500000920E-02 0. -1.
</event>
<event>
 5   0  0.2755061E-07  0.2600314E+04  0.7818609E-02  0.8368095E-01
        1   -1    0    0  501    0  0.00000000000E+00  0.00000000000E+00  0.18036834189E+04  0.18036834189E+04  0.50400001928E-02 0.  1.
       -1   -1    0    0    0  501  0.00000000000E+00  0.00000000000E+00 -0.93719751097E+03  0.93719751098E+03  0.50400001928E-02 0. -1.
    10030    2    1    2    0    0  0.00000000000E+00  0.00000000000E+00  0.86648590795E+03  0.27408809299E+04  0.26003135279E+04 0.  0.
        4    1    3    3  502    0 -0.17821870127E+03 -0.12862068237E+04  0.36399448745E+03  0.13485486638E+04  0.12699999809E+01 0. -1.
       -4    1    3    3    0  502  0.17821870127E+03  0.12862068237E+04  0.50249142050E+03  0.13923322661E+04  0.12699999809E+01 0.  1.
</event>
<event>
 5   0  0.2294625E-07  0.2600067E+04  0.7818609E-02  0.8368179E-01
       -3   -1    0    0    0  501  0.00000000000E+00  0.00000000000E+00  0.12805773107E+04  0.12805773147E+04  0.10100000352E+00 0.  1.
        3   -1    0    0  501    0  0.00000000000E+00  0.00000000000E+00 -0.13197850386E+04  0.13197850425E+04  0.10100000352E+00 0. -1.
    10030    2    1    2    0    0  0.00000000000E+00  0.00000000000E+00 -0.39207727981E+02  0.26003623572E+04  0.26000667573E+04 0.  0.
        4    1    3    3  502    0 -0.11955095030E+04 -0.32660860873E+03  0.37308440224E+03  0.12942603058E+04  0.12699999809E+01 0.  1.
       -4    1    3    3    0  502  0.11955095030E+04  0.32660860873E+03 -0.41229213022E+03  0.13061020514E+04  0.12699999809E+01 0. -1.
</event>
<event>
 5   0  0.7160320E-07  0.2600120E+04  0.7818609E-02  0.8368160E-01
        2   -1    0    0  501    0  0.00000000000E+00  0.00000000000E+00  0.17379178877E+04  0.17379178877E+04  0.25500000920E-02 0.  1.
       -2   -1    0    0    0  501  0.00000000000E+00  0.00000000000E+00 -0.97251763614E+03  0.97251763614E+03  0.25500000920E-02 0. -1.
    10030    2    1    2    0    0  0.00000000000E+00  0.00000000000E+00  0.76540025155E+03  0.27104355238E+04  0.26001198403E+04 0.  0.
        1    1    3    3  502    0  0.66254159809E+03 -0.70876139552E+03  0.12847771648E+04  0.16099554181E+04  0.50400001928E-02 0.  1.
       -1    1    3    3    0  502 -0.66254159809E+03  0.70876139552E+03 -0.51937691330E+03  0.11004801057E+04  0.50400001928E-02 0. -1.
</event>
<event>
 5   0  0.6526351E-07  0.2599208E+04  0.7818609E-02  0.8368470E-01
       -2   -1    0    0    0  501  0.00000000000E+00  0.00000000000E+00  0.80150931696E+03  0.80150931696E+03  0.25500000920E-02 0.  1.
        2   -1    0    0  501    0  0.00000000000E+00  0.00000000000E+00 -0.21072368546E+04  0.21072368546E+04  0.25500000920E-02 0. -1.
    10030    2    1    2    0    0  0.00000000000E+00  0.00000000000E+00 -0.13057275377E+04  0.29087461716E+04  0.25992075500E+04 0.  0.
        3    1    3    3  502    0  0.91528632732E+03  0.16005720646E+03 -0.16696985397E+04  0.19108272015E+04  0.10100000352E+00 0. -1.
       -3    1    3    3    0  502 -0.91528632732E+03 -0.16005720646E+03  0.36397100204E+03  0.99791897008E+03  0.10100000352E+00 0.  1.
</event>
<event>
 5   0  0.2793576E-07  0.2600223E+04  0.7818609E-02  0.8368126E-01
        1   -1    0    0  501    0  0.00000000000E+00  0.00000000000E+00  0.27186870560E+04  0.27186870560E+04  0.50400001928E-02 0. -1.
       -1   -1    0    0    0  501  0.00000000000E+00  0.00000000000E+00 -0.62173009353E+03  0.62173009355E+03  0.50400001928E-02 0.  1.
    10030    2    1    2    0    0  0.00000000000E+00  0.00000000000E+00  0.20969569625E+04  0.33404171496E+04  0.26002227271E+04 0.  0.
        2    1    3    3  502    0  0.78264799175E+03 -0.15520922350E+03  0.23671625740E+04  0.24980164999E+04  0.25500000920E-02 0. -1.
       -2    1    3    3    0  502 -0.78264799175E+03  0.15520922350E+03 -0.27020561152E+03  0.84240064967E+03  0.25500000920E-02 0.  1.
</event>
<event>
 5   0  0.6526351E-07  0.2601999E+04  0.7818609E-02  0.8367522E-01
        2   -1    0    0  501    0  0.00000000000E+00  0.00000000000E+00  0.17522282723E+04  0.17522282723E+04  0.25500000920E-02 0.  1.
       -2   -1    0    0    0  501  0.00000000000E+00  0.00000000000E+00 -0.96597008492E+03  0.96597008492E+03  0.25500000920E-02 0. -1.
    10030    2    1    2    0    0  0.00000000000E+00  0.00000000000E+00  0.78625818734E+03  0.27181983572E+04  0.26019993028E+04 0.  0.
        3    1    3    3  502    0 -0.10570677477E+04  0.54307602127E+03  0.94618260423E+03  0.15190738359E+04  0.10100000352E+00 0. -1.
       -3    1    3    3    0  502  0.10570677477E+04 -0.54307602127E+03 -0.15992441689E+03  0.11991245213E+04  0.10100000352E+00 0.  1.
</event>
<event>
 5   0  0.6780984E-07  0.2602077E+04  0.7818609E-02  0.8367496E-01
        2   -1    0    0  501    0  0.00000000000E+00  0.00000000000E+00  0.10001413957E+04  0.10001413957E+04  0.25500000920E-02 0.  1.
       -2   -1    0    0    0  501  0.00000000000E+00  0.00000000000E+00 -0.16924620000E+04  0.16924620000E+04  0.25500000920E-02 0. -1.
    10030    2    1    2    0    0  0.00000000000E+00  0.00000000000E+00 -0.69232060431E+03  0.26926033958E+04  0.26020770987E+04 0.  0.
        2    1    3    3  502    0 -0.85047190058E+03  0.42287743256E+03 -0.12662355841E+04  0.15828709142E+04  0.25500000920E-02 0. -1.
       -2    1    3    3    0  502  0.85047190058E+03 -0.42287743256E+03  0.57391497975E+03  0.11097324816E+04  0.25500000920E-02 0.  1.
</event>
<event>
 5   0  0.6599814E-07  0.2600257E+04  0.7818609E-02  0.8368114E-01
       -2   -1    0    0    0  501  0.00000000000E+00  0.00000000000E+00  0.11196613149E+04  0.11196613150E+04  0.25500000920E-02 0. -1.
        2   -1    0    0  501    0  0.00000000000E+00  0.00000000000E+00 -0.15096837499E+04  0.15096837499E+04  0.25500000920E-02 0.  1.
    10030    2    1    2    0    0  0.00000000000E+00  0.00000000000E+00 -0.39002243496E+03  0.26293450649E+04  0.26002572893E+04 0.  0.
        5    1    3    3  502    0  0.12775258462E+04 -0.23225274053E+03 -0.26130973873E+03  0.13245068866E+04  0.46999998093E+01 0.  1.
       -5    1    3    3    0  502 -0.12775258462E+04  0.23225274053E+03 -0.12871269622E+03  0.13048381782E+04  0.46999998093E+01 0. -1.
</event>
<event>
 5   0  0.2864801E-07  0.2596518E+04  0.7818609E-02  0.8369385E-01
       -1   -1    0    0    0  501  0.00000000000E+00  0.00000000000E+00  0.13530689639E+04  0.13530689639E+04  0.50400001928E-02 0.  1.
        1   -1    0    0  501    0  0.00000000000E+00  0.00000000000E+00 -0.12456691281E+04  0.12456691281E+04  0.50400001928E-02 0. -1.
    10030    2    1    2    0    0  0.00000000000E+00  0.00000000000E+00  0.10739983577E+03  0.25987380920E+04  0.25965178501E+04 0.  0.
        5    1    3    3  502    0  0.90595887614E+03 -0.31517793510E+03 -0.82189415312E+03  0.12631827678E+04  0.46999998093E+01 0.  1.
       -5    1    3    3    0  502 -0.90595887614E+03  0.31517793510E+03  0.92929398890E+03  0.13355553241E+04  0.46999998093E+01 0. -1.
</event>
<event>
 5   0  0.2864801E-07  0.2600304E+04  0.7818609E-02  0.8368098E-01
       -1   -1    0    0    0  501  0.00000000000E+00  0.00000000000E+00  0.96115538298E+03  0.96115538299E+03  0.50400001928E-02 0. -1.
        1   -1    0    0  501    0  0.00000000000E+00  0.00000000000E+00 -0.17587111122E+04  0.17587111122E+04  0.50400001928E-02 0.  1.
    10030    2    1    2    0    0  0.00000000000E+00  0.00000000000E+00 -0.79755572919E+03  0.27198664952E+04  0.26003035612E+04 0.  0.
        5    1    3    3  502    0  0.85240269764E+03 -0.57198297005E+03 -0.12333480892E+04  0.16046571211E+04  0.46999998093E+01 0.  1.
       -5    1    3    3    0  502 -0.85240269764E+03  0.57198297005E+03  0.43579236006E+03  0.11152093741E+04  0.46999998093E+01 0. -1.
</event>
<event>
 5   0  0.7160320E-07  0.2607406E+04  0.7818609E-02  0.8365690E-01
        2   -1    0    0  501    0  0.00000000000E+00  0.00000000000E+00  0.17611210638E+04  0.17611210638E+04  0.25500000920E-02 0. -1.
       -2   -1    0    0    0  501  0.00000000000E+00  0.00000000000E+00 -0.96509101469E+03  0.96509101469E+03  0.25500000920E-02 0.  1.
    10030    2    1    2    0    0  0.00000000000E+00  0.00000000000E+00  0.79603004910E+03  0.27262120785E+04  0.26074064619E+04 0.  0.
        1    1    3    3  502    0  0.66608728882E+03 -0.83720832463E+03  0.11769796920E+04  0.15905568995E+04  0.50400001928E-02 0. -1.
       -1    1    3    3    0  502 -0.66608728882E+03  0.83720832463E+03 -0.38094964287E+03  0.11356551790E+04  0.50400001928E-02 0.  1.
</event>
<event>
 5   0  0.2755061E-07  0.2600089E+04  0.7818609E-02  0.8368171E-01
        1   -1    0    0  501    0  0.00000000000E+00  0.00000000000E+00  0.64982388114E+03  0.64982388116E+03  0.50400001928E-02 0. -1.
       -1   -1    0    0    0  501  0.00000000000E+00  0.00000000000E+00 -0.26008827497E+04  0.26008827497E+04  0.50400001928E-02 0.  1.
    10030    2    1    2    0    0  0.00000000000E+00  0.00000000000E+00 -0.19510588685E+04  0.32507066308E+04  0.26000890160E+04 0.  0.
        4    1    3    3  502    0  0.63533844028E+03  0.66256927966E+03 -0.21264608729E+04  0.23161369651E+04  0.12699999809E+01 0.  1.
       -4    1    3    3    0  502 -0.63533844028E+03 -0.66256927966E+03  0.17540200442E+03  0.93456966573E+03  0.12699999809E+01 0. -1.
</event>
<event>
 5   0  0.6780984E-07  0.2599167E+04  0.7818609E-02  0.8368484E-01
       -2   -1    0    0    0  501  0.00000000000E+00  0.00000000000E+00  0.20664068305E+04  0.20664068305E+04  0.25500000920E-02 0.  1.
        2   -1    0    0  501    0  0.00000000000E+00  0.00000000000E+00 -0.81732077453E+03  0.81732077454E+03  0.25500000920E-02 0. -1.
    10030    2    1    2    0    0  0.00000000000E+00  0.00000000000E+00  0.12490860560E+04  0.28837276050E+04  0.25991669675E+04 0.  0.
        2    1    3    3  502    0 -0.52825192073E+03 -0.10272930016E+04 -0.36074915879E+02  0.11557172675E+04  0.25500000920E-02 0. -1.
       -2    1    3    3    0  502  0.52825192073E+03  0.10272930016E+04  0.12851609718E+04  0.17280103375E+04  0.25500000920E-02 0.  1.
</event>
<event>
 5   0  0.2623263E-07  0.2600463E+04  0.7818609E-02  0.8368044E-01
        1   -1    0    0  501    0  0.00000000000E+00  0.00000000000E+00  0.16392052476E+04  0.16392052476E+04  0.50400001928E-02 0.  1.
       -1   -1    0    0    0  501  0.00000000000E+00  0.00000000000E+00 -0.10313548440E+04  0.10313548440E+04  0.50400001928E-02 0. -1.
    10030    2    1    2    0    0  0.00000000000E+00  0.00000000000E+00  0.60785040356E+03  0.26705600917E+04  0.26004632453E+04 0.  0.
        1    1    3    3  502    0  0.29222673208E+03  0.55575415658E+03  0.14731866198E+04  0.16014174853E+04  0.50400001928E-02 0.  1.
       -1    1    3    3    0  502 -0.29222673208E+03 -0.55575415658E+03 -0.86533621624E+03  0.10691426063E+04  0.50400001928E-02 0. -1.
</event>
<event>
 5   0  0.6768478E-07  0.2600432E+04  0.7818609E-02  0.8368054E-01
        2   -1    0    0  501    0  0.00000000000E+00  0.00000000000E+00  0.16894299267E+04  0.16894299267E+04  0.25500000920E-02 0.  1.
       -2   -1    0    0    0  501  0.00000000000E+00  0.00000000000E+00 -0.10006698848E+04  0.10006698848E+04  0.25500000920E-02 0. -1.
    10030    2    1    2    0    0  0.00000000000E+00  0.00000000000E+00  0.68876004186E+03  0.26900998115E+04  0.26004320027E+04 0.  0.
        4    1    3    3  502    0 -0.12724696970E+04 -0.13108304154E+03  0.10354751846E+03  0.12833883259E+04  0.12699999809E+01 0. -1.
       -4    1    3    3    0  502  0.12724696970E+04  0.13108304154E+03  0.58521252340E+03  0.14067114857E+04  0.12699999809E+01 0.  1.
</event>
<event>
 5   0  0.2755061E-07  0.2600707E+04  0.7818609E-02  0.8367961E-01
       -1   -1    0    0    0  501  0.00000000000E+00  0.00000000000E+00  0.99327310540E+03  0.99327310541E+03  0.50400001928E-02 0.  1.
        1   -1    0    0  501    0  0.00000000000E+00  0.00000000000E+00 -0.17023714926E+04  0.17023714926E+04  0.50400001928E-02 0. -1.
    10030    2    1    2    0    0  0.00000000000E+00  0.00000000000E+00 -0.70909838723E+03  0.26956445981E+04  0.26007074569E+04 0.  0.
        4    1    3    3  502    0 -0.93884907076E+03 -0.89171332547E+03 -0.47861826096E+03  0.13804590849E+04  0.12699999809E+01 0. -1.
       -4    1    3    3    0  502  0.93884907076E+03  0.89171332547E+03 -0.23048012628E+03  0.13151855131E+04  0.12699999809E+01 0.  1.
</event>
<event>
 5   0  0.6599814E-07  0.2600008E+04  0.7818609E-02  0.8368199E-01
        2   -1    0    0  501    0  0.00000000000E+00  0.00000000000E+00  0.21365246859E+04  0.21365246859E+04  0.25500000920E-02 0.  1.
       -2   -1    0    0    0  501  0.00000000000E+00  0.00000000000E+00 -0.79100897353E+03  0.79100897353E+03  0.25500000920E-02 0. -1.
    10030    2    1    2    0    0  0.00000000000E+00  0.00000000000E+00  0.13455157124E+04  0.29275336594E+04  0.26000078452E+04 0.  0.
        5    1    3    3  502    0  0.62298911193E+03  0.11373021151E+04  0.77605657009E+03  0.15112436682E+04  0.46999998093E+01 0. -1.
       -5    1    3    3    0  502 -0.62298911193E+03 -0.11373021151E+04  0.56945914227E+03  0.14162899913E+04  0.46999998093E+01 0.  1.
</event>
<event>
 5   0  0.2755061E-07  0.2598939E+04  0.7818609E-02  0.8368562E-01
        1   -1    0    0  501    0  0.00000000000E+00  0.00000000000E+00  0.13184846666E+04  0.13184846666E+04  0.50400001928E-02 0. -1.
       -1   -1    0    0    0  501  0.00000000000E+00  0.00000000000E+00 -0.12807282242E+04  0.12807282242E+04  0.50400001928E-02 0.  1.
    10030    2    1    2    0    0  0.00000000000E+00  0.00000000000E+00  0.37756442412E+02  0.25992128908E+04  0.25989386493E+04 0.  0.
        4    1    3    3  502    0 -0.17208627218E+03  0.63098427075E+03  0.11418787493E+04  0.13159192703E+04  0.12699999809E+01 0. -1.
       -4    1    3    3    0  502  0.17208627218E+03 -0.63098427075E+03 -0.11041223068E+04  0.12832936205E+04  0.12699999809E+01 0.  1.
</event>
<event>
 5   0  0.2864801E-07  0.2600094E+04  0.7818609E-02  0.8368169E-01
       -1   -1    0    0    0  501  0.00000000000E+00  0.00000000000E+00  0.91212939365E+03  0.91212939367E+03  0.50400001928E-02 0. -1.
        1   -1    0    0  501    0  0.00000000000E+00  0.00000000000E+00 -0.18529417220E+04  0.18529417220E+04  0.50400001928E-02 0.  1.
    10030    2    1    2    0    0  0.00000000000E+00  0.00000000000E+00 -0.94081232830E+03  0.27650711156E+04  0.26000943132E+04 0.  0.
        5    1    3    3  502    0 -0.56249112121E+03  0.77101791269E+03 -0.14091597456E+04  0.17019454051E+04  0.46999998093E+01 0.  1.
       -5    1    3    3    0  502  0.56249112121E+03 -0.77101791269E+03  0.46834741733E+03  0.10631257106E+04  0.46999998093E+01 0. -1.
</event>
<event>
 5   0  0.7160320E-07  0.2600077E+04  0.7818609E-02  0.8368175E-01
        2   -1    0    0  501    0  0.00000000000E+00  0.00000000000E+00  0.98047824083E+03  0.98047824084E+03  0.25500000920E-02 0. -1.
       -2   -1    0    0    0  501  0.00000000000E+00  0.00000000000E+00 -0.17237506411E+04  0.17237506411E+04  0.25500000920E-02 0.  1.
    10030    2    1    2    0    0  0.00000000000E+00  0.00000000000E+00 -0.74327240022E+03  0.27042288819E+04  0.26000769190E+04 0.  0.
        1    1    3    3  502    0  0.84637973199E+03  0.18390755610E+03 -0.13799658725E+04  0.16292594788E+04  0.50400001928E-02 0.  1.
       -1    1    3    3    0  502 -0.84637973199E+03 -0.18390755610E+03  0.63669347229E+03  0.10749694031E+04  0.50400001928E-02 0. -1.
</event>
<event>
 5   0  0.2641626E-07  0.2601199E+04  0.7818609E-02  0.8367794E-01
       -1   -1    0    0    0  501  0.00000000000E+00  0.00000000000E+00  0.57957115242E+03  0.57957115244E+03  0.50400001928E-02 0.  1.
        1   -1    0    0  501    0  0.00000000000E+00  0.00000000000E+00 -0.29186383377E+04  0.29186383377E+04  0.50400001928E-02 0. -1.
    10030    2    1    2    0    0  0.00000000000E+00  0.00000000000E+00 -0.23390671853E+04  0.34982094901E+04  0.26011986352E+04 0.  0.
        3    1    3    3  502    0 -0.10052681513E+04 -0.67328867512E+03 -0.18112331808E+04  0.21781752320E+04  0.10100000352E+00 0.  1.
       -3    1    3    3    0  502  0.10052681513E+04  0.67328867512E+03 -0.52783400450E+03  0.13200342581E+04  0.10100000352E+00 0. -1.
</event>
<event>
 5   0  0.7160320E-07  0.2599854E+04  0.7818609E-02  0.8368251E-01
        2   -1    0    0  501    0  0.00000000000E+00  0.00000000000E+00  0.14918723306E+04  0.14918723306E+04  0.25500000920E-02 0. -1.
       -2   -1    0    0    0  501  0.00000000000E+00  0.00000000000E+00 -0.11326775351E+04  0.11326775351E+04  0.25500000920E-02 0.  1.
    10030    2    1    2    0    0  0.00000000000E+00  0.00000000000E+00  0.35919479553E+03  0.26245498658E+04  0.25998540530E+04 0.  0.
        1    1    3    3  502    0  0.28319403087E+03 -0.99458283096E+03 -0.61554973474E+03  0.12034514293E+04  0.50400001928E-02 0.  1.
       -1    1    3    3    0  502 -0.28319403087E+03  0.99458283096E+03  0.97474453027E+03  0.14210984365E+04  0.50400001928E-02 0. -1.
</event>
<event>
 5   0  0.2641626E-07  0.2600956E+04  0.7818609E-02  0.8367876E-01
       -1   -1    0    0    0  501  0.00000000000E+00  0.00000000000E+00  0.12324126763E+04  0.12324126763E+04  0.50400001928E-02 0.  1.
        1   -1    0    0  501    0  0.00000000000E+00  0.00000000000E+00 -0.13723029275E+04  0.13723029275E+04  0.50400001928E-02 0. -1.
    10030    2    1    2    0    0  0.00000000000E+00  0.00000000000E+00 -0.13989025120E+03  0.26047156038E+04  0.26009563807E+04 0.  0.
        3    1    3    3  502    0  0.51785318891E+03 -0.25787030770E+03 -0.12363493026E+04  0.13650013293E+04  0.10100000352E+00 0. -1.
       -3    1    3    3    0  502 -0.51785318891E+03  0.25787030770E+03  0.10964590514E+04  0.12397142745E+04  0.10100000352E+00 0.  1.
</event>
<event>
 5   0  0.2864801E-07  0.2601337E+04  0.7818609E-02  0.8367747E-01
       -1   -1    0    0    0  501  0.00000000000E+00  0.00000000000E+00  0.60408941109E+03  0.60408941111E+03  0.50400001928E-02 0.  1.
        1   -1    0    0  501    0  0.00000000000E+00  0.00000000000E+00 -0.28004780239E+04  0.28004780239E+04  0.50400001928E-02 0. -1.
    10030    2    1    2    0    0  0.00000000000E+00  0.00000000000E+00 -0.21963886128E+04  0.34045674350E+04  0.26013374408E+04 0.  0.
        5    1    3    3  502    0  0.30796606804E+03 -0.63062255813E+03 -0.25314018615E+04  0.26268889174E+04  0.46999998093E+01 0. -1.
       -5    1    3    3    0  502 -0.30796606804E+03  0.63062255813E+03  0.33501324873E+03  0.77767851758E+03  0.46999998093E+01 0.  1.
</event>
<event>
 5   0  0.6768478E-07  0.2589425E+04  0.7818609E-02  0.8371802E-01
        2   -1    0    0  501    0  0.00000000000E+00  0.00000000000E+00  0.12138557697E+04  0.12138557697E+04  0.25500000920E-02 0. -1.
       -2   -1    0    0    0  501  0.00000000000E+00  0.00000000000E+00 -0.13809554006E+04  0.13809554006E+04  0.25500000920E-02 0.  1.
    10030    2    1    2    0    0  0.00000000000E+00  0.00000000000E+00 -0.16709963091E+03  0.25948111702E+04  0.25894251722E+04 0.  0.
        4    1    3    3  502    0  0.10139699663E+04 -0.78915309401E+03 -0.24319650506E+03  0.13076864499E+04  0.12699999809E+01 0.  1.
       -4    1    3    3    0  502 -0.10139699663E+04  0.78915309401E+03  0.76096874148E+02  0.12871247203E+04  0.12699999809E+01 0. -1.
</event>
<event>
 5   0  0.6780984E-07  0.2599528E+04  0.7818609E-02  0.8368361E-01
        2   -1    0    0  501    0  0.00000000000E+00  0.00000000000E+00  0.15004647063E+04  0.15004647063E+04  0.25500000920E-02 0.  1.
       -2   -1    0    0    0  501  0.00000000000E+00  0.00000000000E+00 -0.11259091058E+04  0.11259091058E+04  0.25500000920E-02 0. -1.
    10030    2    1    2    0    0  0.00000000000E+00  0.00000000000E+00  0.37455560051E+03  0.26263738121E+04  0.25995283232E+04 0.  0.
        2    1    3    3  502    0 -0.12531586185E+04 -0.21270484595E+03 -0.87072046127E+02  0.12740609938E+04  0.25500000920E-02 0.  1.
       -2    1    3    3    0  502  0.12531586185E+04  0.21270484595E+03  0.46162764664E+03  0.13523128184E+04  0.25500000920E-02 0. -1.
</event>
<event>
 5   0  0.2755061E-07  0.2588407E+04  0.7818609E-02  0.8372150E-01
       -1   -1    0    0    0  501  0.00000000000E+00  0.00000000000E+00  0.16741264507E+04  0.16741264507E+04  0.50400001928E-02 0. -1.
        1   -1    0    0  501    0  0.00000000000E+00  0.00000000000E+00 -0.10004998151E+04  0.10004998151E+04  0.50400001928E-02 0.  1.
    10030    2    1    2    0    0  0.00000000000E+00  0.00000000000E+00  0.67362663557E+03  0.26746262658E+04  0.25884073902E+04 0.  0.
        4    1    3    3  502    0 -0.42171748197E+03  0.11660166685E+04 -0.46377523503E+02  0.12408033661E+04  0.12699999809E+01 0.  1.
       -4    1    3    3    0  502  0.42171748197E+03 -0.11660166685E+04  0.72000415908E+03  0.14338228997E+04  0.12699999809E+01 0. -1.
</event>
<event>
 5   0  0.6599814E-07  0.2599028E+04  0.7818609E-02  0.8368531E-01
        2   -1    0    0  501    0  0.00000000000E+00  0.00000000000E+00  0.16526391396E+04  0.16526391396E+04  0.25500000920E-02 0. -1.
       -2   -1    0    0    0  501  0.00000000000E+00  0.00000000000E+00 -0.10218426092E+04  0.10218426092E+04  0.25500000920E-02 0.  1.
    10030    2    1    2    0    0  0.00000000000E+00  0.00000000000E+00  0.63079653039E+03  0.26744817488E+04  0.25990283496E+04 0.  0.
        5    1    3    3  502    0 -0.11342206452E+04  0.57411169864E+02  0.96537027173E+03  0.14905416351E+04  0.46999998093E+01 0. -1.
       -5    1    3    3    0  502  0.11342206452E+04 -0.57411169864E+02 -0.33457374133E+03  0.11839401137E+04  0.46999998093E+01 0.  1.
</event>
<event>
 5   0  0.2623263E-07  0.2600405E+04  0.7818609E-02  0.8368064E-01
        1   -1    0    0  501    0  0.00000000000E+00  0.00000000000E+00  0.15265952110E+04  0.15265952110E+04  0.50400001928E-02 0.  1.
       -1   -1    0    0    0  501  0.00000000000E+00  0.00000000000E+00 -0.11073835697E+04  0.11073835697E+04  0.50400001928E-02 0. -1.
    10030    2    1    2    0    0  0.00000000000E+00  0.00000000000E+00  0.41921164130E+03  0.26339787807E+04  0.26004049332E+04 0.  0.
        1    1    3    3  502    0  0.10650783359E+04 -0.61928839786E+03  0.63044136109E+03  0.13839675904E+04  0.50400001928E-02 0.  1.
       -1    1    3    3    0  502 -0.10650783359E+04  0.61928839786E+03 -0.21122971980E+03  0.12500111903E+04  0.50400001928E-02 0. -1.
</event>
<event>
 5   0  0.6768478E-07  0.2599565E+04  0.7818609E-02  0.8368349E-01
        2   -1    0    0  501    0  0.00000000000E+00  0.00000000000E+00  0.17030264051E+04  0.17030264051E+04  0.25500000920E-02 0.  1.
       -2   -1    0    0    0  501  0.00000000000E+00  0.00000000000E+00 -0.99201891715E+03  0.99201891715E+03  0.25500000920E-02 0. -1.
    10030    2    1    2    0    0  0.00000000000E+00  0.00000000000E+00  0.71100748799E+03  0.26950453223E+04  0.25995648946E+04 0.  0.
        4    1    3    3  502    0 -0.47259073155E+02  0.11583684325E+04 -0.25377388095E+03  0.11867828955E+04  0.12699999809E+01 0. -1.
       -4    1    3    3    0  502  0.47259073155E+02 -0.11583684325E+04  0.96478136893E+03  0.15082624268E+04  0.12699999809E+01 0.  1.
</event>
<event>
 5   0  0.2793576E-07  0.2598317E+04  0.7818609E-02  0.8368773E-01
        1   -1    0    0  501    0  0.00000000000E+00  0.00000000000E+00  0.21695150747E+04  0.21695150747E+04  0.50400001928E-02 0.  1.
       -1   -1    0    0    0  501  0.00000000000E+00  0.00000000000E+00 -0.77796801930E+03  0.77796801931E+03  0.50400001928E-02 0. -1.
    10030    2    1    2    0    0  0.00000000000E+00  0.00000000000E+00  0.13915470554E+04  0.29474830940E+04  0.25983174137E+04 0.  0.
        2    1    3    3  502    0 -0.52367225007E+02  0.10184611734E+04 -0.21725053731E+03  0.10426904065E+04  0.25500000920E-02 0. -1.
       -2    1    3    3    0  502  0.52367225007E+02 -0.10184611734E+04  0.16087975927E+04  0.19047926875E+04  0.25500000920E-02 0.  1.
</event>
<event>
 5   0  0.2793576E-07  0.2599610E+04  0.7818609E-02  0.8368334E-01
        1   -1    0    0  501    0  0.00000000000E+00  0.00000000000E+00  0.16310110275E+04  0.16310110275E+04  0.50400001928E-02 0.  1.
       -1   -1    0    0    0  501  0.00000000000E+00  0.00000000000E+00 -0.10358558991E+04  0.10358558991E+04  0.50400001928E-02 0. -1.
    10030    2    1    2    0    0  0.00000000000E+00  0.00000000000E+00  0.59515512843E+03  0.26668669266E+04  0.25996095048E+04 0.  0.
        2    1    3    3  502    0  0.11822924204E+04  0.33591909428E+03  0.73140794430E+03  0.14302498335E+04  0.25500000920E-02 0.  1.
       -2    1    3    3    0  502 -0.11822924204E+04 -0.33591909428E+03 -0.13625281587E+03  0.12366170931E+04  0.25500000920E-02 0. -1.
</event>
<event>
 5   0  0.6780984E-07  0.2603146E+04  0.7818609E-02  0.8367134E-01
       -2   -1    0    0    0  501  0.00000000000E+00  0.00000000000E+00  0.10147419402E+04  0.10147419402E+04  0.25500000920E-02 0. -1.
        2   -1    0    0  501    0  0.00000000000E+00  0.00000000000E+00 -0.16694802624E+04  0.16694802624E+04  0.25500000920E-02 0.  1.
    10030    2    1    2    0    0  0.00000000000E+00  0.00000000000E+00 -0.65473832219E+03  0.26842222026E+04  0.26031455131E+04 0.  0.
        2    1    3    3  502    0  0.66524742658E+03  0.10750399010E+04 -0.81688431065E+01  0.12642514217E+04  0.25500000920E-02 0.  1.
       -2    1    3    3    0  502 -0.66524742658E+03 -0.10750399010E+04 -0.64656947908E+03  0.14199707809E+04  0.25500000920E-02 0. -1.
</event>
<event>
 5   0  0.2864801E-07  0.2600434E+04  0.7818609E-02  0.8368054E-01
        1   -1    0    0  501    0  0.00000000000E+00  0.00000000000E+00  0.10265604614E+04  0.10265604614E+04  0.50400001928E-02 0. -1.
       -1   -1    0    0    0  501  0.00000000000E+00  0.00000000000E+00 -0.16468238359E+04  0.16468238359E+04  0.50400001928E-02 0.  1.
    10030    2    1    2    0    0  0.00000000000E+00  0.00000000000E+00 -0.62026337448E+03  0.26733842973E+04  0.26004339921E+04 0.  0.
        5    1    3    3  502    0  0.12228839458E+04  0.35367117524E+03 -0.58215559684E+03  0.13998055844E+04  0.46999998093E+01 0.  1.
       -5    1    3    3    0  502 -0.12228839458E+04 -0.35367117524E+03 -0.38107777649E+02  0.12735787129E+04  0.46999998093E+01 0. -1.
</event>
<event>
 5   0  0.2623263E-07  0.2593445E+04  0.7818609E-02  0.8370431E-01
        1   -1    0    0  501    0  0.00000000000E+00  0.00000000000E+00  0.13810490114E+04  0.13810490114E+04  0.50400001928E-02 0.  1.
       -1   -1    0    0    0  501  0.00000000000E+00  0.00000000000E+00 -0.12175448645E+04  0.12175448645E+04  0.50400001928E-02 0. -1.
    10030    2    1    2    0    0  0.00000000000E+00  0.00000000000E+00  0.16350414685E+03  0.25985938759E+04  0.25934449148E+04 0.  0.
        1    1    3    3  502    0  0.10049577191E+04 -0.57970526738E+03 -0.49861366501E+03  0.12627801872E+04  0.50400001928E-02 0. -1.
       -1    1    3    3    0  502 -0.10049577191E+04  0.57970526738E+03  0.66211781185E+03  0.13358136887E+04  0.50400001928E-02 0.  1.
</event>
<event>
 5   0  0.2864801E-07  0.2599084E+04  0.7818609E-02  0.8368512E-01
       -1   -1    0    0    0  501  0.00000000000E+00  0.00000000000E+00  0.10798309780E+04  0.10798309780E+04  0.50400001928E-02 0. -1.
        1   -1    0    0  501    0  0.00000000000E+00  0.00000000000E+00 -0.15639577795E+04  0.15639577795E+04  0.50400001928E-02 0.  1.
    10030    2    1    2    0    0  0.00000000000E+00  0.00000000000E+00 -0.48412680154E+03  0.26437887575E+04  0.25990844993E+04 0.  0.
        5    1    3    3  502    0 -0.14419172663E+03 -0.31213063093E+03 -0.15168431764E+04  0.15553302211E+04  0.46999998093E+01 0.  1.
       -5    1    3    3    0  502  0.14419172663E+03  0.31213063093E+03  0.10327163748E+04  0.10884585365E+04  0.46999998093E+01 0. -1.
</event>
<event>
 5   0  0.6780984E-07  0.2602783E+04  0.7818609E-02  0.8367256E-01
        2   -1    0    0  501    0  0.00000000000E+00  0.00000000000E+00  0.17797490881E+04  0.17797490881E+04  0.25500000920E-02 0. -1.
       -2   -1    0    0    0  501  0.00000000000E+00  0.00000000000E+00 -0.95160598770E+03  0.95160598771E+03  0.25500000920E-02 0.  1.
    10030    2    1    2    0    0  0.00000000000E+00  0.00000000000E+00  0.82814310041E+03  0.27313550758E+04  0.26027830404E+04 0.  0.
        2    1    3    3  502    0 -0.10241605213E+04  0.77255571034E+03  0.64367825357E+03  0.14352939744E+04  0.25500000920E-02 0. -1.
       -2    1    3    3    0  502  0.10241605213E+04 -0.77255571034E+03  0.18446484685E+03  0.12960611014E+04  0.25500000920E-02 0.  1.
</event>
<event>
 5   0  0.6780984E-07  0.2600012E+04  0.7818609E-02  0.8368197E-01
        2   -1    0    0  501    0  0.00000000000E+00  0.00000000000E+00  0.16359421743E+04  0.16359421743E+04  0.25500000920E-02 0.  1.
       -2   -1    0    0    0  501  0.00000000000E+00  0.00000000000E+00 -0.10330531189E+04  0.10330531189E+04  0.25500000920E-02 0. -1.
    10030    2    1    2    0    0  0.00000000000E+00  0.00000000000E+00  0.60288905543E+03  0.26689952932E+04  0.26000116658E+04 0.  0.
        2    1    3    3  502    0 -0.61401443421E+03 -0.12464241553E+03 -0.86784067987E+03  0.10703723197E+04  0.25500000920E-02 0. -1.
       -2    1    3    3    0  502  0.61401443421E+03  0.12464241553E+03  0.14707297353E+04  0.15986229735E+04  0.25500000920E-02 0.  1.
</event>
<event>
 5   0  0.2623263E-07  0.2599532E+04  0.7818609E-02  0.8368360E-01
        1   -1    0    0  501    0  0.00000000000E+00  0.00000000000E+00  0.10270477172E+04  0.10270477172E+04  0.50400001928E-02 0.  1.
       -1   -1    0    0    0  501  0.00000000000E+00  0.00000000000E+00 -0.16449010974E+04  0.16449010974E+04  0.50400001928E-02 0. -1.
    10030    2    1    2    0    0  0.00000000000E+00  0.00000000000E+00 -0.61785338016E+03  0.26719488146E+04  0.25995322019E+04 0.  0.
        1    1    3    3  502    0  0.99531567419E+02 -0.44390837623E+03 -0.15603958114E+04  0.16253603501E+04  0.50400001928E-02 0. -1.
       -1    1    3    3    0  502 -0.99531567419E+02  0.44390837623E+03  0.94254243124E+03  0.10465884645E+04  0.50400001928E-02 0.  1.
</event>
<event>
 5   0  0.6526351E-07  0.2601675E+04  0.7818609E-02  0.8367633E-01
        2   -1    0    0  501    0  0.00000000000E+00  0.00000000000E+00  0.22485588822E+04  0.22485588822E+04  0.25500000920E-02 0.  1.
       -2   -1    0    0    0  501  0.00000000000E+00  0.00000000000E+00 -0.75256103256E+03  0.75256103256E+03  0.25500000920E-02 0. -1.
    10030    2    1    2    0    0  0.00000000000E+00  0.00000000000E+00  0.14959978496E+04  0.30011199147E+04  0.26016746869E+04 0.  0.
        3    1    3    3  502    0 -0.92715366193E+03 -0.31978658967E+03  0.17337814811E+04  0.19919527129E+04  0.10100000352E+00 0.  1.
       -3    1    3    3    0  502  0.92715366193E+03  0.31978658967E+03 -0.23778363150E+03  0.10091672019E+04  0.10100000352E+00 0. -1.
</event>
<event>
 5   0  0.6526351E-07  0.2599817E+04  0.7818609E-02  0.8368263E-01
       -2   -1    0    0    0  501  0.00000000000E+00  0.00000000000E+00  0.10944728804E+04  0.10944728804E+04  0.25500000920E-02 0. -1.
        2   -1    0    0  501    0  0.00000000000E+00  0.00000000000E+00 -0.15439054476E+04  0.15439054476E+04  0.25500000920E-02 0.  1.
    10030    2    1    2    0    0  0.00000000000E+00  0.00000000000E+00 -0.44943256717E+03  0.26383783280E+04  0.25998174108E+04 0.  0.
        3    1    3    3  502    0 -0.12298762356E+04 -0.28057480657E+03 -0.54312924324E+03  0.13734289796E+04  0.10100000352E+00 0. -1.
       -3    1    3    3    0  502  0.12298762356E+04  0.28057480657E+03  0.93696676067E+02  0.12649493485E+04  0.10100000352E+00 0.  1.
</event>
<event>
 5   0  0.6768478E-07  0.2599137E+04  0.7818609E-02  0.8368494E-01
        2   -1    0    0  501    0  0.00000000000E+00  0.00000000000E+00  0.14901588408E+04  0.14901588408E+04  0.25500000920E-02 0. -1.
       -2   -1    0    0    0  501  0.00000000000E+00  0.00000000000E+00 -0.11333548257E+04  0.11333548257E+04  0.25500000920E-02 0.  1.
    10030    2    1    2    0    0  0.00000000000E+00  0.00000000000E+00  0.35680401510E+03  0.26235136664E+04  0.25991373286E+04 0.  0.
        4    1    3    3  502    0  0.11085820185E+03  0.70948255044E+02 -0.11266093683E+04  0.11342722237E+04  0.12699999809E+01 0.  1.
       -4    1    3    3    0  502 -0.11085820185E+03 -0.70948255044E+02  0.14834133834E+04  0.14892414427E+04  0.12699999809E+01 0. -1.
</event>
<event>
 5   0  0.2755061E-07  0.2598476E+04  0.7818609E-02  0.8368719E-01
       -1   -1    0    0    0  501  0.00000000000E+00  0.00000000000E+00  0.15227156492E+04  0.15227156492E+04  0.50400001928E-02 0. -1.
        1   -1    0    0  501    0  0.00000000000E+00  0.00000000000E+00 -0.11085586628E+04  0.11085586628E+04  0.50400001928E-02 0.  1.
    10030    2    1    2    0    0  0.00000000000E+00  0.00000000000E+00  0.41415698638E+03  0.26312743120E+04  0.25984761872E+04 0.  0.
        4    1    3    3  502    0  0.11928708725E+04 -0.50889588827E+03  0.28618020570E+03  0.13280875975E+04  0.12699999809E+01 0.  1.
       -4    1    3    3    0  502 -0.11928708725E+04  0.50889588827E+03  0.12797678068E+03  0.13031867145E+04  0.12699999809E+01 0. -1.
</event>
<event>
 5   0  0.2755061E-07  0.2600155E+04  0.7818609E-02  0.8368148E-01
        1   -1    0    0  501    0  0.00000000000E+00  0.00000000000E+00  0.12888639622E+04  0.12888639622E+04  0.50400001928E-02 0. -1.
       -1   -1    0    0    0  501  0.00000000000E+00  0.00000000000E+00 -0.13113888027E+04  0.13113888027E+04  0.50400001928E-02 0.  1.
    10030    2    1    2    0    0  0.00000000000E+00  0.00000000000E+00 -0.22524840564E+02  0.26002527649E+04  0.26001552017E+04 0.  0.
        4    1    3    3  502    0 -0.86612265610E+03  0.22044606555E+03  0.93293148478E+03  0.12919472479E+04  0.12699999809E+01 0. -1.
       -4    1    3    3    0  502  0.86612265610E+03 -0.22044606555E+03 -0.95545632535E+03  0.13083055170E+04  0.12699999809E+01 0.  1.
</event>
<event>
 5   0  0.6599814E-07  0.2596168E+04  0.7818609E-02  0.8369504E-01
        2   -1    0    0  501    0  0.00000000000E+00  0.00000000000E+00  0.16346506565E+04  0.16346506565E+04  0.25500000920E-02 0. -1.
       -2   -1    0    0    0  501  0.00000000000E+00  0.00000000000E+00 -0.10308148773E+04  0.10308148773E+04  0.25500000920E-02 0.  1.
    10030    2    1    2    0    0  0.00000000000E+00  0.00000000000E+00  0.60383577922E+03  0.26654655337E+04  0.25961681115E+04 0.  0.
        5    1    3    3  502    0  0.81451858764E+03 -0.50567237024E+03  0.12004085151E+04  0.15362772435E+04  0.46999998093E+01 0. -1.
       -5    1    3    3    0  502 -0.81451858764E+03  0.50567237024E+03 -0.59657273590E+03  0.11291882903E+04  0.46999998093E+01 0.  1.
</event>
<event>
 5   0  0.2755061E-07  0.2607506E+04  0.7818609E-02  0.8365656E-01
        1   -1    0    0  501    0  0.00000000000E+00  0.00000000000E+00  0.22782590735E+04  0.22782590735E+04  0.50400001928E-02 0. -1.
       -1   -1    0    0    0  501  0.00000000000E+00  0.00000000000E+00 -0.74608348913E+03  0.74608348915E+03  0.50400001928E-02 0.  1.
    10030    2    1    2    0    0  0.00000000000E+00  0.00000000000E+00  0.15321755843E+04  0.30243425626E+04  0.26075056884E+04 0.  0.
        4    1    3    3  502    0 -0.12401420073E+04 -0.37926452614E+03  0.61057959206E+03  0.14333885831E+04  0.12699999809E+01 0.  1.
       -4    1    3    3    0  502  0.12401420073E+04  0.37926452614E+03  0.92159599228E+03  0.15909539795E+04  0.12699999809E+01 0. -1.
</event>
<event>
 5   0  0.6526351E-07  0.2598731E+04  0.7818609E-02  0.8368633E-01
        2   -1    0    0  501    0  0.00000000000E+00  0.00000000000E+00  0.11439038985E+04  0.11439038985E+04  0.25500000920E-02 0. -1.
       -2   -1    0    0    0  501  0.00000000000E+00  0.00000000000E+00 -0.14759545987E+04  0.14759545987E+04  0.25500000920E-02 0.  1.
    10030    2    1    2    0    0  0.00000000000E+00  0.00000000000E+00 -0.33205070020E+03  0.26198584973E+04  0.25987306282E+04 0.  0.
        3    1    3    3  502    0  0.72663926875E+03 -0.86570555563E+03 -0.81225125354E+03  0.13918343454E+04  0.10100000352E+00 0.  1.
       -3    1    3    3    0  502 -0.72663926875E+03  0.86570555563E+03  0.48020055334E+03  0.12280241519E+04  0.10100000352E+00 0. -1.
</event>
<event>
 5   0  0.6526351E-07  0.2598653E+04  0.7818609E-02  0.8368659E-01
        2   -1    0    0  501    0  0.00000000000E+00  0.00000000000E+00  0.13059783320E+04  0.13059783320E+04  0.25500000920E-02 0.  1.
       -2   -1    0    0    0  501  0.00000000000E+00  0.00000000000E+00 -0.12927083363E+04  0.12927083363E+04  0.25500000920E-02 0. -1.
    10030    2    1    2    0    0  0.00000000000E+00  0.00000000000E+00  0.13269995728E+02  0.25986866682E+04  0.25986527869E+04 0.  0.
        3    1    3    3  502    0  0.34783608521E+03 -0.10397290338E+04 -0.69067077404E+03  0.12957825953E+04  0.10100000352E+00 0. -1.
       -3    1    3    3    0  502 -0.34783608521E+03  0.10397290338E+04  0.70394076977E+03  0.13029040730E+04  0.10100000352E+00 0.  1.
</event>
<event>
 5   0  0.2755061E-07  0.2599975E+04  0.7818609E-02  0.8368210E-01
       -1   -1    0    0    0  501  0.00000000000E+00  0.00000000000E+00  0.12731463248E+04  0.12731463248E+04  0.50400001928E-02 0.  1.
        1   -1    0    0  501    0  0.00000000000E+00  0.00000000000E+00 -0.13273944991E+04  0.13273944991E+04  0.50400001928E-02 0. -1.
    10030    2    1    2    0    0  0.00000000000E+00  0.00000000000E+00 -0.54248174270E+02  0.26005408239E+04  0.25999749445E+04 0.  0.
        4    1    3    3  502    0 -0.24150320381E+03 -0.89954674948E+03  0.87996781267E+03  0.12813481635E+04  0.12699999809E+01 0.  1.
       -4    1    3    3    0  502  0.24150320381E+03  0.89954674948E+03 -0.93421598694E+03  0.13191926603E+04  0.12699999809E+01 0. -1.
</event>
<event>
 5   0  0.2641626E-07  0.2599364E+04  0.7818609E-02  0.8368417E-01
        1   -1    0    0  501    0  0.00000000000E+00  0.00000000000E+00  0.18024572170E+04  0.18024572170E+04  0.50400001928E-02 0. -1.
       -1   -1    0    0    0  501  0.00000000000E+00  0.00000000000E+00 -0.93715003562E+03  0.93715003563E+03  0.50400001928E-02 0.  1.
    10030    2    1    2    0    0  0.00000000000E+00  0.00000000000E+00  0.86530718135E+03  0.27396072526E+04  0.25993636491E+04 0.  0.
        3    1    3    3  502    0  0.57706763332E+03 -0.10235087629E+04  0.10181390671E+04  0.15547296908E+04  0.10100000352E+00 0. -1.
       -3    1    3    3    0  502 -0.57706763332E+03  0.10235087629E+04 -0.15283188579E+03  0.11848775619E+04  0.10100000352E+00 0.  1.
</event>
<event>
 5   0  0.2755061E-07  0.2598365E+04  0.7818609E-02  0.8368757E-01
        1   -1    0    0  501    0  0.00000000000E+00  0.00000000000E+00  0.21231245547E+04  0.21231245548E+04  0.50400001928E-02 0.  1.
       -1   -1    0    0    0  501  0.00000000000E+00  0.00000000000E+00 -0.79499563139E+03  0.79499563141E+03  0.50400001928E-02 0. -1.
    10030    2    1    2    0    0  0.00000000000E+00  0.00000000000E+00  0.13281289234E+04  0.29181201862E+04  0.25983646749E+04 0.  0.
        4    1    3    3  502    0  0.27225355885E+03 -0.12567974431E+04  0.87178908739E+03  0.15536021496E+04  0.12699999809E+01 0.  1.
       -4    1    3    3    0  502 -0.27225355885E+03  0.12567974431E+04  0.45633983596E+03  0.13645180366E+04  0.12699999809E+01 0. -1.
</event>
<event>
 5   0  0.6599814E-07  0.2599931E+04  0.7818609E-02  0.8368225E-01
        2   -1    0    0  501    0  0.00000000000E+00  0.00000000000E+00  0.23355123276E+04  0.23355123276E+04  0.25500000920E-02 0.  1.
       -2   -1    0    0    0  501  0.00000000000E+00  0.00000000000E+00 -0.72357143522E+03  0.72357143523E+03  0.25500000920E-02 0. -1.
    10030    2    1    2    0    0  0.00000000000E+00  0.00000000000E+00  0.16119408924E+04  0.30590837628E+04  0.25999307736E+04 0.  0.
        5    1    3    3  502    0 -0.71217740225E+03 -0.41885358484E+03  0.19868316542E+04  0.21517799818E+04  0.46999998093E+01 0.  1.
       -5    1    3    3    0  502  0.71217740225E+03  0.41885358484E+03 -0.37489076184E+03  0.90730378105E+03  0.46999998093E+01 0. -1.
</event>
<event>
 5   0  0.2755061E-07  0.2600298E+04  0.7818609E-02  0.8368100E-01
        1   -1    0    0  501    0  0.00000000000E+00  0.00000000000E+00  0.91438372416E+03  0.91438372417E+03  0.50400001928E-02 0.  1.
       -1   -1    0    0    0  501  0.00000000000E+00  0.00000000000E+00 -0.18486629328E+04  0.18486629328E+04  0.50400001928E-02 0. -1.
    10030    2    1    2    0    0  0.00000000000E+00  0.00000000000E+00 -0.93427920860E+03  0.27630466569E+04  0.26002979039E+04 0.  0.
        4    1    3    3  502    0  0.10973243980E+04  0.18577389237E+03 -0.11813326095E+04  0.16230160568E+04  0.12699999809E+01 0. -1.
       -4    1    3    3    0  502 -0.10973243980E+04 -0.18577389237E+03  0.24705340089E+03  0.11400306001E+04  0.12699999809E+01 0.  1.
</event>
<event>
 5   0  0.2793576E-07  0.2600333E+04  0.7818609E-02  0.8368088E-01
        1   -1    0    0  501    0  0.00000000000E+00  0.00000000000E+00  0.14803967886E+04  0.14803967886E+04  0.50400001928E-02 0.  1.
       -1   -1    0    0    0  501  0.00000000000E+00  0.00000000000E+00 -0.11418784525E+04  0.11418784526E+04  0.50400001928E-02 0. -1.
    10030    2    1    2    0    0  0.00000000000E+00  0.00000000000E+00  0.33851833605E+03  0.26222752412E+04  0.26003332049E+04 0.  0.
        2    1    3    3  502    0  0.12090256864E+04  0.25564633504E+03 -0.23829838682E+03  0.12585246442E+04  0.25500000920E-02 0. -1.
       -2    1    3    3    0  502 -0.12090256864E+04 -0.25564633504E+03  0.57681672287E+03  0.13637505970E+04  0.25500000920E-02 0.  1.
</event>
<event>
 5   0  0.2864801E-07  0.2599233E+04  0.7818609E-02  0.8368462E-01
        1   -1    0    0  501    0  0.00000000000E+00  0.00000000000E+00  0.17485481580E+04  0.17485481580E+04  0.50400001928E-02 0.  1.
       -1   -1    0    0    0  501  0.00000000000E+00  0.00000000000E+00 -0.96594614720E+03  0.96594614722E+03  0.50400001928E-02 0. -1.
    10030    2    1    2    0    0  0.00000000000E+00  0.00000000000E+00  0.78260201081E+03  0.27144943052E+04  0.25992332381E+04 0.  0.
        5    1    3    3  502    0 -0.80605561763E+03 -0.19594414120E+03  0.14360950177E+04  0.16584663865E+04  0.46999998093E+01 0.  1.
       -5    1    3    3    0  502  0.80605561763E+03  0.19594414120E+03 -0.65349300688E+03  0.10560279188E+04  0.46999998093E+01 0. -1.
</event>
<event>
 5   0  0.6780984E-07  0.2602567E+04  0.7818609E-02  0.8367330E-01
       -2   -1    0    0    0  501  0.00000000000E+00  0.00000000000E+00  0.11263235079E+04  0.11263235079E+04  0.25500000920E-02 0. -1.
        2   -1    0    0  501    0  0.00000000000E+00  0.00000000000E+00 -0.15034208232E+04  0.15034208232E+04  0.25500000920E-02 0.  1.
    10030    2    1    2    0    0  0.00000000000E+00  0.00000000000E+00 -0.37709731529E+03  0.26297443311E+04  0.26025665912E+04 0.  0.
        2    1    3    3  502    0 -0.31422438088E+03 -0.38107363333E+03  0.10279270183E+04  0.11404332644E+04  0.25500000920E-02 0. -1.
       -2    1    3    3    0  502  0.31422438088E+03  0.38107363333E+03 -0.14050243336E+04  0.14893110667E+04  0.25500000920E-02 0.  1.
</event>
<event>
 5   0  0.6768478E-07  0.2602002E+04  0.7818609E-02  0.8367521E-01
       -2   -1    0    0    0  501  0.00000000000E+00  0.00000000000E+00  0.69655079826E+03  0.69655079827E+03  0.25500000920E-02 0. -1.
        2   -1    0    0  501    0  0.00000000000E+00  0.00000000000E+00 -0.24299793487E+04  0.24299793487E+04  0.25500000920E-02 0.  1.
    10030    2    1    2    0    0  0.00000000000E+00  0.00000000000E+00 -0.17334285504E+04  0.31265301469E+04  0.26020023483E+04 0.  0.
        4    1    3    3  502    0  0.64278057472E+03  0.50468856396E+03 -0.20830644120E+04  0.22376408048E+04  0.12699999809E+01 0.  1.
       -4    1    3    3    0  502 -0.64278057472E+03 -0.50468856396E+03  0.34963586165E+03  0.88888934209E+03  0.12699999809E+01 0. -1.
</event>
<event>
 5   0  0.6526351E-07  0.2600053E+04  0.7818609E-02  0.8368183E-01
       -2   -1    0    0    0  501  0.00000000000E+00  0.00000000000E+00  0.12200910879E+04  0.12200910879E+04  0.25500000920E-02 0. -1.
        2   -1    0    0  501    0  0.00000000000E+00  0.00000000000E+00 -0.13851986730E+04  0.13851986730E+04  0.25500000920E-02 0.  1.
    10030    2    1    2    0    0  0.00000000000E+00  0.00000000000E+00 -0.16510758512E+03  0.26052897609E+04  0.26000527348E+04 0.  0.
        3    1    3    3  502    0 -0.60075923166E+02  0.99059322569E+03  0.75889027358E+03  0.12493192198E+04  0.10100000352E+00 0. -1.
       -3    1    3    3    0  502  0.60075923166E+02 -0.99059322569E+03 -0.92399785870E+03  0.13559705411E+04  0.10100000352E+00 0.  1.
</event>
<event>
 5   0  0.2623263E-07  0.2607206E+04  0.7818609E-02  0.8365758E-01
       -1   -1    0    0    0  501  0.00000000000E+00  0.00000000000E+00  0.91314379753E+03  0.91314379755E+03  0.50400001928E-02 0. -1.
        1   -1    0    0  501    0  0.00000000000E+00  0.00000000000E+00 -0.18610214983E+04  0.18610214983E+04  0.50400001928E-02 0.  1.
    10030    2    1    2    0    0  0.00000000000E+00  0.00000000000E+00 -0.94787770079E+03  0.27741652959E+04  0.26072055832E+04 0.  0.
        1    1    3    3  502    0 -0.71494803020E+03  0.97875533925E+03 -0.98453015689E+03  0.15615416516E+04  0.50400001928E-02 0.  1.
       -1    1    3    3    0  502  0.71494803020E+03 -0.97875533925E+03  0.36652456098E+02  0.12126236442E+04  0.50400001928E-02 0. -1.
</event>
<event>
 5   0  0.2641626E-07  0.2601976E+04  0.7818609E-02  0.8367530E-01
       -1   -1    0    0    0  501  0.00000000000E+00  0.00000000000E+00  0.75252274791E+03  0.75252274793E+03  0.50400001928E-02 0.  1.
        1   -1    0    0  501    0  0.00000000000E+00  0.00000000000E+00 -0.22491939588E+04  0.22491939588E+04  0.50400001928E-02 0. -1.
    10030    2    1    2    0    0  0.00000000000E+00  0.00000000000E+00 -0.14966712109E+04  0.30017167068E+04  0.26019758788E+04 0.  0.
        3    1    3    3  502    0 -0.77267480001E+02  0.12684139382E+04 -0.10699592673E+04  0.16612215464E+04  0.10100000352E+00 0. -1.
       -3    1    3    3    0  502  0.77267480001E+02 -0.12684139382E+04 -0.42671194357E+03  0.13404951604E+04  0.10100000352E+00 0.  1.
</event>
<event>
 5   0  0.2864801E-07  0.2598088E+04  0.7818609E-02  0.8368851E-01
        1   -1    0    0  501    0  0.00000000000E+00  0.00000000000E+00  0.13157115976E+04  0.13157115976E+04  0.50400001928E-02 0. -1.
       -1   -1    0    0    0  501  0.00000000000E+00  0.00000000000E+00 -0.12825871534E+04  0.12825871534E+04  0.50400001928E-02 0.  1.
    10030    2    1    2    0    0  0.00000000000E+00  0.00000000000E+00  0.33124444265E+02  0.25982987510E+04  0.25980875987E+04 0.  0.
        5    1    3    3  502    0  0.23812808410E+03 -0.12320341091E+04 -0.31944078514E+03  0.12948658369E+04  0.46999998093E+01 0.  1.
       -5    1    3    3    0  502 -0.23812808410E+03  0.12320341091E+04  0.35256522940E+03  0.13034329141E+04  0.46999998093E+01 0. -1.
</event>
<event>
 5   0  0.2864801E-07  0.2599096E+04  0.7818609E-02  0.8368508E-01
       -1   -1    0    0    0  501  0.00000000000E+00  0.00000000000E+00  0.17700969057E+04  0.17700969058E+04  0.50400001928E-02 0.  1.
        1   -1    0    0  501    0  0.00000000000E+00  0.00000000000E+00 -0.95408619015E+03  0.95408619016E+03  0.50400001928E-02 0. -1.
    10030    2    1    2    0    0  0.00000000000E+00  0.00000000000E+00  0.81601071560E+03  0.27241830959E+04  0.25990960067E+04 0.  0.
        5    1    3    3  502    0  0.88352011022E+03 -0.89548837792E+03  0.66284234146E+02  0.12597312848E+04  0.46999998093E+01 0. -1.
       -5    1    3    3    0  502 -0.88352011022E+03  0.89548837792E+03  0.74972648146E+03  0.14644518111E+04  0.46999998093E+01 0.  1.
</event>
<event>
 5   0  0.6780984E-07  0.2599678E+04  0.7818609E-02  0.8368310E-01
        2   -1    0    0  501    0  0.00000000000E+00  0.00000000000E+00  0.20485726676E+04  0.20485726676E+04  0.25500000920E-02 0. -1.
       -2   -1    0    0    0  501  0.00000000000E+00  0.00000000000E+00 -0.82476046835E+03  0.82476046835E+03  0.25500000920E-02 0.  1.
    10030    2    1    2    0    0  0.00000000000E+00  0.00000000000E+00  0.12238121993E+04  0.28733331360E+04  0.25996782515E+04 0.  0.
        2    1    3    3  502    0  0.11077268176E+04 -0.63653694454E+03  0.34723318736E+03  0.13239368831E+04  0.25500000920E-02 0.  1.
       -2    1    3    3    0  502 -0.11077268176E+04  0.63653694454E+03  0.87657901191E+03  0.15493962528E+04  0.25500000920E-02 0. -1.
</event>
<event>
 5   0  0.6780984E-07  0.2601433E+04  0.7818609E-02  0.8367715E-01
        2   -1    0    0  501    0  0.00000000000E+00  0.00000000000E+00  0.17425766282E+04  0.17425766282E+04  0.25500000920E-02 0.  1.
       -2   -1    0    0    0  501  0.00000000000E+00  0.00000000000E+00 -0.97089737150E+03  0.97089737150E+03  0.25500000920E-02 0. -1.
    10030    2    1    2    0    0  0.00000000000E+00  0.00000000000E+00  0.77167925672E+03  0.27134739997E+04  0.26014327345E+04 0.  0.
        2    1    3    3  502    0 -0.15256058092E+03  0.12295823996E+04 -0.27083286321E+02  0.12393067065E+04  0.25500000920E-02 0.  1.
       -2    1    3    3    0  502  0.15256058092E+03 -0.12295823996E+04  0.79876254304E+03  0.14741672932E+04  0.25500000920E-02 0. -1.
</event>
<event>
 5   0  0.2641626E-07  0.2596353E+04  0.7818609E-02  0.8369441E-01
        1   -1    0    0  501    0  0.00000000000E+00  0.00000000000E+00  0.16605058476E+04  0.16605058476E+04  0.50400001928E-02 0.  1.
       -1   -1    0    0    0  501  0.00000000000E+00  0.00000000000E+00 -0.10149089168E+04  0.10149089168E+04  0.50400001928E-02 0. -1.
    10030    2    1    2    0    0  0.00000000000E+00  0.00000000000E+00  0.64559693076E+03  0.26754147644E+04  0.25963529738E+04 0.  0.
        3    1    3    3  502    0 -0.10293180327E+04 -0.79071435991E+03  0.29891133939E+03  0.13319432459E+04  0.10100000352E+00 0.  1.
       -3    1    3    3    0  502  0.10293180327E+04  0.79071435991E+03  0.34668559137E+03  0.13434715184E+04  0.10100000352E+00 0. -1.
</event>
<event>
 5   0  0.2623263E-07  0.2599502E+04  0.7818609E-02  0.8368370E-01
       -1   -1    0    0    0  501  0.00000000000E+00  0.00000000000E+00  0.84441500549E+03  0.84441500550E+03  0.50400001928E-02 0.  1.
        1   -1    0    0  501    0  0.00000000000E+00  0.00000000000E+00 -0.20006189679E+04  0.20006189679E+04  0.50400001928E-02 0. -1.
    10030    2    1    2    0    0  0.00000000000E+00  0.00000000000E+00 -0.11562039624E+04  0.28450339734E+04  0.25995020114E+04 0.  0.
        1    1    3    3  502    0  0.12913356626E+03 -0.19383614074E+02 -0.19934217908E+04  0.19976940803E+04  0.50400001928E-02 0. -1.
       -1    1    3    3    0  502 -0.12913356626E+03  0.19383614074E+02  0.83721782833E+03  0.84733989316E+03  0.50400001928E-02 0.  1.
</event>
<event>
 5   0  0.6526351E-07  0.2600166E+04  0.7818609E-02  0.8368145E-01
       -2   -1    0    0    0  501  0.00000000000E+00  0.00000000000E+00  0.76447169845E+03  0.76447169845E+03  0.25500000920E-02 0.  1.
        2   -1    0    0  501    0  0.00000000000E+00  0.00000000000E+00 -0.22109586470E+04  0.22109586470E+04  0.25500000920E-02 0. -1.
    10030    2    1    2    0    0  0.00000000000E+00  0.00000000000E+00 -0.14464869486E+04  0.29754303455E+04  0.26001656194E+04 0.  0.
        3    1    3    3  502    0  0.12113722562E+04  0.23765765631E+03 -0.25657358226E+03  0.12608465085E+04  0.10100000352E+00 0.  1.
       -3    1    3    3    0  502 -0.12113722562E+04 -0.23765765631E+03 -0.11899133663E+04  0.17145838370E+04  0.10100000352E+00 0. -1.
</event>
<event>
 5   0  0.6599814E-07  0.2600091E+04  0.7818609E-02  0.8368170E-01
       -2   -1    0    0    0  501  0.00000000000E+00  0.00000000000E+00  0.13928217272E+04  0.13928217272E+04  0.25500000920E-02 0. -1.
        2   -1    0    0  501    0  0.00000000000E+00  0.00000000000E+00 -0.12134487962E+04  0.12134487962E+04  0.25500000920E-02 0.  1.
    10030    2    1    2    0    0  0.00000000000E+00  0.00000000000E+00  0.17937293092E+03  0.26062705234E+04  0.26000906509E+04 0.  0.
        5    1    3    3  502    0 -0.35396065562E+03 -0.11053252754E+04  0.67679494546E+03  0.13435421833E+04  0.46999998093E+01 0. -1.
       -5    1    3    3    0  502  0.35396065562E+03  0.11053252754E+04 -0.49742201454E+03  0.12627283401E+04  0.46999998093E+01 0.  1.
</event>
<event>
 5   0  0.2793576E-07  0.2598956E+04  0.7818609E-02  0.8368556E-01
        1   -1    0    0  501    0  0.00000000000E+00  0.00000000000E+00  0.20223522785E+04  0.20223522785E+04  0.50400001928E-02 0.  1.
       -1   -1    0    0    0  501  0.00000000000E+00  0.00000000000E+00 -0.83498958987E+03  0.83498958988E+03  0.50400001928E-02 0. -1.
    10030    2    1    2    0    0  0.00000000000E+00  0.00000000000E+00  0.11873626886E+04  0.28573418684E+04  0.25989560209E+04 0.  0.
        2    1    3    3  502    0 -0.19837998620E+03  0.56424577868E+03 -0.67466675955E+03  0.90161142081E+03  0.25500000920E-02 0. -1.
       -2    1    3    3    0  502  0.19837998620E+03 -0.56424577868E+03  0.18620294482E+04  0.19557304476E+04  0.25500000920E-02 0.  1.
</event>
<event>
 5   0  0.2793576E-07  0.2599431E+04  0.7818609E-02  0.8368394E-01
        1   -1    0    0  501    0  0.00000000000E+00  0.00000000000E+00  0.16156225988E+04  0.16156225989E+04  0.50400001928E-02 0. -1.
       -1   -1    0    0    0  501  0.00000000000E+00  0.00000000000E+00 -0.10455786853E+04  0.10455786853E+04  0.50400001928E-02 0.  1.
    10030    2    1    2    0    0  0.00000000000E+00  0.00000000000E+00  0.57004391360E+03  0.26612012841E+04  0.25994311322E+04 0.  0.
        2    1    3    3  502    0 -0.27713835778E+03  0.72528893342E+03  0.13521006660E+04  0.15591747552E+04  0.25500000920E-02 0. -1.
       -2    1    3    3    0  502  0.27713835778E+03 -0.72528893342E+03 -0.78205675244E+03  0.11020265289E+04  0.25500000920E-02 0.  1.
</event>
<event>
 5   0  0.2641626E-07  0.2599130E+04  0.7818609E-02  0.8368497E-01
        1   -1    0    0  501    0  0.00000000000E+00  0.00000000000E+00  0.21361302987E+04  0.21361302987E+04  0.50400001928E-02 0.  1.
       -1   -1    0    0    0  501  0.00000000000E+00  0.00000000000E+00 -0.79062063554E+03  0.79062063556E+03  0.50400001928E-02 0. -1.
    10030    2    1    2    0    0  0.00000000000E+00  0.00000000000E+00  0.13455096632E+04  0.29267509343E+04  0.25991296192E+04 0.  0.
        3    1    3    3  502    0  0.51250878098E+03 -0.79312471888E+03  0.16781334717E+04  0.19255762850E+04  0.10100000352E+00 0.  1.
       -3    1    3    3    0  502 -0.51250878098E+03  0.79312471888E+03 -0.33262380848E+03  0.10011746493E+04  0.10100000352E+00 0. -1.
</event>
<event>
 5   0  0.6526351E-07  0.2599516E+04  0.7818609E-02  0.8368366E-01
       -2   -1    0    0    0  501  0.00000000000E+00  0.00000000000E+00  0.17476330088E+04  0.17476330088E+04  0.25500000920E-02 0. -1.
        2   -1    0    0  501    0  0.00000000000E+00  0.00000000000E+00 -0.96666198006E+03  0.96666198006E+03  0.25500000920E-02 0.  1.
    10030    2    1    2    0    0  0.00000000000E+00  0.00000000000E+00  0.78097102873E+03  0.27142949889E+04  0.25995156354E+04 0.  0.
        3    1    3    3  502    0  0.10582919183E+04  0.37428608064E+03  0.10746244483E+04  0.15539914960E+04  0.10100000352E+00 0. -1.
       -3    1    3    3    0  502 -0.10582919183E+04 -0.37428608064E+03 -0.29365341960E+03  0.11603034929E+04  0.10100000352E+00 0.  1.
</event>
<event>
 5   0  0.2864801E-07  0.2599833E+04  0.7818609E-02  0.8368258E-01
       -1   -1    0    0    0  501  0.00000000000E+00  0.00000000000E+00  0.56600600453E+03  0.56600600455E+03  0.50400001928E-02 0. -1.
        1   -1    0    0  501    0  0.00000000000E+00  0.00000000000E+00 -0.29854502018E+04  0.29854502018E+04  0.50400001928E-02 0.  1.
    10030    2    1    2    0    0  0.00000000000E+00  0.00000000000E+00 -0.24194441973E+04  0.35514562064E+04  0.25998328719E+04 0.  0.
        5    1    3    3  502    0  0.45292849309E+03  0.85165794424E+03 -0.24000492874E+04  0.25866434130E+04  0.46999998093E+01 0.  1.
       -5    1    3    3    0  502 -0.45292849309E+03 -0.85165794424E+03 -0.19394909897E+02  0.96481279343E+03  0.46999998093E+01 0. -1.
</event>
<event>
 5   0  0.2793576E-07  0.2599082E+04  0.7818609E-02  0.8368513E-01
       -1   -1    0    0    0  501  0.00000000000E+00  0.00000000000E+00  0.10750372865E+04  0.10750372865E+04  0.50400001928E-02 0. -1.
        1   -1    0    0  501    0  0.00000000000E+00  0.00000000000E+00 -0.15709286073E+04  0.15709286073E+04  0.50400001928E-02 0.  1.
    10030    2    1    2    0    0  0.00000000000E+00  0.00000000000E+00 -0.49589132084E+03  0.26459658939E+04  0.25990820128E+04 0.  0.
        2    1    3    3  502    0  0.11851749134E+04 -0.14611017940E+03  0.27396082455E+03  0.12251703119E+04  0.25500000920E-02 0.  1.
       -2    1    3    3    0  502 -0.11851749134E+04  0.14611017940E+03 -0.76985214539E+03  0.14207955819E+04  0.25500000920E-02 0. -1.
</event>
<event>
 5   0  0.6526351E-07  0.2600161E+04  0.7818609E-02  0.8368146E-01
        2   -1    0    0  501    0  0.00000000000E+00  0.00000000000E+00  0.17578096637E+04  0.17578096638E+04  0.25500000920E-02 0.  1.
       -2   -1    0    0    0  501  0.00000000000E+00  0.00000000000E+00 -0.96154318789E+03  0.96154318790E+03  0.25500000920E-02 0. -1.
    10030    2    1    2    0    0  0.00000000000E+00  0.00000000000E+00  0.79626647586E+03  0.27193528516E+04  0.26001614625E+04 0.  0.
        3    1    3    3  502    0 -0.10913534915E+03 -0.36887805305E+03 -0.90065871175E+03  0.97937105721E+03  0.10100000352E+00 0. -1.
       -3    1    3    3    0  502  0.10913534915E+03  0.36887805305E+03  0.16969251876E+04  0.17399817944E+04  0.10100000352E+00 0.  1.
</event>
<event>
 5   0  0.6599814E-07  0.2599699E+04  0.7818609E-02  0.8368304E-01
       -2   -1    0    0    0  501  0.00000000000E+00  0.00000000000E+00  0.12758757097E+04  0.12758757097E+04  0.25500000920E-02 0. -1.
        2   -1    0    0  501    0  0.00000000000E+00  0.00000000000E+00 -0.13242733720E+04  0.13242733720E+04  0.25500000920E-02 0.  1.
    10030    2    1    2    0    0  0.00000000000E+00  0.00000000000E+00 -0.48397662261E+02  0.26001490817E+04  0.25996986197E+04 0.  0.
        5    1    3    3  502    0  0.46149903207E+03 -0.45156919986E+03 -0.11525299561E+04  0.13210766399E+04  0.46999998093E+01 0.  1.
       -5    1    3    3    0  502 -0.46149903207E+03  0.45156919986E+03  0.11041322938E+04  0.12790724417E+04  0.46999998093E+01 0. -1.
</event>
<event>
 5   0  0.6599814E-07  0.2600100E+04  0.7818609E-02  0.8368167E-01
        2   -1    0    0  501    0  0.00000000000E+00  0.00000000000E+00  0.14586906445E+04  0.14586906445E+04  0.25500000920E-02 0. -1.
       -2   -1    0    0    0  501  0.00000000000E+00  0.00000000000E+00 -0.11586628320E+04  0.11586628320E+04  0.25500000920E-02 0.  1.
    10030    2    1    2    0    0  0.00000000000E+00  0.00000000000E+00  0.30002781249E+03  0.26173534765E+04  0.26001004851E+04 0.  0.
        5    1    3    3  502    0  0.55378761539E+03  0.17674060977E+03 -0.10205394077E+04  0.11744959509E+04  0.46999998093E+01 0.  1.
       -5    1    3    3    0  502 -0.55378761539E+03 -0.17674060977E+03  0.13205672202E+04  0.14428575256E+04  0.46999998093E+01 0. -1.
</event>
<event>
 5   0  0.6599814E-07  0.2599850E+04  0.7818609E-02  0.8368252E-01
       -2   -1    0    0    0  501  0.00000000000E+00  0.00000000000E+00  0.11086573072E+04  0.11086573072E+04  0.25500000920E-02 0.  1.
        2   -1    0    0  501    0  0.00000000000E+00  0.00000000000E+00 -0.15241908693E+04  0.15241908693E+04  0.25500000920E-02 0. -1.
    10030    2    1    2    0    0  0.00000000000E+00  0.00000000000E+00 -0.41553356209E+03  0.26328481765E+04  0.25998502610E+04 0.  0.
        5    1    3    3  502    0  0.92639583845E+03  0.70381000392E+03  0.37944234210E+03  0.12237468497E+04  0.46999998093E+01 0. -1.
       -5    1    3    3    0  502 -0.92639583845E+03 -0.70381000392E+03 -0.79497590419E+03  0.14091013269E+04  0.46999998093E+01 0.  1.
</event>
<event>
 5   0  0.6780984E-07  0.2600014E+04  0.7818609E-02  0.8368197E-01
        2   -1    0    0  501    0  0.00000000000E+00  0.00000000000E+00  0.11949562078E+04  0.11949562078E+04  0.25500000920E-02 0.  1.
       -2   -1    0    0    0  501  0.00000000000E+00  0.00000000000E+00 -0.14142926765E+04  0.14142926765E+04  0.25500000920E-02 0. -1.
    10030    2    1    2    0    0  0.00000000000E+00  0.00000000000E+00 -0.21933646877E+03  0.26092488843E+04  0.26000137026E+04 0.  0.
        2    1    3    3  502    0 -0.47548540248E+03 -0.43482037529E+03 -0.12427769361E+04  0.13998748657E+04  0.25500000920E-02 0. -1.
       -2    1    3    3    0  502  0.47548540248E+03  0.43482037529E+03  0.10234404673E+04  0.12093740186E+04  0.25500000920E-02 0.  1.
</event>
<event>
 5   0  0.6768478E-07  0.2592734E+04  0.7818609E-02  0.8370674E-01
        2   -1    0    0  501    0  0.00000000000E+00  0.00000000000E+00  0.14747779128E+04  0.14747779128E+04  0.25500000920E-02 0. -1.
       -2   -1    0    0    0  501  0.00000000000E+00  0.00000000000E+00 -0.11395391815E+04  0.11395391815E+04  0.25500000920E-02 0.  1.
    10030    2    1    2    0    0  0.00000000000E+00  0.00000000000E+00  0.33523873133E+03  0.26143170944E+04  0.25927338589E+04 0.  0.
        4    1    3    3  502    0 -0.57024730716E+03 -0.75304025221E+03 -0.72764220029E+03  0.11923574956E+04  0.12699999809E+01 0.  1.
       -4    1    3    3    0  502  0.57024730716E+03  0.75304025221E+03  0.10628809316E+04  0.14219595987E+04  0.12699999809E+01 0. -1.
</event>
<event>
 5   0  0.6526351E-07  0.2597249E+04  0.7818609E-02  0.8369136E-01
        2   -1    0    0  501    0  0.00000000000E+00  0.00000000000E+00  0.25308413834E+04  0.25308413834E+04  0.25500000920E-02 0. -1.
       -2   -1    0    0    0  501  0.00000000000E+00  0.00000000000E+00 -0.66634962706E+03  0.66634962706E+03  0.25500000920E-02 0.  1.
    10030    2    1    2    0    0  0.00000000000E+00  0.00000000000E+00  0.18644917563E+04  0.31971910104E+04  0.25972487074E+04 0.  0.
        3    1    3    3  502    0  0.13408425872E+03  0.12433114184E+04  0.13633097226E+04  0.18499771029E+04  0.10100000352E+00 0. -1.
       -3    1    3    3    0  502 -0.13408425872E+03 -0.12433114184E+04  0.50118203372E+03  0.13472139075E+04  0.10100000352E+00 0.  1.
</event>
<event>
 5   0  0.6599814E-07  0.2599871E+04  0.7818609E-02  0.8368245E-01
        2   -1    0    0  501    0  0.00000000000E+00  0.00000000000E+00  0.13468473153E+04  0.13468473153E+04  0.25500000920E-02 0.  1.
       -2   -1    0    0    0  501  0.00000000000E+00  0.00000000000E+00 -0.12546575693E+04  0.12546575693E+04  0.25500000920E-02 0. -1.
    10030    2    1    2    0    0  0.00000000000E+00  0.00000000000E+00  0.92189745967E+02  0.26015048846E+04  0.25998709036E+04 0.  0.
        5    1    3    3  502    0 -0.76966140058E+03 -0.81319325507E+03 -0.61473532080E+03  0.12773345475E+04  0.46999998093E+01 0. -1.
       -5    1    3    3    0  502  0.76966140058E+03  0.81319325507E+03  0.70692506677E+03  0.13241703371E+04  0.46999998093E+01 0.  1.
</event>
<event>
 5   0  0.7160320E-07  0.2600983E+04  0.7818609E-02  0.8367868E-01
       -2   -1    0    0    0  501  0.00000000000E+00  0.00000000000E+00  0.81160467338E+03  0.81160467338E+03  0.25500000920E-02 0.  1.
        2   -1    0    0  501    0  0.00000000000E+00  0.00000000000E+00 -0.20838686013E+04  0.20838686013E+04  0.25500000920E-02 0. -1.
    10030    2    1    2    0    0  0.00000000000E+00  0.00000000000E+00 -0.12722639279E+04  0.28954732746E+04  0.26009825032E+04 0.  0.
        1    1    3    3  502    0 -0.58329483162E+03 -0.10724935528E+04 -0.13728609665E+03  0.12285449742E+04  0.50400001928E-02 0.  1.
       -1    1    3    3    0  502  0.58329483162E+03  0.10724935528E+04 -0.11349778312E+04  0.16669283004E+04  0.50400001928E-02 0. -1.
</event>
<event>
 5   0  0.2294625E-07  0.2596279E+04  0.7818609E-02  0.8369466E-01
       -3   -1    0    0    0  501  0.00000000000E+00  0.00000000000E+00  0.13239509976E+04  0.13239510015E+04  0.10100000352E+00 0. -1.
        3   -1    0    0  501    0  0.00000000000E+00  0.00000000000E+00 -0.12728307447E+04  0.12728307488E+04  0.10100000352E+00 0.  1.
    10030    2    1    2    0    0  0.00000000000E+00  0.00000000000E+00  0.51120252896E+02  0.25967817502E+04  0.25962785248E+04 0.  0.
        5    1    3    3  502    0 -0.17946350629E+03 -0.41041196136E+03  0.12441961878E+04  0.13223809481E+04  0.46999998093E+01 0. -1.
       -5    1    3    3    0  502  0.17946350629E+03  0.41041196136E+03 -0.11930759349E+04  0.12744008022E+04  0.46999998093E+01 0.  1.
</event>
<event>
 5   0  0.7160320E-07  0.2600455E+04  0.7818609E-02  0.8368046E-01
        2   -1    0    0  501    0  0.00000000000E+00  0.00000000000E+00  0.21847550355E+04  0.21847550355E+04  0.25500000920E-02 0.  1.
       -2   -1    0    0    0  501  0.00000000000E+00  0.00000000000E+00 -0.77381315209E+03  0.77381315210E+03  0.25500000920E-02 0. -1.
    10030    2    1    2    0    0  0.00000000000E+00  0.00000000000E+00  0.14109418834E+04  0.29585681876E+04  0.26004554836E+04 0.  0.
        1    1    3    3  502    0  0.47415173978E+03 -0.11978222059E+04  0.50517466622E+03  0.13837627516E+04  0.50400001928E-02 0. -1.
       -1    1    3    3    0  502 -0.47415173978E+03  0.11978222059E+04  0.90576721716E+03  0.15748054359E+04  0.50400001928E-02 0.  1.
</event>
<event>
 5   0  0.2793576E-07  0.2599369E+04  0.7818609E-02  0.8368416E-01
        1   -1    0    0  501    0  0.00000000000E+00  0.00000000000E+00  0.20315636257E+04  0.20315636257E+04  0.50400001928E-02 0. -1.
       -1   -1    0    0    0  501  0.00000000000E+00  0.00000000000E+00 -0.83146785953E+03  0.83146785955E+03  0.50400001928E-02 0.  1.
    10030    2    1    2    0    0  0.00000000000E+00  0.00000000000E+00  0.12000957661E+04  0.28630314852E+04  0.25993690460E+04 0.  0.
        2    1    3    3  502    0 -0.89134359341E+03  0.18897472625E+03 -0.42077041439E+03  0.10036197439E+04  0.25500000920E-02 0.  1.
       -2    1    3    3    0  502  0.89134359341E+03 -0.18897472625E+03  0.16208661805E+04  0.18594117414E+04  0.25500000920E-02 0. -1.
</event>
<event>
 5   0  0.6526351E-07  0.2599423E+04  0.7818609E-02  0.8368397E-01
       -2   -1    0    0    0  501  0.00000000000E+00  0.00000000000E+00  0.11466702937E+04  0.11466702937E+04  0.25500000920E-02 0. -1.
        2   -1    0    0  501    0  0.00000000000E+00  0.00000000000E+00 -0.14731789269E+04  0.14731789269E+04  0.25500000920E-02 0.  1.
    10030    2    1    2    0    0  0.00000000000E+00  0.00000000000E+00 -0.32650863317E+03  0.26198492206E+04  0.25994234074E+04 0.  0.
        3    1    3    3  502    0 -0.34673405678E+03 -0.27760957372E+02 -0.14253946847E+04  0.14672236347E+04  0.10100000352E+00 0.  1.
       -3    1    3    3    0  502  0.34673405678E+03  0.27760957372E+02  0.10988860515E+04  0.11526255859E+04  0.10100000352E+00 0. -1.
</event>
<event>
 5   0  0.2755061E-07  0.2600541E+04  0.7818609E-02  0.8368018E-01
        1   -1    0    0  501    0  0.00000000000E+00  0.00000000000E+00  0.11055433466E+04  0.11055433466E+04  0.50400001928E-02 0. -1.
       -1   -1    0    0    0  501  0.00000000000E+00  0.00000000000E+00 -0.15292959157E+04  0.15292959157E+04  0.50400001928E-02 0.  1.
    10030    2    1    2    0    0  0.00000000000E+00  0.00000000000E+00 -0.42375256908E+03  0.26348392623E+04  0.26005406550E+04 0.  0.
        4    1    3    3  502    0 -0.34920642303E+03  0.68946267857E+03 -0.12713239231E+04  0.14878071250E+04  0.12699999809E+01 0.  1.
       -4    1    3    3    0  502  0.34920642303E+03 -0.68946267857E+03  0.84757135397E+03  0.11470321373E+04  0.12699999809E+01 0. -1.
</event>
<event>
 5   0  0.2623263E-07  0.2600086E+04  0.7818609E-02  0.8368172E-01
       -1   -1    0    0    0  501  0.00000000000E+00  0.00000000000E+00  0.10122327663E+04  0.10122327663E+04  0.50400001928E-02 0. -1.
        1   -1    0    0  501    0  0.00000000000E+00  0.00000000000E+00 -0.16696870267E+04  0.16696870267E+04  0.50400001928E-02 0.  1.
    10030    2    1    2    0    0  0.00000000000E+00  0.00000000000E+00 -0.65745426036E+03  0.26819197930E+04  0.26000860892E+04 0.  0.
        1    1    3    3  502    0 -0.52186153329E+03 -0.49632273680E+03  0.78766657170E+03  0.10672836302E+04  0.50400001928E-02 0. -1.
       -1    1    3    3    0  502  0.52186153329E+03  0.49632273680E+03 -0.14451208321E+04  0.16146361628E+04  0.50400001928E-02 0.  1.
</event>
<event>
 5   0  0.2864801E-07  0.2594927E+04  0.7818609E-02  0.8369927E-01
       -1   -1    0    0    0  501  0.00000000000E+00  0.00000000000E+00  0.56460193596E+03  0.56460193598E+03  0.50400001928E-02 0. -1.
        1   -1    0    0  501    0  0.00000000000E+00  0.00000000000E+00 -0.29815890326E+04  0.29815890326E+04  0.50400001928E-02 0.  1.
    10030    2    1    2    0    0  0.00000000000E+00  0.00000000000E+00 -0.24169870966E+04  0.35461909686E+04  0.25949265424E+04 0.  0.
        5    1    3    3  502    0  0.19818982217E+03  0.54765056134E+03  0.37591486568E+03  0.69320589956E+03  0.46999998093E+01 0. -1.
       -5    1    3    3    0  502 -0.19818982217E+03 -0.54765056134E+03 -0.27929019623E+04  0.28529850690E+04  0.46999998093E+01 0.  1.
</event>
<event>
 5   0  0.6768478E-07  0.2600230E+04  0.7818609E-02  0.8368123E-01
       -2   -1    0    0    0  501  0.00000000000E+00  0.00000000000E+00  0.11053658629E+04  0.11053658629E+04  0.25500000920E-02 0.  1.
        2   -1    0    0  501    0  0.00000000000E+00  0.00000000000E+00 -0.15291765435E+04  0.15291765435E+04  0.25500000920E-02 0. -1.
    10030    2    1    2    0    0  0.00000000000E+00  0.00000000000E+00 -0.42381068055E+03  0.26345424064E+04  0.26002304125E+04 0.  0.
        4    1    3    3  502    0  0.77347381324E+03  0.86826988382E+03 -0.80107985078E+03  0.14120498827E+04  0.12699999809E+01 0. -1.
       -4    1    3    3    0  502 -0.77347381324E+03 -0.86826988382E+03  0.37726917023E+03  0.12224925237E+04  0.12699999809E+01 0.  1.
</event>
<event>
 5   0  0.2793576E-07  0.2598595E+04  0.7818609E-02  0.8368678E-01
        1   -1    0    0  501    0  0.00000000000E+00  0.00000000000E+00  0.19898357103E+04  0.19898357103E+04  0.50400001928E-02 0.  1.
       -1   -1    0    0    0  501  0.00000000000E+00  0.00000000000E+00 -0.84839896372E+03  0.84839896374E+03  0.50400001928E-02 0. -1.
    10030    2    1    2    0    0  0.00000000000E+00  0.00000000000E+00  0.11414367465E+04  0.28382346740E+04  0.25985954318E+04 0.  0.
        2    1    3    3  502    0 -0.82354587689E+03  0.24697515319E+03  0.16346930699E+04  0.18470100082E+04  0.25500000920E-02 0.  1.
       -2    1    3    3    0  502  0.82354587689E+03 -0.24697515319E+03 -0.49325632332E+03  0.99122466583E+03  0.25500000920E-02 0. -1.
</event>
<event>
 5   0  0.6780984E-07  0.2600630E+04  0.7818609E-02  0.8367987E-01
       -2   -1    0    0    0  501  0.00000000000E+00  0.00000000000E+00  0.12125449576E+04  0.12125449576E+04  0.25500000920E-02 0.  1.
        2   -1    0    0  501    0  0.00000000000E+00  0.00000000000E+00 -0.13944382971E+04  0.13944382971E+04  0.25500000920E-02 0. -1.
    10030    2    1    2    0    0  0.00000000000E+00  0.00000000000E+00 -0.18189333954E+03  0.26069832547E+04  0.26006300205E+04 0.  0.
        2    1    3    3  502    0  0.68595088104E+03  0.43335273150E+03 -0.11095470716E+04  0.13745609863E+04  0.25500000920E-02 0. -1.
       -2    1    3    3    0  502 -0.68595088104E+03 -0.43335273150E+03  0.92765373203E+03  0.12324222684E+04  0.25500000920E-02 0.  1.
</event>
<event>
 5   0  0.7160320E-07  0.2599857E+04  0.7818609E-02  0.8368250E-01
       -2   -1    0    0    0  501  0.00000000000E+00  0.00000000000E+00  0.74558204941E+03  0.74558204941E+03  0.25500000920E-02 0. -1.
        2   -1    0    0  501    0  0.00000000000E+00  0.00000000000E+00 -0.22664369437E+04  0.22664369437E+04  0.25500000920E-02 0.  1.
    10030    2    1    2    0    0  0.00000000000E+00  0.00000000000E+00 -0.15208548943E+04  0.30120189932E+04  0.25998574587E+04 0.  0.
        1    1    3    3  502    0  0.10946264171E+04 -0.61004464883E+03 -0.36001540894E+03  0.13038299587E+04  0.50400001928E-02 0. -1.
       -1    1    3    3    0  502 -0.10946264171E+04  0.61004464883E+03 -0.11608394854E+04  0.17081890344E+04  0.50400001928E-02 0.  1.
</event>
<event>
 5   0  0.6599814E-07  0.2599934E+04  0.7818609E-02  0.8368224E-01
       -2   -1    0    0    0  501  0.00000000000E+00  0.00000000000E+00  0.73291128390E+03  0.73291128391E+03  0.25500000920E-02 0. -1.
        2   -1    0    0  501    0  0.00000000000E+00  0.00000000000E+00 -0.23057554294E+04  0.23057554294E+04  0.25500000920E-02 0.  1.
    10030    2    1    2    0    0  0.00000000000E+00  0.00000000000E+00 -0.15728441455E+04  0.30386667133E+04  0.25999339777E+04 0.  0.
        5    1    3    3  502    0  0.18029277848E+03  0.71229676324E+03 -0.20397751445E+04  0.21680813857E+04  0.46999998093E+01 0.  1.
       -5    1    3    3    0  502 -0.18029277848E+03 -0.71229676324E+03  0.46693099898E+03  0.87058532764E+03  0.46999998093E+01 0. -1.
</event>
<event>
 5   0  0.2793576E-07  0.2593173E+04  0.7818609E-02  0.8370524E-01
       -1   -1    0    0    0  501  0.00000000000E+00  0.00000000000E+00  0.98480342417E+03  0.98480342418E+03  0.50400001928E-02 0.  1.
        1   -1    0    0  501    0  0.00000000000E+00  0.00000000000E+00 -0.17070780795E+04  0.17070780795E+04  0.50400001928E-02 0. -1.
    10030    2    1    2    0    0  0.00000000000E+00  0.00000000000E+00 -0.72227465531E+03  0.26918815037E+04  0.25931728350E+04 0.  0.
        2    1    3    3  502    0  0.27571264364E+03  0.66272816858E+03  0.75973729158E+03  0.10451922500E+04  0.25500000920E-02 0.  1.
       -2    1    3    3    0  502 -0.27571264364E+03 -0.66272816858E+03 -0.14820119469E+04  0.16466892536E+04  0.25500000920E-02 0. -1.
</event>
<event>
 5   0  0.2755061E-07  0.2601941E+04  0.7818609E-02  0.8367542E-01
        1   -1    0    0  501    0  0.00000000000E+00  0.00000000000E+00  0.10403711112E+04  0.10403711112E+04  0.50400001928E-02 0. -1.
       -1   -1    0    0    0  501  0.00000000000E+00  0.00000000000E+00 -0.16268469408E+04  0.16268469408E+04  0.50400001928E-02 0.  1.
    10030    2    1    2    0    0  0.00000000000E+00  0.00000000000E+00 -0.58647582967E+03  0.26672180520E+04  0.26019412442E+04 0.  0.
        4    1    3    3  502    0 -0.35398605347E+02  0.13003899379E+04 -0.30963595087E+03  0.13372146749E+04  0.12699999809E+01 0.  1.
       -4    1    3    3    0  502  0.35398605347E+02 -0.13003899379E+04 -0.27683987881E+03  0.13300033771E+04  0.12699999809E+01 0. -1.
</event>
<event>
 5   0  0.6768478E-07  0.2599992E+04  0.7818609E-02  0.8368204E-01
       -2   -1    0    0    0  501  0.00000000000E+00  0.00000000000E+00  0.10683660350E+04  0.10683660350E+04  0.25500000920E-02 0. -1.
        2   -1    0    0  501    0  0.00000000000E+00  0.00000000000E+00 -0.15818456398E+04  0.15818456398E+04  0.25500000920E-02 0.  1.
    10030    2    1    2    0    0  0.00000000000E+00  0.00000000000E+00 -0.51347960485E+03  0.26502116748E+04  0.25999924263E+04 0.  0.
        4    1    3    3  502    0  0.83000930369E+03  0.88483796837E+03  0.21933042729E+03  0.12328670341E+04  0.12699999809E+01 0. -1.
       -4    1    3    3    0  502 -0.83000930369E+03 -0.88483796837E+03 -0.73281003215E+03  0.14173446407E+04  0.12699999809E+01 0.  1.
</event>
<event>
 5   0  0.6526351E-07  0.2600812E+04  0.7818609E-02  0.8367925E-01
        2   -1    0    0  501    0  0.00000000000E+00  0.00000000000E+00  0.21197115624E+04  0.21197115624E+04  0.25500000920E-02 0. -1.
       -2   -1    0    0    0  501  0.00000000000E+00  0.00000000000E+00 -0.79777660316E+03  0.79777660316E+03  0.25500000920E-02 0.  1.
    10030    2    1    2    0    0  0.00000000000E+00  0.00000000000E+00  0.13219349593E+04  0.29174881656E+04  0.26008124038E+04 0.  0.
        3    1    3    3  502    0  0.84516789839E+03 -0.82295554535E+03  0.12748601551E+04  0.17369032879E+04  0.10100000352E+00 0. -1.
       -3    1    3    3    0  502 -0.84516789839E+03  0.82295554535E+03  0.47074804138E+02  0.11805848777E+04  0.10100000352E+00 0.  1.
</event>
<event>
 5   0  0.2623263E-07  0.2599727E+04  0.7818609E-02  0.8368294E-01
        1   -1    0    0  501    0  0.00000000000E+00  0.00000000000E+00  0.19365188492E+04  0.19365188492E+04  0.50400001928E-02 0. -1.
       -1   -1    0    0    0  501  0.00000000000E+00  0.00000000000E+00 -0.87251671040E+03  0.87251671041E+03  0.50400001928E-02 0.  1.
    10030    2    1    2    0    0  0.00000000000E+00  0.00000000000E+00  0.10640021388E+04  0.28090355596E+04  0.25997269518E+04 0.  0.
        1    1    3    3  502    0  0.12940666405E+04 -0.70295507141E+02  0.64056496205E+03  0.14456394429E+04  0.50400001928E-02 0. -1.
       -1    1    3    3    0  502 -0.12940666405E+04  0.70295507141E+02  0.42343717673E+03  0.13633961167E+04  0.50400001928E-02 0.  1.
</event>
<event>
 5   0  0.2641626E-07  0.2601704E+04  0.7818609E-02  0.8367622E-01
       -1   -1    0    0    0  501  0.00000000000E+00  0.00000000000E+00  0.10003990910E+04  0.10003990910E+04  0.50400001928E-02 0. -1.
        1   -1    0    0  501    0  0.00000000000E+00  0.00000000000E+00 -0.16915414095E+04  0.16915414095E+04  0.50400001928E-02 0.  1.
    10030    2    1    2    0    0  0.00000000000E+00  0.00000000000E+00 -0.69114231852E+03  0.26919405004E+04  0.26017044324E+04 0.  0.
        3    1    3    3  502    0 -0.43736959478E+03  0.64167858698E+03 -0.14254024661E+04  0.16232115610E+04  0.10100000352E+00 0.  1.
       -3    1    3    3    0  502  0.43736959478E+03 -0.64167858698E+03  0.73426014755E+03  0.10687289394E+04  0.10100000352E+00 0. -1.
</event>
<event>
 5   0  0.2793576E-07  0.2598773E+04  0.7818609E-02  0.8368618E-01
        1   -1    0    0  501    0  0.00000000000E+00  0.00000000000E+00  0.15000767215E+04  0.15000767215E+04  0.50400001928E-02 0.  1.
       -1   -1    0    0    0  501  0.00000000000E+00  0.00000000000E+00 -0.11255463764E+04  0.11255463764E+04  0.50400001928E-02 0. -1.
    10030    2    1    2    0    0  0.00000000000E+00  0.00000000000E+00  0.37453034510E+03  0.26256230979E+04  0.25987734939E+04 0.  0.
        2    1    3    3  502    0  0.12734518863E+04 -0.11002864936E+03  0.42338879478E+03  0.13464932536E+04  0.25500000920E-02 0. -1.
       -2    1    3    3    0  502 -0.12734518863E+04  0.11002864936E+03 -0.48858449677E+02  0.12791298443E+04  0.25500000920E-02 0.  1.
</event>
<event>
 5   0  0.2793576E-07  0.2599911E+04  0.7818609E-02  0.8368232E-01
       -1   -1    0    0    0  501  0.00000000000E+00  0.00000000000E+00  0.54669462176E+03  0.54669462178E+03  0.50400001928E-02 0.  1.
        1   -1    0    0  501    0  0.00000000000E+00  0.00000000000E+00 -0.30910925967E+04  0.30910925967E+04  0.50400001928E-02 0. -1.
    10030    2    1    2    0    0  0.00000000000E+00  0.00000000000E+00 -0.25443979749E+04  0.36377872185E+04  0.25999105354E+04 0.  0.
        2    1    3    3  502    0 -0.68006971375E+03  0.10725120690E+04 -0.16607294469E+04  0.20906456538E+04  0.25500000920E-02 0.  1.
       -2    1    3    3    0  502  0.68006971375E+03 -0.10725120690E+04 -0.88366852801E+03  0.15471415647E+04  0.25500000920E-02 0. -1.
</event>
<event>
 5   0  0.6599814E-07  0.2600383E+04  0.7818609E-02  0.8368071E-01
        2   -1    0    0  501    0  0.00000000000E+00  0.00000000000E+00  0.19972794486E+04  0.19972794486E+04  0.25500000920E-02 0. -1.
       -2   -1    0    0    0  501  0.00000000000E+00  0.00000000000E+00 -0.84640016289E+03  0.84640016289E+03  0.25500000920E-02 0.  1.
    10030    2    1    2    0    0  0.00000000000E+00  0.00000000000E+00  0.11508792857E+04  0.28436796115E+04  0.26003827800E+04 0.  0.
        5    1    3    3  502    0 -0.31280926837E+02  0.11323335523E+04  0.12733667598E+04  0.17043012541E+04  0.46999998093E+01 0. -1.
       -5    1    3    3    0  502  0.31280926837E+02 -0.11323335523E+04 -0.12248747405E+03  0.11393783574E+04  0.46999998093E+01 0.  1.
</event>
<event>
 5   0  0.2864801E-07  0.2599526E+04  0.7818609E-02  0.8368362E-01
       -1   -1    0    0    0  501  0.00000000000E+00  0.00000000000E+00  0.27780270710E+04  0.27780270710E+04  0.50400001928E-02 0.  1.
        1   -1    0    0  501    0  0.00000000000E+00  0.00000000000E+00 -0.60812340104E+03  0.60812340107E+03  0.50400001928E-02 0. -1.
    10030    2    1    2    0    0  0.00000000000E+00  0.00000000000E+00  0.21699036699E+04  0.33861504721E+04  0.25995255495E+04 0.  0.
        5    1    3    3  502    0  0.11722616711E+04 -0.55643856438E+03  0.11819050715E+04  0.17552045435E+04  0.46999998093E+01 0. -1.
       -5    1    3    3    0  502 -0.11722616711E+04  0.55643856438E+03  0.98799859845E+03  0.16309459286E+04  0.46999998093E+01 0.  1.
</event>
<event>
 5   0  0.2641626E-07  0.2600017E+04  0.7818609E-02  0.8368195E-01
       -1   -1    0    0    0  501  0.00000000000E+00  0.00000000000E+00  0.15507431822E+04  0.15507431822E+04  0.50400001928E-02 0.  1.
        1   -1    0    0  501    0  0.00000000000E+00  0.00000000000E+00 -0.10898142909E+04  0.10898142909E+04  0.50400001928E-02 0. -1.
    10030    2    1    2    0    0  0.00000000000E+00  0.00000000000E+00  0.46092889132E+03  0.26405574732E+04  0.26000169858E+04 0.  0.
        3    1    3    3  502    0  0.50853211469E+03 -0.10428978192E+04 -0.36500648222E+03  0.12163348697E+04  0.10100000352E+00 0. -1.
       -3    1    3    3    0  502 -0.50853211469E+03  0.10428978192E+04  0.82593537354E+03  0.14242226035E+04  0.10100000352E+00 0.  1.
</event>
<event>
 5   0  0.2864801E-07  0.2600105E+04  0.7818609E-02  0.8368166E-01
       -1   -1    0    0    0  501  0.00000000000E+00  0.00000000000E+00  0.14291774160E+04  0.14291774160E+04  0.50400001928E-02 0. -1.
        1   -1    0    0  501    0  0.00000000000E+00  0.00000000000E+00 -0.11825934872E+04  0.11825934872E+04  0.50400001928E-02 0.  1.
    10030    2    1    2    0    0  0.00000000000E+00  0.00000000000E+00  0.24658392877E+03  0.26117709032E+04  0.26001045396E+04 0.  0.
        5    1    3    3  502    0  0.42871683694E+03  0.59932603102E+03  0.11991363359E+04  0.14074586530E+04  0.46999998093E+01 0. -1.
       -5    1    3    3    0  502 -0.42871683694E+03 -0.59932603102E+03 -0.95255240713E+03  0.12043122502E+04  0.46999998093E+01 0.  1.
</event>
<event>
 5   0  0.2623263E-07  0.2598849E+04  0.7818609E-02  0.8368592E-01
       -1   -1    0    0    0  501  0.00000000000E+00  0.00000000000E+00  0.79657301159E+03  0.79657301160E+03  0.50400001928E-02 0.  1.
        1   -1    0    0  501    0  0.00000000000E+00  0.00000000000E+00 -0.21197107506E+04  0.21197107506E+04  0.50400001928E-02 0. -1.
    10030    2    1    2    0    0  0.00000000000E+00  0.00000000000E+00 -0.13231377390E+04  0.29162837622E+04  0.25988492656E+04 0.  0.
        1    1    3    3  502    0  0.20932705241E+03 -0.11332934969E+03  0.77189871926E+03  0.80776790553E+03  0.50400001928E-02 0.  1.
       -1    1    3    3    0  502 -0.20932705241E+03  0.11332934969E+03 -0.20950364583E+04  0.21085158567E+04  0.50400001928E-02 0. -1.
</event>
<event>
 5   0  0.6780984E-07  0.2600136E+04  0.7818609E-02  0.8368155E-01
       -2   -1    0    0    0  501  0.00000000000E+00  0.00000000000E+00  0.85289714202E+03  0.85289714202E+03  0.25500000920E-02 0. -1.
        2   -1    0    0  501    0  0.00000000000E+00  0.00000000000E+00 -0.19816882558E+04  0.19816882558E+04  0.25500000920E-02 0.  1.
    10030    2    1    2    0    0  0.00000000000E+00  0.00000000000E+00 -0.11287911138E+04  0.28345853978E+04  0.26001355732E+04 0.  0.
        2    1    3    3  502    0  0.51658225693E+03  0.10974539273E+04 -0.10744660732E+04  0.16204134328E+04  0.25500000920E-02 0.  1.
       -2    1    3    3    0  502 -0.51658225693E+03 -0.10974539273E+04 -0.54325040623E+02  0.12141719651E+04  0.25500000920E-02 0. -1.
</event>
<event>
 5   0  0.7160320E-07  0.2601112E+04  0.7818609E-02  0.8367824E-01
        2   -1    0    0  501    0  0.00000000000E+00  0.00000000000E+00  0.12826470543E+04  0.12826470543E+04  0.25500000920E-02 0.  1.
       -2   -1    0    0    0  501  0.00000000000E+00  0.00000000000E+00 -0.13187148177E+04  0.13187148177E+04  0.25500000920E-02 0. -1.
    10030    2    1    2    0    0  0.00000000000E+00  0.00000000000E+00 -0.36067763406E+02  0.26013618720E+04  0.26011118210E+04 0.  0.
        1    1    3    3  502    0 -0.26997033922E+03 -0.63938445140E+03  0.10819578541E+04  0.12854296009E+04  0.50400001928E-02 0.  1.
       -1    1    3    3    0  502  0.26997033922E+03  0.63938445140E+03 -0.11180256175E+04  0.13159322711E+04  0.50400001928E-02 0. -1.
</event>
<event>
 5   0  0.2864801E-07  0.2606418E+04  0.7818609E-02  0.8366024E-01
        1   -1    0    0  501    0  0.00000000000E+00  0.00000000000E+00  0.30579421277E+04  0.30579421278E+04  0.50400001928E-02 0.  1.
       -1   -1    0    0    0  501  0.00000000000E+00  0.00000000000E+00 -0.55539104065E+03  0.55539104067E+03  0.50400001928E-02 0. -1.
    10030    2    1    2    0    0  0.00000000000E+00  0.00000000000E+00  0.25025510871E+04  0.36133331684E+04  0.26064179716E+04 0.  0.
        5    1    3    3  502    0 -0.10628686067E+04 -0.15445508579E+03  0.22803739105E+03  0.10979841485E+04  0.46999998093E+01 0. -1.
       -5    1    3    3    0  502  0.10628686067E+04  0.15445508579E+03  0.22745136960E+04  0.25153490199E+04  0.46999998093E+01 0.  1.
</event>
<event>
 5   0  0.2793576E-07  0.2599617E+04  0.7818609E-02  0.8368331E-01
       -1   -1    0    0    0  501  0.00000000000E+00  0.00000000000E+00  0.78753396594E+03  0.78753396596E+03  0.50400001928E-02 0.  1.
        1   -1    0    0  501    0  0.00000000000E+00  0.00000000000E+00 -0.21453073682E+04  0.21453073682E+04  0.50400001928E-02 0. -1.
    10030    2    1    2    0    0  0.00000000000E+00  0.00000000000E+00 -0.13577734023E+04  0.29328413342E+04  0.25996172179E+04 0.  0.
        2    1    3    3  502    0 -0.22167122766E+03  0.10986266539E+04  0.63816817185E+02  0.11225823997E+04  0.25500000920E-02 0.  1.
       -2    1    3    3    0  502  0.22167122766E+03 -0.10986266539E+04 -0.14215902195E+04  0.18102589345E+04  0.25500000920E-02 0. -1.
</event>
<event>
 5   0  0.2641626E-07  0.2598286E+04  0.7818609E-02  0.8368783E-01
       -1   -1    0    0    0  501  0.00000000000E+00  0.00000000000E+00  0.97527935831E+03  0.97527935832E+03  0.50400001928E-02 0. -1.
        1   -1    0    0  501    0  0.00000000000E+00  0.00000000000E+00 -0.17305535502E+04  0.17305535502E+04  0.50400001928E-02 0.  1.
    10030    2    1    2    0    0  0.00000000000E+00  0.00000000000E+00 -0.75527419185E+03  0.27058329085E+04  0.25982864784E+04 0.  0.
        3    1    3    3  502    0  0.52837861871E+03  0.16590761391E+03 -0.16014663186E+04  0.16945216673E+04  0.10100000352E+00 0.  1.
       -3    1    3    3    0  502 -0.52837861871E+03 -0.16590761391E+03  0.84619212674E+03  0.10113112412E+04  0.10100000352E+00 0. -1.
</event>
<event>
 5   0  0.6780984E-07  0.2599531E+04  0.7818609E-02  0.8368361E-01
       -2   -1    0    0    0  501  0.00000000000E+00  0.00000000000E+00  0.21346095325E+04  0.21346095325E+04  0.25500000920E-02 0. -1.
        2   -1    0    0  501    0  0.00000000000E+00  0.00000000000E+00 -0.79142803995E+03  0.79142803995E+03  0.25500000920E-02 0.  1.
    10030    2    1    2    0    0  0.00000000000E+00  0.00000000000E+00  0.13431814926E+04  0.29260375725E+04  0.25995306026E+04 0.  0.
        2    1    3    3  502    0  0.46985130895E+03 -0.12075980062E+04  0.55715157964E+03  0.14104861147E+04  0.25500000920E-02 0.  1.
       -2    1    3    3    0  502 -0.46985130895E+03  0.12075980062E+04  0.78602991296E+03  0.15155514578E+04  0.25500000920E-02 0. -1.
</event>
<event>
 5   0  0.6526351E-07  0.2607387E+04  0.7818609E-02  0.8365696E-01
       -2   -1    0    0    0  501  0.00000000000E+00  0.00000000000E+00  0.91754437437E+03  0.91754437437E+03  0.25500000920E-02 0.  1.
        2   -1    0    0  501    0  0.00000000000E+00  0.00000000000E+00 -0.18523538872E+04  0.18523538872E+04  0.25500000920E-02 0. -1.
    10030    2    1    2    0    0  0.00000000000E+00  0.00000000000E+00 -0.93480951281E+03  0.27698982616E+04  0.26073871124E+04 0.  0.
        3    1    3    3  502    0 -0.12913651446E+04 -0.10411642528E+03 -0.31290018712E+03  0.13328055762E+04  0.10100000352E+00 0. -1.
       -3    1    3    3    0  502  0.12913651446E+04  0.10411642528E+03 -0.62190932569E+03  0.14370926853E+04  0.10100000352E+00 0.  1.
</event>
<event>
 5   0  0.2623263E-07  0.2603871E+04  0.7818609E-02  0.8366888E-01
        1   -1    0    0  501    0  0.00000000000E+00  0.00000000000E+00  0.18365316947E+04  0.18365316947E+04  0.50400001928E-02 0. -1.
       -1   -1    0    0    0  501  0.00000000000E+00  0.00000000000E+00 -0.92295480786E+03  0.92295480787E+03  0.50400001928E-02 0.  1.
    10030    2    1    2    0    0  0.00000000000E+00  0.00000000000E+00  0.91357688682E+03  0.27594865026E+04  0.26038707782E+04 0.  0.
        1    1    3    3  502    0 -0.10016771768E+04 -0.48684389841E+03 -0.25779506462E+03  0.11431677232E+04  0.50400001928E-02 0.  1.
       -1    1    3    3    0  502  0.10016771768E+04  0.48684389841E+03  0.11713719514E+04  0.16163187794E+04  0.50400001928E-02 0. -1.
</event>
<event>
 5   0  0.6780984E-07  0.2601246E+04  0.7818609E-02  0.8367778E-01
       -2   -1    0    0    0  501  0.00000000000E+00  0.00000000000E+00  0.13504647873E+04  0.13504647873E+04  0.25500000920E-02 0. -1.
        2   -1    0    0  501    0  0.00000000000E+00  0.00000000000E+00 -0.12526206217E+04  0.12526206217E+04  0.25500000920E-02 0.  1.
    10030    2    1    2    0    0  0.00000000000E+00  0.00000000000E+00  0.97844165617E+02  0.26030854091E+04  0.26012458873E+04 0.  0.
        2    1    3    3  502    0 -0.18772134253E+03 -0.10691865003E+04 -0.66797895067E+03  0.12745959961E+04  0.25500000920E-02 0.  1.
       -2    1    3    3    0  502  0.18772134253E+03  0.10691865003E+04  0.76582311629E+03  0.13284894129E+04  0.25500000920E-02 0. -1.
</event>
<event>
 5   0  0.2755061E-07  0.2598410E+04  0.7818609E-02  0.8368741E-01
       -1   -1    0    0    0  501  0.00000000000E+00  0.00000000000E+00  0.96781908683E+03  0.96781908684E+03  0.50400001928E-02 0.  1.
        1   -1    0    0  501    0  0.00000000000E+00  0.00000000000E+00 -0.17440592020E+04  0.17440592020E+04  0.50400001928E-02 0. -1.
    10030    2    1    2    0    0  0.00000000000E+00  0.00000000000E+00 -0.77624011515E+03  0.27118782888E+04  0.25984101172E+04 0.  0.
        4    1    3    3  502    0  0.10147812045E+04 -0.69892207339E+03  0.41763882420E+02  0.12328904219E+04  0.12699999809E+01 0.  1.
       -4    1    3    3    0  502 -0.10147812045E+04  0.69892207339E+03 -0.81800399757E+03  0.14789878669E+04  0.12699999809E+01 0. -1.
</event>
<event>
 5   0  0.2641626E-07  0.2604048E+04  0.7818609E-02  0.8366827E-01
       -1   -1    0    0    0  501  0.00000000000E+00  0.00000000000E+00  0.15394614561E+04  0.15394614561E+04  0.50400001928E-02 0.  1.
        1   -1    0    0  501    0  0.00000000000E+00  0.00000000000E+00 -0.11012077851E+04  0.11012077852E+04  0.50400001928E-02 0. -1.
    10030    2    1    2    0    0  0.00000000000E+00  0.00000000000E+00  0.43825367097E+03  0.26406692413E+04  0.26040483409E+04 0.  0.
        3    1    3    3  502    0 -0.90156751513E+03 -0.81192728417E+02  0.11681569685E+04  0.14778386098E+04  0.10100000352E+00 0.  1.
       -3    1    3    3    0  502  0.90156751513E+03  0.81192728417E+02 -0.72990329751E+03  0.11628306314E+04  0.10100000352E+00 0. -1.
</event>
<event>
 5   0  0.6599814E-07  0.2597771E+04  0.7818609E-02  0.8368959E-01
       -2   -1    0    0    0  501  0.00000000000E+00  0.00000000000E+00  0.10187114269E+04  0.10187114269E+04  0.25500000920E-02 0.  1.
        2   -1    0    0  501    0  0.00000000000E+00  0.00000000000E+00 -0.16561153683E+04  0.16561153683E+04  0.25500000920E-02 0. -1.
    10030    2    1    2    0    0  0.00000000000E+00  0.00000000000E+00 -0.63740394145E+03  0.26748267952E+04  0.25977710830E+04 0.  0.
        5    1    3    3  502    0 -0.83237014380E+02  0.10296604987E+04 -0.11294277179E+04  0.15306071354E+04  0.46999998093E+01 0. -1.
       -5    1    3    3    0  502  0.83237014380E+02 -0.10296604987E+04  0.49202377640E+03  0.11442196598E+04  0.46999998093E+01 0.  1.
</event>
<event>
 5   0  0.6780984E-07  0.2601876E+04  0.7818609E-02  0.8367564E-01
       -2   -1    0    0    0  501  0.00000000000E+00  0.00000000000E+00  0.23712305799E+04  0.23712305799E+04  0.25500000920E-02 0. -1.
        2   -1    0    0  501    0  0.00000000000E+00  0.00000000000E+00 -0.71373902141E+03  0.71373902142E+03  0.25500000920E-02 0.  1.
    10030    2    1    2    0    0  0.00000000000E+00  0.00000000000E+00  0.16574915585E+04  0.30849696013E+04  0.26018760875E+04 0.  0.
        2    1    3    3  502    0 -0.80181932170E+03 -0.97098302854E+03  0.44141486933E+03  0.13343797635E+04  0.25500000920E-02 0.  1.
       -2    1    3    3    0  502  0.80181932170E+03  0.97098302854E+03  0.12160766892E+04  0.17505898378E+04  0.25500000920E-02 0. -1.
</event>
<event>
 5   0  0.2294625E-07  0.2600258E+04  0.7818609E-02  0.8368113E-01
       -3   -1    0    0    0  501  0.00000000000E+00  0.00000000000E+00  0.11664574382E+04  0.11664574425E+04  0.10100000352E+00 0.  1.
        3   -1    0    0  501    0  0.00000000000E+00  0.00000000000E+00 -0.14491192228E+04  0.14491192263E+04  0.10100000352E+00 0. -1.
    10030    2    1    2    0    0  0.00000000000E+00  0.00000000000E+00 -0.28266178461E+03  0.26155766688E+04  0.26002583768E+04 0.  0.
        1    1    3    3  502    0  0.91609072116E+03 -0.30100384921E+03 -0.10185407907E+04  0.14025872055E+04  0.50400001928E-02 0. -1.
       -1    1    3    3    0  502 -0.91609072116E+03  0.30100384921E+03  0.73587900606E+03  0.12129894634E+04  0.50400001928E-02 0.  1.
</event>
<event>
 5   0  0.2864801E-07  0.2600988E+04  0.7818609E-02  0.8367866E-01
        1   -1    0    0  501    0  0.00000000000E+00  0.00000000000E+00  0.24114589310E+04  0.24114589310E+04  0.50400001928E-02 0. -1.
       -1   -1    0    0    0  501  0.00000000000E+00  0.00000000000E+00 -0.70135353138E+03  0.70135353139E+03  0.50400001928E-02 0.  1.
    10030    2    1    2    0    0  0.00000000000E+00  0.00000000000E+00  0.17101053996E+04  0.31128124624E+04  0.26009884560E+04 0.  0.
        5    1    3    3  502    0  0.13627016113E+03  0.12169183711E+03  0.23960138581E+04  0.24029737740E+04  0.46999998093E+01 0. -1.
       -5    1    3    3    0  502 -0.13627016113E+03 -0.12169183711E+03 -0.68590845855E+03  0.70983868839E+03  0.46999998093E+01 0.  1.
</event>
<event>
 5   0  0.2793576E-07  0.2600268E+04  0.7818609E-02  0.8368110E-01
       -1   -1    0    0    0  501  0.00000000000E+00  0.00000000000E+00  0.11529766980E+04  0.11529766980E+04  0.50400001928E-02 0. -1.
        1   -1    0    0  501    0  0.00000000000E+00  0.00000000000E+00 -0.14660736906E+04  0.14660736906E+04  0.50400001928E-02 0.  1.
    10030    2    1    2    0    0  0.00000000000E+00  0.00000000000E+00 -0.31309699258E+03  0.26190503887E+04  0.26002682961E+04 0.  0.
        2    1    3    3  502    0 -0.48026622111E+03 -0.22785361903E+01 -0.13734507832E+04  0.14550009927E+04  0.25500000920E-02 0.  1.
       -2    1    3    3    0  502  0.48026622111E+03  0.22785361903E+01  0.10603537906E+04  0.11640493959E+04  0.25500000920E-02 0. -1.
</event>
<event>
 5   0  0.2623263E-07  0.2600506E+04  0.7818609E-02  0.8368029E-01
        1   -1    0    0  501    0  0.00000000000E+00  0.00000000000E+00  0.19231959065E+04  0.19231959065E+04  0.50400001928E-02 0.  1.
       -1   -1    0    0    0  501  0.00000000000E+00  0.00000000000E+00 -0.87908774296E+03  0.87908774297E+03  0.50400001928E-02 0. -1.
    10030    2    1    2    0    0  0.00000000000E+00  0.00000000000E+00  0.10441081635E+04  0.28022836495E+04  0.26005060652E+04 0.  0.
        1    1    3    3  502    0 -0.84943701536E+03  0.70306483239E+03 -0.22047972241E+03  0.11244797506E+04  0.50400001928E-02 0. -1.
       -1    1    3    3    0  502  0.84943701536E+03 -0.70306483239E+03  0.12645878859E+04  0.16778038988E+04  0.50400001928E-02 0.  1.
</event>
<event>
 5   0  0.6780984E-07  0.2600565E+04  0.7818609E-02  0.8368009E-01
        2   -1    0    0  501    0  0.00000000000E+00  0.00000000000E+00  0.24314047997E+04  0.24314047997E+04  0.25500000920E-02 0.  1.
       -2   -1    0    0    0  501  0.00000000000E+00  0.00000000000E+00 -0.69537380766E+03  0.69537380767E+03  0.25500000920E-02 0. -1.
    10030    2    1    2    0    0  0.00000000000E+00  0.00000000000E+00  0.17360309920E+04  0.31267786073E+04  0.26005654874E+04 0.  0.
        2    1    3    3  502    0 -0.92663535897E+03  0.91196585022E+03  0.89207482227E+03  0.15767473764E+04  0.25500000920E-02 0.  1.
       -2    1    3    3    0  502  0.92663535897E+03 -0.91196585022E+03  0.84395616974E+03  0.15500312309E+04  0.25500000920E-02 0. -1.
</event>
<event>
 5   0  0.2623263E-07  0.2602020E+04  0.7818609E-02  0.8367516E-01
       -1   -1    0    0    0  501  0.00000000000E+00  0.00000000000E+00  0.99470066233E+03  0.99470066234E+03  0.50400001928E-02 0.  1.
        1   -1    0    0  501    0  0.00000000000E+00  0.00000000000E+00 -0.17016441212E+04  0.17016441212E+04  0.50400001928E-02 0. -1.
    10030    2    1    2    0    0  0.00000000000E+00  0.00000000000E+00 -0.70694345882E+03  0.26963447835E+04  0.26020196267E+04 0.  0.
        1    1    3    3  502    0 -0.13246724734E+03  0.50625304271E+03  0.88083594570E+03  0.10245543803E+04  0.50400001928E-02 0.  1.
       -1    1    3    3    0  502  0.13246724734E+03 -0.50625304271E+03 -0.15877794045E+04  0.16717904032E+04  0.50400001928E-02 0. -1.
</event>
<event>
 5   0  0.6599814E-07  0.2593060E+04  0.7818609E-02  0.8370562E-01
       -2   -1    0    0    0  501  0.00000000000E+00  0.00000000000E+00  0.73523206586E+03  0.73523206587E+03  0.25500000920E-02 0. -1.
        2   -1    0    0  501    0  0.00000000000E+00  0.00000000000E+00 -0.22863400667E+04  0.22863400667E+04  0.25500000920E-02 0.  1.
    10030    2    1    2    0    0  0.00000000000E+00  0.00000000000E+00 -0.15511080008E+04  0.30215721325E+04  0.25930603776E+04 0.  0.
        5    1    3    3  502    0 -0.33982913037E+02 -0.10856526323E+04  0.49369586346E+02  0.10873159258E+04  0.46999998093E+01 0. -1.
       -5    1    3    3    0  502  0.33982913037E+02  0.10856526323E+04 -0.16004775872E+04  0.19342562068E+04  0.46999998093E+01 0.  1.
</event>
<event>
 5   0  0.2641626E-07  0.2591599E+04  0.7818609E-02  0.8371061E-01
        1   -1    0    0  501    0  0.00000000000E+00  0.00000000000E+00  0.10690370584E+04  0.10690370584E+04  0.50400001928E-02 0.  1.
       -1   -1    0    0    0  501  0.00000000000E+00  0.00000000000E+00 -0.15706621322E+04  0.15706621322E+04  0.50400001928E-02 0. -1.
    10030    2    1    2    0    0  0.00000000000E+00  0.00000000000E+00 -0.50162507378E+03  0.26396991906E+04  0.25915987541E+04 0.  0.
        3    1    3    3  502    0 -0.80636801805E+03 -0.65625119119E+03 -0.10386021445E+04  0.14695541607E+04  0.10100000352E+00 0. -1.
       -3    1    3    3    0  502  0.80636801805E+03  0.65625119119E+03  0.53697707068E+03  0.11701450299E+04  0.10100000352E+00 0.  1.
</event>
<event>
 5   0  0.2294625E-07  0.2599396E+04  0.7818609E-02  0.8368406E-01
       -3   -1    0    0    0  501  0.00000000000E+00  0.00000000000E+00  0.16678256657E+04  0.16678256688E+04  0.10100000352E+00 0. -1.
        3   -1    0    0  501    0  0.00000000000E+00  0.00000000000E+00 -0.10128247112E+04  0.10128247162E+04  0.10100000352E+00 0.  1.
    10030    2    1    2    0    0  0.00000000000E+00  0.00000000000E+00  0.65500095454E+03  0.26806503850E+04  0.25993961291E+04 0.  0.
        4    1    3    3  502    0  0.10491988100E+04  0.54051662905E+03 -0.23378966543E+03  0.12031772894E+04  0.12699999809E+01 0. -1.
       -4    1    3    3    0  502 -0.10491988100E+04 -0.54051662905E+03  0.88879061997E+03  0.14774730956E+04  0.12699999809E+01 0.  1.
</event>
<event>
 5   0  0.2864801E-07  0.2600568E+04  0.7818609E-02  0.8368008E-01
        1   -1    0    0  501    0  0.00000000000E+00  0.00000000000E+00  0.22049333949E+04  0.22049333949E+04  0.50400001928E-02 0. -1.
       -1   -1    0    0    0  501  0.00000000000E+00  0.00000000000E+00 -0.76679824494E+03  0.76679824496E+03  0.50400001928E-02 0.  1.
    10030    2    1    2    0    0  0.00000000000E+00  0.00000000000E+00  0.14381351500E+04  0.29717316399E+04  0.26005684436E+04 0.  0.
        5    1    3    3  502    0  0.91125995676E+03 -0.26030214614E+03  0.17363903303E+04  0.19781873990E+04  0.46999998093E+01 0. -1.
       -5    1    3    3    0  502 -0.91125995676E+03  0.26030214614E+03 -0.29825518036E+03  0.99354424093E+03  0.46999998093E+01 0.  1.
</event>
<event>
 5   0  0.6780984E-07  0.2599957E+04  0.7818609E-02  0.8368216E-01
       -2   -1    0    0    0  501  0.00000000000E+00  0.00000000000E+00  0.59233180291E+03  0.59233180291E+03  0.25500000920E-02 0.  1.
        2   -1    0    0  501    0  0.00000000000E+00  0.00000000000E+00 -0.28530360971E+04  0.28530360971E+04  0.25500000920E-02 0. -1.
    10030    2    1    2    0    0  0.00000000000E+00  0.00000000000E+00 -0.22607042942E+04  0.34453679000E+04  0.25999569344E+04 0.  0.
        2    1    3    3  502    0  0.24288447285E+03  0.40380616090E+03 -0.27358748865E+04  0.27761598796E+04  0.25500000920E-02 0. -1.
       -2    1    3    3    0  502 -0.24288447285E+03 -0.40380616090E+03  0.47517059231E+03  0.66920802037E+03  0.25500000920E-02 0.  1.
</event>
<event>
 5   0  0.2294625E-07  0.2597446E+04  0.7818609E-02  0.8369069E-01
        3   -1    0    0  501    0  0.00000000000E+00  0.00000000000E+00  0.14757779441E+04  0.14757779476E+04  0.10100000352E+00 0.  1.
       -3   -1    0    0    0  501  0.00000000000E+00  0.00000000000E+00 -0.11429100069E+04  0.11429100114E+04  0.10100000352E+00 0. -1.
    10030    2    1    2    0    0  0.00000000000E+00  0.00000000000E+00  0.33286793726E+03  0.26186879590E+04  0.25974459692E+04 0.  0.
        1    1    3    3  502    0 -0.73060795933E+03 -0.21218139625E+02  0.12487323080E+04  0.14469176123E+04  0.50400001928E-02 0.  1.
       -1    1    3    3    0  502  0.73060795933E+03  0.21218139625E+02 -0.91586437075E+03  0.11717703467E+04  0.50400001928E-02 0. -1.
</event>
<event>
 5   0  0.2623263E-07  0.2596549E+04  0.7818609E-02  0.8369374E-01
        1   -1    0    0  501    0  0.00000000000E+00  0.00000000000E+00  0.25944159869E+04  0.25944159869E+04  0.50400001928E-02 0. -1.
       -1   -1    0    0    0  501  0.00000000000E+00  0.00000000000E+00 -0.64967089427E+03  0.64967089429E+03  0.50400001928E-02 0.  1.
    10030    2    1    2    0    0  0.00000000000E+00  0.00000000000E+00  0.19447450926E+04  0.32440868812E+04  0.25965489053E+04 0.  0.
        1    1    3    3  502    0  0.12660566364E+04  0.27739911589E+03  0.87832057233E+03  0.15656617463E+04  0.50400001928E-02 0.  1.
       -1    1    3    3    0  502 -0.12660566364E+04 -0.27739911589E+03  0.10664245203E+04  0.16784251349E+04  0.50400001928E-02 0. -1.
</event>
<event>
 5   0  0.6780984E-07  0.2596898E+04  0.7818609E-02  0.8369256E-01
        2   -1    0    0  501    0  0.00000000000E+00  0.00000000000E+00  0.16638526720E+04  0.16638526720E+04  0.25500000920E-02 0.  1.
       -2   -1    0    0    0  501  0.00000000000E+00  0.00000000000E+00 -0.10132929960E+04  0.10132929960E+04  0.25500000920E-02 0. -1.
    10030    2    1    2    0    0  0.00000000000E+00  0.00000000000E+00  0.65055967593E+03  0.26771456680E+04  0.25968983491E+04 0.  0.
        2    1    3    3  502    0 -0.40232648246E+02  0.12358742563E+04 -0.83152784431E+02  0.12393216809E+04  0.25500000920E-02 0. -1.
       -2    1    3    3    0  502  0.40232648246E+02 -0.12358742563E+04  0.73371246036E+03  0.14378239871E+04  0.25500000920E-02 0.  1.
</event>
<event>
 5   0  0.2793576E-07  0.2598695E+04  0.7818609E-02  0.8368645E-01
        1   -1    0    0  501    0  0.00000000000E+00  0.00000000000E+00  0.17534425446E+04  0.17534425446E+04  0.50400001928E-02 0. -1.
       -1   -1    0    0    0  501  0.00000000000E+00  0.00000000000E+00 -0.96285080032E+03  0.96285080033E+03  0.50400001928E-02 0.  1.
    10030    2    1    2    0    0  0.00000000000E+00  0.00000000000E+00  0.79059174424E+03  0.27162933449E+04  0.25986947165E+04 0.  0.
        2    1    3    3  502    0 -0.35478908335E+03  0.79486225850E+03  0.14036384894E+04  0.16516301985E+04  0.25500000920E-02 0. -1.
       -2    1    3    3    0  502  0.35478908335E+03 -0.79486225850E+03 -0.61304674513E+03  0.10646631464E+04  0.25500000920E-02 0.  1.
</event>
<event>
 5   0  0.2793576E-07  0.2597541E+04  0.7818609E-02  0.8369037E-01
       -1   -1    0    0    0  501  0.00000000000E+00  0.00000000000E+00  0.13347446355E+04  0.13347446355E+04  0.50400001928E-02 0. -1.
        1   -1    0    0  501    0  0.00000000000E+00  0.00000000000E+00 -0.12637662982E+04  0.12637662982E+04  0.50400001928E-02 0.  1.
    10030    2    1    2    0    0  0.00000000000E+00  0.00000000000E+00  0.70978337283E+02  0.25985109337E+04  0.25975413660E+04 0.  0.
        2    1    3    3  502    0  0.64677671889E+03 -0.75827243885E+03  0.86857133189E+03  0.13220111097E+04  0.25500000920E-02 0. -1.
       -2    1    3    3    0  502 -0.64677671889E+03  0.75827243885E+03 -0.79759299461E+03  0.12764998240E+04  0.25500000920E-02 0.  1.
</event>
<event>
 5   0  0.2755061E-07  0.2614131E+04  0.7818609E-02  0.8363417E-01
       -1   -1    0    0    0  501  0.00000000000E+00  0.00000000000E+00  0.10908222516E+04  0.10908222516E+04  0.50400001928E-02 0.  1.
        1   -1    0    0  501    0  0.00000000000E+00  0.00000000000E+00 -0.15661763781E+04  0.15661763781E+04  0.50400001928E-02 0. -1.
    10030    2    1    2    0    0  0.00000000000E+00  0.00000000000E+00 -0.47535412650E+03  0.26569986297E+04  0.26141308637E+04 0.  0.
        4    1    3    3  502    0 -0.13031008320E+04  0.15760604354E+02 -0.13553910397E+03  0.13102261777E+04  0.12699999809E+01 0.  1.
       -4    1    3    3    0  502  0.13031008320E+04 -0.15760604354E+02 -0.33981502253E+03  0.13467724520E+04  0.12699999809E+01 0. -1.
</event>
<event>
 5   0  0.2755061E-07  0.2600140E+04  0.7818609E-02  0.8368154E-01
       -1   -1    0    0    0  501  0.00000000000E+00  0.00000000000E+00  0.13293476159E+04  0.13293476159E+04  0.50400001928E-02 0.  1.
        1   -1    0    0  501    0  0.00000000000E+00  0.00000000000E+00 -0.12714373814E+04  0.12714373814E+04  0.50400001928E-02 0. -1.
    10030    2    1    2    0    0  0.00000000000E+00  0.00000000000E+00  0.57910234563E+02  0.26007849973E+04  0.26001401898E+04 0.  0.
        4    1    3    3  502    0 -0.69276667726E+03 -0.44589204700E+03 -0.97699565932E+03  0.12779935516E+04  0.12699999809E+01 0. -1.
       -4    1    3    3    0  502  0.69276667726E+03  0.44589204700E+03  0.10349058939E+04  0.13227914457E+04  0.12699999809E+01 0.  1.
</event>
<event>
 5   0  0.2864801E-07  0.2598545E+04  0.7818609E-02  0.8368696E-01
        1   -1    0    0  501    0  0.00000000000E+00  0.00000000000E+00  0.19849525183E+04  0.19849525183E+04  0.50400001928E-02 0.  1.
       -1   -1    0    0    0  501  0.00000000000E+00  0.00000000000E+00 -0.85045309091E+03  0.85045309093E+03  0.50400001928E-02 0. -1.
    10030    2    1    2    0    0  0.00000000000E+00  0.00000000000E+00  0.11344994274E+04  0.28354056092E+04  0.25985449810E+04 0.  0.
        5    1    3    3  502    0 -0.14191000303E+03 -0.84713960427E+02  0.19734266282E+04  0.19803407916E+04  0.46999998093E+01 0.  1.
       -5    1    3    3    0  502  0.14191000303E+03  0.84713960427E+02 -0.83892720082E+03  0.85506481761E+03  0.46999998093E+01 0. -1.
</event>
<event>
 5   0  0.2641626E-07  0.2599689E+04  0.7818609E-02  0.8368307E-01
       -1   -1    0    0    0  501  0.00000000000E+00  0.00000000000E+00  0.88570773034E+03  0.88570773035E+03  0.50400001928E-02 0.  1.
        1   -1    0    0  501    0  0.00000000000E+00  0.00000000000E+00 -0.19076223610E+04  0.19076223610E+04  0.50400001928E-02 0. -1.
    10030    2    1    2    0    0  0.00000000000E+00  0.00000000000E+00 -0.10219146307E+04  0.27933300914E+04  0.25996891135E+04 0.  0.
        3    1    3    3  502    0 -0.10410847555E+04 -0.64477508499E+03 -0.97931928704E+03  0.15680110505E+04  0.10100000352E+00 0.  1.
       -3    1    3    3    0  502  0.10410847555E+04  0.64477508499E+03 -0.42595343654E+02  0.12253190409E+04  0.10100000352E+00 0. -1.
</event>
<event>
 5   0  0.6599814E-07  0.2599334E+04  0.7818609E-02  0.8368427E-01
       -2   -1    0    0    0  501  0.00000000000E+00  0.00000000000E+00  0.96382211938E+03  0.96382211938E+03  0.25500000920E-02 0. -1.
        2   -1    0    0  501    0  0.00000000000E+00  0.00000000000E+00 -0.17525379581E+04  0.17525379581E+04  0.25500000920E-02 0.  1.
    10030    2    1    2    0    0  0.00000000000E+00  0.00000000000E+00 -0.78871583872E+03  0.27163600775E+04  0.25993344141E+04 0.  0.
        5    1    3    3  502    0  0.56821510716E+03  0.93801793314E+03  0.33443996322E+03  0.11465680224E+04  0.46999998093E+01 0. -1.
       -5    1    3    3    0  502 -0.56821510716E+03 -0.93801793314E+03 -0.11231558019E+04  0.15697920551E+04  0.46999998093E+01 0.  1.
</event>
<event>
 5   0  0.2864801E-07  0.2599005E+04  0.7818609E-02  0.8368539E-01
       -1   -1    0    0    0  501  0.00000000000E+00  0.00000000000E+00  0.10421601166E+04  0.10421601166E+04  0.50400001928E-02 0.  1.
        1   -1    0    0  501    0  0.00000000000E+00  0.00000000000E+00 -0.16203913883E+04  0.16203913883E+04  0.50400001928E-02 0. -1.
    10030    2    1    2    0    0  0.00000000000E+00  0.00000000000E+00 -0.57823127166E+03  0.26625515049E+04  0.25990054084E+04 0.  0.
        5    1    3    3  502    0  0.10066562652E+04 -0.73803795841E+03  0.81146678611E+02  0.12508651957E+04  0.46999998093E+01 0.  1.
       -5    1    3    3    0  502 -0.10066562652E+04  0.73803795841E+03 -0.65937795027E+03  0.14116863092E+04  0.46999998093E+01 0. -1.
</event>
<event>
 5   0  0.7160320E-07  0.2597890E+04  0.7818609E-02  0.8368918E-01
        2   -1    0    0  501    0  0.00000000000E+00  0.00000000000E+00  0.12747999879E+04  0.12747999879E+04  0.25500000920E-02 0. -1.
       -2   -1    0    0    0  501  0.00000000000E+00  0.00000000000E+00 -0.13235470919E+04  0.13235470919E+04  0.25500000920E-02 0.  1.
    10030    2    1    2    0    0  0.00000000000E+00  0.00000000000E+00 -0.48747104003E+02  0.25983470797E+04  0.25978897719E+04 0.  0.
        1    1    3    3  502    0  0.86125251448E+02 -0.53803033412E+03 -0.12037179263E+04  0.13212989993E+04  0.50400001928E-02 0.  1.
       -1    1    3    3    0  502 -0.86125251448E+02  0.53803033412E+03  0.11549708223E+04  0.12770480805E+04  0.50400001928E-02 0. -1.
</event>
<event>
 5   0  0.2641626E-07  0.2600149E+04  0.7818609E-02  0.8368150E-01
       -1   -1    0    0    0  501  0.00000000000E+00  0.00000000000E+00  0.22457996113E+04  0.22457996113E+04  0.50400001928E-02 0.  1.
        1   -1    0    0  501    0  0.00000000000E+00  0.00000000000E+00 -0.75260237746E+03  0.75260237748E+03  0.50400001928E-02 0. -1.
    10030    2    1    2    0    0  0.00000000000E+00  0.00000000000E+00  0.14931972339E+04  0.29984019888E+04  0.26001493240E+04 0.  0.
        3    1    3    3  502    0 -0.80159268889E+03  0.18717540463E+03  0.19070110758E+04  0.20770837067E+04  0.10100000352E+00 0.  1.
       -3    1    3    3    0  502  0.80159268889E+03 -0.18717540463E+03 -0.41381384198E+03  0.92131828213E+03  0.10100000352E+00 0. -1.
</event>
<event>
 5   0  0.2755061E-07  0.2600797E+04  0.7818609E-02  0.8367930E-01
        1   -1    0    0  501    0  0.00000000000E+00  0.00000000000E+00  0.20586333011E+04  0.20586333011E+04  0.50400001928E-02 0. -1.
       -1   -1    0    0    0  501  0.00000000000E+00  0.00000000000E+00 -0.82143648543E+03  0.82143648545E+03  0.50400001928E-02 0.  1.
    10030    2    1    2    0    0  0.00000000000E+00  0.00000000000E+00  0.12371968156E+04  0.28800697865E+04  0.26007971883E+04 0.  0.
        4    1    3    3  502    0 -0.12203619714E+04  0.38902529356E+03  0.86723132330E+03  0.15468405869E+04  0.12699999809E+01 0.  1.
       -4    1    3    3    0  502  0.12203619714E+04 -0.38902529356E+03  0.36996549233E+03  0.13332291996E+04  0.12699999809E+01 0. -1.
</event>
<event>
 5   0  0.7160320E-07  0.2591166E+04  0.7818609E-02  0.8371208E-01
        2   -1    0    0  501    0  0.00000000000E+00  0.00000000000E+00  0.13471073251E+04  0.13471073251E+04  0.25500000920E-02 0. -1.
       -2   -1    0    0    0  501  0.00000000000E+00  0.00000000000E+00 -0.12460297037E+04  0.12460297037E+04  0.25500000920E-02 0.  1.
    10030    2    1    2    0    0  0.00000000000E+00  0.00000000000E+00  0.10107762139E+03  0.25931370287E+04  0.25911663328E+04 0.  0.
        1    1    3    3  502    0 -0.97258073263E+03  0.59103236558E+03  0.67012452872E+03  0.13207192823E+04  0.50400001928E-02 0. -1.
       -1    1    3    3    0  502  0.97258073263E+03 -0.59103236558E+03 -0.56904690732E+03  0.12724177464E+04  0.50400001928E-02 0.  1.
</event>
<event>
 5   0  0.6526351E-07  0.2600884E+04  0.7818609E-02  0.8367901E-01
       -2   -1    0    0    0  501  0.00000000000E+00  0.00000000000E+00  0.11317181270E+04  0.11317181271E+04  0.25500000920E-02 0.  1.
        2   -1    0    0  501    0  0.00000000000E+00  0.00000000000E+00 -0.14943206256E+04  0.14943206256E+04  0.25500000920E-02 0. -1.
    10030    2    1    2    0    0  0.00000000000E+00  0.00000000000E+00 -0.36260249855E+03  0.26260387527E+04  0.26008842647E+04 0.  0.
        3    1    3    3  502    0  0.64157632886E+03  0.71433485275E+03  0.70425334658E+03  0.11907423122E+04  0.10100000352E+00 0.  1.
       -3    1    3    3    0  502 -0.64157632886E+03 -0.71433485275E+03 -0.10668558451E+04  0.14352964405E+04  0.10100000352E+00 0. -1.
</event>
<event>
 5   0  0.7160320E-07  0.2599854E+04  0.7818609E-02  0.8368251E-01
        2   -1    0    0  501    0  0.00000000000E+00  0.00000000000E+00  0.90343506479E+03  0.90343506479E+03  0.25500000920E-02 0. -1.
       -2   -1    0    0    0  501  0.00000000000E+00  0.00000000000E+00 -0.18704278595E+04  0.18704278595E+04  0.25500000920E-02 0.  1.
    10030    2    1    2    0    0  0.00000000000E+00  0.00000000000E+00 -0.96699279470E+03  0.27738629243E+04  0.25998539301E+04 0.  0.
        1    1    3    3  502    0  0.13797056731E+03 -0.12897449024E+04 -0.57485655925E+03  0.14187804110E+04  0.50400001928E-02 0.  1.
       -1    1    3    3    0  502 -0.13797056731E+03  0.12897449024E+04 -0.39213623545E+03  0.13550825133E+04  0.50400001928E-02 0. -1.
</event>
<event>
 5   0  0.6526351E-07  0.2599202E+04  0.7818609E-02  0.8368472E-01
        2   -1    0    0  501    0  0.00000000000E+00  0.00000000000E+00  0.19282687840E+04  0.19282687840E+04  0.25500000920E-02 0. -1.
       -2   -1    0    0    0  501  0.00000000000E+00  0.00000000000E+00 -0.87589585193E+03  0.87589585193E+03  0.25500000920E-02 0.  1.
    10030    2    1    2    0    0  0.00000000000E+00  0.00000000000E+00  0.10523729321E+04  0.28041646359E+04  0.25992019001E+04 0.  0.
        3    1    3    3  502    0 -0.73947121225E+03  0.95047352715E+03  0.10533321469E+04  0.15999144419E+04  0.10100000352E+00 0. -1.
       -3    1    3    3    0  502  0.73947121225E+03 -0.95047352715E+03 -0.95921479305E+00  0.12042501940E+04  0.10100000352E+00 0.  1.
</event>
<event>
 5   0  0.6780984E-07  0.2600625E+04  0.7818609E-02  0.8367989E-01
       -2   -1    0    0    0  501  0.00000000000E+00  0.00000000000E+00  0.14559269920E+04  0.14559269920E+04  0.25500000920E-02 0. -1.
        2   -1    0    0  501    0  0.00000000000E+00  0.00000000000E+00 -0.11613302676E+04  0.11613302676E+04  0.25500000920E-02 0.  1.
    10030    2    1    2    0    0  0.00000000000E+00  0.00000000000E+00  0.29459672443E+03  0.26172572597E+04  0.26006246044E+04 0.  0.
        2    1    3    3  502    0 -0.11500141117E+04 -0.33394685172E+03  0.65725317013E+03  0.13660288015E+04  0.25500000920E-02 0.  1.
       -2    1    3    3    0  502  0.11500141117E+04  0.33394685172E+03 -0.36265644570E+03  0.12512284582E+04  0.25500000920E-02 0. -1.
</event>
<event>
 5   0  0.7160320E-07  0.2595125E+04  0.7818609E-02  0.8369859E-01
       -2   -1    0    0    0  501  0.00000000000E+00  0.00000000000E+00  0.16794130550E+04  0.16794130550E+04  0.25500000920E-02 0. -1.
        2   -1    0    0  501    0  0.00000000000E+00  0.00000000000E+00 -0.10025339943E+04  0.10025339943E+04  0.25500000920E-02 0.  1.
    10030    2    1    2    0    0  0.00000000000E+00  0.00000000000E+00  0.67687906069E+03  0.26819470492E+04  0.25951251823E+04 0.  0.
        1    1    3    3  502    0 -0.61567950068E+03  0.81123268379E+02  0.15158656276E+04  0.16381363903E+04  0.50400001928E-02 0. -1.
       -1    1    3    3    0  502  0.61567950068E+03 -0.81123268379E+02 -0.83898656691E+03  0.10438106589E+04  0.50400001928E-02 0.  1.
</event>
<event>
 5   0  0.2864801E-07  0.2601781E+04  0.7818609E-02  0.8367596E-01
       -1   -1    0    0    0  501  0.00000000000E+00  0.00000000000E+00  0.70368870179E+03  0.70368870180E+03  0.50400001928E-02 0.  1.
        1   -1    0    0  501    0  0.00000000000E+00  0.00000000000E+00 -0.24049222396E+04  0.24049222397E+04  0.50400001928E-02 0. -1.
    10030    2    1    2    0    0  0.00000000000E+00  0.00000000000E+00 -0.17012335379E+04  0.31086109415E+04  0.26017813965E+04 0.  0.
        5    1    3    3  502    0 -0.23935627208E+03 -0.11185298889E+04 -0.11032790058E+03  0.11491713854E+04  0.46999998093E+01 0.  1.
       -5    1    3    3    0  502  0.23935627208E+03  0.11185298889E+04 -0.15909056373E+04  0.19594395561E+04  0.46999998093E+01 0. -1.
</event>
<event>
 5   0  0.2864801E-07  0.2599839E+04  0.7818609E-02  0.8368256E-01
       -1   -1    0    0    0  501  0.00000000000E+00  0.00000000000E+00  0.13344355846E+04  0.13344355846E+04  0.50400001928E-02 0. -1.
        1   -1    0    0  501    0  0.00000000000E+00  0.00000000000E+00 -0.12662961450E+04  0.12662961450E+04  0.50400001928E-02 0.  1.
    10030    2    1    2    0    0  0.00000000000E+00  0.00000000000E+00  0.68139439605E+02  0.26007317297E+04  0.25998389463E+04 0.  0.
        5    1    3    3  502    0 -0.38451328940E+03  0.93161550966E+03  0.85533314183E+03  0.13218830512E+04  0.46999998093E+01 0. -1.
       -5    1    3    3    0  502  0.38451328940E+03 -0.93161550966E+03 -0.78719370223E+03  0.12788486785E+04  0.46999998093E+01 0.  1.
</event>
<event>
 5   0  0.6780984E-07  0.2598433E+04  0.7818609E-02  0.8368734E-01
        2   -1    0    0  501    0  0.00000000000E+00  0.00000000000E+00  0.22969685565E+04  0.22969685565E+04  0.25500000920E-02 0.  1.
       -2   -1    0    0    0  501  0.00000000000E+00  0.00000000000E+00 -0.73486553246E+03  0.73486553247E+03  0.25500000920E-02 0. -1.
    10030    2    1    2    0    0  0.00000000000E+00  0.00000000000E+00  0.15621030240E+04  0.30318340889E+04  0.25984326209E+04 0.  0.
        2    1    3    3  502    0  0.95598470175E+03  0.65707706552E+03  0.98396585746E+02  0.11641902371E+04  0.25500000920E-02 0. -1.
       -2    1    3    3    0  502 -0.95598470175E+03 -0.65707706552E+03  0.14637064383E+04  0.18676438519E+04  0.25500000920E-02 0.  1.
</event>
<event>
 5   0  0.2641626E-07  0.2599877E+04  0.7818609E-02  0.8368243E-01
       -1   -1    0    0    0  501  0.00000000000E+00  0.00000000000E+00  0.20091228397E+04  0.20091228397E+04  0.50400001928E-02 0.  1.
        1   -1    0    0  501    0  0.00000000000E+00  0.00000000000E+00 -0.84108325440E+03  0.84108325442E+03  0.50400001928E-02 0. -1.
    10030    2    1    2    0    0  0.00000000000E+00  0.00000000000E+00  0.11680395853E+04  0.28502060941E+04  0.25998765944E+04 0.  0.
        3    1    3    3  502    0 -0.65812572452E+03 -0.58219011159E+03  0.16342614045E+04  0.18555013187E+04  0.10100000352E+00 0.  1.
       -3    1    3    3    0  502  0.65812572452E+03  0.58219011159E+03 -0.46622181920E+03  0.99470477540E+03  0.10100000352E+00 0. -1.
</event>
<event>
 5   0  0.2864801E-07  0.2599302E+04  0.7818609E-02  0.8368438E-01
       -1   -1    0    0    0  501  0.00000000000E+00  0.00000000000E+00  0.14003273721E+04  0.14003273721E+04  0.50400001928E-02 0. -1.
        1   -1    0    0  501    0  0.00000000000E+00  0.00000000000E+00 -0.12062130093E+04  0.12062130093E+04  0.50400001928E-02 0.  1.
    10030    2    1    2    0    0  0.00000000000E+00  0.00000000000E+00  0.19411436276E+03  0.26065403814E+04  0.25993022860E+04 0.  0.
        5    1    3    3  502    0  0.94915409908E+03  0.87238198549E+03 -0.68104738355E+02  0.12909702467E+04  0.46999998093E+01 0. -1.
       -5    1    3    3    0  502 -0.94915409908E+03 -0.87238198549E+03  0.26221910111E+03  0.13155701347E+04  0.46999998093E+01 0.  1.
</event>
<event>
 5   0  0.6599814E-07  0.2602207E+04  0.7818609E-02  0.8367452E-01
       -2   -1    0    0    0  501  0.00000000000E+00  0.00000000000E+00  0.98467906095E+03  0.98467906095E+03  0.25500000920E-02 0.  1.
        2   -1    0    0  501    0  0.00000000000E+00  0.00000000000E+00 -0.17192103897E+04  0.17192103897E+04  0.25500000920E-02 0. -1.
    10030    2    1    2    0    0  0.00000000000E+00  0.00000000000E+00 -0.73453132874E+03  0.27038894506E+04  0.26022071187E+04 0.  0.
        5    1    3    3  502    0 -0.58469712798E+03 -0.76055753598E+03  0.54601595100E+03  0.11038451004E+04  0.46999998093E+01 0.  1.
       -5    1    3    3    0  502  0.58469712798E+03  0.76055753598E+03 -0.12805472797E+04  0.16000443502E+04  0.46999998093E+01 0. -1.
</event>
<event>
 5   0  0.6526351E-07  0.2599759E+04  0.7818609E-02  0.8368283E-01
       -2   -1    0    0    0  501  0.00000000000E+00  0.00000000000E+00  0.23975697329E+04  0.23975697329E+04  0.25500000920E-02 0.  1.
        2   -1    0    0  501    0  0.00000000000E+00  0.00000000000E+00 -0.70474958470E+03  0.70474958470E+03  0.25500000920E-02 0. -1.
    10030    2    1    2    0    0  0.00000000000E+00  0.00000000000E+00  0.16928201482E+04  0.31023193176E+04  0.25997586608E+04 0.  0.
        3    1    3    3  502    0 -0.19371099075E+03  0.35051544266E+03  0.23221165523E+04  0.23563977415E+04  0.10100000352E+00 0.  1.
       -3    1    3    3    0  502  0.19371099075E+03 -0.35051544266E+03 -0.62929640403E+03  0.74592157618E+03  0.10100000352E+00 0. -1.
</event>
<event>
 5   0  0.2864801E-07  0.2599884E+04  0.7818609E-02  0.8368240E-01
       -1   -1    0    0    0  501  0.00000000000E+00  0.00000000000E+00  0.66095217055E+03  0.66095217057E+03  0.50400001928E-02 0. -1.
        1   -1    0    0  501    0  0.00000000000E+00  0.00000000000E+00 -0.25566900325E+04  0.25566900325E+04  0.50400001928E-02 0.  1.
    10030    2    1    2    0    0  0.00000000000E+00  0.00000000000E+00 -0.18957378620E+04  0.32176422031E+04  0.25998844793E+04 0.  0.
        5    1    3    3  502    0 -0.10185240016E+04  0.14261803584E+03 -0.19318244282E+04  0.21885380411E+04  0.46999998093E+01 0.  1.
       -5    1    3    3    0  502  0.10185240016E+04 -0.14261803584E+03  0.36086566197E+02  0.10291041620E+04  0.46999998093E+01 0. -1.
</event>
<event>
 5   0  0.6780984E-07  0.2600094E+04  0.7818609E-02  0.8368169E-01
        2   -1    0    0  501    0  0.00000000000E+00  0.00000000000E+00  0.11948750616E+04  0.11948750616E+04  0.25500000920E-02 0.  1.
       -2   -1    0    0    0  501  0.00000000000E+00  0.00000000000E+00 -0.14144756041E+04  0.14144756041E+04  0.25500000920E-02 0. -1.
    10030    2    1    2    0    0  0.00000000000E+00  0.00000000000E+00 -0.21960054249E+03  0.26093506657E+04  0.26000935557E+04 0.  0.
        2    1    3    3  502    0  0.25649276972E+03  0.12500607913E+04 -0.35904129915E+03  0.13256512276E+04  0.25500000920E-02 0. -1.
       -2    1    3    3    0  502 -0.25649276972E+03 -0.12500607913E+04  0.13944075666E+03  0.12836994381E+04  0.25500000920E-02 0.  1.
</event>
<event>
 5   0  0.2623263E-07  0.2582623E+04  0.7818609E-02  0.8374128E-01
       -1   -1    0    0    0  501  0.00000000000E+00  0.00000000000E+00  0.16733435986E+04  0.16733435986E+04  0.50400001928E-02 0. -1.
        1   -1    0    0  501    0  0.00000000000E+00  0.00000000000E+00 -0.99649875821E+03  0.99649875823E+03  0.50400001928E-02 0.  1.
    10030    2    1    2    0    0  0.00000000000E+00  0.00000000000E+00  0.67684484038E+03  0.26698423568E+04  0.25826225571E+04 0.  0.
        1    1    3    3  502    0 -0.69369340334E+03 -0.32682462505E+02  0.14638605493E+04  0.16202365226E+04  0.50400001928E-02 0. -1.
       -1    1    3    3    0  502  0.69369340334E+03  0.32682462505E+02 -0.78701570893E+03  0.10496058343E+04  0.50400001928E-02 0.  1.
</event>
<event>
 5   0  0.6526351E-07  0.2597924E+04  0.7818609E-02  0.8368907E-01
        2   -1    0    0  501    0  0.00000000000E+00  0.00000000000E+00  0.13414224413E+04  0.13414224413E+04  0.25500000920E-02 0.  1.
       -2   -1    0    0    0  501  0.00000000000E+00  0.00000000000E+00 -0.12578453672E+04  0.12578453673E+04  0.25500000920E-02 0. -1.
    10030    2    1    2    0    0  0.00000000000E+00  0.00000000000E+00  0.83577074057E+02  0.25992678086E+04  0.25979237890E+04 0.  0.
        3    1    3    3  502    0  0.44550236260E+03 -0.10706703966E+04  0.62732163284E+03  0.13184611843E+04  0.10100000352E+00 0.  1.
       -3    1    3    3    0  502 -0.44550236260E+03  0.10706703966E+04 -0.54374455878E+03  0.12808066242E+04  0.10100000352E+00 0. -1.
</event>
<event>
 5   0  0.2793576E-07  0.2596404E+04  0.7818609E-02  0.8369424E-01
       -1   -1    0    0    0  501  0.00000000000E+00  0.00000000000E+00  0.16217057978E+04  0.16217057978E+04  0.50400001928E-02 0. -1.
        1   -1    0    0  501    0  0.00000000000E+00  0.00000000000E+00 -0.10392319843E+04  0.10392319843E+04  0.50400001928E-02 0.  1.
    10030    2    1    2    0    0  0.00000000000E+00  0.00000000000E+00  0.58247381351E+03  0.26609377821E+04  0.25964040781E+04 0.  0.
        2    1    3    3  502    0  0.19673519830E+03  0.36319446878E+03 -0.97009010400E+03  0.10543669998E+04  0.25500000920E-02 0.  1.
       -2    1    3    3    0  502 -0.19673519830E+03 -0.36319446878E+03  0.15525639175E+04  0.16065707822E+04  0.25500000920E-02 0. -1.
</event>
<event>
 5   0  0.2641626E-07  0.2599146E+04  0.7818609E-02  0.8368491E-01
        1   -1    0    0  501    0  0.00000000000E+00  0.00000000000E+00  0.23373409620E+04  0.23373409620E+04  0.50400001928E-02 0.  1.
       -1   -1    0    0    0  501  0.00000000000E+00  0.00000000000E+00 -0.72256915124E+03  0.72256915126E+03  0.50400001928E-02 0. -1.
    10030    2    1    2    0    0  0.00000000000E+00  0.00000000000E+00  0.16147718108E+04  0.30599101133E+04  0.25991463792E+04 0.  0.
        3    1    3    3  502    0  0.26845857296E+03  0.11586784586E+04  0.19082112556E+03  0.12045822878E+04  0.10100000352E+00 0. -1.
       -3    1    3    3    0  502 -0.26845857296E+03 -0.11586784586E+04  0.14239506852E+04  0.18553278255E+04  0.10100000352E+00 0.  1.
</event>
<event>
 5   0  0.2864801E-07  0.2599834E+04  0.7818609E-02  0.8368258E-01
       -1   -1    0    0    0  501  0.00000000000E+00  0.00000000000E+00  0.18679620504E+04  0.18679620504E+04  0.50400001928E-02 0. -1.
        1   -1    0    0  501    0  0.00000000000E+00  0.00000000000E+00 -0.90461387366E+03  0.90461387367E+03  0.50400001928E-02 0.  1.
    10030    2    1    2    0    0  0.00000000000E+00  0.00000000000E+00  0.96334817675E+03  0.27725759241E+04  0.25998341380E+04 0.  0.
        5    1    3    3  502    0  0.26389028687E+03 -0.90195912811E+02  0.18356746061E+04  0.18567435837E+04  0.46999998093E+01 0. -1.
       -5    1    3    3    0  502 -0.26389028687E+03  0.90195912811E+02 -0.87232642939E+03  0.91583234033E+03  0.46999998093E+01 0.  1.
</event>
<event>
 5   0  0.2793576E-07  0.2599550E+04  0.7818609E-02  0.8368354E-01
       -1   -1    0    0    0  501  0.00000000000E+00  0.00000000000E+00  0.95268872560E+03  0.95268872561E+03  0.50400001928E-02 0. -1.
        1   -1    0    0  501    0  0.00000000000E+00  0.00000000000E+00 -0.17733132569E+04  0.17733132569E+04  0.50400001928E-02 0.  1.
    10030    2    1    2    0    0  0.00000000000E+00  0.00000000000E+00 -0.82062453128E+03  0.27260019825E+04  0.25995503817E+04 0.  0.
        2    1    3    3  502    0  0.11642394129E+04 -0.35958332766E+03  0.64089722093E+02  0.12201889495E+04  0.25500000920E-02 0. -1.
       -2    1    3    3    0  502 -0.11642394129E+04  0.35958332766E+03 -0.88471425337E+03  0.15058130330E+04  0.25500000920E-02 0.  1.
</event>
<event>
 5   0  0.6768478E-07  0.2599837E+04  0.7818609E-02  0.8368256E-01
       -2   -1    0    0    0  501  0.00000000000E+00  0.00000000000E+00  0.66545216986E+03  0.66545216986E+03  0.25500000920E-02 0.  1.
        2   -1    0    0  501    0  0.00000000000E+00  0.00000000000E+00 -0.25393089348E+04  0.25393089348E+04  0.25500000920E-02 0. -1.
    10030    2    1    2    0    0  0.00000000000E+00  0.00000000000E+00 -0.18738567649E+04  0.32047611047E+04  0.25998374108E+04 0.  0.
        4    1    3    3  502    0  0.46892018692E+02 -0.85080754593E+03  0.27317844398E+03  0.89481865022E+03  0.12699999809E+01 0.  1.
       -4    1    3    3    0  502 -0.46892018692E+02  0.85080754593E+03 -0.21470352089E+04  0.23099424544E+04  0.12699999809E+01 0. -1.
</event>
<event>
 5   0  0.2755061E-07  0.2603143E+04  0.7818609E-02  0.8367134E-01
        1   -1    0    0  501    0  0.00000000000E+00  0.00000000000E+00  0.75783623558E+03  0.75783623560E+03  0.50400001928E-02 0.  1.
       -1   -1    0    0    0  501  0.00000000000E+00  0.00000000000E+00 -0.22354284368E+04  0.22354284368E+04  0.50400001928E-02 0. -1.
    10030    2    1    2    0    0  0.00000000000E+00  0.00000000000E+00 -0.14775922012E+04  0.29932646724E+04  0.26031432319E+04 0.  0.
        4    1    3    3  502    0  0.10576997663E+04  0.54171566423E+03 -0.12828095356E+03  0.11952582451E+04  0.12699999809E+01 0.  1.
       -4    1    3    3    0  502 -0.10576997663E+04 -0.54171566423E+03 -0.13493112476E+04  0.17980064272E+04  0.12699999809E+01 0. -1.
</event>
<event>
 5   0  0.2864801E-07  0.2596442E+04  0.7818609E-02  0.8369411E-01
       -1   -1    0    0    0  501  0.00000000000E+00  0.00000000000E+00  0.77283138396E+03  0.77283138397E+03  0.50400001928E-02 0. -1.
        1   -1    0    0  501    0  0.00000000000E+00  0.00000000000E+00 -0.21807831008E+04  0.21807831008E+04  0.50400001928E-02 0.  1.
    10030    2    1    2    0    0  0.00000000000E+00  0.00000000000E+00 -0.14079517168E+04  0.29536144848E+04  0.25964418899E+04 0.  0.
        5    1    3    3  502    0 -0.32349567427E+03 -0.42141720282E+03 -0.20514536695E+04  0.21191333507E+04  0.46999998093E+01 0.  1.
       -5    1    3    3    0  502  0.32349567427E+03  0.42141720282E+03  0.64350195262E+03  0.83448113408E+03  0.46999998093E+01 0. -1.
</event>
<event>
 5   0  0.2793576E-07  0.2601711E+04  0.7818609E-02  0.8367620E-01
        1   -1    0    0  501    0  0.00000000000E+00  0.00000000000E+00  0.17778630238E+04  0.17778630238E+04  0.50400001928E-02 0. -1.
       -1   -1    0    0    0  501  0.00000000000E+00  0.00000000000E+00 -0.95183106406E+03  0.95183106407E+03  0.50400001928E-02 0.  1.
    10030    2    1    2    0    0  0.00000000000E+00  0.00000000000E+00  0.82603195971E+03  0.27296940879E+04  0.26017111705E+04 0.  0.
        2    1    3    3  502    0  0.12684713770E+04 -0.20995187547E+03  0.20548321307E+03  0.13020456118E+04  0.25500000920E-02 0.  1.
       -2    1    3    3    0  502 -0.12684713770E+04  0.20995187547E+03  0.62054874664E+03  0.14276484761E+04  0.25500000920E-02 0. -1.
</event>
<event>
 5   0  0.7160320E-07  0.2599727E+04  0.7818609E-02  0.8368294E-01
        2   -1    0    0  501    0  0.00000000000E+00  0.00000000000E+00  0.24962046223E+04  0.24962046223E+04  0.25500000920E-02 0.  1.
       -2   -1    0    0    0  501  0.00000000000E+00  0.00000000000E+00 -0.67688563944E+03  0.67688563945E+03  0.25500000920E-02 0. -1.
    10030    2    1    2    0    0  0.00000000000E+00  0.00000000000E+00  0.18193189829E+04  0.31730902618E+04  0.25997269564E+04 0.  0.
        1    1    3    3  502    0 -0.90488522959E+03  0.93298896392E+03  0.88652129600E+03  0.15732786447E+04  0.50400001928E-02 0.  1.
       -1    1    3    3    0  502  0.90488522959E+03 -0.93298896392E+03  0.93279768690E+03  0.15998116171E+04  0.50400001928E-02 0. -1.
</event>
<event>
 5   0  0.6526351E-07  0.2600930E+04  0.7818609E-02  0.8367885E-01
       -2   -1    0    0    0  501  0.00000000000E+00  0.00000000000E+00  0.88071128940E+03  0.88071128941E+03  0.25500000920E-02 0. -1.
        2   -1    0    0  501    0  0.00000000000E+00  0.00000000000E+00 -0.19202768054E+04  0.19202768054E+04  0.25500000920E-02 0.  1.
    10030    2    1    2    0    0  0.00000000000E+00  0.00000000000E+00 -0.10395655160E+04  0.28009880948E+04  0.26009301884E+04 0.  0.
        3    1    3    3  502    0 -0.12841014114E+04  0.65630105381E+02 -0.72967320175E+03  0.14783932958E+04  0.10100000352E+00 0. -1.
       -3    1    3    3    0  502  0.12841014114E+04 -0.65630105381E+02 -0.30989231424E+03  0.13225947990E+04  0.10100000352E+00 0.  1.
</event>
<event>
 5   0  0.6526351E-07  0.2600502E+04  0.7818609E-02  0.8368031E-01
        2   -1    0    0  501    0  0.00000000000E+00  0.00000000000E+00  0.13339992411E+04  0.13339992411E+04  0.25500000920E-02 0. -1.
       -2   -1    0    0    0  501  0.00000000000E+00  0.00000000000E+00 -0.12673568020E+04  0.12673568020E+04  0.25500000920E-02 0.  1.
    10030    2    1    2    0    0  0.00000000000E+00  0.00000000000E+00  0.66642439076E+02  0.26013560431E+04  0.26005022684E+04 0.  0.
        3    1    3    3  502    0 -0.46205578884E+03 -0.11932399752E+04 -0.19770007528E+03  0.12947596381E+04  0.10100000352E+00 0.  1.
       -3    1    3    3    0  502  0.46205578884E+03  0.11932399752E+04  0.26434251436E+03  0.13065964050E+04  0.10100000352E+00 0. -1.
</event>
<event>
 5   0  0.2755061E-07  0.2598864E+04  0.7818609E-02  0.8368587E-01
        1   -1    0    0  501    0  0.00000000000E+00  0.00000000000E+00  0.16171547844E+04  0.16171547844E+04  0.50400001928E-02 0. -1.
       -1   -1    0    0    0  501  0.00000000000E+00  0.00000000000E+00 -0.10441321036E+04  0.10441321036E+04  0.50400001928E-02 0.  1.
    10030    2    1    2    0    0  0.00000000000E+00  0.00000000000E+00  0.57302268083E+03  0.26612868880E+04  0.25988637724E+04 0.  0.
        4    1    3    3  502    0 -0.13081629764E+03 -0.12409263208E+04  0.65786569430E+03  0.14106026804E+04  0.12699999809E+01 0. -1.
       -4    1    3    3    0  502  0.13081629764E+03  0.12409263208E+04 -0.84843013468E+02  0.12506842076E+04  0.12699999809E+01 0.  1.
</event>
<event>
 5   0  0.7160320E-07  0.2600655E+04  0.7818609E-02  0.8367979E-01
       -2   -1    0    0    0  501  0.00000000000E+00  0.00000000000E+00  0.60971255996E+03  0.60971255997E+03  0.25500000920E-02 0. -1.
        2   -1    0    0  501    0  0.00000000000E+00  0.00000000000E+00 -0.27731941715E+04  0.27731941715E+04  0.25500000920E-02 0.  1.
    10030    2    1    2    0    0  0.00000000000E+00  0.00000000000E+00 -0.21634816115E+04  0.33829067315E+04  0.26006547772E+04 0.  0.
        1    1    3    3  502    0 -0.79386018294E+03 -0.60003889060E+03 -0.21705191876E+04  0.23877634313E+04  0.50400001928E-02 0.  1.
       -1    1    3    3    0  502  0.79386018294E+03  0.60003889060E+03  0.70375760600E+01  0.99514330013E+03  0.50400001928E-02 0. -1.
</event>
<event>
 5   0  0.2793576E-07  0.2600202E+04  0.7818609E-02  0.8368132E-01
        1   -1    0    0  501    0  0.00000000000E+00  0.00000000000E+00  0.95894562800E+03  0.95894562801E+03  0.50400001928E-02 0. -1.
       -1   -1    0    0    0  501  0.00000000000E+00  0.00000000000E+00 -0.17626266469E+04  0.17626266469E+04  0.50400001928E-02 0.  1.
    10030    2    1    2    0    0  0.00000000000E+00  0.00000000000E+00 -0.80368101893E+03  0.27215722749E+04  0.26002023897E+04 0.  0.
        2    1    3    3  502    0 -0.77882316562E+02  0.78246815932E+03  0.68183227981E+03  0.10407772737E+04  0.25500000920E-02 0. -1.
       -2    1    3    3    0  502  0.77882316562E+02 -0.78246815932E+03 -0.14855132987E+04  0.16807950013E+04  0.25500000920E-02 0.  1.
</event>
<event>
 5   0  0.2623263E-07  0.2600692E+04  0.7818609E-02  0.8367966E-01
       -1   -1    0    0    0  501  0.00000000000E+00  0.00000000000E+00  0.13071500413E+04  0.13071500413E+04  0.50400001928E-02 0.  1.
        1   -1    0    0  501    0  0.00000000000E+00  0.00000000000E+00 -0.12935772325E+04  0.12935772325E+04  0.50400001928E-02 0. -1.
    10030    2    1    2    0    0  0.00000000000E+00  0.00000000000E+00  0.13572808853E+02  0.26007272738E+04  0.26006918563E+04 0.  0.
        1    1    3    3  502    0  0.17471825728E+02  0.26492713330E+03 -0.12661833586E+04  0.12937201970E+04  0.50400001928E-02 0. -1.
       -1    1    3    3    0  502 -0.17471825728E+02 -0.26492713330E+03  0.12797561674E+04  0.13070070768E+04  0.50400001928E-02 0.  1.
</event>
<event>
 5   0  0.2864801E-07  0.2588909E+04  0.7818609E-02  0.8371978E-01
        1   -1    0    0  501    0  0.00000000000E+00  0.00000000000E+00  0.12513763689E+04  0.12513763689E+04  0.50400001928E-02 0. -1.
       -1   -1    0    0    0  501  0.00000000000E+00  0.00000000000E+00 -0.13390151038E+04  0.13390151038E+04  0.50400001928E-02 0.  1.
    10030    2    1    2    0    0  0.00000000000E+00  0.00000000000E+00 -0.87638734841E+02  0.25903914727E+04  0.25889085411E+04 0.  0.
        5    1    3    3  502    0  0.65566726464E+02 -0.12908278417E+04 -0.11495338046E+03  0.12976023591E+04  0.46999998093E+01 0. -1.
       -5    1    3    3    0  502 -0.65566726464E+02  0.12908278417E+04  0.27314645624E+02  0.12927891137E+04  0.46999998093E+01 0.  1.
</event>
<event>
 5   0  0.6780984E-07  0.2598591E+04  0.7818609E-02  0.8368680E-01
       -2   -1    0    0    0  501  0.00000000000E+00  0.00000000000E+00  0.84808250868E+03  0.84808250868E+03  0.25500000920E-02 0. -1.
        2   -1    0    0  501    0  0.00000000000E+00  0.00000000000E+00 -0.19905714600E+04  0.19905714600E+04  0.25500000920E-02 0.  1.
    10030    2    1    2    0    0  0.00000000000E+00  0.00000000000E+00 -0.11424889513E+04  0.28386539687E+04  0.25985910317E+04 0.  0.
        2    1    3    3  502    0 -0.76309728298E+03 -0.55914076837E+03  0.40165826087E+03  0.10277573744E+04  0.25500000920E-02 0. -1.
       -2    1    3    3    0  502  0.76309728298E+03  0.55914076837E+03 -0.15441472122E+04  0.18108965943E+04  0.25500000920E-02 0.  1.
</event>
<event>
 5   0  0.7160320E-07  0.2599571E+04  0.7818609E-02  0.8368347E-01
        2   -1    0    0  501    0  0.00000000000E+00  0.00000000000E+00  0.17144962819E+04  0.17144962819E+04  0.25500000920E-02 0.  1.
       -2   -1    0    0    0  501  0.00000000000E+00  0.00000000000E+00 -0.98538717078E+03  0.98538717079E+03  0.25500000920E-02 0. -1.
    10030    2    1    2    0    0  0.00000000000E+00  0.00000000000E+00  0.72910911110E+03  0.26998834527E+04  0.25995712266E+04 0.  0.
        1    1    3    3  502    0 -0.28208577909E+03 -0.46835953466E+03  0.15892561735E+04  0.16806749316E+04  0.50400001928E-02 0.  1.
       -1    1    3    3    0  502  0.28208577909E+03  0.46835953466E+03 -0.86014706242E+03  0.10192085211E+04  0.50400001928E-02 0. -1.
</event>
<event>
 5   0  0.6599814E-07  0.2586910E+04  0.7818609E-02  0.8372661E-01
        2   -1    0    0  501    0  0.00000000000E+00  0.00000000000E+00  0.31118260347E+04  0.31118260347E+04  0.25500000920E-02 0. -1.
       -2   -1    0    0    0  501  0.00000000000E+00  0.00000000000E+00 -0.53763495976E+03  0.53763495976E+03  0.25500000920E-02 0.  1.
    10030    2    1    2    0    0  0.00000000000E+00  0.00000000000E+00  0.25741910749E+04  0.36494609945E+04  0.25869104855E+04 0.  0.
        5    1    3    3  502    0  0.63413198113E+03  0.71424360923E+01 -0.30324838241E+03  0.70296234274E+03  0.46999998093E+01 0.  1.
       -5    1    3    3    0  502 -0.63413198113E+03 -0.71424360923E+01  0.28774394573E+04  0.29464986517E+04  0.46999998093E+01 0. -1.
</event>
<event>
 5   0  0.2294625E-07  0.2597036E+04  0.7818609E-02  0.8369209E-01
       -3   -1    0    0    0  501  0.00000000000E+00  0.00000000000E+00  0.13101255748E+04  0.13101255787E+04  0.10100000352E+00 0.  1.
        3   -1    0    0  501    0  0.00000000000E+00  0.00000000000E+00 -0.12870136794E+04  0.12870136833E+04  0.10100000352E+00 0. -1.
    10030    2    1    2    0    0  0.00000000000E+00  0.00000000000E+00  0.23111895434E+02  0.25971392621E+04  0.25970364238E+04 0.  0.
        5    1    3    3  502    0 -0.77795200670E+03  0.16044238547E+03 -0.10157025110E+04  0.12894280765E+04  0.46999998093E+01 0. -1.
       -5    1    3    3    0  502  0.77795200670E+03 -0.16044238547E+03  0.10388144064E+04  0.13077111855E+04  0.46999998093E+01 0.  1.
</event>
<event>
 5   0  0.2294625E-07  0.2600287E+04  0.7818609E-02  0.8368104E-01
        4   -1    0    0  501    0  0.00000000000E+00  0.00000000000E+00  0.11579818744E+04  0.11579825709E+04  0.12699999809E+01 0.  1.
       -4   -1    0    0    0  501  0.00000000000E+00  0.00000000000E+00 -0.14597569212E+04  0.14597574737E+04  0.12699999809E+01 0. -1.
    10030    2    1    2    0    0  0.00000000000E+00  0.00000000000E+00 -0.30177504677E+03  0.26177400445E+04  0.26002874383E+04 0.  0.
        5    1    3    3  502    0  0.53924751836E+03 -0.75771658651E+03 -0.10655167946E+04  0.14143091745E+04  0.46999998093E+01 0. -1.
       -5    1    3    3    0  502 -0.53924751836E+03  0.75771658651E+03  0.76374174784E+03  0.12034308700E+04  0.46999998093E+01 0.  1.
</event>
<event>
 5   0  0.6768478E-07  0.2607672E+04  0.7818609E-02  0.8365600E-01
        2   -1    0    0  501    0  0.00000000000E+00  0.00000000000E+00  0.10433273745E+04  0.10433273745E+04  0.25500000920E-02 0. -1.
       -2   -1    0    0    0  501  0.00000000000E+00  0.00000000000E+00 -0.16293906685E+04  0.16293906685E+04  0.25500000920E-02 0.  1.
    10030    2    1    2    0    0  0.00000000000E+00  0.00000000000E+00 -0.58606329400E+03  0.26727180430E+04  0.26076716727E+04 0.  0.
        4    1    3    3  502    0 -0.24786626227E+03 -0.97898231593E+03  0.55224739744E+03  0.11510094959E+04  0.12699999809E+01 0. -1.
       -4    1    3    3    0  502  0.24786626227E+03  0.97898231593E+03 -0.11383106914E+04  0.15217085470E+04  0.12699999809E+01 0.  1.
</event>
<event>
 5   0  0.7160320E-07  0.2600280E+04  0.7818609E-02  0.8368106E-01
       -2   -1    0    0    0  501  0.00000000000E+00  0.00000000000E+00  0.10784383068E+04  0.10784383068E+04  0.25500000920E-02 0.  1.
        2   -1    0    0  501    0  0.00000000000E+00  0.00000000000E+00 -0.15674180410E+04  0.15674180410E+04  0.25500000920E-02 0. -1.
    10030    2    1    2    0    0  0.00000000000E+00  0.00000000000E+00 -0.48897973422E+03  0.26458563479E+04  0.26002797221E+04 0.  0.
        1    1    3    3  502    0  0.33948323890E+03 -0.11885767977E+04 -0.65454210283E+03  0.13987097761E+04  0.50400001928E-02 0. -1.
       -1    1    3    3    0  502 -0.33948323890E+03  0.11885767977E+04  0.16556236862E+03  0.12471465717E+04  0.50400001928E-02 0.  1.
</event>
<event>
 5   0  0.2623263E-07  0.2599262E+04  0.7818609E-02  0.8368452E-01
       -1   -1    0    0    0  501  0.00000000000E+00  0.00000000000E+00  0.83988040839E+03  0.83988040840E+03  0.50400001928E-02 0. -1.
        1   -1    0    0  501    0  0.00000000000E+00  0.00000000000E+00 -0.20110498017E+04  0.20110498017E+04  0.50400001928E-02 0.  1.
    10030    2    1    2    0    0  0.00000000000E+00  0.00000000000E+00 -0.11711693933E+04  0.28509302101E+04  0.25992624560E+04 0.  0.
        1    1    3    3  502    0  0.99683210425E+03 -0.46099783507E+03 -0.13477368955E+04  0.17385591700E+04  0.50400001928E-02 0.  1.
       -1    1    3    3    0  502 -0.99683210425E+03  0.46099783507E+03  0.17656750221E+03  0.11123710401E+04  0.50400001928E-02 0. -1.
</event>
<event>
 5   0  0.2864801E-07  0.2599616E+04  0.7818609E-02  0.8368332E-01
        1   -1    0    0  501    0  0.00000000000E+00  0.00000000000E+00  0.21081173190E+04  0.21081173190E+04  0.50400001928E-02 0. -1.
       -1   -1    0    0    0  501  0.00000000000E+00  0.00000000000E+00 -0.80142646435E+03  0.80142646436E+03  0.50400001928E-02 0.  1.
    10030    2    1    2    0    0  0.00000000000E+00  0.00000000000E+00  0.13066908547E+04  0.29095437834E+04  0.25996161328E+04 0.  0.
        5    1    3    3  502    0 -0.37786219011E+03 -0.12415421963E+04  0.73461085531E+03  0.14912686071E+04  0.46999998093E+01 0. -1.
       -5    1    3    3    0  502  0.37786219011E+03  0.12415421963E+04  0.57207999936E+03  0.14182751762E+04  0.46999998093E+01 0.  1.
</event>
<event>
 5   0  0.6599814E-07  0.2593751E+04  0.7818609E-02  0.8370327E-01
        2   -1    0    0  501    0  0.00000000000E+00  0.00000000000E+00  0.86714620813E+03  0.86714620813E+03  0.25500000920E-02 0. -1.
       -2   -1    0    0    0  501  0.00000000000E+00  0.00000000000E+00 -0.19395643422E+04  0.19395643422E+04  0.25500000920E-02 0.  1.
    10030    2    1    2    0    0  0.00000000000E+00  0.00000000000E+00 -0.10724181341E+04  0.28067105504E+04  0.25937508475E+04 0.  0.
        5    1    3    3  502    0 -0.44681546925E+03 -0.11411755910E+02 -0.18535754718E+04  0.19067087904E+04  0.46999998093E+01 0.  1.
       -5    1    3    3    0  502  0.44681546925E+03  0.11411755910E+02  0.78115733768E+03  0.90000175997E+03  0.46999998093E+01 0. -1.
</event>
<event>
 5   0  0.6599814E-07  0.2600791E+04  0.7818609E-02  0.8367933E-01
        2   -1    0    0  501    0  0.00000000000E+00  0.00000000000E+00  0.19901586912E+04  0.19901586912E+04  0.25500000920E-02 0. -1.
       -2   -1    0    0    0  501  0.00000000000E+00  0.00000000000E+00 -0.84969522935E+03  0.84969522936E+03  0.25500000920E-02 0.  1.
    10030    2    1    2    0    0  0.00000000000E+00  0.00000000000E+00  0.11404634619E+04  0.28398539206E+04  0.26007909148E+04 0.  0.
        5    1    3    3  502    0 -0.26806216043E+03 -0.60818290442E+02  0.19580651183E+04  0.19772701595E+04  0.46999998093E+01 0. -1.
       -5    1    3    3    0  502  0.26806216043E+03  0.60818290442E+02 -0.81760165640E+03  0.86258376107E+03  0.46999998093E+01 0.  1.
</event>
<event>
 5   0  0.6599814E-07  0.2599616E+04  0.7818609E-02  0.8368332E-01
        2   -1    0    0  501    0  0.00000000000E+00  0.00000000000E+00  0.83731872009E+03  0.83731872009E+03  0.25500000920E-02 0. -1.
       -2   -1    0    0    0  501  0.00000000000E+00  0.00000000000E+00 -0.20177507342E+04  0.20177507342E+04  0.25500000920E-02 0.  1.
    10030    2    1    2    0    0  0.00000000000E+00  0.00000000000E+00 -0.11804320141E+04  0.28550694542E+04  0.25996157117E+04 0.  0.
        5    1    3    3  502    0  0.69806918846E+03  0.70199471751E+03  0.33479598036E+03  0.10450873714E+04  0.46999998093E+01 0. -1.
       -5    1    3    3    0  502 -0.69806918846E+03 -0.70199471751E+03 -0.15152279944E+04  0.18099820829E+04  0.46999998093E+01 0.  1.
</event>
<event>
 5   0  0.6768478E-07  0.2601746E+04  0.7818609E-02  0.8367608E-01
       -2   -1    0    0    0  501  0.00000000000E+00  0.00000000000E+00  0.11786765031E+04  0.11786765031E+04  0.25500000920E-02 0. -1.
        2   -1    0    0  501    0  0.00000000000E+00  0.00000000000E+00 -0.14357382783E+04  0.14357382783E+04  0.25500000920E-02 0.  1.
    10030    2    1    2    0    0  0.00000000000E+00  0.00000000000E+00 -0.25706177518E+03  0.26144147815E+04  0.26017463161E+04 0.  0.
        4    1    3    3  502    0 -0.10787694382E+04 -0.30474584876E+03  0.53472529316E+03  0.12419928684E+04  0.12699999809E+01 0. -1.
       -4    1    3    3    0  502  0.10787694382E+04  0.30474584876E+03 -0.79178706834E+03  0.13724219131E+04  0.12699999809E+01 0.  1.
</event>
<event>
 5   0  0.6768478E-07  0.2599649E+04  0.7818609E-02  0.8368321E-01
        2   -1    0    0  501    0  0.00000000000E+00  0.00000000000E+00  0.18833730089E+04  0.18833730089E+04  0.25500000920E-02 0.  1.
       -2   -1    0    0    0  501  0.00000000000E+00  0.00000000000E+00 -0.89708380531E+03  0.89708380531E+03  0.25500000920E-02 0. -1.
    10030    2    1    2    0    0  0.00000000000E+00  0.00000000000E+00  0.98628920356E+03  0.27804568142E+04  0.25996487652E+04 0.  0.
        4    1    3    3  502    0 -0.18396528882E+03  0.14380159699E+03  0.18607568197E+04  0.18753505490E+04  0.12699999809E+01 0.  1.
       -4    1    3    3    0  502  0.18396528882E+03 -0.14380159699E+03 -0.87446761610E+03  0.90510626519E+03  0.12699999809E+01 0. -1.
</event>
<event>
 5   0  0.2864801E-07  0.2600341E+04  0.7818609E-02  0.8368085E-01
       -1   -1    0    0    0  501  0.00000000000E+00  0.00000000000E+00  0.71621289506E+03  0.71621289508E+03  0.50400001928E-02 0.  1.
        1   -1    0    0  501    0  0.00000000000E+00  0.00000000000E+00 -0.23602519466E+04  0.23602519466E+04  0.50400001928E-02 0. -1.
    10030    2    1    2    0    0  0.00000000000E+00  0.00000000000E+00 -0.16440390516E+04  0.30764648417E+04  0.26003406545E+04 0.  0.
        5    1    3    3  502    0 -0.11582961896E+04  0.16376336713E+03 -0.14933207935E+04  0.18969706338E+04  0.46999998093E+01 0.  1.
       -5    1    3    3    0  502  0.11582961896E+04 -0.16376336713E+03 -0.15071825811E+03  0.11794942079E+04  0.46999998093E+01 0. -1.
</event>
<event>
 5   0  0.6526351E-07  0.2600702E+04  0.7818609E-02  0.8367963E-01
       -2   -1    0    0    0  501  0.00000000000E+00  0.00000000000E+00  0.86608712162E+03  0.86608712162E+03  0.25500000920E-02 0. -1.
        2   -1    0    0  501    0  0.00000000000E+00  0.00000000000E+00 -0.19523592731E+04  0.19523592731E+04  0.25500000920E-02 0.  1.
    10030    2    1    2    0    0  0.00000000000E+00  0.00000000000E+00 -0.10862721515E+04  0.28184463947E+04  0.26007023845E+04 0.  0.
        3    1    3    3  502    0 -0.73957203171E+03 -0.66728344476E+03  0.36271757502E+03  0.10600934087E+04  0.10100000352E+00 0. -1.
       -3    1    3    3    0  502  0.73957203171E+03  0.66728344476E+03 -0.14489897265E+04  0.17583529860E+04  0.10100000352E+00 0.  1.
</event>
<event>
 5   0  0.6780984E-07  0.2600785E+04  0.7818609E-02  0.8367935E-01
       -2   -1    0    0    0  501  0.00000000000E+00  0.00000000000E+00  0.78700750321E+03  0.78700750322E+03  0.25500000920E-02 0.  1.
        2   -1    0    0  501    0  0.00000000000E+00  0.00000000000E+00 -0.21486712851E+04  0.21486712851E+04  0.25500000920E-02 0. -1.
    10030    2    1    2    0    0  0.00000000000E+00  0.00000000000E+00 -0.13616637819E+04  0.29356787883E+04  0.26007848226E+04 0.  0.
        2    1    3    3  502    0  0.32714295385E+03 -0.89426509895E+03  0.31880403217E+03  0.10041755775E+04  0.25500000920E-02 0.  1.
       -2    1    3    3    0  502 -0.32714295385E+03  0.89426509895E+03 -0.16804678141E+04  0.19315032109E+04  0.25500000920E-02 0. -1.
</event>
<event>
 5   0  0.2641626E-07  0.2600075E+04  0.7818609E-02  0.8368176E-01
       -1   -1    0    0    0  501  0.00000000000E+00  0.00000000000E+00  0.11897498817E+04  0.11897498817E+04  0.50400001928E-02 0. -1.
        1   -1    0    0  501    0  0.00000000000E+00  0.00000000000E+00 -0.14205480518E+04  0.14205480518E+04  0.50400001928E-02 0.  1.
    10030    2    1    2    0    0  0.00000000000E+00  0.00000000000E+00 -0.23079817008E+03  0.26102979335E+04  0.26000745193E+04 0.  0.
        3    1    3    3  502    0 -0.39313991322E+03 -0.10831369146E+04 -0.71972301947E+03  0.13585822766E+04  0.10100000352E+00 0.  1.
       -3    1    3    3    0  502  0.39313991322E+03  0.10831369146E+04  0.48892484939E+03  0.12517156569E+04  0.10100000352E+00 0. -1.
</event>
<event>
 5   0  0.6599814E-07  0.2596401E+04  0.7818609E-02  0.8369425E-01
        2   -1    0    0  501    0  0.00000000000E+00  0.00000000000E+00  0.22240390445E+04  0.22240390445E+04  0.25500000920E-02 0. -1.
       -2   -1    0    0    0  501  0.00000000000E+00  0.00000000000E+00 -0.75777658371E+03  0.75777658372E+03  0.25500000920E-02 0.  1.
    10030    2    1    2    0    0  0.00000000000E+00  0.00000000000E+00  0.14662624607E+04  0.29818156282E+04  0.25964011317E+04 0.  0.
        5    1    3    3  502    0 -0.17781364981E+03 -0.19077678030E+03  0.21936355060E+04  0.22090885671E+04  0.46999998093E+01 0. -1.
       -5    1    3    3    0  502  0.17781364981E+03  0.19077678030E+03 -0.72737304527E+03  0.77272706109E+03  0.46999998093E+01 0.  1.
</event>
<event>
 5   0  0.6780984E-07  0.2599563E+04  0.7818609E-02  0.8368350E-01
       -2   -1    0    0    0  501  0.00000000000E+00  0.00000000000E+00  0.70242828215E+03  0.70242828215E+03  0.25500000920E-02 0.  1.
        2   -1    0    0  501    0  0.00000000000E+00  0.00000000000E+00 -0.24051306374E+04  0.24051306374E+04  0.25500000920E-02 0. -1.
    10030    2    1    2    0    0  0.00000000000E+00  0.00000000000E+00 -0.17027023553E+04  0.31075589196E+04  0.25995628725E+04 0.  0.
        2    1    3    3  502    0 -0.75738846363E+03 -0.76559420362E+02 -0.21107621066E+04  0.22438394105E+04  0.25500000920E-02 0. -1.
       -2    1    3    3    0  502  0.75738846363E+03  0.76559420362E+02  0.40805975129E+03  0.86371950905E+03  0.25500000920E-02 0.  1.
</event>
<event>
 5   0  0.2623263E-07  0.2599240E+04  0.7818609E-02  0.8368459E-01
       -1   -1    0    0    0  501  0.00000000000E+00  0.00000000000E+00  0.62600513495E+03  0.62600513497E+03  0.50400001928E-02 0. -1.
        1   -1    0    0  501    0  0.00000000000E+00  0.00000000000E+00 -0.26980804808E+04  0.26980804808E+04  0.50400001928E-02 0.  1.
    10030    2    1    2    0    0  0.00000000000E+00  0.00000000000E+00 -0.20720753458E+04  0.33240856158E+04  0.25992400701E+04 0.  0.
        1    1    3    3  502    0  0.93259904335E+03 -0.58025116209E+03 -0.14763389033E+03  0.11082545522E+04  0.50400001928E-02 0. -1.
       -1    1    3    3    0  502 -0.93259904335E+03  0.58025116209E+03 -0.19244414555E+04  0.22158310636E+04  0.50400001928E-02 0.  1.
</event>
<event>
 5   0  0.6599814E-07  0.2599613E+04  0.7818609E-02  0.8368333E-01
       -2   -1    0    0    0  501  0.00000000000E+00  0.00000000000E+00  0.19600279420E+04  0.19600279420E+04  0.25500000920E-02 0. -1.
        2   -1    0    0  501    0  0.00000000000E+00  0.00000000000E+00 -0.86197567160E+03  0.86197567161E+03  0.25500000920E-02 0.  1.
    10030    2    1    2    0    0  0.00000000000E+00  0.00000000000E+00  0.10980522704E+04  0.28220036137E+04  0.25996125878E+04 0.  0.
        5    1    3    3  502    0 -0.81323334408E+03  0.54949335384E+03  0.14740904788E+04  0.17709478387E+04  0.46999998093E+01 0. -1.
       -5    1    3    3    0  502  0.81323334408E+03 -0.54949335384E+03 -0.37603820836E+03  0.10510557749E+04  0.46999998093E+01 0.  1.
</event>
<event>
 5   0  0.6599814E-07  0.2602313E+04  0.7818609E-02  0.8367416E-01
        2   -1    0    0  501    0  0.00000000000E+00  0.00000000000E+00  0.12812449038E+04  0.12812449038E+04  0.25500000920E-02 0.  1.
       -2   -1    0    0    0  501  0.00000000000E+00  0.00000000000E+00 -0.13213775984E+04  0.13213775984E+04  0.25500000920E-02 0. -1.
    10030    2    1    2    0    0  0.00000000000E+00  0.00000000000E+00 -0.40132694684E+02  0.26026225022E+04  0.26023130587E+04 0.  0.
        5    1    3    3  502    0  0.57551559498E+03 -0.38608769599E+02 -0.11865143358E+04  0.13192979937E+04  0.46999998093E+01 0. -1.
       -5    1    3    3    0  502 -0.57551559498E+03  0.38608769599E+02  0.11463816411E+04  0.12833245085E+04  0.46999998093E+01 0.  1.
</event>
<event>
 5   0  0.6526351E-07  0.2601252E+04  0.7818609E-02  0.8367776E-01
        2   -1    0    0  501    0  0.00000000000E+00  0.00000000000E+00  0.18106301388E+04  0.18106301388E+04  0.25500000920E-02 0.  1.
       -2   -1    0    0    0  501  0.00000000000E+00  0.00000000000E+00 -0.93427615674E+03  0.93427615674E+03  0.25500000920E-02 0. -1.
    10030    2    1    2    0    0  0.00000000000E+00  0.00000000000E+00  0.87635398208E+03  0.27449062956E+04  0.26012524425E+04 0.  0.
        3    1    3    3  502    0  0.11152568081E+04 -0.23256690150E+03 -0.22396585465E+03  0.11610537567E+04  0.10100000352E+00 0. -1.
       -3    1    3    3    0  502 -0.11152568081E+04  0.23256690150E+03  0.11003198367E+04  0.15838525389E+04  0.10100000352E+00 0.  1.
</event>
<event>
 5   0  0.2793576E-07  0.2599833E+04  0.7818609E-02  0.8368258E-01
       -1   -1    0    0    0  501  0.00000000000E+00  0.00000000000E+00  0.91282374167E+03  0.91282374168E+03  0.50400001928E-02 0.  1.
        1   -1    0    0  501    0  0.00000000000E+00  0.00000000000E+00 -0.18511594600E+04  0.18511594600E+04  0.50400001928E-02 0. -1.
    10030    2    1    2    0    0  0.00000000000E+00  0.00000000000E+00 -0.93833571833E+03  0.27639832017E+04  0.25998325367E+04 0.  0.
        2    1    3    3  502    0 -0.86959842061E+03 -0.85260670946E+03 -0.95244922329E+03  0.15460592282E+04  0.25500000920E-02 0. -1.
       -2    1    3    3    0  502  0.86959842061E+03  0.85260670946E+03  0.14113504964E+02  0.12179239735E+04  0.25500000920E-02 0.  1.
</event>
<event>
 5   0  0.2864801E-07  0.2599349E+04  0.7818609E-02  0.8368423E-01
       -1   -1    0    0    0  501  0.00000000000E+00  0.00000000000E+00  0.13244548401E+04  0.13244548402E+04  0.50400001928E-02 0. -1.
        1   -1    0    0  501    0  0.00000000000E+00  0.00000000000E+00 -0.12753573131E+04  0.12753573131E+04  0.50400001928E-02 0.  1.
    10030    2    1    2    0    0  0.00000000000E+00  0.00000000000E+00  0.49097527028E+02  0.25998121533E+04  0.25993485078E+04 0.  0.
        5    1    3    3  502    0  0.11200127249E+04  0.11071926363E+03 -0.62552395003E+03  0.12876294348E+04  0.46999998093E+01 0. -1.
       -5    1    3    3    0  502 -0.11200127249E+04 -0.11071926363E+03  0.67462147706E+03  0.13121827185E+04  0.46999998093E+01 0.  1.
</event>
<event>
 5   0  0.6780984E-07  0.2599900E+04  0.7818609E-02  0.8368235E-01
       -2   -1    0    0    0  501  0.00000000000E+00  0.00000000000E+00  0.66883542815E+03  0.66883542816E+03  0.25500000920E-02 0. -1.
        2   -1    0    0  501    0  0.00000000000E+00  0.00000000000E+00 -0.25265857962E+04  0.25265857962E+04  0.25500000920E-02 0.  1.
    10030    2    1    2    0    0  0.00000000000E+00  0.00000000000E+00 -0.18577503681E+04  0.31954212244E+04  0.25999000695E+04 0.  0.
        2    1    3    3  502    0  0.67272198600E+03  0.16657321332E+02 -0.22958576293E+04  0.23924453162E+04  0.25500000920E-02 0.  1.
       -2    1    3    3    0  502 -0.67272198600E+03 -0.16657321332E+02  0.43810726124E+03  0.80297590821E+03  0.25500000920E-02 0. -1.
</event>
<event>
 5   0  0.7160320E-07  0.2598538E+04  0.7818609E-02  0.8368698E-01
        2   -1    0    0  501    0  0.00000000000E+00  0.00000000000E+00  0.11062091412E+04  0.11062091412E+04  0.25500000920E-02 0. -1.
       -2   -1    0    0    0  501  0.00000000000E+00  0.00000000000E+00 -0.15260221153E+04  0.15260221153E+04  0.25500000920E-02 0.  1.
    10030    2    1    2    0    0  0.00000000000E+00  0.00000000000E+00 -0.41981297407E+03  0.26322312565E+04  0.25985377532E+04 0.  0.
        1    1    3    3  502    0  0.56559014131E+03  0.10231250005E+04  0.36438614200E+03  0.12245220436E+04  0.50400001928E-02 0. -1.
       -1    1    3    3    0  502 -0.56559014131E+03 -0.10231250005E+04 -0.78419911607E+03  0.14077092130E+04  0.50400001928E-02 0.  1.
</event>
<event>
 5   0  0.2755061E-07  0.2598168E+04  0.7818609E-02  0.8368824E-01
        1   -1    0    0  501    0  0.00000000000E+00  0.00000000000E+00  0.20835551502E+04  0.20835551502E+04  0.50400001928E-02 0. -1.
       -1   -1    0    0    0  501  0.00000000000E+00  0.00000000000E+00 -0.80997120303E+03  0.80997120305E+03  0.50400001928E-02 0.  1.
    10030    2    1    2    0    0  0.00000000000E+00  0.00000000000E+00  0.12735839472E+04  0.28935263533E+04  0.25981683330E+04 0.  0.
        4    1    3    3  502    0 -0.10848946884E+04  0.43972678172E+03  0.12640830922E+04  0.17228649989E+04  0.12699999809E+01 0. -1.
       -4    1    3    3    0  502  0.10848946884E+04 -0.43972678172E+03  0.95008550476E+01  0.11706613544E+04  0.12699999809E+01 0.  1.
</event>
<event>
 5   0  0.2641626E-07  0.2599888E+04  0.7818609E-02  0.8368239E-01
        1   -1    0    0  501    0  0.00000000000E+00  0.00000000000E+00  0.67351316038E+03  0.67351316040E+03  0.50400001928E-02 0.  1.
       -1   -1    0    0    0  501  0.00000000000E+00  0.00000000000E+00 -0.25090147424E+04  0.25090147424E+04  0.50400001928E-02 0. -1.
    10030    2    1    2    0    0  0.00000000000E+00  0.00000000000E+00 -0.18355015820E+04  0.31825279028E+04  0.25998880350E+04 0.  0.
        3    1    3    3  502    0  0.10011358184E+04 -0.51270386429E+03 -0.12000041375E+03  0.11311667820E+04  0.10100000352E+00 0.  1.
       -3    1    3    3    0  502 -0.10011358184E+04  0.51270386429E+03 -0.17155011683E+04  0.20513611208E+04  0.10100000352E+00 0. -1.
</event>
<event>
 5   0  0.6780984E-07  0.2599391E+04  0.7818609E-02  0.8368408E-01
       -2   -1    0    0    0  501  0.00000000000E+00  0.00000000000E+00  0.13424195618E+04  0.13424195618E+04  0.25500000920E-02 0.  1.
        2   -1    0    0  501    0  0.00000000000E+00  0.00000000000E+00 -0.12583308807E+04  0.12583308807E+04  0.25500000920E-02 0. -1.
    10030    2    1    2    0    0  0.00000000000E+00  0.00000000000E+00  0.84088681111E+02  0.26007504424E+04  0.25993906897E+04 0.  0.
        2    1    3    3  502    0 -0.16565349122E+02  0.36709376359E+03 -0.12052736482E+04  0.12600463519E+04  0.25500000920E-02 0. -1.
       -2    1    3    3    0  502  0.16565349122E+02 -0.36709376359E+03  0.12893623293E+04  0.13407040905E+04  0.25500000920E-02 0.  1.
</event>
<event>
 5   0  0.2623263E-07  0.2599815E+04  0.7818609E-02  0.8368264E-01
       -1   -1    0    0    0  501  0.00000000000E+00  0.00000000000E+00  0.10570298328E+04  0.10570298328E+04  0.50400001928E-02 0. -1.
        1   -1    0    0  501    0  0.00000000000E+00  0.00000000000E+00 -0.15985916955E+04  0.15985916955E+04  0.50400001928E-02 0.  1.
    10030    2    1    2    0    0  0.00000000000E+00  0.00000000000E+00 -0.54156186262E+03  0.26556215283E+04  0.25998146954E+04 0.  0.
        1    1    3    3  502    0  0.30235726908E+03  0.24917382192E+03 -0.15368428926E+04  0.15859992397E+04  0.50400001928E-02 0.  1.
       -1    1    3    3    0  502 -0.30235726908E+03 -0.24917382192E+03  0.99528102997E+03  0.10696222886E+04  0.50400001928E-02 0. -1.
</event>
<event>
 5   0  0.2623263E-07  0.2599999E+04  0.7818609E-02  0.8368202E-01
       -1   -1    0    0    0  501  0.00000000000E+00  0.00000000000E+00  0.77055732433E+03  0.77055732434E+03  0.50400001928E-02 0. -1.
        1   -1    0    0  501    0  0.00000000000E+00  0.00000000000E+00 -0.21932158143E+04  0.21932158143E+04  0.50400001928E-02 0.  1.
    10030    2    1    2    0    0  0.00000000000E+00  0.00000000000E+00 -0.14226584900E+04  0.29637731386E+04  0.25999988535E+04 0.  0.
        1    1    3    3  502    0  0.30059645082E+03  0.10567858713E+04 -0.15034204265E+04  0.18621030000E+04  0.50400001928E-02 0.  1.
       -1    1    3    3    0  502 -0.30059645082E+03 -0.10567858713E+04  0.80761936496E+02  0.11016701386E+04  0.50400001928E-02 0. -1.
</event>
<event>
 5   0  0.2793576E-07  0.2598719E+04  0.7818609E-02  0.8368637E-01
       -1   -1    0    0    0  501  0.00000000000E+00  0.00000000000E+00  0.12199528497E+04  0.12199528497E+04  0.50400001928E-02 0.  1.
        1   -1    0    0  501    0  0.00000000000E+00  0.00000000000E+00 -0.13839345246E+04  0.13839345246E+04  0.50400001928E-02 0. -1.
    10030    2    1    2    0    0  0.00000000000E+00  0.00000000000E+00 -0.16398167486E+03  0.26038873743E+04  0.25987188128E+04 0.  0.
        2    1    3    3  502    0  0.50600278655E+03 -0.58719666421E+01  0.11171607164E+04  0.12264262580E+04  0.25500000920E-02 0.  1.
       -2    1    3    3    0  502 -0.50600278655E+03  0.58719666421E+01 -0.12811423913E+04  0.13774611163E+04  0.25500000920E-02 0. -1.
</event>
<event>
 5   0  0.6768478E-07  0.2599380E+04  0.7818609E-02  0.8368412E-01
        2   -1    0    0  501    0  0.00000000000E+00  0.00000000000E+00  0.20466086619E+04  0.20466086619E+04  0.25500000920E-02 0. -1.
       -2   -1    0    0    0  501  0.00000000000E+00  0.00000000000E+00 -0.82536251382E+03  0.82536251383E+03  0.25500000920E-02 0.  1.
    10030    2    1    2    0    0  0.00000000000E+00  0.00000000000E+00  0.12212461481E+04  0.28719711757E+04  0.25993799799E+04 0.  0.
        4    1    3    3  502    0 -0.37139734035E+03  0.10098918884E+04  0.14160215497E+04  0.17784645774E+04  0.12699999809E+01 0.  1.
       -4    1    3    3    0  502  0.37139734035E+03 -0.10098918884E+04 -0.19477540163E+03  0.10935065984E+04  0.12699999809E+01 0. -1.
</event>
<event>
 5   0  0.6599814E-07  0.2598864E+04  0.7818609E-02  0.8368587E-01
        2   -1    0    0  501    0  0.00000000000E+00  0.00000000000E+00  0.14134967210E+04  0.14134967210E+04  0.25500000920E-02 0. -1.
       -2   -1    0    0    0  501  0.00000000000E+00  0.00000000000E+00 -0.11945716460E+04  0.11945716460E+04  0.25500000920E-02 0.  1.
    10030    2    1    2    0    0  0.00000000000E+00  0.00000000000E+00  0.21892507506E+03  0.26080683670E+04  0.25988636783E+04 0.  0.
        5    1    3    3  502    0 -0.40385919564E+03 -0.80364358997E+03 -0.83170547199E+03  0.12250311636E+04  0.46999998093E+01 0.  1.
       -5    1    3    3    0  502  0.40385919564E+03  0.80364358997E+03  0.10506305470E+04  0.13830372034E+04  0.46999998093E+01 0. -1.
</event>
<event>
 5   0  0.6768478E-07  0.2601371E+04  0.7818609E-02  0.8367736E-01
       -2   -1    0    0    0  501  0.00000000000E+00  0.00000000000E+00  0.12269022672E+04  0.12269022672E+04  0.25500000920E-02 0. -1.
        2   -1    0    0  501    0  0.00000000000E+00  0.00000000000E+00 -0.13789058792E+04  0.13789058792E+04  0.25500000920E-02 0.  1.
    10030    2    1    2    0    0  0.00000000000E+00  0.00000000000E+00 -0.15200361201E+03  0.26058081464E+04  0.26013709843E+04 0.  0.
        4    1    3    3  502    0  0.49756283091E+03  0.15035735262E+03  0.11183427154E+04  0.12332348301E+04  0.12699999809E+01 0. -1.
       -4    1    3    3    0  502 -0.49756283091E+03 -0.15035735262E+03 -0.12703463274E+04  0.13725733163E+04  0.12699999809E+01 0.  1.
</event>
<event>
 5   0  0.7160320E-07  0.2604163E+04  0.7818609E-02  0.8366788E-01
        2   -1    0    0  501    0  0.00000000000E+00  0.00000000000E+00  0.12198031457E+04  0.12198031457E+04  0.25500000920E-02 0. -1.
       -2   -1    0    0    0  501  0.00000000000E+00  0.00000000000E+00 -0.13899100030E+04  0.13899100030E+04  0.25500000920E-02 0.  1.
    10030    2    1    2    0    0  0.00000000000E+00  0.00000000000E+00 -0.17010685730E+03  0.26097131488E+04  0.26041632775E+04 0.  0.
        1    1    3    3  502    0  0.29196768047E+03  0.29098465281E+03  0.11526898703E+04  0.12241777370E+04  0.50400001928E-02 0. -1.
       -1    1    3    3    0  502 -0.29196768047E+03 -0.29098465281E+03 -0.13227967276E+04  0.13855354118E+04  0.50400001928E-02 0.  1.
</event>
<event>
 5   0  0.6599814E-07  0.2600114E+04  0.7818609E-02  0.8368162E-01
        2   -1    0    0  501    0  0.00000000000E+00  0.00000000000E+00  0.23081223247E+04  0.23081223247E+04  0.25500000920E-02 0.  1.
       -2   -1    0    0    0  501  0.00000000000E+00  0.00000000000E+00 -0.73226116680E+03  0.73226116681E+03  0.25500000920E-02 0. -1.
    10030    2    1    2    0    0  0.00000000000E+00  0.00000000000E+00  0.15758611579E+04  0.30403834915E+04  0.26001141103E+04 0.  0.
        5    1    3    3  502    0 -0.12967600097E+04  0.68703621525E+02  0.86019788000E+03  0.15576486103E+04  0.46999998093E+01 0.  1.
       -5    1    3    3    0  502  0.12967600097E+04 -0.68703621525E+02  0.71566327786E+03  0.14827348811E+04  0.46999998093E+01 0. -1.
</event>
<event>
 5   0  0.6526351E-07  0.2599840E+04  0.7818609E-02  0.8368256E-01
        2   -1    0    0  501    0  0.00000000000E+00  0.00000000000E+00  0.15860529276E+04  0.15860529276E+04  0.25500000920E-02 0. -1.
       -2   -1    0    0    0  501  0.00000000000E+00  0.00000000000E+00 -0.10654070567E+04  0.10654070567E+04  0.25500000920E-02 0.  1.
    10030    2    1    2    0    0  0.00000000000E+00  0.00000000000E+00  0.52064587092E+03  0.26514599844E+04  0.25998399808E+04 0.  0.
        3    1    3    3  502    0 -0.34992345077E+03  0.18975640257E+03 -0.10017196132E+04  0.10779128478E+04  0.10100000352E+00 0.  1.
       -3    1    3    3    0  502  0.34992345077E+03 -0.18975640257E+03  0.15223654841E+04  0.15735471366E+04  0.10100000352E+00 0. -1.
</event>
<event>
 5   0  0.6768478E-07  0.2604824E+04  0.7818609E-02  0.8366564E-01
        2   -1    0    0  501    0  0.00000000000E+00  0.00000000000E+00  0.22319672128E+04  0.22319672128E+04  0.25500000920E-02 0. -1.
       -2   -1    0    0    0  501  0.00000000000E+00  0.00000000000E+00 -0.75999218454E+03  0.75999218454E+03  0.25500000920E-02 0.  1.
    10030    2    1    2    0    0  0.00000000000E+00  0.00000000000E+00  0.14719750283E+04  0.29919593973E+04  0.26048244761E+04 0.  0.
        4    1    3    3  502    0  0.41307524593E+03 -0.54373925758E+03  0.20098673425E+04  0.21226991983E+04  0.12699999809E+01 0. -1.
       -4    1    3    3    0  502 -0.41307524593E+03  0.54373925758E+03 -0.53789231424E+03  0.86926019905E+03  0.12699999809E+01 0.  1.
</event>
<event>
 5   0  0.2641626E-07  0.2599891E+04  0.7818609E-02  0.8368238E-01
       -1   -1    0    0    0  501  0.00000000000E+00  0.00000000000E+00  0.14405199830E+04  0.14405199830E+04  0.50400001928E-02 0.  1.
        1   -1    0    0  501    0  0.00000000000E+00  0.00000000000E+00 -0.11730889927E+04  0.11730889927E+04  0.50400001928E-02 0. -1.
    10030    2    1    2    0    0  0.00000000000E+00  0.00000000000E+00  0.26743099031E+03  0.26136089757E+04  0.25998908714E+04 0.  0.
        3    1    3    3  502    0 -0.11221869590E+04 -0.22196949362E+03 -0.48702466015E+03  0.12432888067E+04  0.10100000352E+00 0. -1.
       -3    1    3    3    0  502  0.11221869590E+04  0.22196949362E+03  0.75445565046E+03  0.13703201690E+04  0.10100000352E+00 0.  1.
</event>
<event>
 5   0  0.2793576E-07  0.2600201E+04  0.7818609E-02  0.8368133E-01
        1   -1    0    0  501    0  0.00000000000E+00  0.00000000000E+00  0.17336350098E+04  0.17336350098E+04  0.50400001928E-02 0. -1.
       -1   -1    0    0    0  501  0.00000000000E+00  0.00000000000E+00 -0.97498077886E+03  0.97498077887E+03  0.50400001928E-02 0.  1.
    10030    2    1    2    0    0  0.00000000000E+00  0.00000000000E+00  0.75865423093E+03  0.27086157887E+04  0.26002006170E+04 0.  0.
        2    1    3    3  502    0  0.86891212731E+03  0.29981025154E+03 -0.57844684282E+03  0.10860456813E+04  0.25500000920E-02 0.  1.
       -2    1    3    3    0  502 -0.86891212731E+03 -0.29981025154E+03  0.13371010737E+04  0.16225701074E+04  0.25500000920E-02 0. -1.
</event>
<event>
 5   0  0.2864801E-07  0.2599658E+04  0.7818609E-02  0.8368317E-01
        1   -1    0    0  501    0  0.00000000000E+00  0.00000000000E+00  0.18368244146E+04  0.18368244146E+04  0.50400001928E-02 0. -1.
       -1   -1    0    0    0  501  0.00000000000E+00  0.00000000000E+00 -0.91982423196E+03  0.91982423197E+03  0.50400001928E-02 0.  1.
    10030    2    1    2    0    0  0.00000000000E+00  0.00000000000E+00  0.91700018266E+03  0.27566486466E+04  0.25996581363E+04 0.  0.
        5    1    3    3  502    0  0.65753660913E+03 -0.10149748067E+04  0.96372312360E+03  0.15463869502E+04  0.46999998093E+01 0.  1.
       -5    1    3    3    0  502 -0.65753660913E+03  0.10149748067E+04 -0.46722940935E+02  0.12102616964E+04  0.46999998093E+01 0. -1.
</event>
<event>
 5   0  0.6768478E-07  0.2597832E+04  0.7818609E-02  0.8368938E-01
       -2   -1    0    0    0  501  0.00000000000E+00  0.00000000000E+00  0.22559435801E+04  0.22559435801E+04  0.25500000920E-02 0.  1.
        2   -1    0    0  501    0  0.00000000000E+00  0.00000000000E+00 -0.74788331794E+03  0.74788331794E+03  0.25500000920E-02 0. -1.
    10030    2    1    2    0    0  0.00000000000E+00  0.00000000000E+00  0.15080602622E+04  0.30038268980E+04  0.25978318420E+04 0.  0.
        4    1    3    3  502    0 -0.11397586722E+04  0.62243604321E+03  0.72333964415E+03  0.14865054028E+04  0.12699999809E+01 0. -1.
       -4    1    3    3    0  502  0.11397586722E+04 -0.62243604321E+03  0.78472061802E+03  0.15173214953E+04  0.12699999809E+01 0.  1.
</event>
<event>
 5   0  0.2623263E-07  0.2600543E+04  0.7818609E-02  0.8368017E-01
        1   -1    0    0  501    0  0.00000000000E+00  0.00000000000E+00  0.10212051559E+04  0.10212051559E+04  0.50400001928E-02 0. -1.
       -1   -1    0    0    0  501  0.00000000000E+00  0.00000000000E+00 -0.16555986533E+04  0.16555986533E+04  0.50400001928E-02 0.  1.
    10030    2    1    2    0    0  0.00000000000E+00  0.00000000000E+00 -0.63439349745E+03  0.26768038092E+04  0.26005429286E+04 0.  0.
        1    1    3    3  502    0 -0.11987253133E+04 -0.37950678768E+03 -0.65817857862E+03  0.14192134512E+04  0.50400001928E-02 0.  1.
       -1    1    3    3    0  502  0.11987253133E+04  0.37950678768E+03  0.23785081170E+02  0.12575903581E+04  0.50400001928E-02 0. -1.
</event>
<event>
 5   0  0.2864801E-07  0.2600679E+04  0.7818609E-02  0.8367971E-01
        1   -1    0    0  501    0  0.00000000000E+00  0.00000000000E+00  0.15198434736E+04  0.15198434736E+04  0.50400001928E-02 0.  1.
       -1   -1    0    0    0  501  0.00000000000E+00  0.00000000000E+00 -0.11125371468E+04  0.11125371468E+04  0.50400001928E-02 0. -1.
    10030    2    1    2    0    0  0.00000000000E+00  0.00000000000E+00  0.40730632679E+03  0.26323806203E+04  0.26006786204E+04 0.  0.
        5    1    3    3  502    0  0.18270011400E+03  0.65380546423E+03  0.13262348758E+04  0.14898865569E+04  0.46999998093E+01 0.  1.
       -5    1    3    3    0  502 -0.18270011400E+03 -0.65380546423E+03 -0.91892854902E+03  0.11424940634E+04  0.46999998093E+01 0. -1.
</event>
<event>
 5   0  0.2623263E-07  0.2598534E+04  0.7818609E-02  0.8368699E-01
        1   -1    0    0  501    0  0.00000000000E+00  0.00000000000E+00  0.18411521748E+04  0.18411521748E+04  0.50400001928E-02 0.  1.
       -1   -1    0    0    0  501  0.00000000000E+00  0.00000000000E+00 -0.91686862709E+03  0.91686862711E+03  0.50400001928E-02 0. -1.
    10030    2    1    2    0    0  0.00000000000E+00  0.00000000000E+00  0.92428354767E+03  0.27580208019E+04  0.25985339457E+04 0.  0.
        1    1    3    3  502    0 -0.54950957811E+03  0.78082988918E+02  0.17089926023E+04  0.17968621105E+04  0.50400001928E-02 0.  1.
       -1    1    3    3    0  502  0.54950957811E+03 -0.78082988918E+02 -0.78470905459E+03  0.96115869136E+03  0.50400001928E-02 0. -1.
</event>
<event>
 5   0  0.2793576E-07  0.2598040E+04  0.7818609E-02  0.8368867E-01
        1   -1    0    0  501    0  0.00000000000E+00  0.00000000000E+00  0.26143872174E+04  0.26143872174E+04  0.50400001928E-02 0.  1.
       -1   -1    0    0    0  501  0.00000000000E+00  0.00000000000E+00 -0.64544850996E+03  0.64544850998E+03  0.50400001928E-02 0. -1.
    10030    2    1    2    0    0  0.00000000000E+00  0.00000000000E+00  0.19689387074E+04  0.32598357274E+04  0.25980395178E+04 0.  0.
        2    1    3    3  502    0  0.22330165911E+02  0.68262876212E+03 -0.40197599886E+03  0.79250575193E+03  0.25500000920E-02 0. -1.
       -2    1    3    3    0  502 -0.22330165911E+02 -0.68262876212E+03  0.23709147063E+04  0.24673299754E+04  0.25500000920E-02 0.  1.
</event>
<event>
 5   0  0.6599814E-07  0.2599944E+04  0.7818609E-02  0.8368220E-01
       -2   -1    0    0    0  501  0.00000000000E+00  0.00000000000E+00  0.63493048391E+03  0.63493048392E+03  0.25500000920E-02 0. -1.
        2   -1    0    0  501    0  0.00000000000E+00  0.00000000000E+00 -0.26615947029E+04  0.26615947029E+04  0.25500000920E-02 0.  1.
    10030    2    1    2    0    0  0.00000000000E+00  0.00000000000E+00 -0.20266642189E+04  0.32965251868E+04  0.25999443168E+04 0.  0.
        5    1    3    3  502    0 -0.28360402657E+03  0.78244567817E+03 -0.22795109040E+04  0.24266941576E+04  0.46999998093E+01 0.  1.
       -5    1    3    3    0  502  0.28360402657E+03 -0.78244567817E+03  0.25284668504E+03  0.86983102917E+03  0.46999998093E+01 0. -1.
</event>
<event>
 5   0  0.6768478E-07  0.2598955E+04  0.7818609E-02  0.8368556E-01
       -2   -1    0    0    0  501  0.00000000000E+00  0.00000000000E+00  0.53556854588E+03  0.53556854589E+03  0.25500000920E-02 0. -1.
        2   -1    0    0  501    0  0.00000000000E+00  0.00000000000E+00 -0.31529886086E+04  0.31529886086E+04  0.25500000920E-02 0.  1.
    10030    2    1    2    0    0  0.00000000000E+00  0.00000000000E+00 -0.26174200627E+04  0.36885571545E+04  0.25989548086E+04 0.  0.
        4    1    3    3  502    0 -0.12368737715E+04  0.11573518318E+03 -0.18498665511E+04  0.22282861641E+04  0.12699999809E+01 0.  1.
       -4    1    3    3    0  502  0.12368737715E+04 -0.11573518318E+03 -0.76755351156E+03  0.14602709904E+04  0.12699999809E+01 0. -1.
</event>
<event>
 5   0  0.2641626E-07  0.2599815E+04  0.7818609E-02  0.8368264E-01
       -1   -1    0    0    0  501  0.00000000000E+00  0.00000000000E+00  0.12160234197E+04  0.12160234197E+04  0.50400001928E-02 0.  1.
        1   -1    0    0  501    0  0.00000000000E+00  0.00000000000E+00 -0.13895779125E+04  0.13895779125E+04  0.50400001928E-02 0. -1.
    10030    2    1    2    0    0  0.00000000000E+00  0.00000000000E+00 -0.17355449283E+03  0.26056013322E+04  0.25998148281E+04 0.  0.
        3    1    3    3  502    0  0.74621971392E+03 -0.86373436647E+03  0.53660261619E+03  0.12612784368E+04  0.10100000352E+00 0.  1.
       -3    1    3    3    0  502 -0.74621971392E+03  0.86373436647E+03 -0.71015710902E+03  0.13443228953E+04  0.10100000352E+00 0. -1.
</event>
<event>
 5   0  0.2793576E-07  0.2599491E+04  0.7818609E-02  0.8368374E-01
        1   -1    0    0  501    0  0.00000000000E+00  0.00000000000E+00  0.14015192920E+04  0.14015192920E+04  0.50400001928E-02 0.  1.
       -1   -1    0    0    0  501  0.00000000000E+00  0.00000000000E+00 -0.12053619472E+04  0.12053619472E+04  0.50400001928E-02 0. -1.
    10030    2    1    2    0    0  0.00000000000E+00  0.00000000000E+00  0.19615734476E+03  0.26068812392E+04  0.25994907369E+04 0.  0.
        2    1    3    3  502    0 -0.65894072346E+03 -0.93110719860E+03  0.72288654152E+03  0.13504549027E+04  0.25500000920E-02 0.  1.
       -2    1    3    3    0  502  0.65894072346E+03  0.93110719860E+03 -0.52672919675E+03  0.12564263365E+04  0.25500000920E-02 0. -1.
</event>
<event>
 5   0  0.6768478E-07  0.2598162E+04  0.7818609E-02  0.8368826E-01
        2   -1    0    0  501    0  0.00000000000E+00  0.00000000000E+00  0.17055931060E+04  0.17055931061E+04  0.25500000920E-02 0.  1.
       -2   -1    0    0    0  501  0.00000000000E+00  0.00000000000E+00 -0.98945697557E+03  0.98945697557E+03  0.25500000920E-02 0. -1.
    10030    2    1    2    0    0  0.00000000000E+00  0.00000000000E+00  0.71613613048E+03  0.26950500816E+04  0.25981616549E+04 0.  0.
        4    1    3    3  502    0 -0.91480595373E+03  0.68974272580E+03  0.99327184733E+03  0.15163131393E+04  0.12699999809E+01 0.  1.
       -4    1    3    3    0  502  0.91480595373E+03 -0.68974272580E+03 -0.27713571684E+03  0.11787369423E+04  0.12699999809E+01 0. -1.
</event>
<event>
 5   0  0.2623263E-07  0.2598185E+04  0.7818609E-02  0.8368818E-01
       -1   -1    0    0    0  501  0.00000000000E+00  0.00000000000E+00  0.24260170956E+04  0.24260170957E+04  0.50400001928E-02 0. -1.
        1   -1    0    0  501    0  0.00000000000E+00  0.00000000000E+00 -0.69564305929E+03  0.69564305931E+03  0.50400001928E-02 0.  1.
    10030    2    1    2    0    0  0.00000000000E+00  0.00000000000E+00  0.17303740364E+04  0.31216601550E+04  0.25981854856E+04 0.  0.
        1    1    3    3  502    0 -0.59655843721E+03 -0.44900423946E+03  0.21424623021E+04  0.22688392389E+04  0.50400001928E-02 0. -1.
       -1    1    3    3    0  502  0.59655843721E+03  0.44900423946E+03 -0.41208826575E+03  0.85282091605E+03  0.50400001928E-02 0.  1.
</event>
<event>
 5   0  0.7160320E-07  0.2600589E+04  0.7818609E-02  0.8368001E-01
       -2   -1    0    0    0  501  0.00000000000E+00  0.00000000000E+00  0.13345609626E+04  0.13345609626E+04  0.25500000920E-02 0.  1.
        2   -1    0    0  501    0  0.00000000000E+00  0.00000000000E+00 -0.12669078191E+04  0.12669078191E+04  0.25500000920E-02 0. -1.
    10030    2    1    2    0    0  0.00000000000E+00  0.00000000000E+00  0.67653143574E+02  0.26014687817E+04  0.26005889476E+04 0.  0.
        1    1    3    3  502    0 -0.34277285995E+03 -0.63137747075E+03  0.11179990288E+04  0.13289291074E+04  0.50400001928E-02 0.  1.
       -1    1    3    3    0  502  0.34277285995E+03  0.63137747075E+03 -0.10503458852E+04  0.12725396743E+04  0.50400001928E-02 0. -1.
</event>
<event>
 5   0  0.2623263E-07  0.2599734E+04  0.7818609E-02  0.8368291E-01
       -1   -1    0    0    0  501  0.00000000000E+00  0.00000000000E+00  0.13231398498E+04  0.13231398498E+04  0.50400001928E-02 0.  1.
        1   -1    0    0  501    0  0.00000000000E+00  0.00000000000E+00 -0.12770038116E+04  0.12770038117E+04  0.50400001928E-02 0. -1.
    10030    2    1    2    0    0  0.00000000000E+00  0.00000000000E+00  0.46136038193E+02  0.26001436615E+04  0.25997343184E+04 0.  0.
        1    1    3    3  502    0 -0.31880648457E+03 -0.61628939873E+03  0.11224246225E+04  0.13195784292E+04  0.50400001928E-02 0.  1.
       -1    1    3    3    0  502  0.31880648457E+03  0.61628939873E+03 -0.10762885843E+04  0.12805652323E+04  0.50400001928E-02 0. -1.
</event>
<event>
 5   0  0.2623263E-07  0.2602807E+04  0.7818609E-02  0.8367248E-01
        1   -1    0    0  501    0  0.00000000000E+00  0.00000000000E+00  0.13726268358E+04  0.13726268358E+04  0.50400001928E-02 0. -1.
       -1   -1    0    0    0  501  0.00000000000E+00  0.00000000000E+00 -0.12338757584E+04  0.12338757584E+04  0.50400001928E-02 0.  1.
    10030    2    1    2    0    0  0.00000000000E+00  0.00000000000E+00  0.13875107745E+03  0.26065025942E+04  0.26028069295E+04 0.  0.
        1    1    3    3  502    0  0.29945756776E+03  0.97035448780E+03 -0.74565247668E+03  0.12598651844E+04  0.50400001928E-02 0.  1.
       -1    1    3    3    0  502 -0.29945756776E+03 -0.97035448780E+03  0.88440355413E+03  0.13466374098E+04  0.50400001928E-02 0. -1.
</event>
<event>
 5   0  0.6526351E-07  0.2599930E+04  0.7818609E-02  0.8368225E-01
        2   -1    0    0  501    0  0.00000000000E+00  0.00000000000E+00  0.14560885195E+04  0.14560885196E+04  0.25500000920E-02 0. -1.
       -2   -1    0    0    0  501  0.00000000000E+00  0.00000000000E+00 -0.11605810748E+04  0.11605810748E+04  0.25500000920E-02 0.  1.
    10030    2    1    2    0    0  0.00000000000E+00  0.00000000000E+00  0.29550744479E+03  0.26166695943E+04  0.25999298290E+04 0.  0.
        3    1    3    3  502    0 -0.12228315312E+03  0.50611826649E+03 -0.10510493181E+04  0.11729507869E+04  0.10100000352E+00 0.  1.
       -3    1    3    3    0  502  0.12228315312E+03 -0.50611826649E+03  0.13465567629E+04  0.14437188075E+04  0.10100000352E+00 0. -1.
</event>
<event>
 5   0  0.2864801E-07  0.2599495E+04  0.7818609E-02  0.8368373E-01
       -1   -1    0    0    0  501  0.00000000000E+00  0.00000000000E+00  0.13130316465E+04  0.13130316465E+04  0.50400001928E-02 0. -1.
        1   -1    0    0  501    0  0.00000000000E+00  0.00000000000E+00 -0.12865976402E+04  0.12865976402E+04  0.50400001928E-02 0.  1.
    10030    2    1    2    0    0  0.00000000000E+00  0.00000000000E+00  0.26434006319E+02  0.25996292866E+04  0.25994948877E+04 0.  0.
        5    1    3    3  502    0 -0.77095467065E+03 -0.22966269191E+03  0.10341543384E+04  0.13101959173E+04  0.46999998093E+01 0. -1.
       -5    1    3    3    0  502  0.77095467065E+03  0.22966269191E+03 -0.10077203320E+04  0.12894333693E+04  0.46999998093E+01 0.  1.
</event>
<event>
 5   0  0.6526351E-07  0.2599953E+04  0.7818609E-02  0.8368217E-01
        2   -1    0    0  501    0  0.00000000000E+00  0.00000000000E+00  0.17272674392E+04  0.17272674392E+04  0.25500000920E-02 0. -1.
       -2   -1    0    0    0  501  0.00000000000E+00  0.00000000000E+00 -0.97838892750E+03  0.97838892751E+03  0.25500000920E-02 0.  1.
    10030    2    1    2    0    0  0.00000000000E+00  0.00000000000E+00  0.74887851165E+03  0.27056563667E+04  0.25999533360E+04 0.  0.
        3    1    3    3  502    0  0.12222390244E+04  0.38113879898E+03  0.60900109847E+03  0.14177508120E+04  0.10100000352E+00 0.  1.
       -3    1    3    3    0  502 -0.12222390244E+04 -0.38113879898E+03  0.13987741318E+03  0.12879055547E+04  0.10100000352E+00 0. -1.
</event>
<event>
 5   0  0.6768478E-07  0.2601039E+04  0.7818609E-02  0.8367848E-01
       -2   -1    0    0    0  501  0.00000000000E+00  0.00000000000E+00  0.68341243194E+03  0.68341243194E+03  0.25500000920E-02 0. -1.
        2   -1    0    0  501    0  0.00000000000E+00  0.00000000000E+00 -0.24748609551E+04  0.24748609551E+04  0.25500000920E-02 0.  1.
    10030    2    1    2    0    0  0.00000000000E+00  0.00000000000E+00 -0.17914485232E+04  0.31582733871E+04  0.26010388264E+04 0.  0.
        4    1    3    3  502    0  0.91118688768E+03 -0.31297458211E+03 -0.19564507861E+04  0.21808062557E+04  0.12699999809E+01 0. -1.
       -4    1    3    3    0  502 -0.91118688768E+03  0.31297458211E+03  0.16500226293E+03  0.97746713141E+03  0.12699999809E+01 0.  1.
</event>
<event>
 5   0  0.6526351E-07  0.2595611E+04  0.7818609E-02  0.8369693E-01
       -2   -1    0    0    0  501  0.00000000000E+00  0.00000000000E+00  0.72653420597E+03  0.72653420597E+03  0.25500000920E-02 0.  1.
        2   -1    0    0  501    0  0.00000000000E+00  0.00000000000E+00 -0.23182659419E+04  0.23182659419E+04  0.25500000920E-02 0. -1.
    10030    2    1    2    0    0  0.00000000000E+00  0.00000000000E+00 -0.15917317359E+04  0.30448001479E+04  0.25956113001E+04 0.  0.
        3    1    3    3  502    0 -0.38222267178E+03 -0.98378215514E+03  0.90066393926E+02  0.10592608107E+04  0.10100000352E+00 0.  1.
       -3    1    3    3    0  502  0.38222267178E+03  0.98378215514E+03 -0.16817981299E+04  0.19855393372E+04  0.10100000352E+00 0. -1.
</event>
<event>
 5   0  0.7160320E-07  0.2599401E+04  0.7818609E-02  0.8368405E-01
       -2   -1    0    0    0  501  0.00000000000E+00  0.00000000000E+00  0.18897977753E+04  0.18897977753E+04  0.25500000920E-02 0. -1.
        2   -1    0    0  501    0  0.00000000000E+00  0.00000000000E+00 -0.89386374553E+03  0.89386374553E+03  0.25500000920E-02 0.  1.
    10030    2    1    2    0    0  0.00000000000E+00  0.00000000000E+00  0.99593402973E+03  0.27836615208E+04  0.25994012523E+04 0.  0.
        1    1    3    3  502    0 -0.23278923281E+03 -0.94906598008E+03 -0.41969180550E+03  0.10635122346E+04  0.50400001928E-02 0.  1.
       -1    1    3    3    0  502  0.23278923281E+03  0.94906598008E+03  0.14156258352E+04  0.17201492862E+04  0.50400001928E-02 0. -1.
</event>
<event>
 5   0  0.2793576E-07  0.2598784E+04  0.7818609E-02  0.8368614E-01
        1   -1    0    0  501    0  0.00000000000E+00  0.00000000000E+00  0.21842499388E+04  0.21842499388E+04  0.50400001928E-02 0. -1.
       -1   -1    0    0    0  501  0.00000000000E+00  0.00000000000E+00 -0.77299737069E+03  0.77299737070E+03  0.50400001928E-02 0.  1.
    10030    2    1    2    0    0  0.00000000000E+00  0.00000000000E+00  0.14112525681E+04  0.29572473095E+04  0.25987839154E+04 0.  0.
        2    1    3    3  502    0 -0.36996777360E+03  0.17239602176E+03 -0.69815528243E+03  0.80871338570E+03  0.25500000920E-02 0.  1.
       -2    1    3    3    0  502  0.36996777360E+03 -0.17239602176E+03  0.21094078506E+04  0.21485339238E+04  0.25500000920E-02 0. -1.
</event>
<event>
 5   0  0.2755061E-07  0.2597640E+04  0.7818609E-02  0.8369003E-01
       -1   -1    0    0    0  501  0.00000000000E+00  0.00000000000E+00  0.97629119520E+03  0.97629119521E+03  0.50400001928E-02 0.  1.
        1   -1    0    0  501    0  0.00000000000E+00  0.00000000000E+00 -0.17278996783E+04  0.17278996783E+04  0.50400001928E-02 0. -1.
    10030    2    1    2    0    0  0.00000000000E+00  0.00000000000E+00 -0.75160848307E+03  0.27041908735E+04  0.25976398843E+04 0.  0.
        4    1    3    3  502    0  0.39398472642E+03  0.47311176544E+03 -0.15663365152E+04  0.16829944739E+04  0.12699999809E+01 0. -1.
       -4    1    3    3    0  502 -0.39398472642E+03 -0.47311176544E+03  0.81472803218E+03  0.10211963996E+04  0.12699999809E+01 0.  1.
</event>
<event>
 5   0  0.6599814E-07  0.2601463E+04  0.7818609E-02  0.8367705E-01
        2   -1    0    0  501    0  0.00000000000E+00  0.00000000000E+00  0.12462823627E+04  0.12462823627E+04  0.25500000920E-02 0. -1.
       -2   -1    0    0    0  501  0.00000000000E+00  0.00000000000E+00 -0.13575590579E+04  0.13575590579E+04  0.25500000920E-02 0.  1.
    10030    2    1    2    0    0  0.00000000000E+00  0.00000000000E+00 -0.11127669520E+03  0.26038414206E+04  0.26014625964E+04 0.  0.
        5    1    3    3  502    0  0.65121176487E+03 -0.10405109603E+04 -0.48631078042E+03  0.13203257501E+04  0.46999998093E+01 0.  1.
       -5    1    3    3    0  502 -0.65121176487E+03  0.10405109603E+04  0.37503408522E+03  0.12835156705E+04  0.46999998093E+01 0. -1.
</event>
<event>
 5   0  0.2623263E-07  0.2585726E+04  0.7818609E-02  0.8373066E-01
       -1   -1    0    0    0  501  0.00000000000E+00  0.00000000000E+00  0.17321471144E+04  0.17321471144E+04  0.50400001928E-02 0.  1.
        1   -1    0    0  501    0  0.00000000000E+00  0.00000000000E+00 -0.96498428050E+03  0.96498428051E+03  0.50400001928E-02 0. -1.
    10030    2    1    2    0    0  0.00000000000E+00  0.00000000000E+00  0.76716283394E+03  0.26971313949E+04  0.25857260001E+04 0.  0.
        1    1    3    3  502    0 -0.14238503900E+03  0.12140481991E+04 -0.55640519153E+02  0.12236349114E+04  0.50400001928E-02 0. -1.
       -1    1    3    3    0  502  0.14238503900E+03 -0.12140481991E+04  0.82280335309E+03  0.14734964835E+04  0.50400001928E-02 0.  1.
</event>
<event>
 5   0  0.2755061E-07  0.2599871E+04  0.7818609E-02  0.8368245E-01
       -1   -1    0    0    0  501  0.00000000000E+00  0.00000000000E+00  0.12903238035E+04  0.12903238035E+04  0.50400001928E-02 0. -1.
        1   -1    0    0  501    0  0.00000000000E+00  0.00000000000E+00 -0.13096191290E+04  0.13096191290E+04  0.50400001928E-02 0.  1.
    10030    2    1    2    0    0  0.00000000000E+00  0.00000000000E+00 -0.19295325541E+02  0.25999429325E+04  0.25998713320E+04 0.  0.
        4    1    3    3  502    0 -0.48933416018E+03  0.47893355585E+03  0.10953741042E+04  0.12917706114E+04  0.12699999809E+01 0. -1.
       -4    1    3    3    0  502  0.48933416018E+03 -0.47893355585E+03 -0.11146694298E+04  0.13081723212E+04  0.12699999809E+01 0.  1.
</event>
<event>
 5   0  0.2864801E-07  0.2600893E+04  0.7818609E-02  0.8367898E-01
       -1   -1    0    0    0  501  0.00000000000E+00  0.00000000000E+00  0.12547208766E+04  0.12547208766E+04  0.50400001928E-02 0.  1.
        1   -1    0    0  501    0  0.00000000000E+00  0.00000000000E+00 -0.13478390038E+04  0.13478390039E+04  0.50400001928E-02 0. -1.
    10030    2    1    2    0    0  0.00000000000E+00  0.00000000000E+00 -0.93118127298E+02  0.26025598804E+04  0.26008934898E+04 0.  0.
        5    1    3    3  502    0 -0.32585847988E+03  0.11993147486E+04  0.33657008491E+03  0.12875717950E+04  0.46999998093E+01 0.  1.
       -5    1    3    3    0  502  0.32585847988E+03 -0.11993147486E+04 -0.42968821221E+03  0.13149880854E+04  0.46999998093E+01 0. -1.
</event>
<event>
 5   0  0.6768478E-07  0.2600115E+04  0.7818609E-02  0.8368162E-01
       -2   -1    0    0    0  501  0.00000000000E+00  0.00000000000E+00  0.12275777924E+04  0.12275777924E+04  0.25500000920E-02 0. -1.
        2   -1    0    0  501    0  0.00000000000E+00  0.00000000000E+00 -0.13768162605E+04  0.13768162605E+04  0.25500000920E-02 0.  1.
    10030    2    1    2    0    0  0.00000000000E+00  0.00000000000E+00 -0.14923846812E+03  0.26043940530E+04  0.26001146634E+04 0.  0.
        4    1    3    3  502    0  0.17343833678E+03  0.11441006827E+04 -0.66813156690E+03  0.13362068075E+04  0.12699999809E+01 0.  1.
       -4    1    3    3    0  502 -0.17343833678E+03 -0.11441006827E+04  0.51889309878E+03  0.12681872455E+04  0.12699999809E+01 0. -1.
</event>
<event>
 5   0  0.2623263E-07  0.2600621E+04  0.7818609E-02  0.8367990E-01
        1   -1    0    0  501    0  0.00000000000E+00  0.00000000000E+00  0.90684194330E+03  0.90684194331E+03  0.50400001928E-02 0. -1.
       -1   -1    0    0    0  501  0.00000000000E+00  0.00000000000E+00 -0.18645012768E+04  0.18645012768E+04  0.50400001928E-02 0.  1.
    10030    2    1    2    0    0  0.00000000000E+00  0.00000000000E+00 -0.95765933345E+03  0.27713432201E+04  0.26006214343E+04 0.  0.
        1    1    3    3  502    0  0.98230422546E+03 -0.33261965516E+03  0.35704117759E+03  0.10968298997E+04  0.50400001928E-02 0. -1.
       -1    1    3    3    0  502 -0.98230422546E+03  0.33261965516E+03 -0.13147005110E+04  0.16745133204E+04  0.50400001928E-02 0.  1.
</event>
<event>
 5   0  0.6780984E-07  0.2600710E+04  0.7818609E-02  0.8367960E-01
        2   -1    0    0  501    0  0.00000000000E+00  0.00000000000E+00  0.12405116061E+04  0.12405116061E+04  0.25500000920E-02 0. -1.
       -2   -1    0    0    0  501  0.00000000000E+00  0.00000000000E+00 -0.13630850006E+04  0.13630850006E+04  0.25500000920E-02 0.  1.
    10030    2    1    2    0    0  0.00000000000E+00  0.00000000000E+00 -0.12257339449E+03  0.26035966067E+04  0.26007097211E+04 0.  0.
        2    1    3    3  502    0 -0.12155911860E+04  0.44670446046E+03 -0.17853184298E+03  0.13073180277E+04  0.25500000920E-02 0.  1.
       -2    1    3    3    0  502  0.12155911860E+04 -0.44670446046E+03  0.55958448487E+02  0.12962785791E+04  0.25500000920E-02 0. -1.
</event>
<event>
 5   0  0.6599814E-07  0.2599759E+04  0.7818609E-02  0.8368283E-01
       -2   -1    0    0    0  501  0.00000000000E+00  0.00000000000E+00  0.10190381146E+04  0.10190381146E+04  0.25500000920E-02 0. -1.
        2   -1    0    0  501    0  0.00000000000E+00  0.00000000000E+00 -0.16581191760E+04  0.16581191760E+04  0.25500000920E-02 0.  1.
    10030    2    1    2    0    0  0.00000000000E+00  0.00000000000E+00 -0.63908106145E+03  0.26771572906E+04  0.25997589418E+04 0.  0.
        5    1    3    3  502    0  0.10108667717E+04  0.74837293312E+03 -0.65756738462E+03  0.14192711624E+04  0.46999998093E+01 0.  1.
       -5    1    3    3    0  502 -0.10108667717E+04 -0.74837293312E+03  0.18486323172E+02  0.12578861281E+04  0.46999998093E+01 0. -1.
</event>
<event>
 5   0  0.2641626E-07  0.2601284E+04  0.7818609E-02  0.8367765E-01
        1   -1    0    0  501    0  0.00000000000E+00  0.00000000000E+00  0.21093564473E+04  0.21093564473E+04  0.50400001928E-02 0. -1.
       -1   -1    0    0    0  501  0.00000000000E+00  0.00000000000E+00 -0.80198391388E+03  0.80198391389E+03  0.50400001928E-02 0.  1.
    10030    2    1    2    0    0  0.00000000000E+00  0.00000000000E+00  0.13073725334E+04  0.29113403612E+04  0.26012842516E+04 0.  0.
        3    1    3    3  502    0  0.12584945967E+03 -0.11601191342E+04  0.10801975103E+02  0.11669752289E+04  0.10100000352E+00 0.  1.
       -3    1    3    3    0  502 -0.12584945967E+03  0.11601191342E+04  0.12965705583E+04  0.17443651323E+04  0.10100000352E+00 0. -1.
</event>
<event>
 5   0  0.2864801E-07  0.2603299E+04  0.7818609E-02  0.8367082E-01
        1   -1    0    0  501    0  0.00000000000E+00  0.00000000000E+00  0.91532952304E+03  0.91532952305E+03  0.50400001928E-02 0.  1.
       -1   -1    0    0    0  501  0.00000000000E+00  0.00000000000E+00 -0.18510173581E+04  0.18510173581E+04  0.50400001928E-02 0. -1.
    10030    2    1    2    0    0  0.00000000000E+00  0.00000000000E+00 -0.93568783504E+03  0.27663468811E+04  0.26032985503E+04 0.  0.
        5    1    3    3  502    0 -0.55651172530E+03  0.10965340163E+04 -0.14289969042E+02  0.12297635718E+04  0.46999998093E+01 0.  1.
       -5    1    3    3    0  502  0.55651172530E+03 -0.10965340163E+04 -0.92139786600E+03  0.15365833094E+04  0.46999998093E+01 0. -1.
</event>
<event>
 5   0  0.6780984E-07  0.2600365E+04  0.7818609E-02  0.8368077E-01
       -2   -1    0    0    0  501  0.00000000000E+00  0.00000000000E+00  0.11482724549E+04  0.11482724549E+04  0.25500000920E-02 0. -1.
        2   -1    0    0  501    0  0.00000000000E+00  0.00000000000E+00 -0.14721890873E+04  0.14721890873E+04  0.25500000920E-02 0.  1.
    10030    2    1    2    0    0  0.00000000000E+00  0.00000000000E+00 -0.32391663243E+03  0.26204615422E+04  0.26003647262E+04 0.  0.
        2    1    3    3  502    0  0.46882465026E+03 -0.97657427928E+03  0.56261197306E+03  0.12206662557E+04  0.25500000920E-02 0. -1.
       -2    1    3    3    0  502 -0.46882465026E+03  0.97657427928E+03 -0.88652860548E+03  0.13997952865E+04  0.25500000920E-02 0.  1.
</event>
<event>
 5   0  0.2755061E-07  0.2599802E+04  0.7818609E-02  0.8368268E-01
        1   -1    0    0  501    0  0.00000000000E+00  0.00000000000E+00  0.14500566644E+04  0.14500566644E+04  0.50400001928E-02 0.  1.
       -1   -1    0    0    0  501  0.00000000000E+00  0.00000000000E+00 -0.11652943007E+04  0.11652943007E+04  0.50400001928E-02 0. -1.
    10030    2    1    2    0    0  0.00000000000E+00  0.00000000000E+00  0.28476236369E+03  0.26153509652E+04  0.25998021208E+04 0.  0.
        4    1    3    3  502    0 -0.10091816016E+03 -0.52462970669E+03 -0.10497465143E+04  0.11778752741E+04  0.12699999809E+01 0. -1.
       -4    1    3    3    0  502  0.10091816016E+03  0.52462970669E+03  0.13345088780E+04  0.14374756911E+04  0.12699999809E+01 0.  1.
</event>
<event>
 5   0  0.6526351E-07  0.2599828E+04  0.7818609E-02  0.8368260E-01
        2   -1    0    0  501    0  0.00000000000E+00  0.00000000000E+00  0.19612424328E+04  0.19612424328E+04  0.25500000920E-02 0.  1.
       -2   -1    0    0    0  501  0.00000000000E+00  0.00000000000E+00 -0.86158458436E+03  0.86158458436E+03  0.25500000920E-02 0. -1.
    10030    2    1    2    0    0  0.00000000000E+00  0.00000000000E+00  0.10996578485E+04  0.28228270172E+04  0.25998278761E+04 0.  0.
        3    1    3    3  502    0 -0.12499283920E+04  0.13224630412E+03  0.90988422669E+03  0.15516763149E+04  0.10100000352E+00 0. -1.
       -3    1    3    3    0  502  0.12499283920E+04 -0.13224630412E+03  0.18977362176E+03  0.12711507022E+04  0.10100000352E+00 0.  1.
</event>
<event>
 5   0  0.6599814E-07  0.2599874E+04  0.7818609E-02  0.8368244E-01
       -2   -1    0    0    0  501  0.00000000000E+00  0.00000000000E+00  0.16109683025E+04  0.16109683025E+04  0.25500000920E-02 0.  1.
        2   -1    0    0  501    0  0.00000000000E+00  0.00000000000E+00 -0.10489567192E+04  0.10489567192E+04  0.25500000920E-02 0. -1.
    10030    2    1    2    0    0  0.00000000000E+00  0.00000000000E+00  0.56201158327E+03  0.26599250217E+04  0.25998738626E+04 0.  0.
        5    1    3    3  502    0  0.13870357168E+03  0.33912919896E+03 -0.99502580248E+03  0.10603517020E+04  0.46999998093E+01 0. -1.
       -5    1    3    3    0  502 -0.13870357168E+03 -0.33912919896E+03  0.15570373857E+04  0.15995733197E+04  0.46999998093E+01 0.  1.
</event>
<event>
 5   0  0.7160320E-07  0.2598025E+04  0.7818609E-02  0.8368873E-01
       -2   -1    0    0    0  501  0.00000000000E+00  0.00000000000E+00  0.11110126847E+04  0.11110126847E+04  0.25500000920E-02 0.  1.
        2   -1    0    0  501    0  0.00000000000E+00  0.00000000000E+00 -0.15188240930E+04  0.15188240930E+04  0.25500000920E-02 0. -1.
    10030    2    1    2    0    0  0.00000000000E+00  0.00000000000E+00 -0.40781140830E+03  0.26298367777E+04  0.25980245058E+04 0.  0.
        1    1    3    3  502    0 -0.64999327853E+03  0.80815371209E+02 -0.13394307268E+04  0.14910053851E+04  0.50400001928E-02 0. -1.
       -1    1    3    3    0  502  0.64999327853E+03 -0.80815371209E+02  0.93161931850E+03  0.11388313927E+04  0.50400001928E-02 0.  1.
</event>
<event>
 5   0  0.2755061E-07  0.2597965E+04  0.7818609E-02  0.8368893E-01
        1   -1    0    0  501    0  0.00000000000E+00  0.00000000000E+00  0.15018946486E+04  0.15018946486E+04  0.50400001928E-02 0.  1.
       -1   -1    0    0    0  501  0.00000000000E+00  0.00000000000E+00 -0.11234843752E+04  0.11234843752E+04  0.50400001928E-02 0. -1.
    10030    2    1    2    0    0  0.00000000000E+00  0.00000000000E+00  0.37841027339E+03  0.26253790238E+04  0.25979647195E+04 0.  0.
        4    1    3    3  502    0  0.10632236764E+04  0.26656566806E+03 -0.51518072894E+03  0.12111625150E+04  0.12699999809E+01 0. -1.
       -4    1    3    3    0  502 -0.10632236764E+04 -0.26656566806E+03  0.89359100233E+03  0.14142165088E+04  0.12699999809E+01 0.  1.
</event>
<event>
 5   0  0.7160320E-07  0.2599230E+04  0.7818609E-02  0.8368463E-01
       -2   -1    0    0    0  501  0.00000000000E+00  0.00000000000E+00  0.98385446947E+03  0.98385446947E+03  0.25500000920E-02 0. -1.
        2   -1    0    0  501    0  0.00000000000E+00  0.00000000000E+00 -0.17167170035E+04  0.17167170035E+04  0.25500000920E-02 0.  1.
    10030    2    1    2    0    0  0.00000000000E+00  0.00000000000E+00 -0.73286253402E+03  0.27005714730E+04  0.25992304220E+04 0.  0.
        1    1    3    3  502    0 -0.80865854190E+03  0.85698100194E+03 -0.93612945269E+03  0.15048865164E+04  0.50400001928E-02 0.  1.
       -1    1    3    3    0  502  0.80865854190E+03 -0.85698100194E+03  0.20326691867E+03  0.11956849566E+04  0.50400001928E-02 0. -1.
</event>
<event>
 5   0  0.2623263E-07  0.2600260E+04  0.7818609E-02  0.8368113E-01
       -1   -1    0    0    0  501  0.00000000000E+00  0.00000000000E+00  0.16560850354E+04  0.16560850354E+04  0.50400001928E-02 0. -1.
        1   -1    0    0  501    0  0.00000000000E+00  0.00000000000E+00 -0.10206833063E+04  0.10206833063E+04  0.50400001928E-02 0.  1.
    10030    2    1    2    0    0  0.00000000000E+00  0.00000000000E+00  0.63540172905E+03  0.26767683417E+04  0.26002602558E+04 0.  0.
        1    1    3    3  502    0 -0.77556019548E+03 -0.12873627706E+03  0.13836743244E+04  0.15914211517E+04  0.50400001928E-02 0. -1.
       -1    1    3    3    0  502  0.77556019548E+03  0.12873627706E+03 -0.74827259538E+03  0.10853471900E+04  0.50400001928E-02 0.  1.
</event>
<event>
 5   0  0.6768478E-07  0.2593694E+04  0.7818609E-02  0.8370347E-01
        2   -1    0    0  501    0  0.00000000000E+00  0.00000000000E+00  0.20187376302E+04  0.20187376302E+04  0.25500000920E-02 0.  1.
       -2   -1    0    0    0  501  0.00000000000E+00  0.00000000000E+00 -0.83310061145E+03  0.83310061146E+03  0.25500000920E-02 0. -1.
    10030    2    1    2    0    0  0.00000000000E+00  0.00000000000E+00  0.11856370187E+04  0.28518382416E+04  0.25936935471E+04 0.  0.
        4    1    3    3  502    0 -0.44155133810E+02 -0.80668586768E+03 -0.52260257930E+03  0.96218856455E+03  0.12699999809E+01 0. -1.
       -4    1    3    3    0  502  0.44155133810E+02  0.80668586768E+03  0.17082395980E+04  0.18896496771E+04  0.12699999809E+01 0.  1.
</event>
<event>
 5   0  0.2623263E-07  0.2600608E+04  0.7818609E-02  0.8367995E-01
        1   -1    0    0  501    0  0.00000000000E+00  0.00000000000E+00  0.89927768268E+03  0.89927768270E+03  0.50400001928E-02 0. -1.
       -1   -1    0    0    0  501  0.00000000000E+00  0.00000000000E+00 -0.18801657573E+04  0.18801657573E+04  0.50400001928E-02 0.  1.
    10030    2    1    2    0    0  0.00000000000E+00  0.00000000000E+00 -0.98088807462E+03  0.27794434400E+04  0.26006084714E+04 0.  0.
        1    1    3    3  502    0 -0.16426819979E+02 -0.66064300533E+03  0.70641807218E+03  0.96733939941E+03  0.50400001928E-02 0. -1.
       -1    1    3    3    0  502  0.16426819979E+02  0.66064300533E+03 -0.16873061468E+04  0.18121040406E+04  0.50400001928E-02 0.  1.
</event>
<event>
 5   0  0.6599814E-07  0.2601468E+04  0.7818609E-02  0.8367703E-01
       -2   -1    0    0    0  501  0.00000000000E+00  0.00000000000E+00  0.10644653233E+04  0.10644653233E+04  0.25500000920E-02 0. -1.
        2   -1    0    0  501    0  0.00000000000E+00  0.00000000000E+00 -0.15894449171E+04  0.15894449171E+04  0.25500000920E-02 0.  1.
    10030    2    1    2    0    0  0.00000000000E+00  0.00000000000E+00 -0.52497959386E+03  0.26539102404E+04  0.26014680452E+04 0.  0.
        5    1    3    3  502    0 -0.58971197413E+03 -0.11120708901E+04 -0.59685454034E+03  0.13930970208E+04  0.46999998093E+01 0.  1.
       -5    1    3    3    0  502  0.58971197413E+03  0.11120708901E+04  0.71874946474E+02  0.12608132197E+04  0.46999998093E+01 0. -1.
</event>
<event>
 5   0  0.6599814E-07  0.2602091E+04  0.7818609E-02  0.8367491E-01
        2   -1    0    0  501    0  0.00000000000E+00  0.00000000000E+00  0.18016941314E+04  0.18016941314E+04  0.25500000920E-02 0.  1.
       -2   -1    0    0    0  501  0.00000000000E+00  0.00000000000E+00 -0.93951573149E+03  0.93951573150E+03  0.25500000920E-02 0. -1.
    10030    2    1    2    0    0  0.00000000000E+00  0.00000000000E+00  0.86217839988E+03  0.27412098629E+04  0.26020914509E+04 0.  0.
        5    1    3    3  502    0  0.11268634800E+04  0.14049667186E+03 -0.23778771354E+03  0.11602265745E+04  0.46999998093E+01 0. -1.
       -5    1    3    3    0  502 -0.11268634800E+04 -0.14049667186E+03  0.10999661134E+04  0.15809832884E+04  0.46999998093E+01 0.  1.
</event>
<event>
 5   0  0.6780984E-07  0.2600062E+04  0.7818609E-02  0.8368180E-01
       -2   -1    0    0    0  501  0.00000000000E+00  0.00000000000E+00  0.13085605011E+04  0.13085605011E+04  0.25500000920E-02 0.  1.
        2   -1    0    0  501    0  0.00000000000E+00  0.00000000000E+00 -0.12915571909E+04  0.12915571909E+04  0.25500000920E-02 0. -1.
    10030    2    1    2    0    0  0.00000000000E+00  0.00000000000E+00  0.17003310257E+02  0.26001176920E+04  0.26000620954E+04 0.  0.
        2    1    3    3  502    0  0.85862097061E+03 -0.57695243591E+03  0.79590444559E+03  0.13052080183E+04  0.25500000920E-02 0.  1.
       -2    1    3    3    0  502 -0.85862097061E+03  0.57695243591E+03 -0.77890113533E+03  0.12949096737E+04  0.25500000920E-02 0. -1.
</event>
<event>
 5   0  0.6780984E-07  0.2599286E+04  0.7818609E-02  0.8368444E-01
        2   -1    0    0  501    0  0.00000000000E+00  0.00000000000E+00  0.19155478048E+04  0.19155478048E+04  0.25500000920E-02 0.  1.
       -2   -1    0    0    0  501  0.00000000000E+00  0.00000000000E+00 -0.88176968557E+03  0.88176968558E+03  0.25500000920E-02 0. -1.
    10030    2    1    2    0    0  0.00000000000E+00  0.00000000000E+00  0.10337781192E+04  0.27973174903E+04  0.25992860447E+04 0.  0.
        2    1    3    3  502    0  0.35882325218E+03  0.38924315610E+03 -0.76047158778E+03  0.92659667423E+03  0.25500000920E-02 0. -1.
       -2    1    3    3    0  502 -0.35882325218E+03 -0.38924315610E+03  0.17942497070E+04  0.18707208161E+04  0.25500000920E-02 0.  1.
</event>
<event>
 5   0  0.7160320E-07  0.2600210E+04  0.7818609E-02  0.8368130E-01
        2   -1    0    0  501    0  0.00000000000E+00  0.00000000000E+00  0.20351244433E+04  0.20351244433E+04  0.25500000920E-02 0. -1.
       -2   -1    0    0    0  501  0.00000000000E+00  0.00000000000E+00 -0.83055038118E+03  0.83055038119E+03  0.25500000920E-02 0.  1.
    10030    2    1    2    0    0  0.00000000000E+00  0.00000000000E+00  0.12045740621E+04  0.28656748245E+04  0.26002102855E+04 0.  0.
        1    1    3    3  502    0 -0.96613568961E+03 -0.40763916679E+03 -0.24473869154E+03  0.10767938002E+04  0.50400001928E-02 0.  1.
       -1    1    3    3    0  502  0.96613568961E+03  0.40763916679E+03  0.14493127537E+04  0.17888810243E+04  0.50400001928E-02 0. -1.
</event>
<event>
 5   0  0.2641626E-07  0.2598006E+04  0.7818609E-02  0.8368879E-01
       -1   -1    0    0    0  501  0.00000000000E+00  0.00000000000E+00  0.12211923672E+04  0.12211923672E+04  0.50400001928E-02 0.  1.
        1   -1    0    0  501    0  0.00000000000E+00  0.00000000000E+00 -0.13817717684E+04  0.13817717684E+04  0.50400001928E-02 0. -1.
    10030    2    1    2    0    0  0.00000000000E+00  0.00000000000E+00 -0.16057940115E+03  0.26029641356E+04  0.25980062639E+04 0.  0.
        3    1    3    3  502    0  0.35708452784E+03 -0.12488432505E+04 -0.63218928059E+02  0.13004289552E+04  0.10100000352E+00 0.  1.
       -3    1    3    3    0  502 -0.35708452784E+03  0.12488432505E+04 -0.97360473094E+02  0.13025351804E+04  0.10100000352E+00 0. -1.
</event>
<event>
 5   0  0.2641626E-07  0.2599743E+04  0.7818609E-02  0.8368289E-01
        1   -1    0    0  501    0  0.00000000000E+00  0.00000000000E+00  0.16081565133E+04  0.16081565133E+04  0.50400001928E-02 0. -1.
       -1   -1    0    0    0  501  0.00000000000E+00  0.00000000000E+00 -0.10506848065E+04  0.10506848065E+04  0.50400001928E-02 0.  1.
    10030    2    1    2    0    0  0.00000000000E+00  0.00000000000E+00  0.55747170679E+03  0.26588413198E+04  0.25997427680E+04 0.  0.
        3    1    3    3  502    0 -0.71390745009E+02 -0.11573401581E+04 -0.32209899063E+03  0.12034453249E+04  0.10100000352E+00 0.  1.
       -3    1    3    3    0  502  0.71390745009E+02  0.11573401581E+04  0.87957069742E+03  0.14553959949E+04  0.10100000352E+00 0. -1.
</event>
<event>
 5   0  0.6526351E-07  0.2602484E+04  0.7818609E-02  0.8367358E-01
        2   -1    0    0  501    0  0.00000000000E+00  0.00000000000E+00  0.14541622517E+04  0.14541622517E+04  0.25500000920E-02 0. -1.
       -2   -1    0    0    0  501  0.00000000000E+00  0.00000000000E+00 -0.11644026171E+04  0.11644026171E+04  0.25500000920E-02 0.  1.
    10030    2    1    2    0    0  0.00000000000E+00  0.00000000000E+00  0.28975963461E+03  0.26185648689E+04  0.26024836842E+04 0.  0.
        3    1    3    3  502    0 -0.76753710531E+03  0.60430194592E+03 -0.72004590717E+03  0.12135733058E+04  0.10100000352E+00 0.  1.
       -3    1    3    3    0  502  0.76753710531E+03 -0.60430194592E+03  0.10098055418E+04  0.14049915631E+04  0.10100000352E+00 0. -1.
</event>
<event>
 5   0  0.2623263E-07  0.2602478E+04  0.7818609E-02  0.8367360E-01
       -1   -1    0    0    0  501  0.00000000000E+00  0.00000000000E+00  0.72272416982E+03  0.72272416984E+03  0.50400001928E-02 0.  1.
        1   -1    0    0  501    0  0.00000000000E+00  0.00000000000E+00 -0.23428344064E+04  0.23428344064E+04  0.50400001928E-02 0. -1.
    10030    2    1    2    0    0  0.00000000000E+00  0.00000000000E+00 -0.16201102365E+04  0.30655585762E+04  0.26024780894E+04 0.  0.
        1    1    3    3  502    0  0.24775903429E+03  0.12717951041E+04 -0.95128852151E+03  0.16074194154E+04  0.50400001928E-02 0.  1.
       -1    1    3    3    0  502 -0.24775903429E+03 -0.12717951041E+04 -0.66882171504E+03  0.14581391608E+04  0.50400001928E-02 0. -1.
</event>
<event>
 5   0  0.6780984E-07  0.2601457E+04  0.7818609E-02  0.8367707E-01
        2   -1    0    0  501    0  0.00000000000E+00  0.00000000000E+00  0.17107073170E+04  0.17107073170E+04  0.25500000920E-02 0. -1.
       -2   -1    0    0    0  501  0.00000000000E+00  0.00000000000E+00 -0.98900270942E+03  0.98900270942E+03  0.25500000920E-02 0.  1.
    10030    2    1    2    0    0  0.00000000000E+00  0.00000000000E+00  0.72170460758E+03  0.26997100264E+04  0.26014566470E+04 0.  0.
        2    1    3    3  502    0 -0.21960283550E+03  0.12308817497E+04  0.73300324971E+03  0.14493409023E+04  0.25500000920E-02 0. -1.
       -2    1    3    3    0  502  0.21960283550E+03 -0.12308817497E+04 -0.11298642133E+02  0.12503691241E+04  0.25500000920E-02 0.  1.
</event>
<event>
 5   0  0.2755061E-07  0.2605839E+04  0.7818609E-02  0.8366221E-01
       -1   -1    0    0    0  501  0.00000000000E+00  0.00000000000E+00  0.90533513222E+03  0.90533513223E+03  0.50400001928E-02 0. -1.
        1   -1    0    0  501    0  0.00000000000E+00  0.00000000000E+00 -0.18751054056E+04  0.18751054056E+04  0.50400001928E-02 0.  1.
    10030    2    1    2    0    0  0.00000000000E+00  0.00000000000E+00 -0.96977027338E+03  0.27804405378E+04  0.26058386752E+04 0.  0.
        4    1    3    3  502    0 -0.11270805432E+03  0.11581952776E+04  0.14045371292E+03  0.11721127356E+04  0.12699999809E+01 0. -1.
       -4    1    3    3    0  502  0.11270805432E+03 -0.11581952776E+04 -0.11102239863E+04  0.16083278022E+04  0.12699999809E+01 0.  1.
</event>
<event>
 5   0  0.2623263E-07  0.2600618E+04  0.7818609E-02  0.8367991E-01
       -1   -1    0    0    0  501  0.00000000000E+00  0.00000000000E+00  0.14235090228E+04  0.14235090228E+04  0.50400001928E-02 0.  1.
        1   -1    0    0  501    0  0.00000000000E+00  0.00000000000E+00 -0.11877714297E+04  0.11877714297E+04  0.50400001928E-02 0. -1.
    10030    2    1    2    0    0  0.00000000000E+00  0.00000000000E+00  0.23573759311E+03  0.26112804526E+04  0.26006178860E+04 0.  0.
        1    1    3    3  502    0 -0.77235524417E+03 -0.43139659267E+03 -0.83901676016E+03  0.12192558252E+04  0.50400001928E-02 0. -1.
       -1    1    3    3    0  502  0.77235524417E+03  0.43139659267E+03  0.10747543533E+04  0.13920246274E+04  0.50400001928E-02 0.  1.
</event>
<event>
 5   0  0.2793576E-07  0.2600777E+04  0.7818609E-02  0.8367937E-01
       -1   -1    0    0    0  501  0.00000000000E+00  0.00000000000E+00  0.15082493122E+04  0.15082493122E+04  0.50400001928E-02 0. -1.
        1   -1    0    0  501    0  0.00000000000E+00  0.00000000000E+00 -0.11211738342E+04  0.11211738342E+04  0.50400001928E-02 0.  1.
    10030    2    1    2    0    0  0.00000000000E+00  0.00000000000E+00  0.38707547801E+03  0.26294231464E+04  0.26007765489E+04 0.  0.
        2    1    3    3  502    0  0.11772288438E+04  0.35504569859E+03  0.62138267759E+03  0.13776943169E+04  0.25500000920E-02 0. -1.
       -2    1    3    3    0  502 -0.11772288438E+04 -0.35504569859E+03 -0.23430719957E+03  0.12517288295E+04  0.25500000920E-02 0.  1.
</event>
<event>
 5   0  0.2641626E-07  0.2600111E+04  0.7818609E-02  0.8368163E-01
       -1   -1    0    0    0  501  0.00000000000E+00  0.00000000000E+00  0.94063337231E+03  0.94063337232E+03  0.50400001928E-02 0.  1.
        1   -1    0    0  501    0  0.00000000000E+00  0.00000000000E+00 -0.17968154351E+04  0.17968154351E+04  0.50400001928E-02 0. -1.
    10030    2    1    2    0    0  0.00000000000E+00  0.00000000000E+00 -0.85618206275E+03  0.27374488074E+04  0.26001111993E+04 0.  0.
        3    1    3    3  502    0  0.64174046608E+03  0.87154399520E+03  0.33017672042E+03  0.11315637138E+04  0.10100000352E+00 0.  1.
       -3    1    3    3    0  502 -0.64174046608E+03 -0.87154399520E+03 -0.11863587832E+04  0.16058850936E+04  0.10100000352E+00 0. -1.
</event>
<event>
 5   0  0.6768478E-07  0.2598737E+04  0.7818609E-02  0.8368630E-01
        2   -1    0    0  501    0  0.00000000000E+00  0.00000000000E+00  0.16203185229E+04  0.16203185229E+04  0.25500000920E-02 0. -1.
       -2   -1    0    0    0  501  0.00000000000E+00  0.00000000000E+00 -0.10419919253E+04  0.10419919254E+04  0.25500000920E-02 0.  1.
    10030    2    1    2    0    0  0.00000000000E+00  0.00000000000E+00  0.57832659755E+03  0.26623104483E+04  0.25987372452E+04 0.  0.
        4    1    3    3  502    0  0.11876645566E+02  0.12465500069E+04 -0.86312187593E+02  0.12495916857E+04  0.12699999809E+01 0.  1.
       -4    1    3    3    0  502 -0.11876645566E+02 -0.12465500069E+04  0.66463878515E+03  0.14127187625E+04  0.12699999809E+01 0. -1.
</event>
<event>
 5   0  0.6768478E-07  0.2599931E+04  0.7818609E-02  0.8368225E-01
       -2   -1    0    0    0  501  0.00000000000E+00  0.00000000000E+00  0.11542263943E+04  0.11542263943E+04  0.25500000920E-02 0.  1.
        2   -1    0    0  501    0  0.00000000000E+00  0.00000000000E+00 -0.14641064923E+04  0.14641064923E+04  0.25500000920E-02 0. -1.
    10030    2    1    2    0    0  0.00000000000E+00  0.00000000000E+00 -0.30988009809E+03  0.26183328866E+04  0.25999310433E+04 0.  0.
        4    1    3    3  502    0 -0.12608378899E+04  0.28844248266E+03 -0.28623725370E+03  0.13247054876E+04  0.12699999809E+01 0. -1.
       -4    1    3    3    0  502  0.12608378899E+04 -0.28844248266E+03 -0.23642844385E+02  0.12936273990E+04  0.12699999809E+01 0.  1.
</event>
<event>
 5   0  0.2793576E-07  0.2599706E+04  0.7818609E-02  0.8368301E-01
       -1   -1    0    0    0  501  0.00000000000E+00  0.00000000000E+00  0.16904261786E+04  0.16904261786E+04  0.50400001928E-02 0. -1.
        1   -1    0    0  501    0  0.00000000000E+00  0.00000000000E+00 -0.99952142389E+03  0.99952142390E+03  0.50400001928E-02 0.  1.
    10030    2    1    2    0    0  0.00000000000E+00  0.00000000000E+00  0.69090475471E+03  0.26899476025E+04  0.25997055072E+04 0.  0.
        2    1    3    3  502    0  0.30131732910E+03 -0.29028148815E+03 -0.92794265776E+03  0.10179062095E+04  0.25500000920E-02 0.  1.
       -2    1    3    3    0  502 -0.30131732910E+03  0.29028148815E+03  0.16188474125E+04  0.16720413930E+04  0.25500000920E-02 0. -1.
</event>
<event>
 5   0  0.6768478E-07  0.2600418E+04  0.7818609E-02  0.8368059E-01
       -2   -1    0    0    0  501  0.00000000000E+00  0.00000000000E+00  0.69157906194E+03  0.69157906195E+03  0.25500000920E-02 0. -1.
        2   -1    0    0  501    0  0.00000000000E+00  0.00000000000E+00 -0.24444687196E+04  0.24444687196E+04  0.25500000920E-02 0.  1.
    10030    2    1    2    0    0  0.00000000000E+00  0.00000000000E+00 -0.17528896577E+04  0.31360477816E+04  0.26004179541E+04 0.  0.
        4    1    3    3  502    0  0.34590863097E+03  0.24262145947E+03 -0.23593686149E+04  0.23969021314E+04  0.12699999809E+01 0.  1.
       -4    1    3    3    0  502 -0.34590863097E+03 -0.24262145947E+03  0.60647895728E+03  0.73914565012E+03  0.12699999809E+01 0. -1.
</event>
<event>
 5   0  0.7160320E-07  0.2600387E+04  0.7818609E-02  0.8368070E-01
        2   -1    0    0  501    0  0.00000000000E+00  0.00000000000E+00  0.10424649360E+04  0.10424649360E+04  0.25500000920E-02 0.  1.
       -2   -1    0    0    0  501  0.00000000000E+00  0.00000000000E+00 -0.16216399148E+04  0.16216399148E+04  0.25500000920E-02 0. -1.
    10030    2    1    2    0    0  0.00000000000E+00  0.00000000000E+00 -0.57917497879E+03  0.26641048508E+04  0.26003867020E+04 0.  0.
        1    1    3    3  502    0 -0.12986242012E+04 -0.57350635961E+02 -0.31836196498E+03  0.13383079811E+04  0.50400001928E-02 0.  1.
       -1    1    3    3    0  502  0.12986242012E+04  0.57350635961E+02 -0.26081301381E+03  0.13257968697E+04  0.50400001928E-02 0. -1.
</event>
<event>
 5   0  0.6768478E-07  0.2601305E+04  0.7818609E-02  0.8367758E-01
        2   -1    0    0  501    0  0.00000000000E+00  0.00000000000E+00  0.21855671965E+04  0.21855671965E+04  0.25500000920E-02 0. -1.
       -2   -1    0    0    0  501  0.00000000000E+00  0.00000000000E+00 -0.77403116873E+03  0.77403116873E+03  0.25500000920E-02 0.  1.
    10030    2    1    2    0    0  0.00000000000E+00  0.00000000000E+00  0.14115360277E+04  0.29595983652E+04  0.26013051581E+04 0.  0.
        4    1    3    3  502    0  0.62061883472E+03 -0.11331120362E+04  0.87675005793E+03  0.15613465027E+04  0.12699999809E+01 0.  1.
       -4    1    3    3    0  502 -0.62061883472E+03  0.11331120362E+04  0.53478596981E+03  0.13982518625E+04  0.12699999809E+01 0. -1.
</event>
<event>
 5   0  0.2641626E-07  0.2599685E+04  0.7818609E-02  0.8368308E-01
        1   -1    0    0  501    0  0.00000000000E+00  0.00000000000E+00  0.86894974770E+03  0.86894974772E+03  0.50400001928E-02 0. -1.
       -1   -1    0    0    0  501  0.00000000000E+00  0.00000000000E+00 -0.19444046763E+04  0.19444046764E+04  0.50400001928E-02 0.  1.
    10030    2    1    2    0    0  0.00000000000E+00  0.00000000000E+00 -0.10754549286E+04  0.28133544241E+04  0.25996845601E+04 0.  0.
        3    1    3    3  502    0 -0.16215065513E+03 -0.78495547702E+02 -0.19308291278E+04  0.19392151807E+04  0.10100000352E+00 0.  1.
       -3    1    3    3    0  502  0.16215065513E+03  0.78495547702E+02  0.85537419919E+03  0.87413924337E+03  0.10100000352E+00 0. -1.
</event>
<event>
 5   0  0.6599814E-07  0.2599992E+04  0.7818609E-02  0.8368204E-01
        2   -1    0    0  501    0  0.00000000000E+00  0.00000000000E+00  0.16571387419E+04  0.16571387419E+04  0.25500000920E-02 0. -1.
       -2   -1    0    0    0  501  0.00000000000E+00  0.00000000000E+00 -0.10198239001E+04  0.10198239001E+04  0.25500000920E-02 0.  1.
    10030    2    1    2    0    0  0.00000000000E+00  0.00000000000E+00  0.63731484183E+03  0.26769626421E+04  0.25999920729E+04 0.  0.
        5    1    3    3  502    0 -0.12270140427E+04  0.82149958068E+02  0.75262736276E+03  0.14417982222E+04  0.46999998093E+01 0. -1.
       -5    1    3    3    0  502  0.12270140427E+04 -0.82149958068E+02 -0.11531252092E+03  0.12351644198E+04  0.46999998093E+01 0.  1.
</event>
<event>
 5   0  0.2864801E-07  0.2592780E+04  0.7818609E-02  0.8370658E-01
        1   -1    0    0  501    0  0.00000000000E+00  0.00000000000E+00  0.15377438528E+04  0.15377438528E+04  0.50400001928E-02 0. -1.
       -1   -1    0    0    0  501  0.00000000000E+00  0.00000000000E+00 -0.10929177081E+04  0.10929177081E+04  0.50400001928E-02 0.  1.
    10030    2    1    2    0    0  0.00000000000E+00  0.00000000000E+00  0.44482614474E+03  0.26306615609E+04  0.25927803511E+04 0.  0.
        5    1    3    3  502    0  0.92013184283E+02 -0.47105299167E+03  0.14442701175E+04  0.15219381095E+04  0.46999998093E+01 0. -1.
       -5    1    3    3    0  502 -0.92013184283E+02  0.47105299167E+03 -0.99944397272E+03  0.11087234514E+04  0.46999998093E+01 0.  1.
</event>
<event>
 5   0  0.2641626E-07  0.2600672E+04  0.7818609E-02  0.8367973E-01
        1   -1    0    0  501    0  0.00000000000E+00  0.00000000000E+00  0.10206837160E+04  0.10206837160E+04  0.50400001928E-02 0.  1.
       -1   -1    0    0    0  501  0.00000000000E+00  0.00000000000E+00 -0.16566087001E+04  0.16566087001E+04  0.50400001928E-02 0. -1.
    10030    2    1    2    0    0  0.00000000000E+00  0.00000000000E+00 -0.63592498404E+03  0.26772924161E+04  0.26006718547E+04 0.  0.
        3    1    3    3  502    0 -0.81394271378E+03 -0.94863851488E+03  0.51004069326E+02  0.12510072736E+04  0.10100000352E+00 0.  1.
       -3    1    3    3    0  502  0.81394271378E+03  0.94863851488E+03 -0.68692905337E+03  0.14262851425E+04  0.10100000352E+00 0. -1.
</event>
<event>
 5   0  0.6526351E-07  0.2603127E+04  0.7818609E-02  0.8367140E-01
       -2   -1    0    0    0  501  0.00000000000E+00  0.00000000000E+00  0.10933163306E+04  0.10933163306E+04  0.25500000920E-02 0.  1.
        2   -1    0    0  501    0  0.00000000000E+00  0.00000000000E+00 -0.15494764089E+04  0.15494764089E+04  0.25500000920E-02 0. -1.
    10030    2    1    2    0    0  0.00000000000E+00  0.00000000000E+00 -0.45616007829E+03  0.26427927394E+04  0.26031272436E+04 0.  0.
        3    1    3    3  502    0 -0.15551888571E+02  0.73653956436E+03 -0.13174330749E+04  0.15094244957E+04  0.10100000352E+00 0. -1.
       -3    1    3    3    0  502  0.15551888571E+02 -0.73653956436E+03  0.86127299660E+03  0.11333682438E+04  0.10100000352E+00 0.  1.
</event>
<event>
 5   0  0.2623263E-07  0.2596685E+04  0.7818609E-02  0.8369328E-01
       -1   -1    0    0    0  501  0.00000000000E+00  0.00000000000E+00  0.64864697638E+03  0.64864697640E+03  0.50400001928E-02 0. -1.
        1   -1    0    0  501    0  0.00000000000E+00  0.00000000000E+00 -0.25987842196E+04  0.25987842196E+04  0.50400001928E-02 0.  1.
    10030    2    1    2    0    0  0.00000000000E+00  0.00000000000E+00 -0.19501372433E+04  0.32474311960E+04  0.25966852149E+04 0.  0.
        1    1    3    3  502    0  0.42020448094E+03  0.11411155423E+04 -0.40610861676E+03  0.12820455122E+04  0.50400001928E-02 0.  1.
       -1    1    3    3    0  502 -0.42020448094E+03 -0.11411155423E+04 -0.15440286265E+04  0.19653856838E+04  0.50400001928E-02 0. -1.
</event>
<event>
 5   0  0.2755061E-07  0.2600123E+04  0.7818609E-02  0.8368159E-01
       -1   -1    0    0    0  501  0.00000000000E+00  0.00000000000E+00  0.14933796563E+04  0.14933796563E+04  0.50400001928E-02 0. -1.
        1   -1    0    0  501    0  0.00000000000E+00  0.00000000000E+00 -0.11317687518E+04  0.11317687518E+04  0.50400001928E-02 0.  1.
    10030    2    1    2    0    0  0.00000000000E+00  0.00000000000E+00  0.36161090449E+03  0.26251484082E+04  0.26001234045E+04 0.  0.
        4    1    3    3  502    0 -0.43319242452E+03  0.40898803631E+03 -0.98583828502E+03  0.11518704908E+04  0.12699999809E+01 0.  1.
       -4    1    3    3    0  502  0.43319242452E+03 -0.40898803631E+03  0.13474491895E+04  0.14732779173E+04  0.12699999809E+01 0. -1.
</event>
<event>
 5   0  0.2864801E-07  0.2598863E+04  0.7818609E-02  0.8368588E-01
        1   -1    0    0  501    0  0.00000000000E+00  0.00000000000E+00  0.12835872793E+04  0.12835872794E+04  0.50400001928E-02 0. -1.
       -1   -1    0    0    0  501  0.00000000000E+00  0.00000000000E+00 -0.13154711363E+04  0.13154711363E+04  0.50400001928E-02 0.  1.
    10030    2    1    2    0    0  0.00000000000E+00  0.00000000000E+00 -0.31883856939E+02  0.25990584156E+04  0.25988628412E+04 0.  0.
        5    1    3    3  502    0  0.10482944764E+04  0.64453108128E+03 -0.43329611391E+03  0.13046490855E+04  0.46999998093E+01 0.  1.
       -5    1    3    3    0  502 -0.10482944764E+04 -0.64453108128E+03  0.40141225697E+03  0.12944093302E+04  0.46999998093E+01 0. -1.
</event>
<event>
 5   0  0.2623263E-07  0.2598513E+04  0.7818609E-02  0.8368706E-01
       -1   -1    0    0    0  501  0.00000000000E+00  0.00000000000E+00  0.18075008830E+04  0.18075008830E+04  0.50400001928E-02 0. -1.
        1   -1    0    0  501    0  0.00000000000E+00  0.00000000000E+00 -0.93392371276E+03  0.93392371278E+03  0.50400001928E-02 0.  1.
    10030    2    1    2    0    0  0.00000000000E+00  0.00000000000E+00  0.87357717028E+03  0.27414245958E+04  0.25985133716E+04 0.  0.
        1    1    3    3  502    0 -0.11809549883E+04  0.23496292065E+03 -0.78116762940E+02  0.12066335348E+04  0.50400001928E-02 0.  1.
       -1    1    3    3    0  502  0.11809549883E+04 -0.23496292065E+03  0.95169393322E+03  0.15347910611E+04  0.50400001928E-02 0. -1.
</event>
<event>
 5   0  0.2623263E-07  0.2601839E+04  0.7818609E-02  0.8367577E-01
       -1   -1    0    0    0  501  0.00000000000E+00  0.00000000000E+00  0.15131868871E+04  0.15131868871E+04  0.50400001928E-02 0. -1.
        1   -1    0    0  501    0  0.00000000000E+00  0.00000000000E+00 -0.11184288191E+04  0.11184288191E+04  0.50400001928E-02 0.  1.
    10030    2    1    2    0    0  0.00000000000E+00  0.00000000000E+00  0.39475806807E+03  0.26316157062E+04  0.26018392135E+04 0.  0.
        1    1    3    3  502    0  0.63374615702E+03 -0.12603904410E+02  0.13464256257E+04  0.14881717023E+04  0.50400001928E-02 0. -1.
       -1    1    3    3    0  502 -0.63374615702E+03  0.12603904410E+02 -0.95166755760E+03  0.11434440039E+04  0.50400001928E-02 0.  1.
</event>
<event>
 5   0  0.6768478E-07  0.2600375E+04  0.7818609E-02  0.8368074E-01
        2   -1    0    0  501    0  0.00000000000E+00  0.00000000000E+00  0.19824598022E+04  0.19824598022E+04  0.25500000920E-02 0. -1.
       -2   -1    0    0    0  501  0.00000000000E+00  0.00000000000E+00 -0.85272194215E+03  0.85272194216E+03  0.25500000920E-02 0.  1.
    10030    2    1    2    0    0  0.00000000000E+00  0.00000000000E+00  0.11297378600E+04  0.28351817444E+04  0.26003745675E+04 0.  0.
        4    1    3    3  502    0 -0.21754525550E+03 -0.24024941307E+03 -0.80797083533E+03  0.87055396289E+03  0.12699999809E+01 0.  1.
       -4    1    3    3    0  502  0.21754525550E+03  0.24024941307E+03  0.19377086954E+04  0.19646277815E+04  0.12699999809E+01 0. -1.
</event>
<event>
 5   0  0.2755061E-07  0.2589043E+04  0.7818609E-02  0.8371932E-01
       -1   -1    0    0    0  501  0.00000000000E+00  0.00000000000E+00  0.13402090328E+04  0.13402090328E+04  0.50400001928E-02 0. -1.
        1   -1    0    0  501    0  0.00000000000E+00  0.00000000000E+00 -0.12503918173E+04  0.12503918173E+04  0.50400001928E-02 0.  1.
    10030    2    1    2    0    0  0.00000000000E+00  0.00000000000E+00  0.89817215445E+02  0.25906008501E+04  0.25890433817E+04 0.  0.
        4    1    3    3  502    0  0.12055649333E+04  0.40631068788E+03 -0.19462966253E+03  0.12869955330E+04  0.12699999809E+01 0.  1.
       -4    1    3    3    0  502 -0.12055649333E+04 -0.40631068788E+03  0.28444687797E+03  0.13036053171E+04  0.12699999809E+01 0. -1.
</event>
<event>
 5   0  0.2623263E-07  0.2605706E+04  0.7818609E-02  0.8366265E-01
        1   -1    0    0  501    0  0.00000000000E+00  0.00000000000E+00  0.17374559898E+04  0.17374559898E+04  0.50400001928E-02 0.  1.
       -1   -1    0    0    0  501  0.00000000000E+00  0.00000000000E+00 -0.97696084646E+03  0.97696084648E+03  0.50400001928E-02 0. -1.
    10030    2    1    2    0    0  0.00000000000E+00  0.00000000000E+00  0.76049514330E+03  0.27144168362E+04  0.26057064105E+04 0.  0.
        1    1    3    3  502    0 -0.85079467704E+03 -0.28443437987E+03 -0.60398335945E+03  0.10814575338E+04  0.50400001928E-02 0. -1.
       -1    1    3    3    0  502  0.85079467704E+03  0.28443437987E+03  0.13644785027E+04  0.16329593024E+04  0.50400001928E-02 0.  1.
</event>
<event>
 5   0  0.2641626E-07  0.2599029E+04  0.7818609E-02  0.8368531E-01
        1   -1    0    0  501    0  0.00000000000E+00  0.00000000000E+00  0.15718868281E+04  0.15718868281E+04  0.50400001928E-02 0.  1.
       -1   -1    0    0    0  501  0.00000000000E+00  0.00000000000E+00 -0.10743378709E+04  0.10743378709E+04  0.50400001928E-02 0. -1.
    10030    2    1    2    0    0  0.00000000000E+00  0.00000000000E+00  0.49754895722E+03  0.26462246991E+04  0.25990287019E+04 0.  0.
        3    1    3    3  502    0  0.85483654200E+03  0.31020703414E+02  0.12448181035E+04  0.15103906510E+04  0.10100000352E+00 0.  1.
       -3    1    3    3    0  502 -0.85483654200E+03 -0.31020703414E+02 -0.74726914628E+03  0.11358340481E+04  0.10100000352E+00 0. -1.
</event>
<event>
 5   0  0.2641626E-07  0.2599973E+04  0.7818609E-02  0.8368210E-01
       -1   -1    0    0    0  501  0.00000000000E+00  0.00000000000E+00  0.76688605978E+03  0.76688605979E+03  0.50400001928E-02 0. -1.
        1   -1    0    0  501    0  0.00000000000E+00  0.00000000000E+00 -0.22036712882E+04  0.22036712882E+04  0.50400001928E-02 0.  1.
    10030    2    1    2    0    0  0.00000000000E+00  0.00000000000E+00 -0.14367852284E+04  0.29705573480E+04  0.25999729162E+04 0.  0.
        3    1    3    3  502    0 -0.98954805361E+03 -0.28784743896E+03 -0.16237405043E+04  0.19231730900E+04  0.10100000352E+00 0.  1.
       -3    1    3    3    0  502  0.98954805361E+03  0.28784743896E+03  0.18695527591E+03  0.10473842580E+04  0.10100000352E+00 0. -1.
</event>
<event>
 5   0  0.6768478E-07  0.2601521E+04  0.7818609E-02  0.8367685E-01
       -2   -1    0    0    0  501  0.00000000000E+00  0.00000000000E+00  0.96325373936E+03  0.96325373937E+03  0.25500000920E-02 0. -1.
        2   -1    0    0  501    0  0.00000000000E+00  0.00000000000E+00 -0.17565233183E+04  0.17565233183E+04  0.25500000920E-02 0.  1.
    10030    2    1    2    0    0  0.00000000000E+00  0.00000000000E+00 -0.79326957892E+03  0.27197770577E+04  0.26015208280E+04 0.  0.
        4    1    3    3  502    0  0.28404775846E+03 -0.80566983722E+02  0.92775770281E+03  0.97360676661E+03  0.12699999809E+01 0. -1.
       -4    1    3    3    0  502 -0.28404775846E+03  0.80566983722E+02 -0.17210272817E+04  0.17461702910E+04  0.12699999809E+01 0.  1.
</event>
<event>
 5   0  0.2793576E-07  0.2603345E+04  0.7818609E-02  0.8367066E-01
       -1   -1    0    0    0  501  0.00000000000E+00  0.00000000000E+00  0.80973797953E+03  0.80973797954E+03  0.50400001928E-02 0.  1.
        1   -1    0    0  501    0  0.00000000000E+00  0.00000000000E+00 -0.20924683579E+04  0.20924683579E+04  0.50400001928E-02 0. -1.
    10030    2    1    2    0    0  0.00000000000E+00  0.00000000000E+00 -0.12827303783E+04  0.29022063374E+04  0.26033448487E+04 0.  0.
        2    1    3    3  502    0  0.84125689234E+03 -0.72533260598E+03  0.11516420978E+03  0.11167288585E+04  0.25500000920E-02 0.  1.
       -2    1    3    3    0  502 -0.84125689234E+03  0.72533260598E+03 -0.13978945881E+04  0.17854774789E+04  0.25500000920E-02 0. -1.
</event>
<event>
 5   0  0.2755061E-07  0.2598468E+04  0.7818609E-02  0.8368722E-01
       -1   -1    0    0    0  501  0.00000000000E+00  0.00000000000E+00  0.11587489211E+04  0.11587489212E+04  0.50400001928E-02 0.  1.
        1   -1    0    0  501    0  0.00000000000E+00  0.00000000000E+00 -0.14567515274E+04  0.14567515275E+04  0.50400001928E-02 0. -1.
    10030    2    1    2    0    0  0.00000000000E+00  0.00000000000E+00 -0.29800260630E+03  0.26155004486E+04  0.25984682109E+04 0.  0.
        4    1    3    3  502    0  0.81017096861E+03 -0.76516257287E+03 -0.82132929196E+03  0.13843533436E+04  0.12699999809E+01 0. -1.
       -4    1    3    3    0  502 -0.81017096861E+03  0.76516257287E+03  0.52332668565E+03  0.12311471050E+04  0.12699999809E+01 0.  1.
</event>
<event>
 5   0  0.6768478E-07  0.2600052E+04  0.7818609E-02  0.8368184E-01
        2   -1    0    0  501    0  0.00000000000E+00  0.00000000000E+00  0.13845013120E+04  0.13845013120E+04  0.25500000920E-02 0. -1.
       -2   -1    0    0    0  501  0.00000000000E+00  0.00000000000E+00 -0.12207048848E+04  0.12207048848E+04  0.25500000920E-02 0.  1.
    10030    2    1    2    0    0  0.00000000000E+00  0.00000000000E+00  0.16379642720E+03  0.26052061967E+04  0.26000519337E+04 0.  0.
        4    1    3    3  502    0  0.22228895587E+02 -0.92373863059E+03 -0.83439738991E+03  0.12449930918E+04  0.12699999809E+01 0.  1.
       -4    1    3    3    0  502 -0.22228895587E+02  0.92373863059E+03  0.99819381710E+03  0.13602131049E+04  0.12699999809E+01 0. -1.
</event>
<event>
 5   0  0.6599814E-07  0.2597649E+04  0.7818609E-02  0.8369000E-01
       -2   -1    0    0    0  501  0.00000000000E+00  0.00000000000E+00  0.14028176237E+04  0.14028176237E+04  0.25500000920E-02 0. -1.
        2   -1    0    0  501    0  0.00000000000E+00  0.00000000000E+00 -0.12025405185E+04  0.12025405185E+04  0.25500000920E-02 0.  1.
    10030    2    1    2    0    0  0.00000000000E+00  0.00000000000E+00  0.20027710525E+03  0.26053581422E+04  0.25976489621E+04 0.  0.
        5    1    3    3  502    0 -0.41385814434E+03 -0.11105614972E+04 -0.43275506239E+03  0.12617148793E+04  0.46999998093E+01 0.  1.
       -5    1    3    3    0  502  0.41385814434E+03  0.11105614972E+04  0.63303216763E+03  0.13436432629E+04  0.46999998093E+01 0. -1.
</event>
<event>
 5   0  0.2755061E-07  0.2601126E+04  0.7818609E-02  0.8367819E-01
        1   -1    0    0  501    0  0.00000000000E+00  0.00000000000E+00  0.18778157432E+04  0.18778157432E+04  0.50400001928E-02 0. -1.
       -1   -1    0    0    0  501  0.00000000000E+00  0.00000000000E+00 -0.90076174849E+03  0.90076174850E+03  0.50400001928E-02 0.  1.
    10030    2    1    2    0    0  0.00000000000E+00  0.00000000000E+00  0.97705399474E+03  0.27785774917E+04  0.26011263654E+04 0.  0.
        4    1    3    3  502    0 -0.19746580331E+03 -0.40786975688E+03  0.17907546261E+04  0.18472017285E+04  0.12699999809E+01 0. -1.
       -4    1    3    3    0  502  0.19746580331E+03  0.40786975688E+03 -0.81370063133E+03  0.93137576325E+03  0.12699999809E+01 0.  1.
</event>
<event>
 5   0  0.6768478E-07  0.2597633E+04  0.7818609E-02  0.8369006E-01
        2   -1    0    0  501    0  0.00000000000E+00  0.00000000000E+00  0.17236174668E+04  0.17236174668E+04  0.25500000920E-02 0. -1.
       -2   -1    0    0    0  501  0.00000000000E+00  0.00000000000E+00 -0.97871166698E+03  0.97871166698E+03  0.25500000920E-02 0.  1.
    10030    2    1    2    0    0  0.00000000000E+00  0.00000000000E+00  0.74490579978E+03  0.27023291337E+04  0.25976331720E+04 0.  0.
        4    1    3    3  502    0  0.30898443662E+03  0.11244285457E+04  0.96744149784E+03  0.15151751057E+04  0.12699999809E+01 0. -1.
       -4    1    3    3    0  502 -0.30898443662E+03 -0.11244285457E+04 -0.22253569806E+03  0.11871540280E+04  0.12699999809E+01 0.  1.
</event>
<event>
 5   0  0.6526351E-07  0.2605490E+04  0.7818609E-02  0.8366339E-01
       -2   -1    0    0    0  501  0.00000000000E+00  0.00000000000E+00  0.10355150966E+04  0.10355150966E+04  0.25500000920E-02 0.  1.
        2   -1    0    0  501    0  0.00000000000E+00  0.00000000000E+00 -0.16389378633E+04  0.16389378633E+04  0.25500000920E-02 0. -1.
    10030    2    1    2    0    0  0.00000000000E+00  0.00000000000E+00 -0.60342276668E+03  0.26744529599E+04  0.26054902800E+04 0.  0.
        3    1    3    3  502    0 -0.56663968470E+03  0.97492791818E+03 -0.97134317833E+03  0.14883119828E+04  0.10100000352E+00 0. -1.
       -3    1    3    3    0  502  0.56663968470E+03 -0.97492791818E+03  0.36792041165E+03  0.11861409770E+04  0.10100000352E+00 0.  1.
</event>
<event>
 5   0  0.2864801E-07  0.2600148E+04  0.7818609E-02  0.8368151E-01
        1   -1    0    0  501    0  0.00000000000E+00  0.00000000000E+00  0.19721888895E+04  0.19721888896E+04  0.50400001928E-02 0.  1.
       -1   -1    0    0    0  501  0.00000000000E+00  0.00000000000E+00 -0.85701326605E+03  0.85701326607E+03  0.50400001928E-02 0. -1.
    10030    2    1    2    0    0  0.00000000000E+00  0.00000000000E+00  0.11151756235E+04  0.28292021556E+04  0.26001477201E+04 0.  0.
        5    1    3    3  502    0 -0.93331951459E+03  0.90501140999E+03  0.55079415390E+03  0.14119232481E+04  0.46999998093E+01 0. -1.
       -5    1    3    3    0  502  0.93331951459E+03 -0.90501140999E+03  0.56438146959E+03  0.14172789075E+04  0.46999998093E+01 0.  1.
</event>
<event>
 5   0  0.6780984E-07  0.2599177E+04  0.7818609E-02  0.8368481E-01
        2   -1    0    0  501    0  0.00000000000E+00  0.00000000000E+00  0.10108788063E+04  0.10108788063E+04  0.25500000920E-02 0. -1.
       -2   -1    0    0    0  501  0.00000000000E+00  0.00000000000E+00 -0.16707549774E+04  0.16707549774E+04  0.25500000920E-02 0.  1.
    10030    2    1    2    0    0  0.00000000000E+00  0.00000000000E+00 -0.65987617111E+03  0.26816337838E+04  0.25991774062E+04 0.  0.
        2    1    3    3  502    0 -0.10189976445E+04  0.72651726344E+03  0.31529580490E+02  0.12518696609E+04  0.25500000920E-02 0.  1.
       -2    1    3    3    0  502  0.10189976445E+04 -0.72651726344E+03 -0.69140575160E+03  0.14297641228E+04  0.25500000920E-02 0. -1.
</event>
<event>
 5   0  0.2294625E-07  0.2599436E+04  0.7818609E-02  0.8368393E-01
       -3   -1    0    0    0  501  0.00000000000E+00  0.00000000000E+00  0.88806356577E+03  0.88806357152E+03  0.10100000352E+00 0. -1.
        3   -1    0    0  501    0  0.00000000000E+00  0.00000000000E+00 -0.19021911016E+04  0.19021911043E+04  0.10100000352E+00 0.  1.
    10030    2    1    2    0    0  0.00000000000E+00  0.00000000000E+00 -0.10141275358E+04  0.27902546758E+04  0.25994358036E+04 0.  0.
        2    1    3    3  502    0  0.95988192011E+03 -0.87626776806E+03 -0.51451002603E+03  0.13978337057E+04  0.25500000920E-02 0.  1.
       -2    1    3    3    0  502 -0.95988192011E+03  0.87626776806E+03 -0.49961750981E+03  0.13924209701E+04  0.25500000920E-02 0. -1.
</event>
<event>
 5   0  0.6780984E-07  0.2598526E+04  0.7818609E-02  0.8368702E-01
       -2   -1    0    0    0  501  0.00000000000E+00  0.00000000000E+00  0.82373934464E+03  0.82373934464E+03  0.25500000920E-02 0. -1.
        2   -1    0    0  501    0  0.00000000000E+00  0.00000000000E+00 -0.20492939331E+04  0.20492939331E+04  0.25500000920E-02 0.  1.
    10030    2    1    2    0    0  0.00000000000E+00  0.00000000000E+00 -0.12255545884E+04  0.28730332777E+04  0.25985257678E+04 0.  0.
        2    1    3    3  502    0 -0.10714088725E+04  0.73464084430E+03 -0.63674442210E+03  0.14467403365E+04  0.25500000920E-02 0. -1.
       -2    1    3    3    0  502  0.10714088725E+04 -0.73464084430E+03 -0.58881016634E+03  0.14262929412E+04  0.25500000920E-02 0.  1.
</event>
<event>
 5   0  0.2641626E-07  0.2600259E+04  0.7818609E-02  0.8368113E-01
        1   -1    0    0  501    0  0.00000000000E+00  0.00000000000E+00  0.34575986144E+04  0.34575986144E+04  0.50400001928E-02 0.  1.
       -1   -1    0    0    0  501  0.00000000000E+00  0.00000000000E+00 -0.48887575253E+03  0.48887575255E+03  0.50400001928E-02 0. -1.
    10030    2    1    2    0    0  0.00000000000E+00  0.00000000000E+00  0.29687228619E+04  0.39464743670E+04  0.26002585445E+04 0.  0.
        3    1    3    3  502    0 -0.98767693384E+03 -0.69328735325E+03  0.22188253554E+04  0.25257353479E+04  0.10100000352E+00 0.  1.
       -3    1    3    3    0  502  0.98767693384E+03  0.69328735325E+03  0.74989750652E+03  0.14207390191E+04  0.10100000352E+00 0. -1.
</event>
<event>
 5   0  0.6526351E-07  0.2599895E+04  0.7818609E-02  0.8368237E-01
       -2   -1    0    0    0  501  0.00000000000E+00  0.00000000000E+00  0.96867488250E+03  0.96867488251E+03  0.25500000920E-02 0. -1.
        2   -1    0    0  501    0  0.00000000000E+00  0.00000000000E+00 -0.17445110257E+04  0.17445110257E+04  0.25500000920E-02 0.  1.
    10030    2    1    2    0    0  0.00000000000E+00  0.00000000000E+00 -0.77583614319E+03  0.27131859082E+04  0.25998953924E+04 0.  0.
        3    1    3    3  502    0 -0.60910350688E+03 -0.77162953717E+02 -0.15836669041E+04  0.16985176116E+04  0.10100000352E+00 0.  1.
       -3    1    3    3    0  502  0.60910350688E+03  0.77162953717E+02  0.80783076096E+03  0.10146682966E+04  0.10100000352E+00 0. -1.
</event>
<event>
 5   0  0.2755061E-07  0.2599493E+04  0.7818609E-02  0.8368373E-01
       -1   -1    0    0    0  501  0.00000000000E+00  0.00000000000E+00  0.80375589158E+03  0.80375589159E+03  0.50400001928E-02 0.  1.
        1   -1    0    0  501    0  0.00000000000E+00  0.00000000000E+00 -0.21018085377E+04  0.21018085377E+04  0.50400001928E-02 0. -1.
    10030    2    1    2    0    0  0.00000000000E+00  0.00000000000E+00 -0.12980526461E+04  0.29055644293E+04  0.25994930238E+04 0.  0.
        4    1    3    3  502    0  0.37632038925E+03  0.94121247137E+03 -0.15583506900E+04  0.18590202897E+04  0.12699999809E+01 0. -1.
       -4    1    3    3    0  502 -0.37632038925E+03 -0.94121247137E+03  0.26029804385E+03  0.10465441396E+04  0.12699999809E+01 0.  1.
</event>
<event>
 5   0  0.2623263E-07  0.2602116E+04  0.7818609E-02  0.8367483E-01
       -1   -1    0    0    0  501  0.00000000000E+00  0.00000000000E+00  0.72201287980E+03  0.72201287982E+03  0.50400001928E-02 0. -1.
        1   -1    0    0  501    0  0.00000000000E+00  0.00000000000E+00 -0.23444901581E+04  0.23444901582E+04  0.50400001928E-02 0.  1.
    10030    2    1    2    0    0  0.00000000000E+00  0.00000000000E+00 -0.16224772783E+04  0.30665030380E+04  0.26021161318E+04 0.  0.
        1    1    3    3  502    0  0.18731376903E+03 -0.91279227556E+03 -0.18812926718E+04  0.20994137999E+04  0.50400001928E-02 0.  1.
       -1    1    3    3    0  502 -0.18731376903E+03  0.91279227556E+03  0.25881539346E+03  0.96708923802E+03  0.50400001928E-02 0. -1.
</event>
<event>
 5   0  0.6780984E-07  0.2600497E+04  0.7818609E-02  0.8368033E-01
       -2   -1    0    0    0  501  0.00000000000E+00  0.00000000000E+00  0.10346345041E+04  0.10346345041E+04  0.25500000920E-02 0.  1.
        2   -1    0    0  501    0  0.00000000000E+00  0.00000000000E+00 -0.16340510791E+04  0.16340510791E+04  0.25500000920E-02 0. -1.
    10030    2    1    2    0    0  0.00000000000E+00  0.00000000000E+00 -0.59941657503E+03  0.26686855832E+04  0.26004965894E+04 0.  0.
        2    1    3    3  502    0 -0.72710760770E+03  0.91690263625E+03  0.28194273156E+03  0.12036974792E+04  0.25500000920E-02 0.  1.
       -2    1    3    3    0  502  0.72710760770E+03 -0.91690263625E+03 -0.88135930660E+03  0.14649881040E+04  0.25500000920E-02 0. -1.
</event>
<event>
 5   0  0.2641626E-07  0.2595030E+04  0.7818609E-02  0.8369891E-01
       -1   -1    0    0    0  501  0.00000000000E+00  0.00000000000E+00  0.18471075014E+04  0.18471075014E+04  0.50400001928E-02 0.  1.
        1   -1    0    0  501    0  0.00000000000E+00  0.00000000000E+00 -0.91144918149E+03  0.91144918150E+03  0.50400001928E-02 0. -1.
    10030    2    1    2    0    0  0.00000000000E+00  0.00000000000E+00  0.93565831991E+03  0.27585566829E+04  0.25950295723E+04 0.  0.
        3    1    3    3  502    0  0.10638125749E+04 -0.21675290062E+03 -0.28748476111E+03  0.11230879362E+04  0.10100000352E+00 0. -1.
       -3    1    3    3    0  502 -0.10638125749E+04  0.21675290062E+03  0.12231430810E+04  0.16354687467E+04  0.10100000352E+00 0.  1.
</event>
<event>
 5   0  0.6768478E-07  0.2600881E+04  0.7818609E-02  0.8367902E-01
       -2   -1    0    0    0  501  0.00000000000E+00  0.00000000000E+00  0.11194364304E+04  0.11194364304E+04  0.25500000920E-02 0. -1.
        2   -1    0    0  501    0  0.00000000000E+00  0.00000000000E+00 -0.15107109280E+04  0.15107109280E+04  0.25500000920E-02 0.  1.
    10030    2    1    2    0    0  0.00000000000E+00  0.00000000000E+00 -0.39127449762E+03  0.26301473584E+04  0.26008805036E+04 0.  0.
        4    1    3    3  502    0  0.81850995510E+02  0.55340696668E+03  0.99153392746E+03  0.11384638767E+04  0.12699999809E+01 0. -1.
       -4    1    3    3    0  502 -0.81850995510E+02 -0.55340696668E+03 -0.13828084251E+04  0.14916834817E+04  0.12699999809E+01 0.  1.
</event>
<event>
 5   0  0.6526351E-07  0.2600644E+04  0.7818609E-02  0.8367983E-01
       -2   -1    0    0    0  501  0.00000000000E+00  0.00000000000E+00  0.75317984132E+03  0.75317984133E+03  0.25500000920E-02 0.  1.
        2   -1    0    0  501    0  0.00000000000E+00  0.00000000000E+00 -0.22449310174E+04  0.22449310174E+04  0.25500000920E-02 0. -1.
    10030    2    1    2    0    0  0.00000000000E+00  0.00000000000E+00 -0.14917511761E+04  0.29981108587E+04  0.26006436030E+04 0.  0.
        3    1    3    3  502    0  0.63821079681E+03  0.66987687385E+03 -0.17991829903E+04  0.20231429732E+04  0.10100000352E+00 0. -1.
       -3    1    3    3    0  502 -0.63821079681E+03 -0.66987687385E+03  0.30743181419E+03  0.97496788555E+03  0.10100000352E+00 0.  1.
</event>
<event>
 5   0  0.6599814E-07  0.2595600E+04  0.7818609E-02  0.8369697E-01
        2   -1    0    0  501    0  0.00000000000E+00  0.00000000000E+00  0.18241469910E+04  0.18241469910E+04  0.25500000920E-02 0.  1.
       -2   -1    0    0    0  501  0.00000000000E+00  0.00000000000E+00 -0.92332768222E+03  0.92332768223E+03  0.25500000920E-02 0. -1.
    10030    2    1    2    0    0  0.00000000000E+00  0.00000000000E+00  0.90081930881E+03  0.27474746733E+04  0.25956004417E+04 0.  0.
        5    1    3    3  502    0  0.93867161472E+03 -0.88741541089E+03  0.58284137943E+03  0.14171579571E+04  0.46999998093E+01 0.  1.
       -5    1    3    3    0  502 -0.93867161472E+03  0.88741541089E+03  0.31797792938E+03  0.13303167162E+04  0.46999998093E+01 0. -1.
</event>
<event>
 5   0  0.2755061E-07  0.2604092E+04  0.7818609E-02  0.8366813E-01
        1   -1    0    0  501    0  0.00000000000E+00  0.00000000000E+00  0.93628943026E+03  0.93628943027E+03  0.50400001928E-02 0. -1.
       -1   -1    0    0    0  501  0.00000000000E+00  0.00000000000E+00 -0.18106834602E+04  0.18106834602E+04  0.50400001928E-02 0.  1.
    10030    2    1    2    0    0  0.00000000000E+00  0.00000000000E+00 -0.87439402990E+03  0.27469728904E+04  0.26040919994E+04 0.  0.
        4    1    3    3  502    0 -0.95047132304E+03 -0.46352936719E+03 -0.12385265605E+04  0.16285591374E+04  0.12699999809E+01 0.  1.
       -4    1    3    3    0  502  0.95047132304E+03  0.46352936719E+03  0.36413253060E+03  0.11184137530E+04  0.12699999809E+01 0. -1.
</event>
<event>
 5   0  0.2641626E-07  0.2600873E+04  0.7818609E-02  0.8367905E-01
        1   -1    0    0  501    0  0.00000000000E+00  0.00000000000E+00  0.16828086627E+04  0.16828086627E+04  0.50400001928E-02 0.  1.
       -1   -1    0    0    0  501  0.00000000000E+00  0.00000000000E+00 -0.10049477889E+04  0.10049477889E+04  0.50400001928E-02 0. -1.
    10030    2    1    2    0    0  0.00000000000E+00  0.00000000000E+00  0.67786087379E+03  0.26877564516E+04  0.26008728110E+04 0.  0.
        3    1    3    3  502    0  0.77967667084E+02 -0.12637794640E+04  0.64534406538E+03  0.14211567344E+04  0.10100000352E+00 0.  1.
       -3    1    3    3    0  502 -0.77967667084E+02  0.12637794640E+04  0.32516808403E+02  0.12665997172E+04  0.10100000352E+00 0. -1.
</event>
<event>
 5   0  0.2864801E-07  0.2601258E+04  0.7818609E-02  0.8367774E-01
       -1   -1    0    0    0  501  0.00000000000E+00  0.00000000000E+00  0.87406152128E+03  0.87406152130E+03  0.50400001928E-02 0. -1.
        1   -1    0    0  501    0  0.00000000000E+00  0.00000000000E+00 -0.19353732726E+04  0.19353732726E+04  0.50400001928E-02 0.  1.
    10030    2    1    2    0    0  0.00000000000E+00  0.00000000000E+00 -0.10613117514E+04  0.28094347939E+04  0.26012576243E+04 0.  0.
        5    1    3    3  502    0 -0.17413073169E+03 -0.12422160907E+04 -0.90195813389E+03  0.15449831368E+04  0.46999998093E+01 0.  1.
       -5    1    3    3    0  502  0.17413073169E+03  0.12422160907E+04 -0.15935361746E+03  0.12644516571E+04  0.46999998093E+01 0. -1.
</event>
<event>
 5   0  0.6768478E-07  0.2605689E+04  0.7818609E-02  0.8366271E-01
       -2   -1    0    0    0  501  0.00000000000E+00  0.00000000000E+00  0.11953821618E+04  0.11953821618E+04  0.25500000920E-02 0.  1.
        2   -1    0    0  501    0  0.00000000000E+00  0.00000000000E+00 -0.14199671519E+04  0.14199671519E+04  0.25500000920E-02 0. -1.
    10030    2    1    2    0    0  0.00000000000E+00  0.00000000000E+00 -0.22458499009E+03  0.26153493136E+04  0.26056887025E+04 0.  0.
        4    1    3    3  502    0  0.18599112506E+03  0.55973188701E+03  0.10536982807E+04  0.12075488245E+04  0.12699999809E+01 0.  1.
       -4    1    3    3    0  502 -0.18599112506E+03 -0.55973188701E+03 -0.12782832708E+04  0.14078004891E+04  0.12699999809E+01 0. -1.
</event>
<event>
 5   0  0.7160320E-07  0.2600039E+04  0.7818609E-02  0.8368188E-01
       -2   -1    0    0    0  501  0.00000000000E+00  0.00000000000E+00  0.11218265796E+04  0.11218265796E+04  0.25500000920E-02 0. -1.
        2   -1    0    0  501    0  0.00000000000E+00  0.00000000000E+00 -0.15065171648E+04  0.15065171648E+04  0.25500000920E-02 0.  1.
    10030    2    1    2    0    0  0.00000000000E+00  0.00000000000E+00 -0.38469058520E+03  0.26283437443E+04  0.26000392289E+04 0.  0.
        1    1    3    3  502    0  0.89392797552E+03  0.83021885500E+03 -0.64632259193E+03  0.13806170597E+04  0.50400001928E-02 0. -1.
       -1    1    3    3    0  502 -0.89392797552E+03 -0.83021885500E+03  0.26163200673E+03  0.12477266847E+04  0.50400001928E-02 0.  1.
</event>
<event>
 5   0  0.6599814E-07  0.2599211E+04  0.7818609E-02  0.8368469E-01
       -2   -1    0    0    0  501  0.00000000000E+00  0.00000000000E+00  0.10731931160E+04  0.10731931160E+04  0.25500000920E-02 0. -1.
        2   -1    0    0  501    0  0.00000000000E+00  0.00000000000E+00 -0.15737839898E+04  0.15737839898E+04  0.25500000920E-02 0.  1.
    10030    2    1    2    0    0  0.00000000000E+00  0.00000000000E+00 -0.50059087379E+03  0.26469771058E+04  0.25992107602E+04 0.  0.
        5    1    3    3  502    0  0.88952985317E+03  0.90343891324E+03  0.40409485340E+02  0.12685110351E+04  0.46999998093E+01 0. -1.
       -5    1    3    3    0  502 -0.88952985317E+03 -0.90343891324E+03 -0.54100035913E+03  0.13784660708E+04  0.46999998093E+01 0.  1.
</event>
<event>
 5   0  0.6768478E-07  0.2600394E+04  0.7818609E-02  0.8368067E-01
       -2   -1    0    0    0  501  0.00000000000E+00  0.00000000000E+00  0.88670420955E+03  0.88670420955E+03  0.25500000920E-02 0. -1.
        2   -1    0    0  501    0  0.00000000000E+00  0.00000000000E+00 -0.19065122093E+04  0.19065122093E+04  0.25500000920E-02 0.  1.
    10030    2    1    2    0    0  0.00000000000E+00  0.00000000000E+00 -0.10198079998E+04  0.27932164189E+04  0.26003941252E+04 0.  0.
        4    1    3    3  502    0  0.12063715400E+04  0.43057382271E+03 -0.74957377421E+03  0.14841120461E+04  0.12699999809E+01 0.  1.
       -4    1    3    3    0  502 -0.12063715400E+04 -0.43057382271E+03 -0.27023422558E+03  0.13091043728E+04  0.12699999809E+01 0. -1.
</event>
<event>
 5   0  0.6780984E-07  0.2601196E+04  0.7818609E-02  0.8367795E-01
        2   -1    0    0  501    0  0.00000000000E+00  0.00000000000E+00  0.89911061814E+03  0.89911061815E+03  0.25500000920E-02 0.  1.
       -2   -1    0    0    0  501  0.00000000000E+00  0.00000000000E+00 -0.18813654551E+04  0.18813654551E+04  0.25500000920E-02 0. -1.
    10030    2    1    2    0    0  0.00000000000E+00  0.00000000000E+00 -0.98225483696E+03  0.27804760733E+04  0.26011963842E+04 0.  0.
        2    1    3    3  502    0  0.27401148554E+03 -0.36787876436E+03  0.80977244297E+03  0.93067098852E+03  0.25500000920E-02 0.  1.
       -2    1    3    3    0  502 -0.27401148554E+03  0.36787876436E+03 -0.17920272799E+04  0.18498050847E+04  0.25500000920E-02 0. -1.
</event>
<event>
 5   0  0.6599814E-07  0.2600838E+04  0.7818609E-02  0.8367917E-01
       -2   -1    0    0    0  501  0.00000000000E+00  0.00000000000E+00  0.13499656717E+04  0.13499656717E+04  0.25500000920E-02 0. -1.
        2   -1    0    0  501    0  0.00000000000E+00  0.00000000000E+00 -0.12526904718E+04  0.12526904718E+04  0.25500000920E-02 0.  1.
    10030    2    1    2    0    0  0.00000000000E+00  0.00000000000E+00  0.97275199892E+02  0.26026561434E+04  0.26008376605E+04 0.  0.
        5    1    3    3  502    0  0.12382659227E+04  0.72060605004E+01 -0.34877055448E+03  0.12864748005E+04  0.46999998093E+01 0. -1.
       -5    1    3    3    0  502 -0.12382659227E+04 -0.72060605004E+01  0.44604575437E+03  0.13161813430E+04  0.46999998093E+01 0.  1.
</event>
<event>
 5   0  0.6599814E-07  0.2599262E+04  0.7818609E-02  0.8368452E-01
       -2   -1    0    0    0  501  0.00000000000E+00  0.00000000000E+00  0.16868747424E+04  0.16868747424E+04  0.25500000920E-02 0. -1.
        2   -1    0    0  501    0  0.00000000000E+00  0.00000000000E+00 -0.10012838253E+04  0.10012838253E+04  0.25500000920E-02 0.  1.
    10030    2    1    2    0    0  0.00000000000E+00  0.00000000000E+00  0.68559091711E+03  0.26881585676E+04  0.25992617373E+04 0.  0.
        5    1    3    3  502    0 -0.95784841308E+03  0.29647324916E+03 -0.51231309266E+03  0.11259914586E+04  0.46999998093E+01 0.  1.
       -5    1    3    3    0  502  0.95784841308E+03 -0.29647324916E+03  0.11979040098E+04  0.15621671090E+04  0.46999998093E+01 0. -1.
</event>
<event>
 5   0  0.2793576E-07  0.2600132E+04  0.7818609E-02  0.8368156E-01
       -1   -1    0    0    0  501  0.00000000000E+00  0.00000000000E+00  0.11087052670E+04  0.11087052670E+04  0.50400001928E-02 0. -1.
        1   -1    0    0  501    0  0.00000000000E+00  0.00000000000E+00 -0.15244557312E+04  0.15244557313E+04  0.50400001928E-02 0.  1.
    10030    2    1    2    0    0  0.00000000000E+00  0.00000000000E+00 -0.41575046428E+03  0.26331609982E+04  0.26001323801E+04 0.  0.
        2    1    3    3  502    0  0.56519119172E+02  0.10679258523E+04 -0.95653040509E+03  0.14347858561E+04  0.25500000920E-02 0.  1.
       -2    1    3    3    0  502 -0.56519119172E+02 -0.10679258523E+04  0.54077994080E+03  0.11983751421E+04  0.25500000920E-02 0. -1.
</event>
<event>
 5   0  0.2793576E-07  0.2600244E+04  0.7818609E-02  0.8368118E-01
       -1   -1    0    0    0  501  0.00000000000E+00  0.00000000000E+00  0.77189489360E+03  0.77189489362E+03  0.50400001928E-02 0. -1.
        1   -1    0    0  501    0  0.00000000000E+00  0.00000000000E+00 -0.21898276788E+04  0.21898276788E+04  0.50400001928E-02 0.  1.
    10030    2    1    2    0    0  0.00000000000E+00  0.00000000000E+00 -0.14179327852E+04  0.29617225724E+04  0.26002436833E+04 0.  0.
        2    1    3    3  502    0  0.55077752256E+03  0.26715331447E+03 -0.20154098313E+04  0.21063246571E+04  0.25500000920E-02 0.  1.
       -2    1    3    3    0  502 -0.55077752256E+03 -0.26715331447E+03  0.59747704617E+03  0.85539791530E+03  0.25500000920E-02 0. -1.
</event>
<event>
 5   0  0.2793576E-07  0.2602726E+04  0.7818609E-02  0.8367276E-01
       -1   -1    0    0    0  501  0.00000000000E+00  0.00000000000E+00  0.14324869857E+04  0.14324869857E+04  0.50400001928E-02 0. -1.
        1   -1    0    0  501    0  0.00000000000E+00  0.00000000000E+00 -0.11822411355E+04  0.11822411355E+04  0.50400001928E-02 0.  1.
    10030    2    1    2    0    0  0.00000000000E+00  0.00000000000E+00  0.25024585025E+03  0.26147281212E+04  0.26027255257E+04 0.  0.
        2    1    3    3  502    0 -0.34101727784E+03 -0.11651048933E+03  0.13813604691E+04  0.14275938580E+04  0.25500000920E-02 0. -1.
       -2    1    3    3    0  502  0.34101727784E+03  0.11651048933E+03 -0.11311146188E+04  0.11871342632E+04  0.25500000920E-02 0.  1.
</event>
<event>
 5   0  0.2864801E-07  0.2600200E+04  0.7818609E-02  0.8368133E-01
       -1   -1    0    0    0  501  0.00000000000E+00  0.00000000000E+00  0.11148885738E+04  0.11148885738E+04  0.50400001928E-02 0. -1.
        1   -1    0    0  501    0  0.00000000000E+00  0.00000000000E+00 -0.15160797855E+04  0.15160797855E+04  0.50400001928E-02 0.  1.
    10030    2    1    2    0    0  0.00000000000E+00  0.00000000000E+00 -0.40119121164E+03  0.26309683593E+04  0.26002000152E+04 0.  0.
        5    1    3    3  502    0  0.73722134198E+03 -0.23835286788E+03 -0.12569466846E+04  0.14765650865E+04  0.46999998093E+01 0.  1.
       -5    1    3    3    0  502 -0.73722134198E+03  0.23835286788E+03  0.85575547298E+03  0.11544032728E+04  0.46999998093E+01 0. -1.
</event>
<event>
 5   0  0.6526351E-07  0.2599652E+04  0.7818609E-02  0.8368319E-01
       -2   -1    0    0    0  501  0.00000000000E+00  0.00000000000E+00  0.10371322806E+04  0.10371322806E+04  0.25500000920E-02 0. -1.
        2   -1    0    0  501    0  0.00000000000E+00  0.00000000000E+00 -0.16290574347E+04  0.16290574347E+04  0.25500000920E-02 0.  1.
    10030    2    1    2    0    0  0.00000000000E+00  0.00000000000E+00 -0.59192515413E+03  0.26661897153E+04  0.25996523248E+04 0.  0.
        3    1    3    3  502    0 -0.30766193251E+03 -0.32947086583E+03 -0.15463224464E+04  0.16106893042E+04  0.10100000352E+00 0.  1.
       -3    1    3    3    0  502  0.30766193251E+03  0.32947086583E+03  0.95439729228E+03  0.10555004111E+04  0.10100000352E+00 0. -1.
</event>
<event>
 5   0  0.2623263E-07  0.2601240E+04  0.7818609E-02  0.8367780E-01
       -1   -1    0    0    0  501  0.00000000000E+00  0.00000000000E+00  0.10158087469E+04  0.10158087469E+04  0.50400001928E-02 0.  1.
        1   -1    0    0  501    0  0.00000000000E+00  0.00000000000E+00 -0.16652862364E+04  0.16652862364E+04  0.50400001928E-02 0. -1.
    10030    2    1    2    0    0  0.00000000000E+00  0.00000000000E+00 -0.64947748958E+03  0.26810949833E+04  0.26012399543E+04 0.  0.
        1    1    3    3  502    0 -0.81616086246E+03 -0.71638374558E+03  0.41297677168E+03  0.11618407973E+04  0.50400001928E-02 0.  1.
       -1    1    3    3    0  502  0.81616086246E+03  0.71638374558E+03 -0.10624542613E+04  0.15192541860E+04  0.50400001928E-02 0. -1.
</event>
<event>
 5   0  0.2793576E-07  0.2599470E+04  0.7818609E-02  0.8368381E-01
        1   -1    0    0  501    0  0.00000000000E+00  0.00000000000E+00  0.59050012026E+03  0.59050012028E+03  0.50400001928E-02 0. -1.
       -1   -1    0    0    0  501  0.00000000000E+00  0.00000000000E+00 -0.28608133051E+04  0.28608133051E+04  0.50400001928E-02 0.  1.
    10030    2    1    2    0    0  0.00000000000E+00  0.00000000000E+00 -0.22703131849E+04  0.34513134254E+04  0.25994696388E+04 0.  0.
        2    1    3    3  502    0 -0.68714254109E+03 -0.10635519855E+04 -0.74579222282E+03  0.14695284064E+04  0.25500000920E-02 0. -1.
       -2    1    3    3    0  502  0.68714254109E+03  0.10635519855E+04 -0.15245209621E+04  0.19817850190E+04  0.25500000920E-02 0.  1.
</event>
<event>
 5   0  0.2864801E-07  0.2599618E+04  0.7818609E-02  0.8368331E-01
       -1   -1    0    0    0  501  0.00000000000E+00  0.00000000000E+00  0.83595926471E+03  0.83595926473E+03  0.50400001928E-02 0.  1.
        1   -1    0    0  501    0  0.00000000000E+00  0.00000000000E+00 -0.20210358290E+04  0.20210358290E+04  0.50400001928E-02 0. -1.
    10030    2    1    2    0    0  0.00000000000E+00  0.00000000000E+00 -0.11850765643E+04  0.28569950937E+04  0.25996181455E+04 0.  0.
        5    1    3    3  502    0 -0.53984758111E+02  0.70007467472E+02  0.83264206289E+03  0.83733523424E+03  0.46999998093E+01 0.  1.
       -5    1    3    3    0  502  0.53984758111E+02 -0.70007467472E+02 -0.20177186272E+04  0.20196598595E+04  0.46999998093E+01 0. -1.
</event>
<event>
 5   0  0.6780984E-07  0.2601876E+04  0.7818609E-02  0.8367564E-01
        2   -1    0    0  501    0  0.00000000000E+00  0.00000000000E+00  0.25156016792E+04  0.25156016792E+04  0.25500000920E-02 0.  1.
       -2   -1    0    0    0  501  0.00000000000E+00  0.00000000000E+00 -0.67277715935E+03  0.67277715935E+03  0.25500000920E-02 0. -1.
    10030    2    1    2    0    0  0.00000000000E+00  0.00000000000E+00  0.18428245198E+04  0.31883788385E+04  0.26018757478E+04 0.  0.
        2    1    3    3  502    0  0.83447997968E+03 -0.32462588993E+02  0.21437779959E+04  0.23006944065E+04  0.25500000920E-02 0.  1.
       -2    1    3    3    0  502 -0.83447997968E+03  0.32462588993E+02 -0.30095347608E+03  0.88768443207E+03  0.25500000920E-02 0. -1.
</event>
<event>
 5   0  0.6768478E-07  0.2592889E+04  0.7818609E-02  0.8370620E-01
        2   -1    0    0  501    0  0.00000000000E+00  0.00000000000E+00  0.19875746775E+04  0.19875746775E+04  0.25500000920E-02 0. -1.
       -2   -1    0    0    0  501  0.00000000000E+00  0.00000000000E+00 -0.84563812592E+03  0.84563812592E+03  0.25500000920E-02 0.  1.
    10030    2    1    2    0    0  0.00000000000E+00  0.00000000000E+00  0.11419365516E+04  0.28332128034E+04  0.25928894503E+04 0.  0.
        4    1    3    3  502    0 -0.11530909958E+04 -0.57304288192E+03  0.40608379032E+03  0.13501491202E+04  0.12699999809E+01 0.  1.
       -4    1    3    3    0  502  0.11530909958E+04  0.57304288192E+03  0.73585276124E+03  0.14830636832E+04  0.12699999809E+01 0. -1.
</event>
<event>
 5   0  0.2641626E-07  0.2599407E+04  0.7818609E-02  0.8368403E-01
        1   -1    0    0  501    0  0.00000000000E+00  0.00000000000E+00  0.15988919967E+04  0.15988919967E+04  0.50400001928E-02 0. -1.
       -1   -1    0    0    0  501  0.00000000000E+00  0.00000000000E+00 -0.10565000659E+04  0.10565000659E+04  0.50400001928E-02 0.  1.
    10030    2    1    2    0    0  0.00000000000E+00  0.00000000000E+00  0.54239193081E+03  0.26553920626E+04  0.25994072400E+04 0.  0.
        3    1    3    3  502    0  0.50443849906E+03 -0.39261256370E+03  0.14272166334E+04  0.15638254869E+04  0.10100000352E+00 0. -1.
       -3    1    3    3    0  502 -0.50443849906E+03  0.39261256370E+03 -0.88482470263E+03  0.10915665757E+04  0.10100000352E+00 0.  1.
</event>
<event>
 5   0  0.6780984E-07  0.2600033E+04  0.7818609E-02  0.8368190E-01
       -2   -1    0    0    0  501  0.00000000000E+00  0.00000000000E+00  0.10525583723E+04  0.10525583724E+04  0.25500000920E-02 0. -1.
        2   -1    0    0  501    0  0.00000000000E+00  0.00000000000E+00 -0.16056526912E+04  0.16056526912E+04  0.25500000920E-02 0.  1.
    10030    2    1    2    0    0  0.00000000000E+00  0.00000000000E+00 -0.55309431887E+03  0.26582110636E+04  0.26000332177E+04 0.  0.
        2    1    3    3  502    0 -0.71758969733E+03  0.10549961419E+04 -0.21790165265E+02  0.12760982111E+04  0.25500000920E-02 0.  1.
       -2    1    3    3    0  502  0.71758969733E+03 -0.10549961419E+04 -0.53130415360E+03  0.13821128524E+04  0.25500000920E-02 0. -1.
</event>
<event>
 5   0  0.2864801E-07  0.2599641E+04  0.7818609E-02  0.8368323E-01
       -1   -1    0    0    0  501  0.00000000000E+00  0.00000000000E+00  0.11417836782E+04  0.11417836782E+04  0.50400001928E-02 0.  1.
        1   -1    0    0  501    0  0.00000000000E+00  0.00000000000E+00 -0.14797315366E+04  0.14797315366E+04  0.50400001928E-02 0. -1.
    10030    2    1    2    0    0  0.00000000000E+00  0.00000000000E+00 -0.33794785840E+03  0.26215152148E+04  0.25996409879E+04 0.  0.
        5    1    3    3  502    0 -0.93603906784E+03  0.65248567083E+03  0.45884359529E+03  0.12298236549E+04  0.46999998093E+01 0.  1.
       -5    1    3    3    0  502  0.93603906784E+03 -0.65248567083E+03 -0.79679145370E+03  0.13916915599E+04  0.46999998093E+01 0. -1.
</event>
<event>
 5   0  0.2755061E-07  0.2600828E+04  0.7818609E-02  0.8367920E-01
        1   -1    0    0  501    0  0.00000000000E+00  0.00000000000E+00  0.19985752397E+04  0.19985752397E+04  0.50400001928E-02 0.  1.
       -1   -1    0    0    0  501  0.00000000000E+00  0.00000000000E+00 -0.84614115579E+03  0.84614115581E+03  0.50400001928E-02 0. -1.
    10030    2    1    2    0    0  0.00000000000E+00  0.00000000000E+00  0.11524340839E+04  0.28447163955E+04  0.26008281475E+04 0.  0.
        4    1    3    3  502    0 -0.89708155666E+03 -0.93136036520E+03  0.42589700603E+03  0.13614614654E+04  0.12699999809E+01 0. -1.
       -4    1    3    3    0  502  0.89708155666E+03  0.93136036520E+03  0.72653707785E+03  0.14832549301E+04  0.12699999809E+01 0.  1.
</event>
<event>
 5   0  0.2793576E-07  0.2596636E+04  0.7818609E-02  0.8369345E-01
       -1   -1    0    0    0  501  0.00000000000E+00  0.00000000000E+00  0.59945725465E+03  0.59945725467E+03  0.50400001928E-02 0.  1.
        1   -1    0    0  501    0  0.00000000000E+00  0.00000000000E+00 -0.28119256668E+04  0.28119256668E+04  0.50400001928E-02 0. -1.
    10030    2    1    2    0    0  0.00000000000E+00  0.00000000000E+00 -0.22124684121E+04  0.34113829214E+04  0.25966357007E+04 0.  0.
        2    1    3    3  502    0 -0.58319030235E+03 -0.41732858602E+03 -0.25281168240E+04  0.26278601091E+04  0.25500000920E-02 0. -1.
       -2    1    3    3    0  502  0.58319030235E+03  0.41732858602E+03  0.31564841187E+03  0.78352281230E+03  0.25500000920E-02 0.  1.
</event>
<event>
 5   0  0.2864801E-07  0.2600341E+04  0.7818609E-02  0.8368085E-01
       -1   -1    0    0    0  501  0.00000000000E+00  0.00000000000E+00  0.11826655690E+04  0.11826655690E+04  0.50400001928E-02 0. -1.
        1   -1    0    0  501    0  0.00000000000E+00  0.00000000000E+00 -0.14293503906E+04  0.14293503906E+04  0.50400001928E-02 0.  1.
    10030    2    1    2    0    0  0.00000000000E+00  0.00000000000E+00 -0.24668482164E+03  0.26120159596E+04  0.26003411261E+04 0.  0.
        5    1    3    3  502    0 -0.86172386353E+03 -0.95019936873E+03 -0.33636658670E+03  0.13261264751E+04  0.46999998093E+01 0.  1.
       -5    1    3    3    0  502  0.86172386353E+03  0.95019936873E+03  0.89681765068E+02  0.12858894845E+04  0.46999998093E+01 0. -1.
</event>
<event>
 5   0  0.2623263E-07  0.2600539E+04  0.7818609E-02  0.8368018E-01
        1   -1    0    0  501    0  0.00000000000E+00  0.00000000000E+00  0.22502856606E+04  0.22502856606E+04  0.50400001928E-02 0. -1.
       -1   -1    0    0    0  501  0.00000000000E+00  0.00000000000E+00 -0.75132692097E+03  0.75132692099E+03  0.50400001928E-02 0.  1.
    10030    2    1    2    0    0  0.00000000000E+00  0.00000000000E+00  0.14989587397E+04  0.30016125816E+04  0.26005385571E+04 0.  0.
        1    1    3    3  502    0 -0.37384784361E+03 -0.54476021156E+03 -0.54313889467E+03  0.85529279034E+03  0.50400001928E-02 0.  1.
       -1    1    3    3    0  502  0.37384784361E+03  0.54476021156E+03  0.20420976343E+04  0.21463197913E+04  0.50400001928E-02 0. -1.
</event>
<event>
 5   0  0.6526351E-07  0.2599684E+04  0.7818609E-02  0.8368308E-01
       -2   -1    0    0    0  501  0.00000000000E+00  0.00000000000E+00  0.86874984882E+03  0.86874984883E+03  0.25500000920E-02 0. -1.
        2   -1    0    0  501    0  0.00000000000E+00  0.00000000000E+00 -0.19448519126E+04  0.19448519126E+04  0.25500000920E-02 0.  1.
    10030    2    1    2    0    0  0.00000000000E+00  0.00000000000E+00 -0.10761020638E+04  0.28136017614E+04  0.25996844463E+04 0.  0.
        3    1    3    3  502    0  0.68083916006E+03  0.10389973614E+04 -0.95234508400E+03  0.15652535412E+04  0.10100000352E+00 0.  1.
       -3    1    3    3    0  502 -0.68083916006E+03 -0.10389973614E+04 -0.12375697980E+03  0.12483482203E+04  0.10100000352E+00 0. -1.
</event>
<event>
 5   0  0.6526351E-07  0.2599616E+04  0.7818609E-02  0.8368332E-01
        2   -1    0    0  501    0  0.00000000000E+00  0.00000000000E+00  0.17318779101E+04  0.17318779101E+04  0.25500000920E-02 0.  1.
       -2   -1    0    0    0  501  0.00000000000E+00  0.00000000000E+00 -0.97553110216E+03  0.97553110216E+03  0.25500000920E-02 0. -1.
    10030    2    1    2    0    0  0.00000000000E+00  0.00000000000E+00  0.75634680795E+03  0.27074090123E+04  0.25996159458E+04 0.  0.
        3    1    3    3  502    0  0.44879527202E+03  0.88247250015E+03  0.12553106855E+04  0.15987432055E+04  0.10100000352E+00 0.  1.
       -3    1    3    3    0  502 -0.44879527202E+03 -0.88247250015E+03 -0.49896387760E+03  0.11086658068E+04  0.10100000352E+00 0. -1.
</event>
<event>
 5   0  0.2864801E-07  0.2599364E+04  0.7818609E-02  0.8368417E-01
       -1   -1    0    0    0  501  0.00000000000E+00  0.00000000000E+00  0.77582845229E+03  0.77582845231E+03  0.50400001928E-02 0.  1.
        1   -1    0    0  501    0  0.00000000000E+00  0.00000000000E+00 -0.21772506772E+04  0.21772506772E+04  0.50400001928E-02 0. -1.
    10030    2    1    2    0    0  0.00000000000E+00  0.00000000000E+00 -0.14014222249E+04  0.29530791295E+04  0.25993637861E+04 0.  0.
        5    1    3    3  502    0  0.10096630639E+03  0.12317912734E+04 -0.24394714075E+03  0.12597762633E+04  0.46999998093E+01 0.  1.
       -5    1    3    3    0  502 -0.10096630639E+03 -0.12317912734E+04 -0.11574750841E+04  0.16933028662E+04  0.46999998093E+01 0. -1.
</event>
<event>
 5   0  0.2641626E-07  0.2599137E+04  0.7818609E-02  0.8368494E-01
       -1   -1    0    0    0  501  0.00000000000E+00  0.00000000000E+00  0.13440167343E+04  0.13440167344E+04  0.50400001928E-02 0. -1.
        1   -1    0    0  501    0  0.00000000000E+00  0.00000000000E+00 -0.12565901138E+04  0.12565901138E+04  0.50400001928E-02 0.  1.
    10030    2    1    2    0    0  0.00000000000E+00  0.00000000000E+00  0.87426620582E+02  0.26006068481E+04  0.25991368884E+04 0.  0.
        3    1    3    3  502    0 -0.80675839590E+03  0.63435980899E+03 -0.75398701004E+03  0.12734865127E+04  0.10100000352E+00 0.  1.
       -3    1    3    3    0  502  0.80675839590E+03 -0.63435980899E+03  0.84141363062E+03  0.13271203354E+04  0.10100000352E+00 0. -1.
</event>
<event>
 5   0  0.2641626E-07  0.2599690E+04  0.7818609E-02  0.8368306E-01
        1   -1    0    0  501    0  0.00000000000E+00  0.00000000000E+00  0.17329385011E+04  0.17329385011E+04  0.50400001928E-02 0. -1.
       -1   -1    0    0    0  501  0.00000000000E+00  0.00000000000E+00 -0.97498976097E+03  0.97498976099E+03  0.50400001928E-02 0.  1.
    10030    2    1    2    0    0  0.00000000000E+00  0.00000000000E+00  0.75794874010E+03  0.27079282621E+04  0.25996902084E+04 0.  0.
        3    1    3    3  502    0 -0.63834835684E+03  0.11277712878E+04  0.27356532338E+03  0.13244601537E+04  0.10100000352E+00 0. -1.
       -3    1    3    3    0  502  0.63834835684E+03 -0.11277712878E+04  0.48438341672E+03  0.13834681084E+04  0.10100000352E+00 0.  1.
</event>
<event>
 5   0  0.6780984E-07  0.2601803E+04  0.7818609E-02  0.8367589E-01
        2   -1    0    0  501    0  0.00000000000E+00  0.00000000000E+00  0.15725891369E+04  0.15725891369E+04  0.25500000920E-02 0. -1.
       -2   -1    0    0    0  501  0.00000000000E+00  0.00000000000E+00 -0.10761517223E+04  0.10761517223E+04  0.25500000920E-02 0.  1.
    10030    2    1    2    0    0  0.00000000000E+00  0.00000000000E+00  0.49643741454E+03  0.26487408592E+04  0.26018028428E+04 0.  0.
        2    1    3    3  502    0 -0.12017916842E+04 -0.46394004507E+03  0.43259620019E+03  0.13589271835E+04  0.25500000920E-02 0.  1.
       -2    1    3    3    0  502  0.12017916842E+04  0.46394004507E+03  0.63841214346E+02  0.12898136758E+04  0.25500000920E-02 0. -1.
</event>
<event>
 5   0  0.6780984E-07  0.2599154E+04  0.7818609E-02  0.8368489E-01
       -2   -1    0    0    0  501  0.00000000000E+00  0.00000000000E+00  0.13783119967E+04  0.13783119967E+04  0.25500000920E-02 0.  1.
        2   -1    0    0  501    0  0.00000000000E+00  0.00000000000E+00 -0.12253393176E+04  0.12253393176E+04  0.25500000920E-02 0. -1.
    10030    2    1    2    0    0  0.00000000000E+00  0.00000000000E+00  0.15297267908E+03  0.26036513143E+04  0.25991536173E+04 0.  0.
        2    1    3    3  502    0 -0.50075947667E+01 -0.78235227210E+03 -0.96299893769E+03  0.12407526376E+04  0.25500000920E-02 0. -1.
       -2    1    3    3    0  502  0.50075947667E+01  0.78235227210E+03  0.11159716168E+04  0.13628986768E+04  0.25500000920E-02 0.  1.
</event>
<event>
 5   0  0.2755061E-07  0.2600258E+04  0.7818609E-02  0.8368114E-01
       -1   -1    0    0    0  501  0.00000000000E+00  0.00000000000E+00  0.93139149238E+03  0.93139149239E+03  0.50400001928E-02 0. -1.
        1   -1    0    0  501    0  0.00000000000E+00  0.00000000000E+00 -0.18148494208E+04  0.18148494208E+04  0.50400001928E-02 0.  1.
    10030    2    1    2    0    0  0.00000000000E+00  0.00000000000E+00 -0.88345792844E+03  0.27462409132E+04  0.26002579184E+04 0.  0.
        4    1    3    3  502    0 -0.12950580099E+04  0.11785304597E+02 -0.56223818548E+03  0.14118879320E+04  0.12699999809E+01 0.  1.
       -4    1    3    3    0  502  0.12950580099E+04 -0.11785304597E+02 -0.32121974297E+03  0.13343529812E+04  0.12699999809E+01 0. -1.
</event>
<event>
 5   0  0.7160320E-07  0.2599810E+04  0.7818609E-02  0.8368266E-01
       -2   -1    0    0    0  501  0.00000000000E+00  0.00000000000E+00  0.70964719102E+03  0.70964719103E+03  0.25500000920E-02 0. -1.
        2   -1    0    0  501    0  0.00000000000E+00  0.00000000000E+00 -0.23811173976E+04  0.23811173976E+04  0.25500000920E-02 0.  1.
    10030    2    1    2    0    0  0.00000000000E+00  0.00000000000E+00 -0.16714702066E+04  0.30907645886E+04  0.25998102029E+04 0.  0.
        1    1    3    3  502    0 -0.48751479188E+03  0.68487692752E+02  0.59453273640E+03  0.77190051888E+03  0.50400001928E-02 0. -1.
       -1    1    3    3    0  502  0.48751479188E+03 -0.68487692752E+02 -0.22660029430E+04  0.23188640698E+04  0.50400001928E-02 0.  1.
</event>
<event>
 5   0  0.6599814E-07  0.2600366E+04  0.7818609E-02  0.8368077E-01
       -2   -1    0    0    0  501  0.00000000000E+00  0.00000000000E+00  0.14575350616E+04  0.14575350616E+04  0.25500000920E-02 0.  1.
        2   -1    0    0  501    0  0.00000000000E+00  0.00000000000E+00 -0.11598180296E+04  0.11598180296E+04  0.25500000920E-02 0. -1.
    10030    2    1    2    0    0  0.00000000000E+00  0.00000000000E+00  0.29771703199E+03  0.26173530912E+04  0.26003656998E+04 0.  0.
        5    1    3    3  502    0 -0.38224800514E+03  0.11322335457E+04 -0.36672503602E+03  0.12500302722E+04  0.46999998093E+01 0. -1.
       -5    1    3    3    0  502  0.38224800514E+03 -0.11322335457E+04  0.66444206801E+03  0.13673228189E+04  0.46999998093E+01 0.  1.
</event>
<event>
 5   0  0.6599814E-07  0.2598867E+04  0.7818609E-02  0.8368586E-01
        2   -1    0    0  501    0  0.00000000000E+00  0.00000000000E+00  0.13948093949E+04  0.13948093949E+04  0.25500000920E-02 0. -1.
       -2   -1    0    0    0  501  0.00000000000E+00  0.00000000000E+00 -0.12105793077E+04  0.12105793077E+04  0.25500000920E-02 0.  1.
    10030    2    1    2    0    0  0.00000000000E+00  0.00000000000E+00  0.18423008728E+03  0.26053887026E+04  0.25988669775E+04 0.  0.
        5    1    3    3  502    0  0.29450816091E+03 -0.22986595169E+03 -0.11555690412E+04  0.12144691480E+04  0.46999998093E+01 0.  1.
       -5    1    3    3    0  502 -0.29450816091E+03  0.22986595169E+03  0.13397991285E+04  0.13909195546E+04  0.46999998093E+01 0. -1.
</event>
<event>
 5   0  0.6780984E-07  0.2599490E+04  0.7818609E-02  0.8368374E-01
        2   -1    0    0  501    0  0.00000000000E+00  0.00000000000E+00  0.26126831017E+04  0.26126831018E+04  0.25500000920E-02 0.  1.
       -2   -1    0    0    0  501  0.00000000000E+00  0.00000000000E+00 -0.64659112473E+03  0.64659112473E+03  0.25500000920E-02 0. -1.
    10030    2    1    2    0    0  0.00000000000E+00  0.00000000000E+00  0.19660919770E+04  0.32592742265E+04  0.25994904926E+04 0.  0.
        2    1    3    3  502    0 -0.85744641582E+03  0.72165332448E+03  0.18084127447E+04  0.21275230979E+04  0.25500000920E-02 0. -1.
       -2    1    3    3    0  502  0.85744641582E+03 -0.72165332448E+03  0.15767923227E+03  0.11317511286E+04  0.25500000920E-02 0.  1.
</event>
<event>
 5   0  0.2864801E-07  0.2599257E+04  0.7818609E-02  0.8368454E-01
        1   -1    0    0  501    0  0.00000000000E+00  0.00000000000E+00  0.17250910740E+04  0.17250910740E+04  0.50400001928E-02 0. -1.
       -1   -1    0    0    0  501  0.00000000000E+00  0.00000000000E+00 -0.97909826762E+03  0.97909826764E+03  0.50400001928E-02 0.  1.
    10030    2    1    2    0    0  0.00000000000E+00  0.00000000000E+00  0.74599280637E+03  0.27041893416E+04  0.25992565722E+04 0.  0.
        5    1    3    3  502    0 -0.20932871181E+03  0.93249580753E+03  0.12892577101E+04  0.16048596430E+04  0.46999998093E+01 0. -1.
       -5    1    3    3    0  502  0.20932871181E+03 -0.93249580753E+03 -0.54326490375E+03  0.10993296986E+04  0.46999998093E+01 0.  1.
</event>
<event>
 5   0  0.6526351E-07  0.2598366E+04  0.7818609E-02  0.8368756E-01
       -2   -1    0    0    0  501  0.00000000000E+00  0.00000000000E+00  0.15118394261E+04  0.15118394261E+04  0.25500000920E-02 0.  1.
        2   -1    0    0  501    0  0.00000000000E+00  0.00000000000E+00 -0.11164392212E+04  0.11164392212E+04  0.25500000920E-02 0. -1.
    10030    2    1    2    0    0  0.00000000000E+00  0.00000000000E+00  0.39540020494E+03  0.26282786473E+04  0.25983662801E+04 0.  0.
        3    1    3    3  502    0  0.51780118338E+03  0.11720602154E+04 -0.19324284994E+02  0.12814900125E+04  0.10100000352E+00 0.  1.
       -3    1    3    3    0  502 -0.51780118338E+03 -0.11720602154E+04  0.41472448994E+03  0.13467886348E+04  0.10100000352E+00 0. -1.
</event>
<event>
 5   0  0.2641626E-07  0.2601706E+04  0.7818609E-02  0.8367622E-01
       -1   -1    0    0    0  501  0.00000000000E+00  0.00000000000E+00  0.82704477377E+03  0.82704477378E+03  0.50400001928E-02 0.  1.
        1   -1    0    0  501    0  0.00000000000E+00  0.00000000000E+00 -0.20461031797E+04  0.20461031797E+04  0.50400001928E-02 0. -1.
    10030    2    1    2    0    0  0.00000000000E+00  0.00000000000E+00 -0.12190584060E+04  0.28731479535E+04  0.26017063181E+04 0.  0.
        3    1    3    3  502    0  0.67099072548E+03 -0.10017563787E+04 -0.11488171632E+04  0.16653904289E+04  0.10100000352E+00 0. -1.
       -3    1    3    3    0  502 -0.67099072548E+03  0.10017563787E+04 -0.70241242777E+02  0.12077575246E+04  0.10100000352E+00 0.  1.
</event>
<event>
 5   0  0.6768478E-07  0.2600659E+04  0.7818609E-02  0.8367977E-01
        2   -1    0    0  501    0  0.00000000000E+00  0.00000000000E+00  0.27050643934E+04  0.27050643934E+04  0.25500000920E-02 0.  1.
       -2   -1    0    0    0  501  0.00000000000E+00  0.00000000000E+00 -0.62507066772E+03  0.62507066773E+03  0.25500000920E-02 0. -1.
    10030    2    1    2    0    0  0.00000000000E+00  0.00000000000E+00  0.20799937257E+04  0.33301350612E+04  0.26006586909E+04 0.  0.
        4    1    3    3  502    0  0.16664355789E+03  0.54375114026E+03 -0.45737393574E+03  0.72981361177E+03  0.12699999809E+01 0. -1.
       -4    1    3    3    0  502 -0.16664355789E+03 -0.54375114026E+03  0.25373676615E+04  0.26003214494E+04  0.12699999809E+01 0.  1.
</event>
<event>
 5   0  0.2793576E-07  0.2601004E+04  0.7818609E-02  0.8367860E-01
        1   -1    0    0  501    0  0.00000000000E+00  0.00000000000E+00  0.20580346682E+04  0.20580346682E+04  0.50400001928E-02 0. -1.
       -1   -1    0    0    0  501  0.00000000000E+00  0.00000000000E+00 -0.82180602820E+03  0.82180602822E+03  0.50400001928E-02 0.  1.
    10030    2    1    2    0    0  0.00000000000E+00  0.00000000000E+00  0.12362286400E+04  0.28798406964E+04  0.26010038805E+04 0.  0.
        2    1    3    3  502    0  0.50905335074E+03  0.76114704338E+03  0.16406005476E+04  0.18788428067E+04  0.25500000920E-02 0. -1.
       -2    1    3    3    0  502 -0.50905335074E+03 -0.76114704338E+03 -0.40437190761E+03  0.10009978897E+04  0.25500000920E-02 0.  1.
</event>
<event>
 5   0  0.2623263E-07  0.2603772E+04  0.7818609E-02  0.8366921E-01
        1   -1    0    0  501    0  0.00000000000E+00  0.00000000000E+00  0.19810894171E+04  0.19810894171E+04  0.50400001928E-02 0. -1.
       -1   -1    0    0    0  501  0.00000000000E+00  0.00000000000E+00 -0.85554317159E+03  0.85554317160E+03  0.50400001928E-02 0.  1.
    10030    2    1    2    0    0  0.00000000000E+00  0.00000000000E+00  0.11255462455E+04  0.28366325887E+04  0.26037722812E+04 0.  0.
        1    1    3    3  502    0 -0.28497176298E+03 -0.75127299706E+03 -0.55318356324E+03  0.97551631276E+03  0.50400001928E-02 0.  1.
       -1    1    3    3    0  502  0.28497176298E+03  0.75127299706E+03  0.16787298087E+04  0.18611162759E+04  0.50400001928E-02 0. -1.
</event>
<event>
 5   0  0.6599814E-07  0.2601133E+04  0.7818609E-02  0.8367817E-01
       -2   -1    0    0    0  501  0.00000000000E+00  0.00000000000E+00  0.13044542072E+04  0.13044542072E+04  0.25500000920E-02 0.  1.
        2   -1    0    0  501    0  0.00000000000E+00  0.00000000000E+00 -0.12966899722E+04  0.12966899722E+04  0.25500000920E-02 0. -1.
    10030    2    1    2    0    0  0.00000000000E+00  0.00000000000E+00  0.77642349849E+01  0.26011441794E+04  0.26011325915E+04 0.  0.
        5    1    3    3  502    0  0.39555985608E+03 -0.87603723571E+03 -0.87221639312E+03  0.12979569964E+04  0.46999998093E+01 0. -1.
       -5    1    3    3    0  502 -0.39555985608E+03  0.87603723571E+03  0.87998062811E+03  0.13031871830E+04  0.46999998093E+01 0.  1.
</event>
<event>
 5   0  0.2864801E-07  0.2599797E+04  0.7818609E-02  0.8368270E-01
       -1   -1    0    0    0  501  0.00000000000E+00  0.00000000000E+00  0.17787189494E+04  0.17787189494E+04  0.50400001928E-02 0. -1.
        1   -1    0    0  501    0  0.00000000000E+00  0.00000000000E+00 -0.94997382278E+03  0.94997382279E+03  0.50400001928E-02 0.  1.
    10030    2    1    2    0    0  0.00000000000E+00  0.00000000000E+00  0.82874512664E+03  0.27286927722E+04  0.25997972537E+04 0.  0.
        5    1    3    3  502    0  0.11407822626E+02 -0.31239499813E+03 -0.90992571812E+03  0.96213703585E+03  0.46999998093E+01 0.  1.
       -5    1    3    3    0  502 -0.11407822626E+02  0.31239499813E+03  0.17386708448E+04  0.17665557364E+04  0.46999998093E+01 0. -1.
</event>
<event>
 5   0  0.6526351E-07  0.2594641E+04  0.7818609E-02  0.8370024E-01
       -2   -1    0    0    0  501  0.00000000000E+00  0.00000000000E+00  0.97793321969E+03  0.97793321970E+03  0.25500000920E-02 0. -1.
        2   -1    0    0  501    0  0.00000000000E+00  0.00000000000E+00 -0.17210184442E+04  0.17210184442E+04  0.25500000920E-02 0.  1.
    10030    2    1    2    0    0  0.00000000000E+00  0.00000000000E+00 -0.74308522453E+03  0.26989516639E+04  0.25946414845E+04 0.  0.
        3    1    3    3  502    0  0.63732770672E+03 -0.11001801509E+04 -0.10338396802E+03  0.12756454151E+04  0.10100000352E+00 0.  1.
       -3    1    3    3    0  502 -0.63732770672E+03  0.11001801509E+04 -0.63970125650E+03  0.14233062488E+04  0.10100000352E+00 0. -1.
</event>
<event>
 5   0  0.7160320E-07  0.2599692E+04  0.7818609E-02  0.8368306E-01
       -2   -1    0    0    0  501  0.00000000000E+00  0.00000000000E+00  0.10204028208E+04  0.10204028208E+04  0.25500000920E-02 0.  1.
        2   -1    0    0  501    0  0.00000000000E+00  0.00000000000E+00 -0.16558163079E+04  0.16558163079E+04  0.25500000920E-02 0. -1.
    10030    2    1    2    0    0  0.00000000000E+00  0.00000000000E+00 -0.63541348713E+03  0.26762191288E+04  0.25996920059E+04 0.  0.
        1    1    3    3  502    0 -0.82373011489E+03  0.85214666441E+03  0.23177967832E+03  0.12076452539E+04  0.50400001928E-02 0. -1.
       -1    1    3    3    0  502  0.82373011489E+03 -0.85214666441E+03 -0.86719316545E+03  0.14685738749E+04  0.50400001928E-02 0.  1.
</event>
<event>
 5   0  0.2793576E-07  0.2595755E+04  0.7818609E-02  0.8369645E-01
        1   -1    0    0  501    0  0.00000000000E+00  0.00000000000E+00  0.18404711278E+04  0.18404711278E+04  0.50400001928E-02 0.  1.
       -1   -1    0    0    0  501  0.00000000000E+00  0.00000000000E+00 -0.91524714069E+03  0.91524714070E+03  0.50400001928E-02 0. -1.
    10030    2    1    2    0    0  0.00000000000E+00  0.00000000000E+00  0.92522398712E+03  0.27557182685E+04  0.25957549478E+04 0.  0.
        2    1    3    3  502    0 -0.34266384043E+03 -0.39722137237E+03 -0.79767708118E+03  0.95472092888E+03  0.25500000920E-02 0. -1.
       -2    1    3    3    0  502  0.34266384043E+03  0.39722137237E+03  0.17229010683E+04  0.18009973396E+04  0.25500000920E-02 0.  1.
</event>
<event>
 5   0  0.2793576E-07  0.2599574E+04  0.7818609E-02  0.8368346E-01
       -1   -1    0    0    0  501  0.00000000000E+00  0.00000000000E+00  0.95524104516E+03  0.95524104517E+03  0.50400001928E-02 0. -1.
        1   -1    0    0  501    0  0.00000000000E+00  0.00000000000E+00 -0.17686066877E+04  0.17686066877E+04  0.50400001928E-02 0.  1.
    10030    2    1    2    0    0  0.00000000000E+00  0.00000000000E+00 -0.81336564250E+03  0.27238477328E+04  0.25995735810E+04 0.  0.
        2    1    3    3  502    0 -0.12724686573E+04 -0.72775848829E+02 -0.13959947198E+03  0.12821703555E+04  0.25500000920E-02 0.  1.
       -2    1    3    3    0  502  0.12724686573E+04  0.72775848829E+02 -0.67376617052E+03  0.14416773774E+04  0.25500000920E-02 0. -1.
</event>
<event>
 5   0  0.6526351E-07  0.2600234E+04  0.7818609E-02  0.8368122E-01
        2   -1    0    0  501    0  0.00000000000E+00  0.00000000000E+00  0.18288241555E+04  0.18288241555E+04  0.25500000920E-02 0.  1.
       -2   -1    0    0    0  501  0.00000000000E+00  0.00000000000E+00 -0.92425755768E+03  0.92425755768E+03  0.25500000920E-02 0. -1.
    10030    2    1    2    0    0  0.00000000000E+00  0.00000000000E+00  0.90456659777E+03  0.27530817131E+04  0.26002342566E+04 0.  0.
        3    1    3    3  502    0  0.11483353690E+04 -0.51536853628E+03  0.10752702478E+03  0.12632659732E+04  0.10100000352E+00 0. -1.
       -3    1    3    3    0  502 -0.11483353690E+04  0.51536853628E+03  0.79703957299E+03  0.14898157399E+04  0.10100000352E+00 0.  1.
</event>
<event>
 5   0  0.6526351E-07  0.2600938E+04  0.7818609E-02  0.8367882E-01
       -2   -1    0    0    0  501  0.00000000000E+00  0.00000000000E+00  0.84794172758E+03  0.84794172758E+03  0.25500000920E-02 0.  1.
        2   -1    0    0  501    0  0.00000000000E+00  0.00000000000E+00 -0.19945005598E+04  0.19945005598E+04  0.25500000920E-02 0. -1.
    10030    2    1    2    0    0  0.00000000000E+00  0.00000000000E+00 -0.11465588323E+04  0.28424422874E+04  0.26009384848E+04 0.  0.
        3    1    3    3  502    0  0.65264465180E+03  0.56650185116E+03  0.48872974460E+03  0.99283742997E+03  0.10100000352E+00 0.  1.
       -3    1    3    3    0  502 -0.65264465180E+03 -0.56650185116E+03 -0.16352885769E+04  0.18496048575E+04  0.10100000352E+00 0. -1.
</event>
<event>
 5   0  0.2755061E-07  0.2602969E+04  0.7818609E-02  0.8367194E-01
        1   -1    0    0  501    0  0.00000000000E+00  0.00000000000E+00  0.21041364857E+04  0.21041364857E+04  0.50400001928E-02 0.  1.
       -1   -1    0    0    0  501  0.00000000000E+00  0.00000000000E+00 -0.80501493755E+03  0.80501493756E+03  0.50400001928E-02 0. -1.
    10030    2    1    2    0    0  0.00000000000E+00  0.00000000000E+00  0.12991215482E+04  0.29091514233E+04  0.26029685374E+04 0.  0.
        4    1    3    3  502    0 -0.11413060594E+04 -0.62549755412E+03  0.64314269166E+03  0.14517096287E+04  0.12699999809E+01 0. -1.
       -4    1    3    3    0  502  0.11413060594E+04  0.62549755412E+03  0.65597885651E+03  0.14574417946E+04  0.12699999809E+01 0.  1.
</event>
<event>
 5   0  0.2755061E-07  0.2598392E+04  0.7818609E-02  0.8368748E-01
       -1   -1    0    0    0  501  0.00000000000E+00  0.00000000000E+00  0.10678973606E+04  0.10678973606E+04  0.50400001928E-02 0. -1.
        1   -1    0    0  501    0  0.00000000000E+00  0.00000000000E+00 -0.15805920203E+04  0.15805920203E+04  0.50400001928E-02 0.  1.
    10030    2    1    2    0    0  0.00000000000E+00  0.00000000000E+00 -0.51269465970E+03  0.26484893810E+04  0.25983918463E+04 0.  0.
        4    1    3    3  502    0 -0.26130419778E+03 -0.12111699015E+04 -0.65464470970E+03  0.14013471101E+04  0.12699999809E+01 0.  1.
       -4    1    3    3    0  502  0.26130419778E+03  0.12111699015E+04  0.14195005000E+03  0.12471422709E+04  0.12699999809E+01 0. -1.
</event>
<event>
 5   0  0.2623263E-07  0.2596612E+04  0.7818609E-02  0.8369353E-01
       -1   -1    0    0    0  501  0.00000000000E+00  0.00000000000E+00  0.68556722755E+03  0.68556722757E+03  0.50400001928E-02 0. -1.
        1   -1    0    0  501    0  0.00000000000E+00  0.00000000000E+00 -0.24586909148E+04  0.24586909148E+04  0.50400001928E-02 0.  1.
    10030    2    1    2    0    0  0.00000000000E+00  0.00000000000E+00 -0.17731236872E+04  0.31442581424E+04  0.25966115719E+04 0.  0.
        1    1    3    3  502    0 -0.70725386430E+03  0.83228886417E+03 -0.17365168460E+04  0.20514393821E+04  0.50400001928E-02 0. -1.
       -1    1    3    3    0  502  0.70725386430E+03 -0.83228886417E+03 -0.36606841267E+02  0.10928187603E+04  0.50400001928E-02 0.  1.
</event>
<event>
 5   0  0.2623263E-07  0.2599338E+04  0.7818609E-02  0.8368426E-01
       -1   -1    0    0    0  501  0.00000000000E+00  0.00000000000E+00  0.12802619039E+04  0.12802619039E+04  0.50400001928E-02 0. -1.
        1   -1    0    0  501    0  0.00000000000E+00  0.00000000000E+00 -0.13193705562E+04  0.13193705562E+04  0.50400001928E-02 0.  1.
    10030    2    1    2    0    0  0.00000000000E+00  0.00000000000E+00 -0.39108652328E+02  0.25996324601E+04  0.25993382698E+04 0.  0.
        1    1    3    3  502    0 -0.18197831536E+03  0.25655312912E+03  0.12416214032E+04  0.12808432083E+04  0.50400001928E-02 0. -1.
       -1    1    3    3    0  502  0.18197831536E+03 -0.25655312912E+03 -0.12807300556E+04  0.13187892518E+04  0.50400001928E-02 0.  1.
</event>
<event>
 5   0  0.2793576E-07  0.2599180E+04  0.7818609E-02  0.8368480E-01
        1   -1    0    0  501    0  0.00000000000E+00  0.00000000000E+00  0.22607712280E+04  0.22607712280E+04  0.50400001928E-02 0. -1.
       -1   -1    0    0    0  501  0.00000000000E+00  0.00000000000E+00 -0.74706091980E+03  0.74706091981E+03  0.50400001928E-02 0.  1.
    10030    2    1    2    0    0  0.00000000000E+00  0.00000000000E+00  0.15137103082E+04  0.30078321478E+04  0.25991797422E+04 0.  0.
        2    1    3    3  502    0  0.63665191760E+03  0.10035569962E+04  0.13653408043E+04  0.18101402765E+04  0.25500000920E-02 0. -1.
       -2    1    3    3    0  502 -0.63665191760E+03 -0.10035569962E+04  0.14836950388E+03  0.11976918713E+04  0.25500000920E-02 0.  1.
</event>
<event>
 5   0  0.2864801E-07  0.2599822E+04  0.7818609E-02  0.8368262E-01
       -1   -1    0    0    0  501  0.00000000000E+00  0.00000000000E+00  0.11627159499E+04  0.11627159499E+04  0.50400001928E-02 0.  1.
        1   -1    0    0  501    0  0.00000000000E+00  0.00000000000E+00 -0.14532942725E+04  0.14532942725E+04  0.50400001928E-02 0. -1.
    10030    2    1    2    0    0  0.00000000000E+00  0.00000000000E+00 -0.29057832266E+03  0.26160102224E+04  0.25998218636E+04 0.  0.
        5    1    3    3  502    0  0.11750822383E+04 -0.52483553913E+03  0.38813844018E+02  0.12875555189E+04  0.46999998093E+01 0.  1.
       -5    1    3    3    0  502 -0.11750822383E+04  0.52483553913E+03 -0.32939216668E+03  0.13284547035E+04  0.46999998093E+01 0. -1.
</event>
<event>
 5   0  0.2793576E-07  0.2599394E+04  0.7818609E-02  0.8368407E-01
        1   -1    0    0  501    0  0.00000000000E+00  0.00000000000E+00  0.14350106551E+04  0.14350106551E+04  0.50400001928E-02 0. -1.
       -1   -1    0    0    0  501  0.00000000000E+00  0.00000000000E+00 -0.11771431111E+04  0.11771431111E+04  0.50400001928E-02 0.  1.
    10030    2    1    2    0    0  0.00000000000E+00  0.00000000000E+00  0.25786754398E+03  0.26121537662E+04  0.25993944733E+04 0.  0.
        2    1    3    3  502    0 -0.48480061693E+03  0.12050840976E+04  0.17335012405E+03  0.13104615927E+04  0.25500000920E-02 0. -1.
       -2    1    3    3    0  502  0.48480061693E+03 -0.12050840976E+04  0.84517419927E+02  0.13016921735E+04  0.25500000920E-02 0.  1.
</event>
<event>
 5   0  0.7160320E-07  0.2599716E+04  0.7818609E-02  0.8368298E-01
       -2   -1    0    0    0  501  0.00000000000E+00  0.00000000000E+00  0.14193789231E+04  0.14193789231E+04  0.25500000920E-02 0. -1.
        2   -1    0    0  501    0  0.00000000000E+00  0.00000000000E+00 -0.11904019583E+04  0.11904019583E+04  0.25500000920E-02 0.  1.
    10030    2    1    2    0    0  0.00000000000E+00  0.00000000000E+00  0.22897696482E+03  0.26097808814E+04  0.25997164842E+04 0.  0.
        1    1    3    3  502    0  0.30334431867E+03  0.37555237405E+03 -0.10970699014E+04  0.11985907266E+04  0.50400001928E-02 0.  1.
       -1    1    3    3    0  502 -0.30334431867E+03 -0.37555237405E+03  0.13260468662E+04  0.14111901547E+04  0.50400001928E-02 0. -1.
</event>
<event>
 5   0  0.7160320E-07  0.2598509E+04  0.7818609E-02  0.8368708E-01
       -2   -1    0    0    0  501  0.00000000000E+00  0.00000000000E+00  0.14683723956E+04  0.14683723956E+04  0.25500000920E-02 0.  1.
        2   -1    0    0  501    0  0.00000000000E+00  0.00000000000E+00 -0.11496148792E+04  0.11496148792E+04  0.25500000920E-02 0. -1.
    10030    2    1    2    0    0  0.00000000000E+00  0.00000000000E+00  0.31875751644E+03  0.26179872748E+04  0.25985093836E+04 0.  0.
        1    1    3    3  502    0 -0.60546897034E+02 -0.12765983272E+04 -0.76240753635E+02  0.12803053809E+04  0.50400001928E-02 0. -1.
       -1    1    3    3    0  502  0.60546897034E+02  0.12765983272E+04  0.39499827008E+03  0.13376818939E+04  0.50400001928E-02 0.  1.
</event>
<event>
 5   0  0.6780984E-07  0.2600576E+04  0.7818609E-02  0.8368005E-01
       -2   -1    0    0    0  501  0.00000000000E+00  0.00000000000E+00  0.90102580627E+03  0.90102580628E+03  0.25500000920E-02 0.  1.
        2   -1    0    0  501    0  0.00000000000E+00  0.00000000000E+00 -0.18764717417E+04  0.18764717417E+04  0.25500000920E-02 0. -1.
    10030    2    1    2    0    0  0.00000000000E+00  0.00000000000E+00 -0.97544593541E+03  0.27774975480E+04  0.26005764469E+04 0.  0.
        2    1    3    3  502    0  0.51942726832E+03  0.15258134831E+03  0.77493406988E+03  0.94530871549E+03  0.25500000920E-02 0.  1.
       -2    1    3    3    0  502 -0.51942726832E+03 -0.15258134831E+03 -0.17503800053E+04  0.18321888325E+04  0.25500000920E-02 0. -1.
</event>
<event>
 5   0  0.2755061E-07  0.2593034E+04  0.7818609E-02  0.8370571E-01
       -1   -1    0    0    0  501  0.00000000000E+00  0.00000000000E+00  0.81221430132E+03  0.81221430133E+03  0.50400001928E-02 0. -1.
        1   -1    0    0  501    0  0.00000000000E+00  0.00000000000E+00 -0.20695976710E+04  0.20695976710E+04  0.50400001928E-02 0.  1.
    10030    2    1    2    0    0  0.00000000000E+00  0.00000000000E+00 -0.12573833697E+04  0.28818119723E+04  0.25930343819E+04 0.  0.
        4    1    3    3  502    0  0.74101189620E+03  0.10443083140E+04 -0.85448443882E+03  0.15394231887E+04  0.12699999809E+01 0.  1.
       -4    1    3    3    0  502 -0.74101189620E+03 -0.10443083140E+04 -0.40289893086E+03  0.13423887836E+04  0.12699999809E+01 0. -1.
</event>
<event>
 5   0  0.2755061E-07  0.2600827E+04  0.7818609E-02  0.8367920E-01
        1   -1    0    0  501    0  0.00000000000E+00  0.00000000000E+00  0.18863725635E+04  0.18863725635E+04  0.50400001928E-02 0.  1.
       -1   -1    0    0    0  501  0.00000000000E+00  0.00000000000E+00 -0.89646950944E+03  0.89646950945E+03  0.50400001928E-02 0. -1.
    10030    2    1    2    0    0  0.00000000000E+00  0.00000000000E+00  0.98990305408E+03  0.27828420730E+04  0.26008271659E+04 0.  0.
        4    1    3    3  502    0  0.42171639012E+03  0.55241988700E+03  0.16709901288E+04  0.18097574613E+04  0.12699999809E+01 0.  1.
       -4    1    3    3    0  502 -0.42171639012E+03 -0.55241988700E+03 -0.68108707472E+03  0.97308461168E+03  0.12699999809E+01 0. -1.
</event>
<event>
 5   0  0.2623263E-07  0.2600315E+04  0.7818609E-02  0.8368094E-01
       -1   -1    0    0    0  501  0.00000000000E+00  0.00000000000E+00  0.14526833102E+04  0.14526833102E+04  0.50400001928E-02 0.  1.
        1   -1    0    0  501    0  0.00000000000E+00  0.00000000000E+00 -0.11636465170E+04  0.11636465170E+04  0.50400001928E-02 0. -1.
    10030    2    1    2    0    0  0.00000000000E+00  0.00000000000E+00  0.28903679324E+03  0.26163298272E+04  0.26003152687E+04 0.  0.
        1    1    3    3  502    0  0.41159805407E+02 -0.76737420281E+03  0.11997158264E+04  0.14247369444E+04  0.50400001928E-02 0.  1.
       -1    1    3    3    0  502 -0.41159805407E+02  0.76737420281E+03 -0.91067903316E+03  0.11915928827E+04  0.50400001928E-02 0. -1.
</event>
<event>
 5   0  0.2793576E-07  0.2596781E+04  0.7818609E-02  0.8369295E-01
        1   -1    0    0  501    0  0.00000000000E+00  0.00000000000E+00  0.14085675148E+04  0.14085675148E+04  0.50400001928E-02 0. -1.
       -1   -1    0    0    0  501  0.00000000000E+00  0.00000000000E+00 -0.11968317183E+04  0.11968317183E+04  0.50400001928E-02 0.  1.
    10030    2    1    2    0    0  0.00000000000E+00  0.00000000000E+00  0.21173579651E+03  0.26053992332E+04  0.25967812993E+04 0.  0.
        2    1    3    3  502    0  0.79296999729E+03  0.99541745305E+03  0.36393924865E+03  0.13236725800E+04  0.25500000920E-02 0.  1.
       -2    1    3    3    0  502 -0.79296999729E+03 -0.99541745305E+03 -0.15220345214E+03  0.12817266531E+04  0.25500000920E-02 0. -1.
</event>
<event>
 5   0  0.2793576E-07  0.2600612E+04  0.7818609E-02  0.8367993E-01
        1   -1    0    0  501    0  0.00000000000E+00  0.00000000000E+00  0.12549229409E+04  0.12549229409E+04  0.50400001928E-02 0.  1.
       -1   -1    0    0    0  501  0.00000000000E+00  0.00000000000E+00 -0.13473306577E+04  0.13473306577E+04  0.50400001928E-02 0. -1.
    10030    2    1    2    0    0  0.00000000000E+00  0.00000000000E+00 -0.92407716795E+02  0.26022535986E+04  0.26006123520E+04 0.  0.
        2    1    3    3  502    0 -0.47617692764E+03  0.11478530579E+04 -0.42917904588E+03  0.13147264971E+04  0.25500000920E-02 0.  1.
       -2    1    3    3    0  502  0.47617692764E+03 -0.11478530579E+04  0.33677132909E+03  0.12875271014E+04  0.25500000920E-02 0. -1.
</event>
<event>
 5   0  0.6526351E-07  0.2599954E+04  0.7818609E-02  0.8368217E-01
        2   -1    0    0  501    0  0.00000000000E+00  0.00000000000E+00  0.14954506680E+04  0.14954506680E+04  0.25500000920E-02 0. -1.
       -2   -1    0    0    0  501  0.00000000000E+00  0.00000000000E+00 -0.11300541674E+04  0.11300541674E+04  0.25500000920E-02 0.  1.
    10030    2    1    2    0    0  0.00000000000E+00  0.00000000000E+00  0.36539650063E+03  0.26255048354E+04  0.25999540453E+04 0.  0.
        3    1    3    3  502    0 -0.70766628277E+03 -0.34647965214E+03  0.12268326966E+04  0.14580665941E+04  0.10100000352E+00 0. -1.
       -3    1    3    3    0  502  0.70766628277E+03  0.34647965214E+03 -0.86143619601E+03  0.11674382412E+04  0.10100000352E+00 0.  1.
</event>
<event>
 5   0  0.7160320E-07  0.2599645E+04  0.7818609E-02  0.8368322E-01
        2   -1    0    0  501    0  0.00000000000E+00  0.00000000000E+00  0.19901107365E+04  0.19901107365E+04  0.25500000920E-02 0. -1.
       -2   -1    0    0    0  501  0.00000000000E+00  0.00000000000E+00 -0.84896680539E+03  0.84896680540E+03  0.25500000920E-02 0.  1.
    10030    2    1    2    0    0  0.00000000000E+00  0.00000000000E+00  0.11411439311E+04  0.28390775419E+04  0.25996445560E+04 0.  0.
        1    1    3    3  502    0 -0.43895509955E+03 -0.34478612351E+03  0.18525617569E+04  0.19348240524E+04  0.50400001928E-02 0. -1.
       -1    1    3    3    0  502  0.43895509955E+03  0.34478612351E+03 -0.71141782582E+03  0.90425348952E+03  0.50400001928E-02 0.  1.
</event>
<event>
 5   0  0.6526351E-07  0.2599612E+04  0.7818609E-02  0.8368333E-01
       -2   -1    0    0    0  501  0.00000000000E+00  0.00000000000E+00  0.97045498641E+03  0.97045498642E+03  0.25500000920E-02 0. -1.
        2   -1    0    0  501    0  0.00000000000E+00  0.00000000000E+00 -0.17409311928E+04  0.17409311928E+04  0.25500000920E-02 0.  1.
    10030    2    1    2    0    0  0.00000000000E+00  0.00000000000E+00 -0.77047620640E+03  0.27113861792E+04  0.25996117841E+04 0.  0.
        3    1    3    3  502    0 -0.53442313179E+03  0.11078719784E+04  0.52953223459E+02  0.12311752346E+04  0.10100000352E+00 0. -1.
       -3    1    3    3    0  502  0.53442313179E+03 -0.11078719784E+04 -0.82342942986E+03  0.14802109446E+04  0.10100000352E+00 0.  1.
</event>
<event>
 5   0  0.2623263E-07  0.2599808E+04  0.7818609E-02  0.8368267E-01
       -1   -1    0    0    0  501  0.00000000000E+00  0.00000000000E+00  0.66319649794E+03  0.66319649796E+03  0.50400001928E-02 0.  1.
        1   -1    0    0  501    0  0.00000000000E+00  0.00000000000E+00 -0.25478872384E+04  0.25478872384E+04  0.50400001928E-02 0. -1.
    10030    2    1    2    0    0  0.00000000000E+00  0.00000000000E+00 -0.18846907404E+04  0.32110837363E+04  0.25998076034E+04 0.  0.
        1    1    3    3  502    0  0.74350621684E+03  0.72692263382E+03 -0.19058461939E+04  0.21710522160E+04  0.50400001928E-02 0. -1.
       -1    1    3    3    0  502 -0.74350621684E+03 -0.72692263382E+03  0.21155453409E+02  0.10400315203E+04  0.50400001928E-02 0.  1.
</event>
<event>
 5   0  0.6780984E-07  0.2601172E+04  0.7818609E-02  0.8367803E-01
       -2   -1    0    0    0  501  0.00000000000E+00  0.00000000000E+00  0.84211486636E+03  0.84211486636E+03  0.25500000920E-02 0.  1.
        2   -1    0    0  501    0  0.00000000000E+00  0.00000000000E+00 -0.20086622505E+04  0.20086622505E+04  0.25500000920E-02 0. -1.
    10030    2    1    2    0    0  0.00000000000E+00  0.00000000000E+00 -0.11665473842E+04  0.28507771169E+04  0.26011723070E+04 0.  0.
        2    1    3    3  502    0 -0.44768866330E+03  0.12170005705E+04 -0.69291784321E+03  0.14702553062E+04  0.25500000920E-02 0. -1.
       -2    1    3    3    0  502  0.44768866330E+03 -0.12170005705E+04 -0.47362954095E+03  0.13805218107E+04  0.25500000920E-02 0.  1.
</event>
<event>
 5   0  0.6780984E-07  0.2600450E+04  0.7818609E-02  0.8368048E-01
       -2   -1    0    0    0  501  0.00000000000E+00  0.00000000000E+00  0.10186382311E+04  0.10186382311E+04  0.25500000920E-02 0.  1.
        2   -1    0    0  501    0  0.00000000000E+00  0.00000000000E+00 -0.16596521195E+04  0.16596521195E+04  0.25500000920E-02 0. -1.
    10030    2    1    2    0    0  0.00000000000E+00  0.00000000000E+00 -0.64101388841E+03  0.26782903506E+04  0.26004500374E+04 0.  0.
        2    1    3    3  502    0  0.83296947110E+03 -0.60370653527E+03 -0.11394726426E+04  0.15351539414E+04  0.25500000920E-02 0. -1.
       -2    1    3    3    0  502 -0.83296947110E+03  0.60370653527E+03  0.49845875417E+03  0.11431364092E+04  0.25500000920E-02 0.  1.
</event>
<event>
 5   0  0.2623263E-07  0.2601373E+04  0.7818609E-02  0.8367735E-01
       -1   -1    0    0    0  501  0.00000000000E+00  0.00000000000E+00  0.10936706394E+04  0.10936706394E+04  0.50400001928E-02 0.  1.
        1   -1    0    0  501    0  0.00000000000E+00  0.00000000000E+00 -0.15468876477E+04  0.15468876477E+04  0.50400001928E-02 0. -1.
    10030    2    1    2    0    0  0.00000000000E+00  0.00000000000E+00 -0.45321700827E+03  0.26405582871E+04  0.26013731780E+04 0.  0.
        1    1    3    3  502    0 -0.54226601104E+03 -0.88552000239E+03  0.56850907021E+03  0.11838076973E+04  0.50400001928E-02 0.  1.
       -1    1    3    3    0  502  0.54226601104E+03  0.88552000239E+03 -0.10217260785E+04  0.14567505898E+04  0.50400001928E-02 0. -1.
</event>
<event>
 5   0  0.2755061E-07  0.2600005E+04  0.7818609E-02  0.8368199E-01
       -1   -1    0    0    0  501  0.00000000000E+00  0.00000000000E+00  0.78874333996E+03  0.78874333998E+03  0.50400001928E-02 0.  1.
        1   -1    0    0  501    0  0.00000000000E+00  0.00000000000E+00 -0.21426577917E+04  0.21426577917E+04  0.50400001928E-02 0. -1.
    10030    2    1    2    0    0  0.00000000000E+00  0.00000000000E+00 -0.13539144517E+04  0.29314011316E+04  0.26000054331E+04 0.  0.
        4    1    3    3  502    0  0.59550965982E+03 -0.29298834670E+03 -0.19372591644E+04  0.20477911537E+04  0.12699999809E+01 0. -1.
       -4    1    3    3    0  502 -0.59550965982E+03  0.29298834670E+03  0.58334471275E+03  0.88360997789E+03  0.12699999809E+01 0.  1.
</event>
<event>
 5   0  0.2864801E-07  0.2600658E+04  0.7818609E-02  0.8367978E-01
       -1   -1    0    0    0  501  0.00000000000E+00  0.00000000000E+00  0.10326397155E+04  0.10326397155E+04  0.50400001928E-02 0. -1.
        1   -1    0    0  501    0  0.00000000000E+00  0.00000000000E+00 -0.16374115097E+04  0.16374115097E+04  0.50400001928E-02 0.  1.
    10030    2    1    2    0    0  0.00000000000E+00  0.00000000000E+00 -0.60477179413E+03  0.26700512252E+04  0.26006584978E+04 0.  0.
        5    1    3    3  502    0 -0.23187372532E+03 -0.73512986235E+03  0.77276848091E+03  0.10915010555E+04  0.46999998093E+01 0. -1.
       -5    1    3    3    0  502  0.23187372532E+03  0.73512986235E+03 -0.13775402750E+04  0.15785501697E+04  0.46999998093E+01 0.  1.
</event>
<event>
 5   0  0.6768478E-07  0.2600058E+04  0.7818609E-02  0.8368181E-01
       -2   -1    0    0    0  501  0.00000000000E+00  0.00000000000E+00  0.21541856177E+04  0.21541856177E+04  0.25500000920E-02 0.  1.
        2   -1    0    0  501    0  0.00000000000E+00  0.00000000000E+00 -0.78455425582E+03  0.78455425582E+03  0.25500000920E-02 0. -1.
    10030    2    1    2    0    0  0.00000000000E+00  0.00000000000E+00  0.13696313619E+04  0.29387398735E+04  0.26000580718E+04 0.  0.
        4    1    3    3  502    0 -0.76333921239E+03  0.44743902807E+02 -0.50350841356E+03  0.91553869686E+03  0.12699999809E+01 0. -1.
       -4    1    3    3    0  502  0.76333921239E+03 -0.44743902807E+02  0.18731397754E+04  0.20232011767E+04  0.12699999809E+01 0.  1.
</event>
<event>
 5   0  0.2864801E-07  0.2602492E+04  0.7818609E-02  0.8367355E-01
        1   -1    0    0  501    0  0.00000000000E+00  0.00000000000E+00  0.17145152430E+04  0.17145152430E+04  0.50400001928E-02 0.  1.
       -1   -1    0    0    0  501  0.00000000000E+00  0.00000000000E+00 -0.98759202146E+03  0.98759202147E+03  0.50400001928E-02 0. -1.
    10030    2    1    2    0    0  0.00000000000E+00  0.00000000000E+00  0.72692322155E+03  0.27021072645E+04  0.26024923244E+04 0.  0.
        5    1    3    3  502    0 -0.15572054618E+03 -0.53103921249E+03  0.15862360189E+04  0.16800054558E+04  0.46999998093E+01 0.  1.
       -5    1    3    3    0  502  0.15572054618E+03  0.53103921249E+03 -0.85931279736E+03  0.10221018087E+04  0.46999998093E+01 0. -1.
</event>
<event>
 5   0  0.6526351E-07  0.2600266E+04  0.7818609E-02  0.8368111E-01
        2   -1    0    0  501    0  0.00000000000E+00  0.00000000000E+00  0.17298738252E+04  0.17298738252E+04  0.25500000920E-02 0.  1.
       -2   -1    0    0    0  501  0.00000000000E+00  0.00000000000E+00 -0.97715002322E+03  0.97715002323E+03  0.25500000920E-02 0. -1.
    10030    2    1    2    0    0  0.00000000000E+00  0.00000000000E+00  0.75272380196E+03  0.27070238484E+04  0.26002663313E+04 0.  0.
        3    1    3    3  502    0  0.83361755076E+03 -0.74457808159E+03 -0.31500574624E+03  0.11612680013E+04  0.10100000352E+00 0. -1.
       -3    1    3    3    0  502 -0.83361755076E+03  0.74457808159E+03  0.10677295482E+04  0.15457558471E+04  0.10100000352E+00 0.  1.
</event>
<event>
 5   0  0.2864801E-07  0.2597835E+04  0.7818609E-02  0.8368937E-01
        1   -1    0    0  501    0  0.00000000000E+00  0.00000000000E+00  0.24908685940E+04  0.24908685940E+04  0.50400001928E-02 0.  1.
       -1   -1    0    0    0  501  0.00000000000E+00  0.00000000000E+00 -0.67734882794E+03  0.67734882796E+03  0.50400001928E-02 0. -1.
    10030    2    1    2    0    0  0.00000000000E+00  0.00000000000E+00  0.18135197661E+04  0.31682174220E+04  0.25978351932E+04 0.  0.
        5    1    3    3  502    0  0.93308216210E+03  0.51983450969E+01 -0.19523677292E+03  0.95331465504E+03  0.46999998093E+01 0. -1.
       -5    1    3    3    0  502 -0.93308216210E+03 -0.51983450969E+01  0.20087565390E+04  0.22149027669E+04  0.46999998093E+01 0.  1.
</event>
<event>
 5   0  0.2641626E-07  0.2599777E+04  0.7818609E-02  0.8368277E-01
        1   -1    0    0  501    0  0.00000000000E+00  0.00000000000E+00  0.16934305423E+04  0.16934305423E+04  0.50400001928E-02 0. -1.
       -1   -1    0    0    0  501  0.00000000000E+00  0.00000000000E+00 -0.99780268565E+03  0.99780268567E+03  0.50400001928E-02 0.  1.
    10030    2    1    2    0    0  0.00000000000E+00  0.00000000000E+00  0.69562785664E+03  0.26912332280E+04  0.25997765620E+04 0.  0.
        3    1    3    3  502    0 -0.11667515904E+04  0.11997976792E+03 -0.23226043655E+03  0.11956794465E+04  0.10100000352E+00 0.  1.
       -3    1    3    3    0  502  0.11667515904E+04 -0.11997976792E+03  0.92788829319E+03  0.14955537814E+04  0.10100000352E+00 0. -1.
</event>
<event>
 5   0  0.2641626E-07  0.2597386E+04  0.7818609E-02  0.8369090E-01
       -1   -1    0    0    0  501  0.00000000000E+00  0.00000000000E+00  0.13860267518E+04  0.13860267518E+04  0.50400001928E-02 0.  1.
        1   -1    0    0  501    0  0.00000000000E+00  0.00000000000E+00 -0.12168617683E+04  0.12168617684E+04  0.50400001928E-02 0. -1.
    10030    2    1    2    0    0  0.00000000000E+00  0.00000000000E+00  0.16916498346E+03  0.26028885202E+04  0.25973855811E+04 0.  0.
        3    1    3    3  502    0 -0.90526999733E+03 -0.82874414589E+03  0.51006692394E+03  0.13290970260E+04  0.10100000352E+00 0.  1.
       -3    1    3    3    0  502  0.90526999733E+03  0.82874414589E+03 -0.34090194047E+03  0.12737914942E+04  0.10100000352E+00 0. -1.
</event>
<event>
 5   0  0.2864801E-07  0.2599083E+04  0.7818609E-02  0.8368513E-01
       -1   -1    0    0    0  501  0.00000000000E+00  0.00000000000E+00  0.83535998457E+03  0.83535998458E+03  0.50400001928E-02 0.  1.
        1   -1    0    0  501    0  0.00000000000E+00  0.00000000000E+00 -0.20216530753E+04  0.20216530753E+04  0.50400001928E-02 0. -1.
    10030    2    1    2    0    0  0.00000000000E+00  0.00000000000E+00 -0.11862930907E+04  0.28570130599E+04  0.25990829781E+04 0.  0.
        5    1    3    3  502    0  0.12378827619E+04 -0.30079216501E+03 -0.87545269040E+03  0.15457260954E+04  0.46999998093E+01 0. -1.
       -5    1    3    3    0  502 -0.12378827619E+04  0.30079216501E+03 -0.31084040034E+03  0.13112869645E+04  0.46999998093E+01 0.  1.
</event>
<event>
 5   0  0.6768478E-07  0.2600005E+04  0.7818609E-02  0.8368199E-01
        2   -1    0    0  501    0  0.00000000000E+00  0.00000000000E+00  0.20808831123E+04  0.20808831123E+04  0.25500000920E-02 0. -1.
       -2   -1    0    0    0  501  0.00000000000E+00  0.00000000000E+00 -0.81215857278E+03  0.81215857279E+03  0.25500000920E-02 0.  1.
    10030    2    1    2    0    0  0.00000000000E+00  0.00000000000E+00  0.12687245395E+04  0.28930416851E+04  0.26000054297E+04 0.  0.
        4    1    3    3  502    0  0.82135104724E+03 -0.60108853590E+03 -0.26554141268E+03  0.10518739590E+04  0.12699999809E+01 0.  1.
       -4    1    3    3    0  502 -0.82135104724E+03  0.60108853590E+03  0.15342659522E+04  0.18411677261E+04  0.12699999809E+01 0. -1.
</event>
<event>
 5   0  0.6526351E-07  0.2598998E+04  0.7818609E-02  0.8368542E-01
       -2   -1    0    0    0  501  0.00000000000E+00  0.00000000000E+00  0.10787242970E+04  0.10787242970E+04  0.25500000920E-02 0.  1.
        2   -1    0    0  501    0  0.00000000000E+00  0.00000000000E+00 -0.15654580072E+04  0.15654580072E+04  0.25500000920E-02 0. -1.
    10030    2    1    2    0    0  0.00000000000E+00  0.00000000000E+00 -0.48673371024E+03  0.26441823042E+04  0.25989979518E+04 0.  0.
        3    1    3    3  502    0  0.13002577784E+03  0.12637202106E+04 -0.52162146368E+03  0.13733114851E+04  0.10100000352E+00 0.  1.
       -3    1    3    3    0  502 -0.13002577784E+03 -0.12637202106E+04  0.34887753442E+02  0.12708708192E+04  0.10100000352E+00 0. -1.
</event>
<event>
 5   0  0.6780984E-07  0.2593002E+04  0.7818609E-02  0.8370582E-01
       -2   -1    0    0    0  501  0.00000000000E+00  0.00000000000E+00  0.10145350032E+04  0.10145350032E+04  0.25500000920E-02 0. -1.
        2   -1    0    0  501    0  0.00000000000E+00  0.00000000000E+00 -0.16568324114E+04  0.16568324114E+04  0.25500000920E-02 0.  1.
    10030    2    1    2    0    0  0.00000000000E+00  0.00000000000E+00 -0.64229740823E+03  0.26713674146E+04  0.25930017168E+04 0.  0.
        2    1    3    3  502    0  0.85437244807E+03 -0.46569285853E+03  0.56153715910E+03  0.11234527580E+04  0.25500000920E-02 0. -1.
       -2    1    3    3    0  502 -0.85437244807E+03  0.46569285853E+03 -0.12038345673E+04  0.15479146566E+04  0.25500000920E-02 0.  1.
</event>
<event>
 5   0  0.7160320E-07  0.2600721E+04  0.7818609E-02  0.8367956E-01
        2   -1    0    0  501    0  0.00000000000E+00  0.00000000000E+00  0.17783207984E+04  0.17783207984E+04  0.25500000920E-02 0.  1.
       -2   -1    0    0    0  501  0.00000000000E+00  0.00000000000E+00 -0.95086190109E+03  0.95086190110E+03  0.25500000920E-02 0. -1.
    10030    2    1    2    0    0  0.00000000000E+00  0.00000000000E+00  0.82745889731E+03  0.27291826995E+04  0.26007210501E+04 0.  0.
        1    1    3    3  502    0  0.56461022658E+03  0.11708317147E+04  0.45165142514E+03  0.13760888859E+04  0.50400001928E-02 0. -1.
       -1    1    3    3    0  502 -0.56461022658E+03 -0.11708317147E+04  0.37580747217E+03  0.13530938136E+04  0.50400001928E-02 0.  1.
</event>
<event>
 5   0  0.6599814E-07  0.2600038E+04  0.7818609E-02  0.8368188E-01
       -2   -1    0    0    0  501  0.00000000000E+00  0.00000000000E+00  0.60783122738E+03  0.60783122739E+03  0.25500000920E-02 0.  1.
        2   -1    0    0  501    0  0.00000000000E+00  0.00000000000E+00 -0.27804584406E+04  0.27804584406E+04  0.25500000920E-02 0. -1.
    10030    2    1    2    0    0  0.00000000000E+00  0.00000000000E+00 -0.21726272132E+04  0.33882896680E+04  0.26000380510E+04 0.  0.
        5    1    3    3  502    0 -0.73740000118E+03  0.88933494979E+03 -0.18631511147E+04  0.21922658555E+04  0.46999998093E+01 0. -1.
       -5    1    3    3    0  502  0.73740000118E+03 -0.88933494979E+03 -0.30947609850E+03  0.11960238126E+04  0.46999998093E+01 0.  1.
</event>
<event>
 5   0  0.6526351E-07  0.2599638E+04  0.7818609E-02  0.8368324E-01
       -2   -1    0    0    0  501  0.00000000000E+00  0.00000000000E+00  0.95587289100E+03  0.95587289100E+03  0.25500000920E-02 0. -1.
        2   -1    0    0  501    0  0.00000000000E+00  0.00000000000E+00 -0.17675250236E+04  0.17675250236E+04  0.25500000920E-02 0.  1.
    10030    2    1    2    0    0  0.00000000000E+00  0.00000000000E+00 -0.81165213259E+03  0.27233979146E+04  0.25996378626E+04 0.  0.
        3    1    3    3  502    0 -0.11595144930E+04 -0.24661497725E+03  0.15269315329E+03  0.11952439148E+04  0.10100000352E+00 0. -1.
       -3    1    3    3    0  502  0.11595144930E+04  0.24661497725E+03 -0.96434528589E+03  0.15281539998E+04  0.10100000352E+00 0.  1.
</event>
<event>
 5   0  0.2623263E-07  0.2598677E+04  0.7818609E-02  0.8368651E-01
       -1   -1    0    0    0  501  0.00000000000E+00  0.00000000000E+00  0.20975103346E+04  0.20975103346E+04  0.50400001928E-02 0.  1.
        1   -1    0    0  501    0  0.00000000000E+00  0.00000000000E+00 -0.80489727535E+03  0.80489727536E+03  0.50400001928E-02 0. -1.
    10030    2    1    2    0    0  0.00000000000E+00  0.00000000000E+00  0.12926130592E+04  0.29024076100E+04  0.25986768582E+04 0.  0.
        1    1    3    3  502    0  0.98126399296E+03  0.30774137923E+03 -0.24067864450E+03  0.10561770639E+04  0.50400001928E-02 0. -1.
       -1    1    3    3    0  502 -0.98126399296E+03 -0.30774137923E+03  0.15332917037E+04  0.18462305460E+04  0.50400001928E-02 0.  1.
</event>
<event>
 5   0  0.2641626E-07  0.2599513E+04  0.7818609E-02  0.8368367E-01
        1   -1    0    0  501    0  0.00000000000E+00  0.00000000000E+00  0.30112016160E+04  0.30112016160E+04  0.50400001928E-02 0. -1.
       -1   -1    0    0    0  501  0.00000000000E+00  0.00000000000E+00 -0.56102737910E+03  0.56102737912E+03  0.50400001928E-02 0.  1.
    10030    2    1    2    0    0  0.00000000000E+00  0.00000000000E+00  0.24501742369E+04  0.35722289951E+04  0.25995126856E+04 0.  0.
        3    1    3    3  502    0 -0.15336179585E+03  0.56719483186E+03  0.28182826268E+04  0.28788794335E+04  0.10100000352E+00 0. -1.
       -3    1    3    3    0  502  0.15336179585E+03 -0.56719483186E+03 -0.36810838991E+03  0.69334956165E+03  0.10100000352E+00 0.  1.
</event>
<event>
 5   0  0.2864801E-07  0.2600332E+04  0.7818609E-02  0.8368088E-01
        1   -1    0    0  501    0  0.00000000000E+00  0.00000000000E+00  0.16357528368E+04  0.16357528368E+04  0.50400001928E-02 0. -1.
       -1   -1    0    0    0  501  0.00000000000E+00  0.00000000000E+00 -0.10334275912E+04  0.10334275912E+04  0.50400001928E-02 0.  1.
    10030    2    1    2    0    0  0.00000000000E+00  0.00000000000E+00  0.60232524562E+03  0.26691804280E+04  0.26003323741E+04 0.  0.
        5    1    3    3  502    0  0.10415457896E+04  0.61597719174E+03  0.78932159818E+03  0.14447478008E+04  0.46999998093E+01 0. -1.
       -5    1    3    3    0  502 -0.10415457896E+04 -0.61597719174E+03 -0.18699635256E+03  0.12244326272E+04  0.46999998093E+01 0.  1.
</event>
<event>
 5   0  0.2641626E-07  0.2600179E+04  0.7818609E-02  0.8368140E-01
       -1   -1    0    0    0  501  0.00000000000E+00  0.00000000000E+00  0.93580874712E+03  0.93580874713E+03  0.50400001928E-02 0.  1.
        1   -1    0    0  501    0  0.00000000000E+00  0.00000000000E+00 -0.18061729251E+04  0.18061729251E+04  0.50400001928E-02 0. -1.
    10030    2    1    2    0    0  0.00000000000E+00  0.00000000000E+00 -0.87036417794E+03  0.27419816722E+04  0.26001787801E+04 0.  0.
        3    1    3    3  502    0  0.80861198934E+03 -0.83507594331E+03  0.17883241430E+03  0.11760893771E+04  0.10100000352E+00 0.  1.
       -3    1    3    3    0  502 -0.80861198934E+03  0.83507594331E+03 -0.10491965922E+04  0.15658922951E+04  0.10100000352E+00 0. -1.
</event>
<event>
 5   0  0.6780984E-07  0.2599003E+04  0.7818609E-02  0.8368540E-01
        2   -1    0    0  501    0  0.00000000000E+00  0.00000000000E+00  0.15504877663E+04  0.15504877663E+04  0.25500000920E-02 0. -1.
       -2   -1    0    0    0  501  0.00000000000E+00  0.00000000000E+00 -0.10891435245E+04  0.10891435245E+04  0.25500000920E-02 0.  1.
    10030    2    1    2    0    0  0.00000000000E+00  0.00000000000E+00  0.46134424177E+03  0.26396312909E+04  0.25990026630E+04 0.  0.
        2    1    3    3  502    0 -0.10547657593E+02 -0.52530816469E+02  0.15493654679E+04  0.15502916155E+04  0.25500000920E-02 0. -1.
       -2    1    3    3    0  502  0.10547657593E+02  0.52530816469E+02 -0.10880212262E+04  0.10893396754E+04  0.25500000920E-02 0.  1.
</event>
<event>
 5   0  0.6526351E-07  0.2601418E+04  0.7818609E-02  0.8367720E-01
        2   -1    0    0  501    0  0.00000000000E+00  0.00000000000E+00  0.73424901205E+03  0.73424901205E+03  0.25500000920E-02 0.  1.
       -2   -1    0    0    0  501  0.00000000000E+00  0.00000000000E+00 -0.23041829330E+04  0.23041829330E+04  0.25500000920E-02 0. -1.
    10030    2    1    2    0    0  0.00000000000E+00  0.00000000000E+00 -0.15699339209E+04  0.30384319450E+04  0.26014181072E+04 0.  0.
        3    1    3    3  502    0 -0.45742673086E+03 -0.38574303023E+03 -0.21338859618E+04  0.22161918255E+04  0.10100000352E+00 0. -1.
       -3    1    3    3    0  502  0.45742673086E+03  0.38574303023E+03  0.56395204087E+03  0.82224011948E+03  0.10100000352E+00 0.  1.
</event>
<event>
 5   0  0.2641626E-07  0.2602714E+04  0.7818609E-02  0.8367280E-01
        1   -1    0    0  501    0  0.00000000000E+00  0.00000000000E+00  0.15323816123E+04  0.15323816123E+04  0.50400001928E-02 0. -1.
       -1   -1    0    0    0  501  0.00000000000E+00  0.00000000000E+00 -0.11051620920E+04  0.11051620920E+04  0.50400001928E-02 0.  1.
    10030    2    1    2    0    0  0.00000000000E+00  0.00000000000E+00  0.42721952034E+03  0.26375437043E+04  0.26027140207E+04 0.  0.
        3    1    3    3  502    0 -0.27591791342E+03  0.74961732100E+03 -0.82750073739E+03  0.11501366456E+04  0.10100000352E+00 0.  1.
       -3    1    3    3    0  502  0.27591791342E+03 -0.74961732100E+03  0.12547202577E+04  0.14874070587E+04  0.10100000352E+00 0. -1.
</event>
<event>
 5   0  0.2793576E-07  0.2599748E+04  0.7818609E-02  0.8368287E-01
        1   -1    0    0  501    0  0.00000000000E+00  0.00000000000E+00  0.10552445751E+04  0.10552445751E+04  0.50400001928E-02 0. -1.
       -1   -1    0    0    0  501  0.00000000000E+00  0.00000000000E+00 -0.16012144657E+04  0.16012144657E+04  0.50400001928E-02 0.  1.
    10030    2    1    2    0    0  0.00000000000E+00  0.00000000000E+00 -0.54596989054E+03  0.26564590408E+04  0.25997483559E+04 0.  0.
        2    1    3    3  502    0 -0.79971521392E+03 -0.85817612651E+03  0.29928758227E+03  0.12106129623E+04  0.25500000920E-02 0. -1.
       -2    1    3    3    0  502  0.79971521392E+03  0.85817612651E+03 -0.84525747281E+03  0.14458460785E+04  0.25500000920E-02 0.  1.
</event>
<event>
 5   0  0.6780984E-07  0.2599830E+04  0.7818609E-02  0.8368259E-01
       -2   -1    0    0    0  501  0.00000000000E+00  0.00000000000E+00  0.11315539672E+04  0.11315539672E+04  0.25500000920E-02 0. -1.
        2   -1    0    0  501    0  0.00000000000E+00  0.00000000000E+00 -0.14933260480E+04  0.14933260480E+04  0.25500000920E-02 0.  1.
    10030    2    1    2    0    0  0.00000000000E+00  0.00000000000E+00 -0.36177208084E+03  0.26248800152E+04  0.25998300052E+04 0.  0.
        2    1    3    3  502    0 -0.56124877398E+03  0.10197602856E+04 -0.76513936325E+03  0.13929642750E+04  0.25500000920E-02 0.  1.
       -2    1    3    3    0  502  0.56124877398E+03 -0.10197602856E+04  0.40336728240E+03  0.12319157402E+04  0.25500000920E-02 0. -1.
</event>
<event>
 5   0  0.2755061E-07  0.2599476E+04  0.7818609E-02  0.8368379E-01
        1   -1    0    0  501    0  0.00000000000E+00  0.00000000000E+00  0.14327282462E+04  0.14327282462E+04  0.50400001928E-02 0. -1.
       -1   -1    0    0    0  501  0.00000000000E+00  0.00000000000E+00 -0.11790926531E+04  0.11790926531E+04  0.50400001928E-02 0.  1.
    10030    2    1    2    0    0  0.00000000000E+00  0.00000000000E+00  0.25363559306E+03  0.26118208994E+04  0.25994763696E+04 0.  0.
        4    1    3    3  502    0  0.69779108095E+03 -0.48606737878E+03 -0.86077614028E+03  0.12100045727E+04  0.12699999809E+01 0.  1.
       -4    1    3    3    0  502 -0.69779108095E+03  0.48606737878E+03  0.11144117333E+04  0.14018163267E+04  0.12699999809E+01 0. -1.
</event>
<event>
 5   0  0.7160320E-07  0.2614348E+04  0.7818609E-02  0.8363344E-01
        2   -1    0    0  501    0  0.00000000000E+00  0.00000000000E+00  0.20227593322E+04  0.20227593322E+04  0.25500000920E-02 0. -1.
       -2   -1    0    0    0  501  0.00000000000E+00  0.00000000000E+00 -0.84473933236E+03  0.84473933237E+03  0.25500000920E-02 0.  1.
    10030    2    1    2    0    0  0.00000000000E+00  0.00000000000E+00  0.11780199998E+04  0.28674986645E+04  0.26143483837E+04 0.  0.
        1    1    3    3  502    0 -0.11511603242E+04  0.56632643869E+03  0.86389399935E+03  0.15466766208E+04  0.50400001928E-02 0. -1.
       -1    1    3    3    0  502  0.11511603242E+04 -0.56632643869E+03  0.31412600044E+03  0.13208220438E+04  0.50400001928E-02 0.  1.
</event>
<event>
 5   0  0.2755061E-07  0.2599624E+04  0.7818609E-02  0.8368329E-01
       -1   -1    0    0    0  501  0.00000000000E+00  0.00000000000E+00  0.73208067246E+03  0.73208067248E+03  0.50400001928E-02 0. -1.
        1   -1    0    0  501    0  0.00000000000E+00  0.00000000000E+00 -0.23078203758E+04  0.23078203759E+04  0.50400001928E-02 0.  1.
    10030    2    1    2    0    0  0.00000000000E+00  0.00000000000E+00 -0.15757397034E+04  0.30399010483E+04  0.25996235825E+04 0.  0.
        4    1    3    3  502    0  0.43102926754E+03 -0.12262466142E+04 -0.79545642621E+03  0.15238830425E+04  0.12699999809E+01 0. -1.
       -4    1    3    3    0  502 -0.43102926754E+03  0.12262466142E+04 -0.78028327718E+03  0.15160180058E+04  0.12699999809E+01 0.  1.
</event>
<event>
 5   0  0.2641626E-07  0.2600647E+04  0.7818609E-02  0.8367982E-01
        1   -1    0    0  501    0  0.00000000000E+00  0.00000000000E+00  0.24927503368E+04  0.24927503368E+04  0.50400001928E-02 0. -1.
       -1   -1    0    0    0  501  0.00000000000E+00  0.00000000000E+00 -0.67830339836E+03  0.67830339838E+03  0.50400001928E-02 0.  1.
    10030    2    1    2    0    0  0.00000000000E+00  0.00000000000E+00  0.18144469384E+04  0.31710537352E+04  0.26006468616E+04 0.  0.
        3    1    3    3  502    0 -0.54569925324E+03 -0.93216048292E+03  0.17899817469E+04  0.20906328002E+04  0.10100000352E+00 0. -1.
       -3    1    3    3    0  502  0.54569925324E+03  0.93216048292E+03  0.24465191538E+02  0.10804209350E+04  0.10100000352E+00 0.  1.
</event>
<event>
 5   0  0.2793576E-07  0.2600980E+04  0.7818609E-02  0.8367868E-01
        1   -1    0    0  501    0  0.00000000000E+00  0.00000000000E+00  0.14214860346E+04  0.14214860346E+04  0.50400001928E-02 0.  1.
       -1   -1    0    0    0  501  0.00000000000E+00  0.00000000000E+00 -0.11897931814E+04  0.11897931814E+04  0.50400001928E-02 0. -1.
    10030    2    1    2    0    0  0.00000000000E+00  0.00000000000E+00  0.23169285318E+03  0.26112792160E+04  0.26009801164E+04 0.  0.
        2    1    3    3  502    0 -0.98807185153E+03  0.82467667361E+03  0.30339295531E+03  0.13222801841E+04  0.25500000920E-02 0.  1.
       -2    1    3    3    0  502  0.98807185153E+03 -0.82467667361E+03 -0.71700102135E+02  0.12889990320E+04  0.25500000920E-02 0. -1.
</event>
<event>
 5   0  0.7160320E-07  0.2599480E+04  0.7818609E-02  0.8368378E-01
        2   -1    0    0  501    0  0.00000000000E+00  0.00000000000E+00  0.24075319041E+04  0.24075319041E+04  0.25500000920E-02 0.  1.
       -2   -1    0    0    0  501  0.00000000000E+00  0.00000000000E+00 -0.70168291224E+03  0.70168291224E+03  0.25500000920E-02 0. -1.
    10030    2    1    2    0    0  0.00000000000E+00  0.00000000000E+00  0.17058489919E+04  0.31092148164E+04  0.25994799463E+04 0.  0.
        1    1    3    3  502    0 -0.29575996386E+03  0.10717692756E+04  0.47749354546E+02  0.11128536908E+04  0.50400001928E-02 0. -1.
       -1    1    3    3    0  502  0.29575996386E+03 -0.10717692756E+04  0.16580996373E+04  0.19963611256E+04  0.50400001928E-02 0.  1.
</event>
<event>
 5   0  0.6599814E-07  0.2600299E+04  0.7818609E-02  0.8368100E-01
        2   -1    0    0  501    0  0.00000000000E+00  0.00000000000E+00  0.10475739696E+04  0.10475739696E+04  0.25500000920E-02 0. -1.
       -2   -1    0    0    0  501  0.00000000000E+00  0.00000000000E+00 -0.16136224283E+04  0.16136224283E+04  0.25500000920E-02 0.  1.
    10030    2    1    2    0    0  0.00000000000E+00  0.00000000000E+00 -0.56604845870E+03  0.26611963978E+04  0.26002991001E+04 0.  0.
        5    1    3    3  502    0 -0.17168225861E+03  0.24459651136E+03  0.10119407893E+04  0.10551533075E+04  0.46999998093E+01 0. -1.
       -5    1    3    3    0  502  0.17168225861E+03 -0.24459651136E+03 -0.15779892480E+04  0.16060430903E+04  0.46999998093E+01 0.  1.
</event>
<event>
 5   0  0.2864801E-07  0.2599298E+04  0.7818609E-02  0.8368440E-01
        1   -1    0    0  501    0  0.00000000000E+00  0.00000000000E+00  0.31591198910E+04  0.31591198910E+04  0.50400001928E-02 0.  1.
       -1   -1    0    0    0  501  0.00000000000E+00  0.00000000000E+00 -0.53467010272E+03  0.53467010275E+03  0.50400001928E-02 0. -1.
    10030    2    1    2    0    0  0.00000000000E+00  0.00000000000E+00  0.26244497883E+04  0.36937899938E+04  0.25992975641E+04 0.  0.
        5    1    3    3  502    0 -0.86496352650E+03 -0.74010489216E+03  0.22032584868E+04  0.24799772586E+04  0.46999998093E+01 0.  1.
       -5    1    3    3    0  502  0.86496352650E+03  0.74010489216E+03  0.42119130150E+03  0.12138127352E+04  0.46999998093E+01 0. -1.
</event>
<event>
 5   0  0.6768478E-07  0.2600433E+04  0.7818609E-02  0.8368054E-01
       -2   -1    0    0    0  501  0.00000000000E+00  0.00000000000E+00  0.10559164178E+04  0.10559164178E+04  0.25500000920E-02 0.  1.
        2   -1    0    0  501    0  0.00000000000E+00  0.00000000000E+00 -0.16010383311E+04  0.16010383311E+04  0.25500000920E-02 0. -1.
    10030    2    1    2    0    0  0.00000000000E+00  0.00000000000E+00 -0.54512191323E+03  0.26569547489E+04  0.26004327789E+04 0.  0.
        4    1    3    3  502    0  0.96787623357E+03  0.82207201712E+03  0.12747146255E+02  0.12699413008E+04  0.12699999809E+01 0. -1.
       -4    1    3    3    0  502 -0.96787623357E+03 -0.82207201712E+03 -0.55786905949E+03  0.13870134481E+04  0.12699999809E+01 0.  1.
</event>
<event>
 5   0  0.2623263E-07  0.2601555E+04  0.7818609E-02  0.8367673E-01
       -1   -1    0    0    0  501  0.00000000000E+00  0.00000000000E+00  0.10520815561E+04  0.10520815561E+04  0.50400001928E-02 0. -1.
        1   -1    0    0  501    0  0.00000000000E+00  0.00000000000E+00 -0.16082612565E+04  0.16082612565E+04  0.50400001928E-02 0.  1.
    10030    2    1    2    0    0  0.00000000000E+00  0.00000000000E+00 -0.55617970040E+03  0.26603428127E+04  0.26015549239E+04 0.  0.
        1    1    3    3  502    0 -0.99416766319E+03  0.15238466131E+03  0.56543296692E+03  0.11538218526E+04  0.50400001928E-02 0. -1.
       -1    1    3    3    0  502  0.99416766319E+03 -0.15238466131E+03 -0.11216126673E+04  0.15065209600E+04  0.50400001928E-02 0.  1.
</event>
<event>
 5   0  0.2864801E-07  0.2600867E+04  0.7818609E-02  0.8367907E-01
        1   -1    0    0  501    0  0.00000000000E+00  0.00000000000E+00  0.10790390457E+04  0.10790390457E+04  0.50400001928E-02 0.  1.
       -1   -1    0    0    0  501  0.00000000000E+00  0.00000000000E+00 -0.15672526241E+04  0.15672526241E+04  0.50400001928E-02 0. -1.
    10030    2    1    2    0    0  0.00000000000E+00  0.00000000000E+00 -0.48821357837E+03  0.26462916698E+04  0.26008666063E+04 0.  0.
        5    1    3    3  502    0  0.78968670145E+03  0.90538845491E+03 -0.75056681227E+03  0.14165824969E+04  0.46999998093E+01 0.  1.
       -5    1    3    3    0  502 -0.78968670145E+03 -0.90538845491E+03  0.26235323390E+03  0.12297091730E+04  0.46999998093E+01 0. -1.
</event>
<event>
 5   0  0.2793576E-07  0.2597571E+04  0.7818609E-02  0.8369027E-01
       -1   -1    0    0    0  501  0.00000000000E+00  0.00000000000E+00  0.12326233481E+04  0.12326233481E+04  0.50400001928E-02 0. -1.
        1   -1    0    0  501    0  0.00000000000E+00  0.00000000000E+00 -0.13684994452E+04  0.13684994452E+04  0.50400001928E-02 0.  1.
    10030    2    1    2    0    0  0.00000000000E+00  0.00000000000E+00 -0.13587609715E+03  0.26011227933E+04  0.25975714566E+04 0.  0.
        2    1    3    3  502    0 -0.11360215891E+04  0.39306937428E+03  0.42446157654E+03  0.12748396816E+04  0.25500000920E-02 0. -1.
       -2    1    3    3    0  502  0.11360215891E+04 -0.39306937428E+03 -0.56033767369E+03  0.13262831117E+04  0.25500000920E-02 0.  1.
</event>
<event>
 5   0  0.2793576E-07  0.2600156E+04  0.7818609E-02  0.8368148E-01
        1   -1    0    0  501    0  0.00000000000E+00  0.00000000000E+00  0.11797831304E+04  0.11797831304E+04  0.50400001928E-02 0.  1.
       -1   -1    0    0    0  501  0.00000000000E+00  0.00000000000E+00 -0.14326390439E+04  0.14326390439E+04  0.50400001928E-02 0. -1.
    10030    2    1    2    0    0  0.00000000000E+00  0.00000000000E+00 -0.25285591346E+03  0.26124221743E+04  0.26001564384E+04 0.  0.
        2    1    3    3  502    0  0.11700790430E+04  0.56040980910E+03 -0.21084367472E+03  0.13143816707E+04  0.25500000920E-02 0.  1.
       -2    1    3    3    0  502 -0.11700790430E+04 -0.56040980910E+03 -0.42012238743E+02  0.12980405037E+04  0.25500000920E-02 0. -1.
</event>
<event>
 5   0  0.2864801E-07  0.2600204E+04  0.7818609E-02  0.8368132E-01
        1   -1    0    0  501    0  0.00000000000E+00  0.00000000000E+00  0.17281728270E+04  0.17281728270E+04  0.50400001928E-02 0. -1.
       -1   -1    0    0    0  501  0.00000000000E+00  0.00000000000E+00 -0.97806491259E+03  0.97806491260E+03  0.50400001928E-02 0.  1.
    10030    2    1    2    0    0  0.00000000000E+00  0.00000000000E+00  0.75010791439E+03  0.27062377396E+04  0.26002039958E+04 0.  0.
        5    1    3    3  502    0 -0.10406078161E+03 -0.12365270526E+04  0.77870358481E+03  0.14650014202E+04  0.46999998093E+01 0. -1.
       -5    1    3    3    0  502  0.10406078161E+03  0.12365270526E+04 -0.28595670416E+02  0.12412363194E+04  0.46999998093E+01 0.  1.
</event>
<event>
 5   0  0.2864801E-07  0.2599639E+04  0.7818609E-02  0.8368324E-01
        1   -1    0    0  501    0  0.00000000000E+00  0.00000000000E+00  0.16467484403E+04  0.16467484403E+04  0.50400001928E-02 0. -1.
       -1   -1    0    0    0  501  0.00000000000E+00  0.00000000000E+00 -0.10259801829E+04  0.10259801829E+04  0.50400001928E-02 0.  1.
    10030    2    1    2    0    0  0.00000000000E+00  0.00000000000E+00  0.62076825742E+03  0.26727286233E+04  0.25996394104E+04 0.  0.
        5    1    3    3  502    0 -0.58314592806E+03  0.11500999018E+04  0.47844312094E+03  0.13753977125E+04  0.46999998093E+01 0. -1.
       -5    1    3    3    0  502  0.58314592806E+03 -0.11500999018E+04  0.14232513648E+03  0.12973309108E+04  0.46999998093E+01 0.  1.
</event>
<event>
 5   0  0.2793576E-07  0.2598876E+04  0.7818609E-02  0.8368583E-01
       -1   -1    0    0    0  501  0.00000000000E+00  0.00000000000E+00  0.82112213696E+03  0.82112213697E+03  0.50400001928E-02 0. -1.
        1   -1    0    0  501    0  0.00000000000E+00  0.00000000000E+00 -0.20563797541E+04  0.20563797541E+04  0.50400001928E-02 0.  1.
    10030    2    1    2    0    0  0.00000000000E+00  0.00000000000E+00 -0.12352576171E+04  0.28775018910E+04  0.25988758632E+04 0.  0.
        2    1    3    3  502    0  0.77498770339E+03  0.47983617398E+03 -0.16430335400E+04  0.18789379734E+04  0.25500000920E-02 0.  1.
       -2    1    3    3    0  502 -0.77498770339E+03 -0.47983617398E+03  0.40777592293E+03  0.99856391763E+03  0.25500000920E-02 0. -1.
</event>
<event>
 5   0  0.2793576E-07  0.2600668E+04  0.7818609E-02  0.8367974E-01
        1   -1    0    0  501    0  0.00000000000E+00  0.00000000000E+00  0.17411455932E+04  0.17411455932E+04  0.50400001928E-02 0. -1.
       -1   -1    0    0    0  501  0.00000000000E+00  0.00000000000E+00 -0.97112388822E+03  0.97112388824E+03  0.50400001928E-02 0.  1.
    10030    2    1    2    0    0  0.00000000000E+00  0.00000000000E+00  0.77002170498E+03  0.27122694814E+04  0.26006676669E+04 0.  0.
        2    1    3    3  502    0 -0.93984978588E+03 -0.80151339487E+03 -0.38784976048E+02  0.12358177926E+04  0.25500000920E-02 0.  1.
       -2    1    3    3    0  502  0.93984978588E+03  0.80151339487E+03  0.80880668103E+03  0.14764516888E+04  0.25500000920E-02 0. -1.
</event>
<event>
 5   0  0.2294625E-07  0.2600150E+04  0.7818609E-02  0.8368150E-01
       -4   -1    0    0    0  501  0.00000000000E+00  0.00000000000E+00  0.20576030786E+04  0.20576034705E+04  0.12699999809E+01 0.  1.
        4   -1    0    0  501    0  0.00000000000E+00  0.00000000000E+00 -0.82143802875E+03  0.82143901051E+03  0.12699999809E+01 0. -1.
    10030    2    1    2    0    0  0.00000000000E+00  0.00000000000E+00  0.12361650498E+04  0.28790424810E+04  0.26001502990E+04 0.  0.
        5    1    3    3  502    0 -0.11127245225E+04 -0.57546631793E+03  0.10030142033E+04  0.16047980958E+04  0.46999998093E+01 0.  1.
       -5    1    3    3    0  502  0.11127245225E+04  0.57546631793E+03  0.23315084650E+03  0.12742443853E+04  0.46999998093E+01 0. -1.
</event>
<event>
 5   0  0.7160320E-07  0.2598634E+04  0.7818609E-02  0.8368665E-01
       -2   -1    0    0    0  501  0.00000000000E+00  0.00000000000E+00  0.57522488768E+03  0.57522488769E+03  0.25500000920E-02 0. -1.
        2   -1    0    0  501    0  0.00000000000E+00  0.00000000000E+00 -0.29348945325E+04  0.29348945325E+04  0.25500000920E-02 0.  1.
    10030    2    1    2    0    0  0.00000000000E+00  0.00000000000E+00 -0.23596696448E+04  0.35101194202E+04  0.25986337778E+04 0.  0.
        1    1    3    3  502    0 -0.36742800481E+03  0.98815565155E+03 -0.15399882118E+03  0.10654438359E+04  0.50400001928E-02 0. -1.
       -1    1    3    3    0  502  0.36742800481E+03 -0.98815565155E+03 -0.22056708236E+04  0.24446755843E+04  0.50400001928E-02 0.  1.
</event>
<event>
 5   0  0.2864801E-07  0.2598782E+04  0.7818609E-02  0.8368615E-01
       -1   -1    0    0    0  501  0.00000000000E+00  0.00000000000E+00  0.71465385308E+03  0.71465385310E+03  0.50400001928E-02 0. -1.
        1   -1    0    0  501    0  0.00000000000E+00  0.00000000000E+00 -0.23625664341E+04  0.23625664341E+04  0.50400001928E-02 0.  1.
    10030    2    1    2    0    0  0.00000000000E+00  0.00000000000E+00 -0.16479125810E+04  0.30772202872E+04  0.25987821804E+04 0.  0.
        5    1    3    3  502    0  0.73504976426E+03  0.76069740456E+03  0.69578210706E+02  0.10601046716E+04  0.46999998093E+01 0. -1.
       -5    1    3    3    0  502 -0.73504976426E+03 -0.76069740456E+03 -0.17174907917E+04  0.20171156157E+04  0.46999998093E+01 0.  1.
</event>
<event>
 5   0  0.2793576E-07  0.2601179E+04  0.7818609E-02  0.8367801E-01
        1   -1    0    0  501    0  0.00000000000E+00  0.00000000000E+00  0.25667403787E+04  0.25667403787E+04  0.50400001928E-02 0. -1.
       -1   -1    0    0    0  501  0.00000000000E+00  0.00000000000E+00 -0.65902016636E+03  0.65902016638E+03  0.50400001928E-02 0.  1.
    10030    2    1    2    0    0  0.00000000000E+00  0.00000000000E+00  0.19077202123E+04  0.32257605451E+04  0.26011794797E+04 0.  0.
        2    1    3    3  502    0  0.41016226904E+03 -0.28765982419E+03 -0.53456277626E+03  0.73262447623E+03  0.25500000920E-02 0.  1.
       -2    1    3    3    0  502 -0.41016226904E+03  0.28765982419E+03  0.24422829886E+04  0.24931360688E+04  0.25500000920E-02 0. -1.
</event>
<event>
 5   0  0.2623263E-07  0.2598871E+04  0.7818609E-02  0.8368585E-01
        1   -1    0    0  501    0  0.00000000000E+00  0.00000000000E+00  0.27568985289E+04  0.27568985289E+04  0.50400001928E-02 0.  1.
       -1   -1    0    0    0  501  0.00000000000E+00  0.00000000000E+00 -0.61247545860E+03  0.61247545862E+03  0.50400001928E-02 0. -1.
    10030    2    1    2    0    0  0.00000000000E+00  0.00000000000E+00  0.21444230703E+04  0.33693739875E+04  0.25988710555E+04 0.  0.
        1    1    3    3  502    0  0.86907824884E+03 -0.55748271112E+03  0.49351350613E+02  0.10336921842E+04  0.50400001928E-02 0. -1.
       -1    1    3    3    0  502 -0.86907824884E+03  0.55748271112E+03  0.20950717196E+04  0.23356818033E+04  0.50400001928E-02 0.  1.
</event>
<event>
 5   0  0.6599814E-07  0.2600365E+04  0.7818609E-02  0.8368077E-01
       -2   -1    0    0    0  501  0.00000000000E+00  0.00000000000E+00  0.10248221425E+04  0.10248221425E+04  0.25500000920E-02 0.  1.
        2   -1    0    0  501    0  0.00000000000E+00  0.00000000000E+00 -0.16495293555E+04  0.16495293555E+04  0.25500000920E-02 0. -1.
    10030    2    1    2    0    0  0.00000000000E+00  0.00000000000E+00 -0.62470721298E+03  0.26743514981E+04  0.26003647500E+04 0.  0.
        5    1    3    3  502    0  0.24983709566E+03  0.10210474874E+04  0.47459437305E+03  0.11533509678E+04  0.46999998093E+01 0.  1.
       -5    1    3    3    0  502 -0.24983709566E+03 -0.10210474874E+04 -0.10993015860E+04  0.15210005303E+04  0.46999998093E+01 0. -1.
</event>
<event>
 5   0  0.6599814E-07  0.2600124E+04  0.7818609E-02  0.8368159E-01
       -2   -1    0    0    0  501  0.00000000000E+00  0.00000000000E+00  0.79398739196E+03  0.79398739196E+03  0.25500000920E-02 0.  1.
        2   -1    0    0  501    0  0.00000000000E+00  0.00000000000E+00 -0.21287005207E+04  0.21287005207E+04  0.25500000920E-02 0. -1.
    10030    2    1    2    0    0  0.00000000000E+00  0.00000000000E+00 -0.13347131288E+04  0.29226879127E+04  0.26001241314E+04 0.  0.
        5    1    3    3  502    0 -0.29267458983E+03 -0.20457507072E+03 -0.20724863109E+04  0.21030289998E+04  0.46999998093E+01 0. -1.
       -5    1    3    3    0  502  0.29267458983E+03  0.20457507072E+03  0.73777318217E+03  0.81965891286E+03  0.46999998093E+01 0.  1.
</event>
<event>
 5   0  0.6768478E-07  0.2599317E+04  0.7818609E-02  0.8368433E-01
        2   -1    0    0  501    0  0.00000000000E+00  0.00000000000E+00  0.16486043839E+04  0.16486043839E+04  0.25500000920E-02 0. -1.
       -2   -1    0    0    0  501  0.00000000000E+00  0.00000000000E+00 -0.10245709665E+04  0.10245709665E+04  0.25500000920E-02 0.  1.
    10030    2    1    2    0    0  0.00000000000E+00  0.00000000000E+00  0.62403341741E+03  0.26731753504E+04  0.25993169772E+04 0.  0.
        4    1    3    3  502    0  0.93273763140E+03 -0.10693230136E+03 -0.61222794313E+03  0.11208294577E+04  0.12699999809E+01 0.  1.
       -4    1    3    3    0  502 -0.93273763140E+03  0.10693230136E+03  0.12362613605E+04  0.15523458927E+04  0.12699999809E+01 0. -1.
</event>
<event>
 5   0  0.2864801E-07  0.2599740E+04  0.7818609E-02  0.8368289E-01
       -1   -1    0    0    0  501  0.00000000000E+00  0.00000000000E+00  0.12007562725E+04  0.12007562725E+04  0.50400001928E-02 0. -1.
        1   -1    0    0  501    0  0.00000000000E+00  0.00000000000E+00 -0.14071649851E+04  0.14071649851E+04  0.50400001928E-02 0.  1.
    10030    2    1    2    0    0  0.00000000000E+00  0.00000000000E+00 -0.20640871256E+03  0.26079212576E+04  0.25997401272E+04 0.  0.
        5    1    3    3  502    0  0.79999490566E+03 -0.77511512332E+03 -0.77527144808E+03  0.13571526118E+04  0.46999998093E+01 0.  1.
       -5    1    3    3    0  502 -0.79999490566E+03  0.77511512332E+03  0.56886273552E+03  0.12507686458E+04  0.46999998093E+01 0. -1.
</event>
<event>
 5   0  0.6780984E-07  0.2600510E+04  0.7818609E-02  0.8368028E-01
       -2   -1    0    0    0  501  0.00000000000E+00  0.00000000000E+00  0.87704338894E+03  0.87704338895E+03  0.25500000920E-02 0. -1.
        2   -1    0    0  501    0  0.00000000000E+00  0.00000000000E+00 -0.19276839280E+04  0.19276839280E+04  0.25500000920E-02 0.  1.
    10030    2    1    2    0    0  0.00000000000E+00  0.00000000000E+00 -0.10506405390E+04  0.28047273169E+04  0.26005095231E+04 0.  0.
        2    1    3    3  502    0 -0.19779256224E+03  0.93521278204E+03 -0.14759681313E+04  0.17584728516E+04  0.25500000920E-02 0.  1.
       -2    1    3    3    0  502  0.19779256224E+03 -0.93521278204E+03  0.42532759226E+03  0.10462544653E+04  0.25500000920E-02 0. -1.
</event>
<event>
 5   0  0.2793576E-07  0.2599355E+04  0.7818609E-02  0.8368420E-01
       -1   -1    0    0    0  501  0.00000000000E+00  0.00000000000E+00  0.17829875951E+04  0.17829875952E+04  0.50400001928E-02 0. -1.
        1   -1    0    0  501    0  0.00000000000E+00  0.00000000000E+00 -0.94737718507E+03  0.94737718508E+03  0.50400001928E-02 0.  1.
    10030    2    1    2    0    0  0.00000000000E+00  0.00000000000E+00  0.83561041008E+03  0.27303647802E+04  0.25993551269E+04 0.  0.
        2    1    3    3  502    0 -0.17562230377E+03  0.12842309325E+04  0.31777148342E+03  0.13345677192E+04  0.25500000920E-02 0.  1.
       -2    1    3    3    0  502  0.17562230377E+03 -0.12842309325E+04  0.51783892666E+03  0.13957970610E+04  0.25500000920E-02 0. -1.
</event>
<event>
 5   0  0.6780984E-07  0.2599884E+04  0.7818609E-02  0.8368241E-01
        2   -1    0    0  501    0  0.00000000000E+00  0.00000000000E+00  0.20959017512E+04  0.20959017512E+04  0.25500000920E-02 0.  1.
       -2   -1    0    0    0  501  0.00000000000E+00  0.00000000000E+00 -0.80626374027E+03  0.80626374028E+03  0.25500000920E-02 0. -1.
    10030    2    1    2    0    0  0.00000000000E+00  0.00000000000E+00  0.12896380109E+04  0.29021654915E+04  0.25998842937E+04 0.  0.
        2    1    3    3  502    0  0.59601358873E+03  0.75345531059E+03  0.16223800527E+04  0.18854824684E+04  0.25500000920E-02 0.  1.
       -2    1    3    3    0  502 -0.59601358873E+03 -0.75345531059E+03 -0.33274204183E+03  0.10166830231E+04  0.25500000920E-02 0. -1.
</event>
<event>
 5   0  0.2864801E-07  0.2598872E+04  0.7818609E-02  0.8368584E-01
       -1   -1    0    0    0  501  0.00000000000E+00  0.00000000000E+00  0.10108034271E+04  0.10108034272E+04  0.50400001928E-02 0. -1.
        1   -1    0    0  501    0  0.00000000000E+00  0.00000000000E+00 -0.16704867657E+04  0.16704867657E+04  0.50400001928E-02 0.  1.
    10030    2    1    2    0    0  0.00000000000E+00  0.00000000000E+00 -0.65968333859E+03  0.26812901929E+04  0.25988718690E+04 0.  0.
        5    1    3    3  502    0 -0.41704776392E+03 -0.10181513705E+04 -0.10431059247E+04  0.15161309676E+04  0.46999998093E+01 0.  1.
       -5    1    3    3    0  502  0.41704776392E+03  0.10181513705E+04  0.38342258616E+03  0.11651592253E+04  0.46999998093E+01 0. -1.
</event>
<event>
 5   0  0.6768478E-07  0.2601643E+04  0.7818609E-02  0.8367643E-01
       -2   -1    0    0    0  501  0.00000000000E+00  0.00000000000E+00  0.68853729086E+03  0.68853729087E+03  0.25500000920E-02 0.  1.
        2   -1    0    0  501    0  0.00000000000E+00  0.00000000000E+00 -0.24575818289E+04  0.24575818289E+04  0.25500000920E-02 0. -1.
    10030    2    1    2    0    0  0.00000000000E+00  0.00000000000E+00 -0.17690445380E+04  0.31461191197E+04  0.26016431227E+04 0.  0.
        4    1    3    3  502    0  0.80114870464E+03  0.99742608958E+03 -0.11692485633E+04  0.17331595041E+04  0.12699999809E+01 0. -1.
       -4    1    3    3    0  502 -0.80114870464E+03 -0.99742608958E+03 -0.59979597474E+03  0.14129596156E+04  0.12699999809E+01 0.  1.
</event>
<event>
 5   0  0.2623263E-07  0.2599828E+04  0.7818609E-02  0.8368260E-01
        1   -1    0    0  501    0  0.00000000000E+00  0.00000000000E+00  0.19765099361E+04  0.19765099361E+04  0.50400001928E-02 0.  1.
       -1   -1    0    0    0  501  0.00000000000E+00  0.00000000000E+00 -0.85492958442E+03  0.85492958444E+03  0.50400001928E-02 0. -1.
    10030    2    1    2    0    0  0.00000000000E+00  0.00000000000E+00  0.11215803516E+04  0.28314395205E+04  0.25998283161E+04 0.  0.
        1    1    3    3  502    0 -0.11322198143E+04 -0.13092831355E+03  0.12415461917E+04  0.16853785561E+04  0.50400001928E-02 0.  1.
       -1    1    3    3    0  502  0.11322198143E+04  0.13092831355E+03 -0.11996584007E+03  0.11460609644E+04  0.50400001928E-02 0. -1.
</event>
<event>
 5   0  0.2864801E-07  0.2596070E+04  0.7818609E-02  0.8369537E-01
        1   -1    0    0  501    0  0.00000000000E+00  0.00000000000E+00  0.15769644555E+04  0.15769644555E+04  0.50400001928E-02 0. -1.
       -1   -1    0    0    0  501  0.00000000000E+00  0.00000000000E+00 -0.10684420806E+04  0.10684420806E+04  0.50400001928E-02 0.  1.
    10030    2    1    2    0    0  0.00000000000E+00  0.00000000000E+00  0.50852237490E+03  0.26454065361E+04  0.25960702486E+04 0.  0.
        5    1    3    3  502    0 -0.49859413218E+03 -0.26887437310E+03  0.14443532250E+04  0.15514728054E+04  0.46999998093E+01 0. -1.
       -5    1    3    3    0  502  0.49859413218E+03  0.26887437310E+03 -0.93583085015E+03  0.10939337307E+04  0.46999998093E+01 0.  1.
</event>
<event>
 5   0  0.2623263E-07  0.2600430E+04  0.7818609E-02  0.8368055E-01
       -1   -1    0    0    0  501  0.00000000000E+00  0.00000000000E+00  0.10284411536E+04  0.10284411536E+04  0.50400001928E-02 0.  1.
        1   -1    0    0  501    0  0.00000000000E+00  0.00000000000E+00 -0.16438068646E+04  0.16438068646E+04  0.50400001928E-02 0. -1.
    10030    2    1    2    0    0  0.00000000000E+00  0.00000000000E+00 -0.61536571102E+03  0.26722480182E+04  0.26004296784E+04 0.  0.
        1    1    3    3  502    0 -0.42063328487E+03  0.78248510485E+02 -0.15693965166E+04  0.16266716375E+04  0.50400001928E-02 0. -1.
       -1    1    3    3    0  502  0.42063328487E+03 -0.78248510485E+02  0.95403080561E+03  0.10455763807E+04  0.50400001928E-02 0.  1.
</event>
<event>
 5   0  0.6780984E-07  0.2598562E+04  0.7818609E-02  0.8368690E-01
        2   -1    0    0  501    0  0.00000000000E+00  0.00000000000E+00  0.20014713533E+04  0.20014713533E+04  0.25500000920E-02 0. -1.
       -2   -1    0    0    0  501  0.00000000000E+00  0.00000000000E+00 -0.84344521035E+03  0.84344521036E+03  0.25500000920E-02 0.  1.
    10030    2    1    2    0    0  0.00000000000E+00  0.00000000000E+00  0.11580261430E+04  0.28449165637E+04  0.25985622383E+04 0.  0.
        2    1    3    3  502    0  0.33675748365E+03  0.26122207435E+03 -0.76473969637E+03  0.87548236883E+03  0.25500000920E-02 0.  1.
       -2    1    3    3    0  502 -0.33675748365E+03 -0.26122207435E+03  0.19227658393E+04  0.19694341948E+04  0.25500000920E-02 0. -1.
</event>
<event>
 5   0  0.6526351E-07  0.2599481E+04  0.7818609E-02  0.8368377E-01
       -2   -1    0    0    0  501  0.00000000000E+00  0.00000000000E+00  0.66072924142E+03  0.66072924143E+03  0.25500000920E-02 0.  1.
        2   -1    0    0  501    0  0.00000000000E+00  0.00000000000E+00 -0.25567595005E+04  0.25567595005E+04  0.25500000920E-02 0. -1.
    10030    2    1    2    0    0  0.00000000000E+00  0.00000000000E+00 -0.18960302591E+04  0.32174887420E+04  0.25994813062E+04 0.  0.
        3    1    3    3  502    0 -0.97929588118E+03  0.85437529783E+03 -0.92491928205E+03  0.15951342454E+04  0.10100000352E+00 0. -1.
       -3    1    3    3    0  502  0.97929588118E+03 -0.85437529783E+03 -0.97111097706E+03  0.16223544965E+04  0.10100000352E+00 0.  1.
</event>
<event>
 5   0  0.2864801E-07  0.2603363E+04  0.7818609E-02  0.8367060E-01
        1   -1    0    0  501    0  0.00000000000E+00  0.00000000000E+00  0.23141480588E+04  0.23141480588E+04  0.50400001928E-02 0. -1.
       -1   -1    0    0    0  501  0.00000000000E+00  0.00000000000E+00 -0.73218104169E+03  0.73218104171E+03  0.50400001928E-02 0.  1.
    10030    2    1    2    0    0  0.00000000000E+00  0.00000000000E+00  0.15819670171E+04  0.30463291005E+04  0.26033634678E+04 0.  0.
        5    1    3    3  502    0 -0.78217538998E+03  0.25446688456E+03  0.19715040773E+04  0.21362121039E+04  0.46999998093E+01 0. -1.
       -5    1    3    3    0  502  0.78217538998E+03 -0.25446688456E+03 -0.38953706029E+03  0.91011699652E+03  0.46999998093E+01 0.  1.
</event>
<event>
 5   0  0.6599814E-07  0.2600860E+04  0.7818609E-02  0.8367909E-01
        2   -1    0    0  501    0  0.00000000000E+00  0.00000000000E+00  0.17825807886E+04  0.17825807886E+04  0.25500000920E-02 0. -1.
       -2   -1    0    0    0  501  0.00000000000E+00  0.00000000000E+00 -0.94869072267E+03  0.94869072267E+03  0.25500000920E-02 0.  1.
    10030    2    1    2    0    0  0.00000000000E+00  0.00000000000E+00  0.83389006594E+03  0.27312715113E+04  0.26008597475E+04 0.  0.
        5    1    3    3  502    0 -0.36396439254E+03 -0.40286527348E+02  0.17273110512E+04  0.17657062726E+04  0.46999998093E+01 0. -1.
       -5    1    3    3    0  502  0.36396439254E+03  0.40286527348E+02 -0.89342098527E+03  0.96556523873E+03  0.46999998093E+01 0.  1.
</event>
<event>
 5   0  0.6599814E-07  0.2598442E+04  0.7818609E-02  0.8368730E-01
       -2   -1    0    0    0  501  0.00000000000E+00  0.00000000000E+00  0.85410095277E+03  0.85410095277E+03  0.25500000920E-02 0. -1.
        2   -1    0    0  501    0  0.00000000000E+00  0.00000000000E+00 -0.19763187284E+04  0.19763187284E+04  0.25500000920E-02 0.  1.
    10030    2    1    2    0    0  0.00000000000E+00  0.00000000000E+00 -0.11222177757E+04  0.28304196812E+04  0.25984423865E+04 0.  0.
        5    1    3    3  502    0  0.65559844483E+03 -0.91613303248E+02  0.65661700934E+03  0.93240029234E+03  0.46999998093E+01 0. -1.
       -5    1    3    3    0  502 -0.65559844483E+03  0.91613303248E+02 -0.17788347850E+04  0.18980193889E+04  0.46999998093E+01 0.  1.
</event>
<event>
 5   0  0.6599814E-07  0.2601766E+04  0.7818609E-02  0.8367601E-01
       -2   -1    0    0    0  501  0.00000000000E+00  0.00000000000E+00  0.15170789123E+04  0.15170789123E+04  0.25500000920E-02 0.  1.
        2   -1    0    0  501    0  0.00000000000E+00  0.00000000000E+00 -0.11154971176E+04  0.11154971176E+04  0.25500000920E-02 0. -1.
    10030    2    1    2    0    0  0.00000000000E+00  0.00000000000E+00  0.40158179473E+03  0.26325760299E+04  0.26017664414E+04 0.  0.
        5    1    3    3  502    0 -0.45931829978E+03 -0.93430311014E+03 -0.58843238229E+03  0.11958973036E+04  0.46999998093E+01 0. -1.
       -5    1    3    3    0  502  0.45931829978E+03  0.93430311014E+03  0.99001417702E+03  0.14366787264E+04  0.46999998093E+01 0.  1.
</event>
<event>
 5   0  0.2623263E-07  0.2600299E+04  0.7818609E-02  0.8368100E-01
        1   -1    0    0  501    0  0.00000000000E+00  0.00000000000E+00  0.14395377769E+04  0.14395377769E+04  0.50400001928E-02 0.  1.
       -1   -1    0    0    0  501  0.00000000000E+00  0.00000000000E+00 -0.11742579755E+04  0.11742579755E+04  0.50400001928E-02 0. -1.
    10030    2    1    2    0    0  0.00000000000E+00  0.00000000000E+00  0.26527980142E+03  0.26137957525E+04  0.26002989948E+04 0.  0.
        1    1    3    3  502    0 -0.17586004841E+01  0.32481612735E+03 -0.11328146934E+04  0.11784641441E+04  0.50400001928E-02 0. -1.
       -1    1    3    3    0  502  0.17586004841E+01 -0.32481612735E+03  0.13980944949E+04  0.14353316083E+04  0.50400001928E-02 0.  1.
</event>
<event>
 5   0  0.6768478E-07  0.2600641E+04  0.7818609E-02  0.8367984E-01
        2   -1    0    0  501    0  0.00000000000E+00  0.00000000000E+00  0.16345773501E+04  0.16345773502E+04  0.25500000920E-02 0.  1.
       -2   -1    0    0    0  501  0.00000000000E+00  0.00000000000E+00 -0.10344160875E+04  0.10344160875E+04  0.25500000920E-02 0. -1.
    10030    2    1    2    0    0  0.00000000000E+00  0.00000000000E+00  0.60016126264E+03  0.26689934377E+04  0.26006407728E+04 0.  0.
        4    1    3    3  502    0  0.31267148038E+03 -0.20556402379E+03 -0.97796582749E+03  0.10471097341E+04  0.12699999809E+01 0. -1.
       -4    1    3    3    0  502 -0.31267148038E+03  0.20556402379E+03  0.15781270901E+04  0.16218837036E+04  0.12699999809E+01 0.  1.
</event>
<event>
 5   0  0.2623263E-07  0.2599918E+04  0.7818609E-02  0.8368229E-01
        1   -1    0    0  501    0  0.00000000000E+00  0.00000000000E+00  0.23875785945E+04  0.23875785945E+04  0.50400001928E-02 0. -1.
       -1   -1    0    0    0  501  0.00000000000E+00  0.00000000000E+00 -0.70778568214E+03  0.70778568215E+03  0.50400001928E-02 0.  1.
    10030    2    1    2    0    0  0.00000000000E+00  0.00000000000E+00  0.16797929124E+04  0.30953642766E+04  0.25999184173E+04 0.  0.
        1    1    3    3  502    0 -0.37871299265E+03 -0.10307115634E+03  0.23153515198E+04  0.23483823910E+04  0.50400001928E-02 0. -1.
       -1    1    3    3    0  502  0.37871299265E+03  0.10307115634E+03 -0.63555860741E+03  0.74698188569E+03  0.50400001928E-02 0.  1.
</event>
<event>
 5   0  0.2641626E-07  0.2599683E+04  0.7818609E-02  0.8368309E-01
       -1   -1    0    0    0  501  0.00000000000E+00  0.00000000000E+00  0.11834671353E+04  0.11834671353E+04  0.50400001928E-02 0. -1.
        1   -1    0    0  501    0  0.00000000000E+00  0.00000000000E+00 -0.14276591299E+04  0.14276591299E+04  0.50400001928E-02 0.  1.
    10030    2    1    2    0    0  0.00000000000E+00  0.00000000000E+00 -0.24419199457E+03  0.26111262652E+04  0.25996827965E+04 0.  0.
        3    1    3    3  502    0 -0.33803437803E+03  0.64588878019E+03 -0.12030060636E+04  0.14066496210E+04  0.10100000352E+00 0.  1.
       -3    1    3    3    0  502  0.33803437803E+03 -0.64588878019E+03  0.95881406902E+03  0.12044766441E+04  0.10100000352E+00 0. -1.
</event>
<event>
 5   0  0.2793576E-07  0.2600286E+04  0.7818609E-02  0.8368104E-01
       -1   -1    0    0    0  501  0.00000000000E+00  0.00000000000E+00  0.15319231597E+04  0.15319231597E+04  0.50400001928E-02 0.  1.
        1   -1    0    0  501    0  0.00000000000E+00  0.00000000000E+00 -0.11034310195E+04  0.11034310195E+04  0.50400001928E-02 0. -1.
    10030    2    1    2    0    0  0.00000000000E+00  0.00000000000E+00  0.42849214020E+03  0.26353541793E+04  0.26002857797E+04 0.  0.
        2    1    3    3  502    0 -0.10526508314E+04  0.37761880235E+03  0.88628902404E+03  0.14269470792E+04  0.25500000920E-02 0.  1.
       -2    1    3    3    0  502  0.10526508314E+04 -0.37761880235E+03 -0.45779688384E+03  0.12084071001E+04  0.25500000920E-02 0. -1.
</event>
<event>
 5   0  0.6768478E-07  0.2598320E+04  0.7818609E-02  0.8368772E-01
        2   -1    0    0  501    0  0.00000000000E+00  0.00000000000E+00  0.13721443681E+04  0.13721443681E+04  0.25500000920E-02 0.  1.
       -2   -1    0    0    0  501  0.00000000000E+00  0.00000000000E+00 -0.12300573513E+04  0.12300573513E+04  0.25500000920E-02 0. -1.
    10030    2    1    2    0    0  0.00000000000E+00  0.00000000000E+00  0.14208701683E+03  0.26022017194E+04  0.25983196624E+04 0.  0.
        4    1    3    3  502    0  0.75808495526E+03 -0.53503045431E+03  0.98172286495E+03  0.13508263334E+04  0.12699999809E+01 0.  1.
       -4    1    3    3    0  502 -0.75808495526E+03  0.53503045431E+03 -0.83963584811E+03  0.12513753860E+04  0.12699999809E+01 0. -1.
</event>
<event>
 5   0  0.2755061E-07  0.2600913E+04  0.7818609E-02  0.8367891E-01
       -1   -1    0    0    0  501  0.00000000000E+00  0.00000000000E+00  0.68746969615E+03  0.68746969617E+03  0.50400001928E-02 0. -1.
        1   -1    0    0  501    0  0.00000000000E+00  0.00000000000E+00 -0.24600161009E+04  0.24600161009E+04  0.50400001928E-02 0.  1.
    10030    2    1    2    0    0  0.00000000000E+00  0.00000000000E+00 -0.17725464047E+04  0.31474857971E+04  0.26009125487E+04 0.  0.
        4    1    3    3  502    0 -0.17535443629E+03  0.59937655204E+03 -0.22666806675E+04  0.23511368082E+04  0.12699999809E+01 0.  1.
       -4    1    3    3    0  502  0.17535443629E+03 -0.59937655204E+03  0.49413426280E+03  0.79634898885E+03  0.12699999809E+01 0. -1.
</event>
<event>
 5   0  0.2641626E-07  0.2599872E+04  0.7818609E-02  0.8368245E-01
        1   -1    0    0  501    0  0.00000000000E+00  0.00000000000E+00  0.13356603233E+04  0.13356603233E+04  0.50400001928E-02 0. -1.
       -1   -1    0    0    0  501  0.00000000000E+00  0.00000000000E+00 -0.12651673916E+04  0.12651673916E+04  0.50400001928E-02 0.  1.
    10030    2    1    2    0    0  0.00000000000E+00  0.00000000000E+00  0.70492931716E+02  0.26008277149E+04  0.25998722178E+04 0.  0.
        3    1    3    3  502    0  0.41852317574E+03  0.12642312536E+03 -0.11894131651E+04  0.12672206370E+04  0.10100000352E+00 0.  1.
       -3    1    3    3    0  502 -0.41852317574E+03 -0.12642312536E+03  0.12599060968E+04  0.13336070779E+04  0.10100000352E+00 0. -1.
</event>
<event>
 5   0  0.7160320E-07  0.2606265E+04  0.7818609E-02  0.8366076E-01
        2   -1    0    0  501    0  0.00000000000E+00  0.00000000000E+00  0.12497499351E+04  0.12497499351E+04  0.25500000920E-02 0. -1.
       -2   -1    0    0    0  501  0.00000000000E+00  0.00000000000E+00 -0.13587952190E+04  0.13587952190E+04  0.25500000920E-02 0.  1.
    10030    2    1    2    0    0  0.00000000000E+00  0.00000000000E+00 -0.10904528388E+03  0.26085451541E+04  0.26062649418E+04 0.  0.
        1    1    3    3  502    0  0.66773972796E+03  0.54833818021E+03 -0.10308775823E+04  0.13450872440E+04  0.50400001928E-02 0.  1.
       -1    1    3    3    0  502 -0.66773972796E+03 -0.54833818021E+03  0.92183229844E+03  0.12634579101E+04  0.50400001928E-02 0. -1.
</event>
<event>
 5   0  0.6599814E-07  0.2600490E+04  0.7818609E-02  0.8368035E-01
       -2   -1    0    0    0  501  0.00000000000E+00  0.00000000000E+00  0.11074752499E+04  0.11074752499E+04  0.25500000920E-02 0.  1.
        2   -1    0    0  501    0  0.00000000000E+00  0.00000000000E+00 -0.15265682334E+04  0.15265682334E+04  0.25500000920E-02 0. -1.
    10030    2    1    2    0    0  0.00000000000E+00  0.00000000000E+00 -0.41909298346E+03  0.26340434833E+04  0.26004895968E+04 0.  0.
        5    1    3    3  502    0  0.80748966639E+03 -0.94891058278E+03  0.16692594835E+03  0.12571225945E+04  0.46999998093E+01 0.  1.
       -5    1    3    3    0  502 -0.80748966639E+03  0.94891058278E+03 -0.58601893181E+03  0.13769208887E+04  0.46999998093E+01 0. -1.
</event>
<event>
 5   0  0.2755061E-07  0.2599915E+04  0.7818609E-02  0.8368230E-01
       -1   -1    0    0    0  501  0.00000000000E+00  0.00000000000E+00  0.14051318669E+04  0.14051318669E+04  0.50400001928E-02 0. -1.
        1   -1    0    0  501    0  0.00000000000E+00  0.00000000000E+00 -0.12026555581E+04  0.12026555581E+04  0.50400001928E-02 0.  1.
    10030    2    1    2    0    0  0.00000000000E+00  0.00000000000E+00  0.20247630877E+03  0.26077874250E+04  0.25999151136E+04 0.  0.
        4    1    3    3  502    0  0.35012429693E+03 -0.10302285932E+04  0.81467947636E+03  0.13592874014E+04  0.12699999809E+01 0. -1.
       -4    1    3    3    0  502 -0.35012429693E+03  0.10302285932E+04 -0.61220316759E+03  0.12485000236E+04  0.12699999809E+01 0.  1.
</event>
<event>
 5   0  0.6768478E-07  0.2599860E+04  0.7818609E-02  0.8368249E-01
        2   -1    0    0  501    0  0.00000000000E+00  0.00000000000E+00  0.20569000991E+04  0.20569000991E+04  0.25500000920E-02 0. -1.
       -2   -1    0    0    0  501  0.00000000000E+00  0.00000000000E+00 -0.82153655254E+03  0.82153655254E+03  0.25500000920E-02 0.  1.
    10030    2    1    2    0    0  0.00000000000E+00  0.00000000000E+00  0.12353635466E+04  0.28784366517E+04  0.25998604704E+04 0.  0.
        4    1    3    3  502    0 -0.78207728106E+02 -0.11607740569E+04  0.12597375300E+04  0.17147749466E+04  0.12699999809E+01 0. -1.
       -4    1    3    3    0  502  0.78207728106E+02  0.11607740569E+04 -0.24373983412E+02  0.11636617051E+04  0.12699999809E+01 0.  1.
</event>
<event>
 5   0  0.6780984E-07  0.2599507E+04  0.7818609E-02  0.8368369E-01
        2   -1    0    0  501    0  0.00000000000E+00  0.00000000000E+00  0.13878075709E+04  0.13878075709E+04  0.25500000920E-02 0.  1.
       -2   -1    0    0    0  501  0.00000000000E+00  0.00000000000E+00 -0.12172860898E+04  0.12172860898E+04  0.25500000920E-02 0. -1.
    10030    2    1    2    0    0  0.00000000000E+00  0.00000000000E+00  0.17052148113E+03  0.26050936608E+04  0.25995067620E+04 0.  0.
        2    1    3    3  502    0  0.49629192417E+03 -0.63376909653E+03  0.11079391169E+04  0.13694882360E+04  0.25500000920E-02 0.  1.
       -2    1    3    3    0  502 -0.49629192417E+03  0.63376909653E+03 -0.93741763582E+03  0.12356054247E+04  0.25500000920E-02 0. -1.
</event>
<event>
 5   0  0.2623263E-07  0.2599001E+04  0.7818609E-02  0.8368540E-01
       -1   -1    0    0    0  501  0.00000000000E+00  0.00000000000E+00  0.17362993115E+04  0.17362993115E+04  0.50400001928E-02 0. -1.
        1   -1    0    0  501    0  0.00000000000E+00  0.00000000000E+00 -0.97258691893E+03  0.97258691895E+03  0.50400001928E-02 0.  1.
    10030    2    1    2    0    0  0.00000000000E+00  0.00000000000E+00  0.76371239261E+03  0.27088862305E+04  0.25990013450E+04 0.  0.
        1    1    3    3  502    0 -0.38483806630E+03  0.19897496693E+03 -0.89510042489E+03  0.99443257459E+03  0.50400001928E-02 0.  1.
       -1    1    3    3    0  502  0.38483806630E+03 -0.19897496693E+03  0.16588128175E+04  0.17144536559E+04  0.50400001928E-02 0. -1.
</event>
<event>
 5   0  0.6780984E-07  0.2620119E+04  0.7818609E-02  0.8361399E-01
        2   -1    0    0  501    0  0.00000000000E+00  0.00000000000E+00  0.30434362628E+04  0.30434362628E+04  0.25500000920E-02 0. -1.
       -2   -1    0    0    0  501  0.00000000000E+00  0.00000000000E+00 -0.56392059662E+03  0.56392059663E+03  0.25500000920E-02 0.  1.
    10030    2    1    2    0    0  0.00000000000E+00  0.00000000000E+00  0.24795156662E+04  0.36073568594E+04  0.26201193813E+04 0.  0.
        2    1    3    3  502    0 -0.65105760449E+03  0.57916983265E+03  0.25865822866E+04  0.27294178179E+04  0.25500000920E-02 0. -1.
       -2    1    3    3    0  502  0.65105760449E+03 -0.57916983265E+03 -0.10706662041E+03  0.87793904152E+03  0.25500000920E-02 0.  1.
</event>
<event>
 5   0  0.2793576E-07  0.2597136E+04  0.7818609E-02  0.8369175E-01
        1   -1    0    0  501    0  0.00000000000E+00  0.00000000000E+00  0.14283124110E+04  0.14283124110E+04  0.50400001928E-02 0. -1.
       -1   -1    0    0    0  501  0.00000000000E+00  0.00000000000E+00 -0.11806088757E+04  0.11806088757E+04  0.50400001928E-02 0.  1.
    10030    2    1    2    0    0  0.00000000000E+00  0.00000000000E+00  0.24770353524E+03  0.26089212867E+04  0.25971355834E+04 0.  0.
        2    1    3    3  502    0  0.47802011987E+03 -0.28141107248E+03  0.13033106208E+04  0.14164441398E+04  0.25500000920E-02 0. -1.
       -2    1    3    3    0  502 -0.47802011987E+03  0.28141107248E+03 -0.10556070856E+04  0.11924771469E+04  0.25500000920E-02 0.  1.
</event>
<event>
 5   0  0.2755061E-07  0.2589574E+04  0.7818609E-02  0.8371751E-01
        1   -1    0    0  501    0  0.00000000000E+00  0.00000000000E+00  0.79465838169E+03  0.79465838171E+03  0.50400001928E-02 0.  1.
       -1   -1    0    0    0  501  0.00000000000E+00  0.00000000000E+00 -0.21096779491E+04  0.21096779491E+04  0.50400001928E-02 0. -1.
    10030    2    1    2    0    0  0.00000000000E+00  0.00000000000E+00 -0.13150195674E+04  0.29043363308E+04  0.25895739147E+04 0.  0.
        4    1    3    3  502    0 -0.87351217044E+03 -0.44782996961E+02 -0.17282479000E+04  0.19369748180E+04  0.12699999809E+01 0. -1.
       -4    1    3    3    0  502  0.87351217044E+03  0.44782996961E+02  0.41322833261E+03  0.96736151282E+03  0.12699999809E+01 0.  1.
</event>
<event>
 5   0  0.7160320E-07  0.2599951E+04  0.7818609E-02  0.8368218E-01
        2   -1    0    0  501    0  0.00000000000E+00  0.00000000000E+00  0.26501331998E+04  0.26501331998E+04  0.25500000920E-02 0.  1.
       -2   -1    0    0    0  501  0.00000000000E+00  0.00000000000E+00 -0.63767998076E+03  0.63767998077E+03  0.25500000920E-02 0. -1.
    10030    2    1    2    0    0  0.00000000000E+00  0.00000000000E+00  0.20124532190E+04  0.32878131806E+04  0.25999514518E+04 0.  0.
        1    1    3    3  502    0 -0.10902906016E+04 -0.65730677374E+03  0.13387647247E+04  0.18474514280E+04  0.50400001928E-02 0.  1.
       -1    1    3    3    0  502  0.10902906016E+04  0.65730677374E+03  0.67368849432E+03  0.14403617525E+04  0.50400001928E-02 0. -1.
</event>
<event>
 5   0  0.6780984E-07  0.2600195E+04  0.7818609E-02  0.8368135E-01
        2   -1    0    0  501    0  0.00000000000E+00  0.00000000000E+00  0.13234115514E+04  0.13234115514E+04  0.25500000920E-02 0.  1.
       -2   -1    0    0    0  501  0.00000000000E+00  0.00000000000E+00 -0.12771937835E+04  0.12771937835E+04  0.25500000920E-02 0. -1.
    10030    2    1    2    0    0  0.00000000000E+00  0.00000000000E+00  0.46217767863E+02  0.26006053349E+04  0.26001946131E+04 0.  0.
        2    1    3    3  502    0 -0.92062673230E+02 -0.83575166676E+03 -0.96866089078E+03  0.12826770075E+04  0.25500000920E-02 0. -1.
       -2    1    3    3    0  502  0.92062673230E+02  0.83575166676E+03  0.10148786586E+04  0.13179283274E+04  0.25500000920E-02 0.  1.
</event>
<event>
 5   0  0.2623263E-07  0.2599686E+04  0.7818609E-02  0.8368308E-01
       -1   -1    0    0    0  501  0.00000000000E+00  0.00000000000E+00  0.11454420138E+04  0.11454420138E+04  0.50400001928E-02 0. -1.
        1   -1    0    0  501    0  0.00000000000E+00  0.00000000000E+00 -0.14750564424E+04  0.14750564424E+04  0.50400001928E-02 0.  1.
    10030    2    1    2    0    0  0.00000000000E+00  0.00000000000E+00 -0.32961442857E+03  0.26204984562E+04  0.25996858440E+04 0.  0.
        1    1    3    3  502    0  0.75929703896E+03  0.61488217223E+03  0.69936572852E+03  0.12015508734E+04  0.50400001928E-02 0. -1.
       -1    1    3    3    0  502 -0.75929703896E+03 -0.61488217223E+03 -0.10289801571E+04  0.14189475828E+04  0.50400001928E-02 0.  1.
</event>
<event>
 5   0  0.2793576E-07  0.2599135E+04  0.7818609E-02  0.8368495E-01
        1   -1    0    0  501    0  0.00000000000E+00  0.00000000000E+00  0.23703246559E+04  0.23703246559E+04  0.50400001928E-02 0. -1.
       -1   -1    0    0    0  501  0.00000000000E+00  0.00000000000E+00 -0.71250840581E+03  0.71250840583E+03  0.50400001928E-02 0.  1.
    10030    2    1    2    0    0  0.00000000000E+00  0.00000000000E+00  0.16578162501E+04  0.30828330618E+04  0.25991354269E+04 0.  0.
        2    1    3    3  502    0 -0.42304334190E+02  0.12496073917E+04  0.40860704674E+03  0.13153965215E+04  0.25500000920E-02 0. -1.
       -2    1    3    3    0  502  0.42304334190E+02 -0.12496073917E+04  0.12492092034E+04  0.17674365403E+04  0.25500000920E-02 0.  1.
</event>
<event>
 5   0  0.7160320E-07  0.2600631E+04  0.7818609E-02  0.8367987E-01
        2   -1    0    0  501    0  0.00000000000E+00  0.00000000000E+00  0.13490773863E+04  0.13490773863E+04  0.25500000920E-02 0. -1.
       -2   -1    0    0    0  501  0.00000000000E+00  0.00000000000E+00 -0.12533156678E+04  0.12533156678E+04  0.25500000920E-02 0.  1.
    10030    2    1    2    0    0  0.00000000000E+00  0.00000000000E+00  0.95761718554E+02  0.26023930541E+04  0.26006305584E+04 0.  0.
        1    1    3    3  502    0 -0.44665970849E+03  0.11930884732E+04  0.30854698554E+03  0.13107884049E+04  0.50400001928E-02 0. -1.
       -1    1    3    3    0  502  0.44665970849E+03 -0.11930884732E+04 -0.21278526699E+03  0.12916046492E+04  0.50400001928E-02 0.  1.
</event>
<event>
 5   0  0.2793576E-07  0.2619434E+04  0.7818609E-02  0.8361630E-01
       -1   -1    0    0    0  501  0.00000000000E+00  0.00000000000E+00  0.19785009773E+04  0.19785009773E+04  0.50400001928E-02 0. -1.
        1   -1    0    0  501    0  0.00000000000E+00  0.00000000000E+00 -0.86699914794E+03  0.86699914795E+03  0.50400001928E-02 0.  1.
    10030    2    1    2    0    0  0.00000000000E+00  0.00000000000E+00  0.11115018294E+04  0.28455001253E+04  0.26194340317E+04 0.  0.
        2    1    3    3  502    0  0.76529859715E+03  0.81542134243E+03  0.12963236783E+04  0.17120306619E+04  0.25500000920E-02 0. -1.
       -2    1    3    3    0  502 -0.76529859715E+03 -0.81542134243E+03 -0.18482184891E+03  0.11334694633E+04  0.25500000920E-02 0.  1.
</event>
<event>
 5   0  0.2641626E-07  0.2596116E+04  0.7818609E-02  0.8369522E-01
        1   -1    0    0  501    0  0.00000000000E+00  0.00000000000E+00  0.21770988665E+04  0.21770988665E+04  0.50400001928E-02 0.  1.
       -1   -1    0    0    0  501  0.00000000000E+00  0.00000000000E+00 -0.77394488671E+03  0.77394488673E+03  0.50400001928E-02 0. -1.
    10030    2    1    2    0    0  0.00000000000E+00  0.00000000000E+00  0.14031539797E+04  0.29510437532E+04  0.25961159724E+04 0.  0.
        3    1    3    3  502    0 -0.94026320047E+03 -0.89429525335E+03  0.73920275286E+03  0.14934120685E+04  0.10100000352E+00 0. -1.
       -3    1    3    3    0  502  0.94026320047E+03  0.89429525335E+03  0.66395122688E+03  0.14576316847E+04  0.10100000352E+00 0.  1.
</event>
<event>
 5   0  0.6768478E-07  0.2613246E+04  0.7818609E-02  0.8363716E-01
        2   -1    0    0  501    0  0.00000000000E+00  0.00000000000E+00  0.10543409699E+04  0.10543409699E+04  0.25500000920E-02 0.  1.
       -2   -1    0    0    0  501  0.00000000000E+00  0.00000000000E+00 -0.16192713075E+04  0.16192713075E+04  0.25500000920E-02 0. -1.
    10030    2    1    2    0    0  0.00000000000E+00  0.00000000000E+00 -0.56493033757E+03  0.26736122774E+04  0.26132463190E+04 0.  0.
        4    1    3    3  502    0  0.22199912853E+03  0.22204666955E+03 -0.15800988772E+04  0.16109942307E+04  0.12699999809E+01 0. -1.
       -4    1    3    3    0  502 -0.22199912853E+03 -0.22204666955E+03  0.10151685396E+04  0.10626180468E+04  0.12699999809E+01 0.  1.
</event>
<event>
 5   0  0.6768478E-07  0.2599850E+04  0.7818609E-02  0.8368252E-01
        2   -1    0    0  501    0  0.00000000000E+00  0.00000000000E+00  0.86313702698E+03  0.86313702698E+03  0.25500000920E-02 0. -1.
       -2   -1    0    0    0  501  0.00000000000E+00  0.00000000000E+00 -0.19577479573E+04  0.19577479573E+04  0.25500000920E-02 0.  1.
    10030    2    1    2    0    0  0.00000000000E+00  0.00000000000E+00 -0.10946109304E+04  0.28208849843E+04  0.25998498045E+04 0.  0.
        4    1    3    3  502    0 -0.10338783351E+03 -0.11263608025E+04 -0.12424166147E+04  0.16801721218E+04  0.12699999809E+01 0.  1.
       -4    1    3    3    0  502  0.10338783351E+03  0.11263608025E+04  0.14780568439E+03  0.11407128625E+04  0.12699999809E+01 0. -1.
</event>
<event>
 5   0  0.6768478E-07  0.2609339E+04  0.7818609E-02  0.8365036E-01
       -2   -1    0    0    0  501  0.00000000000E+00  0.00000000000E+00  0.13853581425E+04  0.13853581425E+04  0.25500000920E-02 0. -1.
        2   -1    0    0  501    0  0.00000000000E+00  0.00000000000E+00 -0.12286806155E+04  0.12286806155E+04  0.25500000920E-02 0.  1.
    10030    2    1    2    0    0  0.00000000000E+00  0.00000000000E+00  0.15667752700E+03  0.26140387580E+04  0.26093391464E+04 0.  0.
        4    1    3    3  502    0  0.10863257605E+04  0.68245962843E+03 -0.15937805549E+03  0.12927713564E+04  0.12699999809E+01 0.  1.
       -4    1    3    3    0  502 -0.10863257605E+04 -0.68245962843E+03  0.31605558249E+03  0.13212674016E+04  0.12699999809E+01 0. -1.
</event>
<event>
 5   0  0.6526351E-07  0.2593695E+04  0.7818609E-02  0.8370346E-01
       -2   -1    0    0    0  501  0.00000000000E+00  0.00000000000E+00  0.73543468790E+03  0.73543468791E+03  0.25500000920E-02 0.  1.
        2   -1    0    0  501    0  0.00000000000E+00  0.00000000000E+00 -0.22868295093E+04  0.22868295093E+04  0.25500000920E-02 0. -1.
    10030    2    1    2    0    0  0.00000000000E+00  0.00000000000E+00 -0.15513948214E+04  0.30222641972E+04  0.25936952376E+04 0.  0.
        3    1    3    3  502    0 -0.89123071485E+03  0.82805673783E+03 -0.25219225797E+03  0.12424053659E+04  0.10100000352E+00 0.  1.
       -3    1    3    3    0  502  0.89123071485E+03 -0.82805673783E+03 -0.12992025634E+04  0.17798588312E+04  0.10100000352E+00 0. -1.
</event>
<event>
 5   0  0.2623263E-07  0.2602338E+04  0.7818609E-02  0.8367408E-01
       -1   -1    0    0    0  501  0.00000000000E+00  0.00000000000E+00  0.98450944068E+03  0.98450944069E+03  0.50400001928E-02 0. -1.
        1   -1    0    0  501    0  0.00000000000E+00  0.00000000000E+00 -0.17196790141E+04  0.17196790141E+04  0.50400001928E-02 0.  1.
    10030    2    1    2    0    0  0.00000000000E+00  0.00000000000E+00 -0.73516957342E+03  0.27041884548E+04  0.26023375833E+04 0.  0.
        1    1    3    3  502    0 -0.77900928110E+03  0.48441358896E+03  0.59131417390E+03  0.10914048000E+04  0.50400001928E-02 0. -1.
       -1    1    3    3    0  502  0.77900928110E+03 -0.48441358896E+03 -0.13264837473E+04  0.16127836548E+04  0.50400001928E-02 0.  1.
</event>
<event>
 5   0  0.6780984E-07  0.2600478E+04  0.7818609E-02  0.8368039E-01
       -2   -1    0    0    0  501  0.00000000000E+00  0.00000000000E+00  0.11568272108E+04  0.11568272108E+04  0.25500000920E-02 0.  1.
        2   -1    0    0  501    0  0.00000000000E+00  0.00000000000E+00 -0.14614297780E+04  0.14614297780E+04  0.25500000920E-02 0. -1.
    10030    2    1    2    0    0  0.00000000000E+00  0.00000000000E+00 -0.30460256718E+03  0.26182569888E+04  0.26004782128E+04 0.  0.
        2    1    3    3  502    0 -0.12964270797E+03  0.12327609304E+04  0.24295746740E+03  0.12631449142E+04  0.25500000920E-02 0. -1.
       -2    1    3    3    0  502  0.12964270797E+03 -0.12327609304E+04 -0.54756003458E+03  0.13551120746E+04  0.25500000920E-02 0.  1.
</event>
<event>
 5   0  0.7160320E-07  0.2598835E+04  0.7818609E-02  0.8368597E-01
        2   -1    0    0  501    0  0.00000000000E+00  0.00000000000E+00  0.13594366978E+04  0.13594366978E+04  0.25500000920E-02 0. -1.
       -2   -1    0    0    0  501  0.00000000000E+00  0.00000000000E+00 -0.12420480035E+04  0.12420480035E+04  0.25500000920E-02 0.  1.
    10030    2    1    2    0    0  0.00000000000E+00  0.00000000000E+00  0.11738869425E+03  0.26014847013E+04  0.25988348438E+04 0.  0.
        1    1    3    3  502    0  0.12078795431E+04 -0.59417999086E+02  0.53455485146E+03  0.13222149517E+04  0.50400001928E-02 0. -1.
       -1    1    3    3    0  502 -0.12078795431E+04  0.59417999086E+02 -0.41716615721E+03  0.12792697495E+04  0.50400001928E-02 0.  1.
</event>
<event>
 5   0  0.2793576E-07  0.2592466E+04  0.7818609E-02  0.8370765E-01
        1   -1    0    0  501    0  0.00000000000E+00  0.00000000000E+00  0.14517763386E+04  0.14517763387E+04  0.50400001928E-02 0. -1.
       -1   -1    0    0    0  501  0.00000000000E+00  0.00000000000E+00 -0.11573545650E+04  0.11573545650E+04  0.50400001928E-02 0.  1.
    10030    2    1    2    0    0  0.00000000000E+00  0.00000000000E+00  0.29442177360E+03  0.26091309037E+04  0.25924659866E+04 0.  0.
        2    1    3    3  502    0  0.10986557571E+04 -0.47169322017E+03  0.65110991007E+03  0.13614268550E+04  0.25500000920E-02 0. -1.
       -2    1    3    3    0  502 -0.10986557571E+04  0.47169322017E+03 -0.35668813647E+03  0.12477040487E+04  0.25500000920E-02 0.  1.
</event>
<event>
 5   0  0.2793576E-07  0.2600400E+04  0.7818609E-02  0.8368066E-01
        1   -1    0    0  501    0  0.00000000000E+00  0.00000000000E+00  0.16060822849E+04  0.16060822849E+04  0.50400001928E-02 0.  1.
       -1   -1    0    0    0  501  0.00000000000E+00  0.00000000000E+00 -0.10525733424E+04  0.10525733424E+04  0.50400001928E-02 0. -1.
    10030    2    1    2    0    0  0.00000000000E+00  0.00000000000E+00  0.55350894245E+03  0.26586556273E+04  0.26003995069E+04 0.  0.
        2    1    3    3  502    0  0.12403627935E+04  0.25158680751E+03  0.58129257041E+03  0.13927299931E+04  0.25500000920E-02 0.  1.
       -2    1    3    3    0  502 -0.12403627935E+04 -0.25158680751E+03 -0.27783627959E+02  0.12659256342E+04  0.25500000920E-02 0. -1.
</event>
<event>
 5   0  0.7160320E-07  0.2602183E+04  0.7818609E-02  0.8367460E-01
        2   -1    0    0  501    0  0.00000000000E+00  0.00000000000E+00  0.17487480827E+04  0.17487480827E+04  0.25500000920E-02 0. -1.
       -2   -1    0    0    0  501  0.00000000000E+00  0.00000000000E+00 -0.96802921770E+03  0.96802921770E+03  0.25500000920E-02 0.  1.
    10030    2    1    2    0    0  0.00000000000E+00  0.00000000000E+00  0.78071886501E+03  0.27167773004E+04  0.26021831130E+04 0.  0.
        1    1    3    3  502    0  0.11005521001E+04 -0.42614744831E+03 -0.18150517430E+03  0.11940522187E+04  0.50400001928E-02 0.  1.
       -1    1    3    3    0  502 -0.11005521001E+04  0.42614744831E+03  0.96222403931E+03  0.15227250817E+04  0.50400001928E-02 0. -1.
</event>
<event>
 5   0  0.6768478E-07  0.2605887E+04  0.7818609E-02  0.8366204E-01
        2   -1    0    0  501    0  0.00000000000E+00  0.00000000000E+00  0.18770381766E+04  0.18770381766E+04  0.25500000920E-02 0. -1.
       -2   -1    0    0    0  501  0.00000000000E+00  0.00000000000E+00 -0.90443642647E+03  0.90443642647E+03  0.25500000920E-02 0.  1.
    10030    2    1    2    0    0  0.00000000000E+00  0.00000000000E+00  0.97260175017E+03  0.27814746031E+04  0.26058869514E+04 0.  0.
        4    1    3    3  502    0  0.49552295237E+03 -0.10081469854E+04 -0.21829741989E+03  0.11443595226E+04  0.12699999809E+01 0.  1.
       -4    1    3    3    0  502 -0.49552295237E+03  0.10081469854E+04  0.11908991701E+04  0.16371150805E+04  0.12699999809E+01 0. -1.
</event>
<event>
 5   0  0.6768478E-07  0.2598752E+04  0.7818609E-02  0.8368625E-01
        2   -1    0    0  501    0  0.00000000000E+00  0.00000000000E+00  0.14662449363E+04  0.14662449363E+04  0.25500000920E-02 0. -1.
       -2   -1    0    0    0  501  0.00000000000E+00  0.00000000000E+00 -0.11514979629E+04  0.11514979629E+04  0.25500000920E-02 0.  1.
    10030    2    1    2    0    0  0.00000000000E+00  0.00000000000E+00  0.31474697339E+03  0.26177428991E+04  0.25987520522E+04 0.  0.
        4    1    3    3  502    0 -0.58844843547E+02 -0.17269638215E+03  0.14532777283E+04  0.14646858109E+04  0.12699999809E+01 0. -1.
       -4    1    3    3    0  502  0.58844843547E+02  0.17269638215E+03 -0.11385307549E+04  0.11530570883E+04  0.12699999809E+01 0.  1.
</event>
<event>
 5   0  0.2641626E-07  0.2600425E+04  0.7818609E-02  0.8368057E-01
        1   -1    0    0  501    0  0.00000000000E+00  0.00000000000E+00  0.15281871969E+04  0.15281871969E+04  0.50400001928E-02 0.  1.
       -1   -1    0    0    0  501  0.00000000000E+00  0.00000000000E+00 -0.11062467520E+04  0.11062467520E+04  0.50400001928E-02 0. -1.
    10030    2    1    2    0    0  0.00000000000E+00  0.00000000000E+00  0.42194044493E+03  0.26344339489E+04  0.26004246753E+04 0.  0.
        3    1    3    3  502    0 -0.33006851600E+03 -0.74834879508E+03  0.12349218314E+04  0.14812167580E+04  0.10100000352E+00 0.  1.
       -3    1    3    3    0  502  0.33006851600E+03  0.74834879508E+03 -0.81298138648E+03  0.11532171909E+04  0.10100000352E+00 0. -1.
</event>
<event>
 5   0  0.2864801E-07  0.2600539E+04  0.7818609E-02  0.8368018E-01
       -1   -1    0    0    0  501  0.00000000000E+00  0.00000000000E+00  0.14434332528E+04  0.14434332528E+04  0.50400001928E-02 0. -1.
        1   -1    0    0  501    0  0.00000000000E+00  0.00000000000E+00 -0.11713053469E+04  0.11713053470E+04  0.50400001928E-02 0.  1.
    10030    2    1    2    0    0  0.00000000000E+00  0.00000000000E+00  0.27212790582E+03  0.26147385997E+04  0.26005392417E+04 0.  0.
        5    1    3    3  502    0  0.12318502354E+03  0.11316977342E+03  0.14325606944E+04  0.14423016955E+04  0.46999998093E+01 0. -1.
       -5    1    3    3    0  502 -0.12318502354E+03 -0.11316977342E+03 -0.11604327886E+04  0.11724369043E+04  0.46999998093E+01 0.  1.
</event>
<event>
 5   0  0.6780984E-07  0.2596884E+04  0.7818609E-02  0.8369261E-01
        2   -1    0    0  501    0  0.00000000000E+00  0.00000000000E+00  0.61893092541E+03  0.61893092541E+03  0.25500000920E-02 0.  1.
       -2   -1    0    0    0  501  0.00000000000E+00  0.00000000000E+00 -0.27239728759E+04  0.27239728759E+04  0.25500000920E-02 0. -1.
    10030    2    1    2    0    0  0.00000000000E+00  0.00000000000E+00 -0.21050419505E+04  0.33429038013E+04  0.25968835576E+04 0.  0.
        2    1    3    3  502    0 -0.63976874317E+03  0.65656292926E+03  0.13119288294E+03  0.92606182157E+03  0.25500000920E-02 0.  1.
       -2    1    3    3    0  502  0.63976874317E+03 -0.65656292926E+03 -0.22362348334E+04  0.24168419798E+04  0.25500000920E-02 0. -1.
</event>
<event>
 5   0  0.2793576E-07  0.2602426E+04  0.7818609E-02  0.8367378E-01
        1   -1    0    0  501    0  0.00000000000E+00  0.00000000000E+00  0.18829259259E+04  0.18829259259E+04  0.50400001928E-02 0. -1.
       -1   -1    0    0    0  501  0.00000000000E+00  0.00000000000E+00 -0.89921472440E+03  0.89921472441E+03  0.50400001928E-02 0.  1.
    10030    2    1    2    0    0  0.00000000000E+00  0.00000000000E+00  0.98371120153E+03  0.27821406503E+04  0.26024255744E+04 0.  0.
        2    1    3    3  502    0 -0.59273153677E+03  0.24062588597E+03 -0.71949620567E+03  0.96275972167E+03  0.25500000920E-02 0.  1.
       -2    1    3    3    0  502  0.59273153677E+03 -0.24062588597E+03  0.17032074072E+04  0.18193809287E+04  0.25500000920E-02 0. -1.
</event>
<event>
 5   0  0.2793576E-07  0.2601282E+04  0.7818609E-02  0.8367766E-01
        1   -1    0    0  501    0  0.00000000000E+00  0.00000000000E+00  0.12368408304E+04  0.12368408304E+04  0.50400001928E-02 0.  1.
       -1   -1    0    0    0  501  0.00000000000E+00  0.00000000000E+00 -0.13677316655E+04  0.13677316655E+04  0.50400001928E-02 0. -1.
    10030    2    1    2    0    0  0.00000000000E+00  0.00000000000E+00 -0.13089083509E+03  0.26045724958E+04  0.26012815064E+04 0.  0.
        2    1    3    3  502    0  0.64334665313E+03  0.11193285585E+04  0.92472318993E+02  0.12943502107E+04  0.25500000920E-02 0.  1.
       -2    1    3    3    0  502 -0.64334665313E+03 -0.11193285585E+04 -0.22336315409E+03  0.13102222852E+04  0.25500000920E-02 0. -1.
</event>
<event>
 5   0  0.2623263E-07  0.2600197E+04  0.7818609E-02  0.8368134E-01
       -1   -1    0    0    0  501  0.00000000000E+00  0.00000000000E+00  0.14694585465E+04  0.14694585466E+04  0.50400001928E-02 0.  1.
        1   -1    0    0  501    0  0.00000000000E+00  0.00000000000E+00 -0.11502574254E+04  0.11502574255E+04  0.50400001928E-02 0. -1.
    10030    2    1    2    0    0  0.00000000000E+00  0.00000000000E+00  0.31920112110E+03  0.26197159720E+04  0.26001966115E+04 0.  0.
        1    1    3    3  502    0  0.76082484583E+03 -0.83518679006E+03  0.80775267484E+03  0.13888325328E+04  0.50400001928E-02 0.  1.
       -1    1    3    3    0  502 -0.76082484583E+03  0.83518679006E+03 -0.48855155373E+03  0.12308834392E+04  0.50400001928E-02 0. -1.
</event>
<event>
 5   0  0.6780984E-07  0.2599625E+04  0.7818609E-02  0.8368328E-01
        2   -1    0    0  501    0  0.00000000000E+00  0.00000000000E+00  0.15308028643E+04  0.15308028643E+04  0.25500000920E-02 0.  1.
       -2   -1    0    0    0  501  0.00000000000E+00  0.00000000000E+00 -0.11036777704E+04  0.11036777704E+04  0.25500000920E-02 0. -1.
    10030    2    1    2    0    0  0.00000000000E+00  0.00000000000E+00  0.42712509382E+03  0.26344806347E+04  0.25996254286E+04 0.  0.
        2    1    3    3  502    0 -0.55631216508E+03  0.11662247106E+04  0.35670004261E+03  0.13404470229E+04  0.25500000920E-02 0. -1.
       -2    1    3    3    0  502  0.55631216508E+03 -0.11662247106E+04  0.70425051208E+02  0.12940336118E+04  0.25500000920E-02 0.  1.
</event>
<event>
 5   0  0.6768478E-07  0.2599656E+04  0.7818609E-02  0.8368318E-01
        2   -1    0    0  501    0  0.00000000000E+00  0.00000000000E+00  0.16516116072E+04  0.16516116072E+04  0.25500000920E-02 0. -1.
       -2   -1    0    0    0  501  0.00000000000E+00  0.00000000000E+00 -0.10229718981E+04  0.10229718981E+04  0.25500000920E-02 0.  1.
    10030    2    1    2    0    0  0.00000000000E+00  0.00000000000E+00  0.62863970907E+03  0.26745835053E+04  0.25996555624E+04 0.  0.
        4    1    3    3  502    0 -0.12672467942E+04 -0.14085316218E+03  0.57417965962E+03  0.13983697455E+04  0.12699999809E+01 0.  1.
       -4    1    3    3    0  502  0.12672467942E+04  0.14085316218E+03  0.54460049448E+02  0.12762137598E+04  0.12699999809E+01 0. -1.
</event>
<event>
 5   0  0.2623263E-07  0.2596708E+04  0.7818609E-02  0.8369320E-01
       -1   -1    0    0    0  501  0.00000000000E+00  0.00000000000E+00  0.12341021622E+04  0.12341021622E+04  0.50400001928E-02 0.  1.
        1   -1    0    0  501    0  0.00000000000E+00  0.00000000000E+00 -0.13659512977E+04  0.13659512977E+04  0.50400001928E-02 0. -1.
    10030    2    1    2    0    0  0.00000000000E+00  0.00000000000E+00 -0.13184913549E+03  0.26000534599E+04  0.25967082624E+04 0.  0.
        1    1    3    3  502    0  0.63355263897E+03 -0.94362239272E+03 -0.69435662144E+03  0.13318946220E+04  0.50400001928E-02 0. -1.
       -1    1    3    3    0  502 -0.63355263897E+03  0.94362239272E+03  0.56250748595E+03  0.12681588379E+04  0.50400001928E-02 0.  1.
</event>
<event>
 5   0  0.7160320E-07  0.2600269E+04  0.7818609E-02  0.8368110E-01
       -2   -1    0    0    0  501  0.00000000000E+00  0.00000000000E+00  0.96354370230E+03  0.96354370230E+03  0.25500000920E-02 0. -1.
        2   -1    0    0  501    0  0.00000000000E+00  0.00000000000E+00 -0.17543046082E+04  0.17543046082E+04  0.25500000920E-02 0.  1.
    10030    2    1    2    0    0  0.00000000000E+00  0.00000000000E+00 -0.79076090594E+03  0.27178483105E+04  0.26002685686E+04 0.  0.
        1    1    3    3  502    0 -0.92968940081E+02 -0.71182939562E+03  0.73761152887E+03  0.10292789126E+04  0.50400001928E-02 0. -1.
       -1    1    3    3    0  502  0.92968940081E+02  0.71182939562E+03 -0.15283724348E+04  0.16885693980E+04  0.50400001928E-02 0.  1.
</event>
<event>
 5   0  0.2793576E-07  0.2594708E+04  0.7818609E-02  0.8370001E-01
       -1   -1    0    0    0  501  0.00000000000E+00  0.00000000000E+00  0.16159103540E+04  0.16159103540E+04  0.50400001928E-02 0. -1.
        1   -1    0    0  501    0  0.00000000000E+00  0.00000000000E+00 -0.10415970826E+04  0.10415970826E+04  0.50400001928E-02 0.  1.
    10030    2    1    2    0    0  0.00000000000E+00  0.00000000000E+00  0.57431327144E+03  0.26575074367E+04  0.25947080842E+04 0.  0.
        2    1    3    3  502    0 -0.36565955485E+03  0.93422076578E+03  0.11296543285E+04  0.15108256853E+04  0.25500000920E-02 0. -1.
       -2    1    3    3    0  502  0.36565955485E+03 -0.93422076578E+03 -0.55534105710E+03  0.11466817514E+04  0.25500000920E-02 0.  1.
</event>
<event>
 5   0  0.2623263E-07  0.2604167E+04  0.7818609E-02  0.8366787E-01
       -1   -1    0    0    0  501  0.00000000000E+00  0.00000000000E+00  0.12895049927E+04  0.12895049928E+04  0.50400001928E-02 0.  1.
        1   -1    0    0  501    0  0.00000000000E+00  0.00000000000E+00 -0.13147850809E+04  0.13147850809E+04  0.50400001928E-02 0. -1.
    10030    2    1    2    0    0  0.00000000000E+00  0.00000000000E+00 -0.25280088155E+02  0.26042900737E+04  0.26041673727E+04 0.  0.
        1    1    3    3  502    0 -0.11750298368E+04 -0.29077649906E+03 -0.49242908884E+03  0.13068023941E+04  0.50400001928E-02 0. -1.
       -1    1    3    3    0  502  0.11750298368E+04  0.29077649906E+03  0.46714900068E+03  0.12974876796E+04  0.50400001928E-02 0.  1.
</event>
<event>
 5   0  0.2641626E-07  0.2597336E+04  0.7818609E-02  0.8369107E-01
       -1   -1    0    0    0  501  0.00000000000E+00  0.00000000000E+00  0.14092947997E+04  0.14092947997E+04  0.50400001928E-02 0.  1.
        1   -1    0    0  501    0  0.00000000000E+00  0.00000000000E+00 -0.11967248845E+04  0.11967248845E+04  0.50400001928E-02 0. -1.
    10030    2    1    2    0    0  0.00000000000E+00  0.00000000000E+00  0.21256991521E+03  0.26060196842E+04  0.25973356782E+04 0.  0.
        3    1    3    3  502    0  0.92459819532E+03  0.86231723527E+03  0.40403514432E+03  0.13272969694E+04  0.10100000352E+00 0.  1.
       -3    1    3    3    0  502 -0.92459819532E+03 -0.86231723527E+03 -0.19146522911E+03  0.12787227147E+04  0.10100000352E+00 0. -1.
</event>
<event>
 5   0  0.2623263E-07  0.2600482E+04  0.7818609E-02  0.8368037E-01
       -1   -1    0    0    0  501  0.00000000000E+00  0.00000000000E+00  0.61275290114E+03  0.61275290116E+03  0.50400001928E-02 0. -1.
        1   -1    0    0  501    0  0.00000000000E+00  0.00000000000E+00 -0.27590682394E+04  0.27590682394E+04  0.50400001928E-02 0.  1.
    10030    2    1    2    0    0  0.00000000000E+00  0.00000000000E+00 -0.21463153383E+04  0.33718211406E+04  0.26004823154E+04 0.  0.
        1    1    3    3  502    0  0.15383121037E+03 -0.77025706369E+03 -0.24166817152E+04  0.25411238652E+04  0.50400001928E-02 0.  1.
       -1    1    3    3    0  502 -0.15383121037E+03  0.77025706369E+03  0.27036637699E+03  0.83069727536E+03  0.50400001928E-02 0. -1.
</event>
<event>
 5   0  0.2623263E-07  0.2600783E+04  0.7818609E-02  0.8367935E-01
       -1   -1    0    0    0  501  0.00000000000E+00  0.00000000000E+00  0.10438829228E+04  0.10438829228E+04  0.50400001928E-02 0.  1.
        1   -1    0    0  501    0  0.00000000000E+00  0.00000000000E+00 -0.16199311939E+04  0.16199311939E+04  0.50400001928E-02 0. -1.
    10030    2    1    2    0    0  0.00000000000E+00  0.00000000000E+00 -0.57604827115E+03  0.26638141167E+04  0.26007833508E+04 0.  0.
        1    1    3    3  502    0 -0.42533653133E+03  0.12274697432E+04 -0.34796924227E+03  0.13448701532E+04  0.50400001928E-02 0.  1.
       -1    1    3    3    0  502  0.42533653133E+03 -0.12274697432E+04 -0.22807902888E+03  0.13189439635E+04  0.50400001928E-02 0. -1.
</event>
<event>
 5   0  0.2793576E-07  0.2597337E+04  0.7818609E-02  0.8369106E-01
       -1   -1    0    0    0  501  0.00000000000E+00  0.00000000000E+00  0.13098953114E+04  0.13098953114E+04  0.50400001928E-02 0.  1.
        1   -1    0    0  501    0  0.00000000000E+00  0.00000000000E+00 -0.12875378003E+04  0.12875378003E+04  0.50400001928E-02 0. -1.
    10030    2    1    2    0    0  0.00000000000E+00  0.00000000000E+00  0.22357511124E+02  0.25974331117E+04  0.25973368883E+04 0.  0.
        2    1    3    3  502    0 -0.81756057893E+03 -0.43419740169E+03  0.92204016867E+03  0.13065568325E+04  0.25500000920E-02 0.  1.
       -2    1    3    3    0  502  0.81756057893E+03  0.43419740169E+03 -0.89968265754E+03  0.12908762792E+04  0.25500000920E-02 0. -1.
</event>
<event>
 5   0  0.2623263E-07  0.2599789E+04  0.7818609E-02  0.8368273E-01
        1   -1    0    0  501    0  0.00000000000E+00  0.00000000000E+00  0.17941891703E+04  0.17941891703E+04  0.50400001928E-02 0. -1.
       -1   -1    0    0    0  501  0.00000000000E+00  0.00000000000E+00 -0.94177670122E+03  0.94177670123E+03  0.50400001928E-02 0.  1.
    10030    2    1    2    0    0  0.00000000000E+00  0.00000000000E+00  0.85241246911E+03  0.27359658716E+04  0.25997888824E+04 0.  0.
        1    1    3    3  502    0  0.93884705325E+03 -0.65403704273E+03 -0.22297433432E+03  0.11657254379E+04  0.50400001928E-02 0.  1.
       -1    1    3    3    0  502 -0.93884705325E+03  0.65403704273E+03  0.10753868034E+04  0.15702404337E+04  0.50400001928E-02 0. -1.
</event>
<event>
 5   0  0.6780984E-07  0.2598806E+04  0.7818609E-02  0.8368607E-01
       -2   -1    0    0    0  501  0.00000000000E+00  0.00000000000E+00  0.15477125528E+04  0.15477125528E+04  0.25500000920E-02 0. -1.
        2   -1    0    0  501    0  0.00000000000E+00  0.00000000000E+00 -0.10909313996E+04  0.10909313996E+04  0.25500000920E-02 0.  1.
    10030    2    1    2    0    0  0.00000000000E+00  0.00000000000E+00  0.45678115315E+03  0.26386439524E+04  0.25988060500E+04 0.  0.
        2    1    3    3  502    0 -0.67728582931E+03  0.96464824488E+03  0.78375426073E+03  0.14154621408E+04  0.25500000920E-02 0. -1.
       -2    1    3    3    0  502  0.67728582931E+03 -0.96464824488E+03 -0.32697310758E+03  0.12231818115E+04  0.25500000920E-02 0.  1.
</event>
<event>
 5   0  0.2793576E-07  0.2599987E+04  0.7818609E-02  0.8368206E-01
       -1   -1    0    0    0  501  0.00000000000E+00  0.00000000000E+00  0.13475819090E+04  0.13475819090E+04  0.50400001928E-02 0. -1.
        1   -1    0    0  501    0  0.00000000000E+00  0.00000000000E+00 -0.12540857682E+04  0.12540857682E+04  0.50400001928E-02 0.  1.
    10030    2    1    2    0    0  0.00000000000E+00  0.00000000000E+00  0.93496140739E+02  0.26016676772E+04  0.25999871489E+04 0.  0.
        2    1    3    3  502    0 -0.11613492163E+04  0.51432837371E+03  0.32390654835E+03  0.13107940838E+04  0.25500000920E-02 0. -1.
       -2    1    3    3    0  502  0.11613492163E+04 -0.51432837371E+03 -0.23041040761E+03  0.12908735934E+04  0.25500000920E-02 0.  1.
</event>
<event>
 5   0  0.2864801E-07  0.2599155E+04  0.7818609E-02  0.8368488E-01
       -1   -1    0    0    0  501  0.00000000000E+00  0.00000000000E+00  0.11836276906E+04  0.11836276906E+04  0.50400001928E-02 0. -1.
        1   -1    0    0  501    0  0.00000000000E+00  0.00000000000E+00 -0.14268863785E+04  0.14268863785E+04  0.50400001928E-02 0.  1.
    10030    2    1    2    0    0  0.00000000000E+00  0.00000000000E+00 -0.24325868789E+03  0.26105140691E+04  0.25991554236E+04 0.  0.
        5    1    3    3  502    0 -0.69241258593E+03 -0.10981417792E+04 -0.61959423294E+02  0.12996967402E+04  0.46999998093E+01 0. -1.
       -5    1    3    3    0  502  0.69241258593E+03  0.10981417792E+04 -0.18129926459E+03  0.13108173289E+04  0.46999998093E+01 0.  1.
</event>
<event>
 5   0  0.7160320E-07  0.2601436E+04  0.7818609E-02  0.8367714E-01
        2   -1    0    0  501    0  0.00000000000E+00  0.00000000000E+00  0.10960214806E+04  0.10960214806E+04  0.25500000920E-02 0. -1.
       -2   -1    0    0    0  501  0.00000000000E+00  0.00000000000E+00 -0.15436443435E+04  0.15436443435E+04  0.25500000920E-02 0.  1.
    10030    2    1    2    0    0  0.00000000000E+00  0.00000000000E+00 -0.44762286284E+03  0.26396658241E+04  0.26014360333E+04 0.  0.
        1    1    3    3  502    0 -0.35615927325E+03  0.26345598280E+03  0.10171115142E+04  0.11094026839E+04  0.50400001928E-02 0. -1.
       -1    1    3    3    0  502  0.35615927325E+03 -0.26345598280E+03 -0.14647343770E+04  0.15302631401E+04  0.50400001928E-02 0.  1.
</event>
<event>
 5   0  0.7160320E-07  0.2598462E+04  0.7818609E-02  0.8368724E-01
       -2   -1    0    0    0  501  0.00000000000E+00  0.00000000000E+00  0.18491701148E+04  0.18491701148E+04  0.25500000920E-02 0. -1.
        2   -1    0    0  501    0  0.00000000000E+00  0.00000000000E+00 -0.91284271623E+03  0.91284271623E+03  0.25500000920E-02 0.  1.
    10030    2    1    2    0    0  0.00000000000E+00  0.00000000000E+00  0.93632739860E+03  0.27620128311E+04  0.25984622148E+04 0.  0.
        1    1    3    3  502    0  0.41411630430E+03 -0.11813404154E+04  0.83782280936E+03  0.15063215296E+04  0.50400001928E-02 0.  1.
       -1    1    3    3    0  502 -0.41411630430E+03  0.11813404154E+04  0.98504589240E+02  0.12556913015E+04  0.50400001928E-02 0. -1.
</event>
<event>
 5   0  0.6780984E-07  0.2603676E+04  0.7818609E-02  0.8366954E-01
        2   -1    0    0  501    0  0.00000000000E+00  0.00000000000E+00  0.17838661548E+04  0.17838661548E+04  0.25500000920E-02 0. -1.
       -2   -1    0    0    0  501  0.00000000000E+00  0.00000000000E+00 -0.95006138682E+03  0.95006138682E+03  0.25500000920E-02 0.  1.
    10030    2    1    2    0    0  0.00000000000E+00  0.00000000000E+00  0.83380476796E+03  0.27339275416E+04  0.26036761342E+04 0.  0.
        2    1    3    3  502    0  0.31555685905E+03  0.99247781577E+03 -0.40332451318E+03  0.11168075076E+04  0.25500000920E-02 0.  1.
       -2    1    3    3    0  502 -0.31555685905E+03 -0.99247781577E+03  0.12371292811E+04  0.16171200340E+04  0.25500000920E-02 0. -1.
</event>
<event>
 5   0  0.6599814E-07  0.2599777E+04  0.7818609E-02  0.8368277E-01
        2   -1    0    0  501    0  0.00000000000E+00  0.00000000000E+00  0.99889100954E+03  0.99889100955E+03  0.25500000920E-02 0. -1.
       -2   -1    0    0    0  501  0.00000000000E+00  0.00000000000E+00 -0.16915863242E+04  0.16915863242E+04  0.25500000920E-02 0.  1.
    10030    2    1    2    0    0  0.00000000000E+00  0.00000000000E+00 -0.69269531462E+03  0.26904773337E+04  0.25997771990E+04 0.  0.
        5    1    3    3  502    0 -0.83098270048E+03 -0.59850052535E+03  0.48217874318E+03  0.11319247138E+04  0.46999998093E+01 0. -1.
       -5    1    3    3    0  502  0.83098270048E+03  0.59850052535E+03 -0.11748740578E+04  0.15585526199E+04  0.46999998093E+01 0.  1.
</event>
<event>
 5   0  0.2755061E-07  0.2599660E+04  0.7818609E-02  0.8368317E-01
       -1   -1    0    0    0  501  0.00000000000E+00  0.00000000000E+00  0.11079596148E+04  0.11079596148E+04  0.50400001928E-02 0. -1.
        1   -1    0    0  501    0  0.00000000000E+00  0.00000000000E+00 -0.15249273775E+04  0.15249273775E+04  0.50400001928E-02 0.  1.
    10030    2    1    2    0    0  0.00000000000E+00  0.00000000000E+00 -0.41696776276E+03  0.26328869923E+04  0.25996599391E+04 0.  0.
        4    1    3    3  502    0  0.12200900651E+04 -0.43569968730E+03 -0.10176944337E+03  0.12995432340E+04  0.12699999809E+01 0.  1.
       -4    1    3    3    0  502 -0.12200900651E+04  0.43569968730E+03 -0.31519831939E+03  0.13333437583E+04  0.12699999809E+01 0. -1.
</event>
<event>
 5   0  0.7160320E-07  0.2586030E+04  0.7818609E-02  0.8372962E-01
        2   -1    0    0  501    0  0.00000000000E+00  0.00000000000E+00  0.15637627747E+04  0.15637627747E+04  0.25500000920E-02 0.  1.
       -2   -1    0    0    0  501  0.00000000000E+00  0.00000000000E+00 -0.10691444352E+04  0.10691444352E+04  0.25500000920E-02 0. -1.
    10030    2    1    2    0    0  0.00000000000E+00  0.00000000000E+00  0.49461833950E+03  0.26329072098E+04  0.25860303698E+04 0.  0.
        1    1    3    3  502    0 -0.34316429266E+03 -0.76945600515E+03 -0.75131923120E+03  0.11288511252E+04  0.50400001928E-02 0. -1.
       -1    1    3    3    0  502  0.34316429266E+03  0.76945600515E+03  0.12459375707E+04  0.15040560846E+04  0.50400001928E-02 0.  1.
</event>
<event>
 5   0  0.2623263E-07  0.2595348E+04  0.7818609E-02  0.8369783E-01
        1   -1    0    0  501    0  0.00000000000E+00  0.00000000000E+00  0.16650205549E+04  0.16650205549E+04  0.50400001928E-02 0. -1.
       -1   -1    0    0    0  501  0.00000000000E+00  0.00000000000E+00 -0.10113732605E+04  0.10113732605E+04  0.50400001928E-02 0.  1.
    10030    2    1    2    0    0  0.00000000000E+00  0.00000000000E+00  0.65364729446E+03  0.26763938154E+04  0.25953475817E+04 0.  0.
        1    1    3    3  502    0 -0.73711864528E+03  0.81330849653E+03 -0.38699338827E+03  0.11638636047E+04  0.50400001928E-02 0.  1.
       -1    1    3    3    0  502  0.73711864528E+03 -0.81330849653E+03  0.10406406827E+04  0.15125302107E+04  0.50400001928E-02 0. -1.
</event>
<event>
 5   0  0.2793576E-07  0.2599859E+04  0.7818609E-02  0.8368249E-01
        1   -1    0    0  501    0  0.00000000000E+00  0.00000000000E+00  0.16972163211E+04  0.16972163211E+04  0.50400001928E-02 0.  1.
       -1   -1    0    0    0  501  0.00000000000E+00  0.00000000000E+00 -0.99563998096E+03  0.99563998097E+03  0.50400001928E-02 0. -1.
    10030    2    1    2    0    0  0.00000000000E+00  0.00000000000E+00  0.70157634014E+03  0.26928563021E+04  0.25998587851E+04 0.  0.
        2    1    3    3  502    0 -0.81492915074E+03 -0.97008898107E+03  0.49462205457E+02  0.12679229715E+04  0.25500000920E-02 0. -1.
       -2    1    3    3    0  502  0.81492915074E+03  0.97008898107E+03  0.65211413468E+03  0.14249333306E+04  0.25500000920E-02 0.  1.
</event>
<event>
 5   0  0.2623263E-07  0.2599926E+04  0.7818609E-02  0.8368226E-01
       -1   -1    0    0    0  501  0.00000000000E+00  0.00000000000E+00  0.88844800167E+03  0.88844800169E+03  0.50400001928E-02 0. -1.
        1   -1    0    0  501    0  0.00000000000E+00  0.00000000000E+00 -0.19020846351E+04  0.19020846351E+04  0.50400001928E-02 0.  1.
    10030    2    1    2    0    0  0.00000000000E+00  0.00000000000E+00 -0.10136366334E+04  0.27905326368E+04  0.25999256090E+04 0.  0.
        1    1    3    3  502    0 -0.86555255513E+03 -0.85411165413E+03 -0.13543524129E+02  0.12160885537E+04  0.50400001928E-02 0.  1.
       -1    1    3    3    0  502  0.86555255513E+03  0.85411165413E+03 -0.10000931093E+04  0.15744440830E+04  0.50400001928E-02 0. -1.
</event>
<event>
 5   0  0.2864801E-07  0.2597756E+04  0.7818609E-02  0.8368964E-01
        1   -1    0    0  501    0  0.00000000000E+00  0.00000000000E+00  0.18340598527E+04  0.18340598528E+04  0.50400001928E-02 0.  1.
       -1   -1    0    0    0  501  0.00000000000E+00  0.00000000000E+00 -0.91986336678E+03  0.91986336680E+03  0.50400001928E-02 0. -1.
    10030    2    1    2    0    0  0.00000000000E+00  0.00000000000E+00  0.91419648597E+03  0.27539232196E+04  0.25977563173E+04 0.  0.
        5    1    3    3  502    0 -0.17662082947E+03  0.12113850445E+04  0.91725912893E+03  0.15297173082E+04  0.46999998093E+01 0.  1.
       -5    1    3    3    0  502  0.17662082947E+03 -0.12113850445E+04 -0.30626429646E+01  0.12242059113E+04  0.46999998093E+01 0. -1.
</event>
<event>
 5   0  0.2793576E-07  0.2600704E+04  0.7818609E-02  0.8367962E-01
        1   -1    0    0  501    0  0.00000000000E+00  0.00000000000E+00  0.14802407587E+04  0.14802407587E+04  0.50400001928E-02 0. -1.
       -1   -1    0    0    0  501  0.00000000000E+00  0.00000000000E+00 -0.11423248261E+04  0.11423248261E+04  0.50400001928E-02 0.  1.
    10030    2    1    2    0    0  0.00000000000E+00  0.00000000000E+00  0.33791593262E+03  0.26225655848E+04  0.26007043410E+04 0.  0.
        2    1    3    3  502    0 -0.81640956254E+03  0.58099418594E+03 -0.66676473721E+03  0.12036004456E+04  0.25500000920E-02 0. -1.
       -2    1    3    3    0  502  0.81640956254E+03 -0.58099418594E+03  0.10046806698E+04  0.14189651392E+04  0.25500000920E-02 0.  1.
</event>
<event>
 5   0  0.7160320E-07  0.2599321E+04  0.7818609E-02  0.8368432E-01
        2   -1    0    0  501    0  0.00000000000E+00  0.00000000000E+00  0.27271431087E+04  0.27271431087E+04  0.25500000920E-02 0. -1.
       -2   -1    0    0    0  501  0.00000000000E+00  0.00000000000E+00 -0.61937252507E+03  0.61937252508E+03  0.25500000920E-02 0.  1.
    10030    2    1    2    0    0  0.00000000000E+00  0.00000000000E+00  0.21077705837E+04  0.33465156338E+04  0.25993210756E+04 0.  0.
        1    1    3    3  502    0 -0.11480192094E+04  0.34223804042E+03  0.40497278218E+03  0.12645465336E+04  0.50400001928E-02 0.  1.
       -1    1    3    3    0  502  0.11480192094E+04 -0.34223804042E+03  0.17027978015E+04  0.20819691002E+04  0.50400001928E-02 0. -1.
</event>
<event>
 5   0  0.6526351E-07  0.2600699E+04  0.7818609E-02  0.8367964E-01
        2   -1    0    0  501    0  0.00000000000E+00  0.00000000000E+00  0.18158989966E+04  0.18158989966E+04  0.25500000920E-02 0. -1.
       -2   -1    0    0    0  501  0.00000000000E+00  0.00000000000E+00 -0.93116875619E+03  0.93116875619E+03  0.25500000920E-02 0.  1.
    10030    2    1    2    0    0  0.00000000000E+00  0.00000000000E+00  0.88473024044E+03  0.27470677528E+04  0.26006986831E+04 0.  0.
        3    1    3    3  502    0  0.80456194055E+03 -0.38444048560E+02  0.15206567327E+04  0.17208122414E+04  0.10100000352E+00 0. -1.
       -3    1    3    3    0  502 -0.80456194055E+03  0.38444048560E+02 -0.63592649226E+03  0.10262555115E+04  0.10100000352E+00 0.  1.
</event>
<event>
 5   0  0.2623263E-07  0.2614617E+04  0.7818609E-02  0.8363253E-01
        1   -1    0    0  501    0  0.00000000000E+00  0.00000000000E+00  0.19408124489E+04  0.19408124489E+04  0.50400001928E-02 0. -1.
       -1   -1    0    0    0  501  0.00000000000E+00  0.00000000000E+00 -0.88058738903E+03  0.88058738904E+03  0.50400001928E-02 0.  1.
    10030    2    1    2    0    0  0.00000000000E+00  0.00000000000E+00  0.10602250598E+04  0.28213998379E+04  0.26146165814E+04 0.  0.
        1    1    3    3  502    0 -0.42840179369E+03 -0.94540483187E+03  0.13877912529E+04  0.17329982558E+04  0.50400001928E-02 0. -1.
       -1    1    3    3    0  502  0.42840179369E+03  0.94540483187E+03 -0.32756619311E+03  0.10884015821E+04  0.50400001928E-02 0.  1.
</event>
<event>
 5   0  0.2793576E-07  0.2600533E+04  0.7818609E-02  0.8368020E-01
       -1   -1    0    0    0  501  0.00000000000E+00  0.00000000000E+00  0.10002692094E+04  0.10002692094E+04  0.50400001928E-02 0. -1.
        1   -1    0    0  501    0  0.00000000000E+00  0.00000000000E+00 -0.16902382232E+04  0.16902382232E+04  0.50400001928E-02 0.  1.
    10030    2    1    2    0    0  0.00000000000E+00  0.00000000000E+00 -0.68996901378E+03  0.26905074326E+04  0.26005332155E+04 0.  0.
        2    1    3    3  502    0 -0.41242839973E+03  0.11529098890E+04  0.10763880656E+03  0.12291804220E+04  0.25500000920E-02 0. -1.
       -2    1    3    3    0  502  0.41242839973E+03 -0.11529098890E+04 -0.79760782034E+03  0.14613270107E+04  0.25500000920E-02 0.  1.
</event>
<event>
 5   0  0.2623263E-07  0.2600332E+04  0.7818609E-02  0.8368089E-01
        1   -1    0    0  501    0  0.00000000000E+00  0.00000000000E+00  0.13630220763E+04  0.13630220763E+04  0.50400001928E-02 0. -1.
       -1   -1    0    0    0  501  0.00000000000E+00  0.00000000000E+00 -0.12402083064E+04  0.12402083064E+04  0.50400001928E-02 0.  1.
    10030    2    1    2    0    0  0.00000000000E+00  0.00000000000E+00  0.12281376983E+03  0.26032303827E+04  0.26003317487E+04 0.  0.
        1    1    3    3  502    0 -0.47053986191E+03  0.94971053525E+03 -0.69247533123E+03  0.12660489512E+04  0.50400001928E-02 0.  1.
       -1    1    3    3    0  502  0.47053986191E+03 -0.94971053525E+03  0.81528910106E+03  0.13371814315E+04  0.50400001928E-02 0. -1.
</event>
<event>
 5   0  0.2755061E-07  0.2599691E+04  0.7818609E-02  0.8368306E-01
       -1   -1    0    0    0  501  0.00000000000E+00  0.00000000000E+00  0.15081209533E+04  0.15081209533E+04  0.50400001928E-02 0.  1.
        1   -1    0    0  501    0  0.00000000000E+00  0.00000000000E+00 -0.11203338366E+04  0.11203338367E+04  0.50400001928E-02 0. -1.
    10030    2    1    2    0    0  0.00000000000E+00  0.00000000000E+00  0.38778711665E+03  0.26284547900E+04  0.25996914692E+04 0.  0.
        4    1    3    3  502    0 -0.42384332420E+03  0.76401872894E+03 -0.77916284756E+03  0.11706682440E+04  0.12699999809E+01 0. -1.
       -4    1    3    3    0  502  0.42384332420E+03 -0.76401872894E+03  0.11669499642E+04  0.14577865459E+04  0.12699999809E+01 0.  1.
</event>
<event>
 5   0  0.2641626E-07  0.2599408E+04  0.7818609E-02  0.8368402E-01
        1   -1    0    0  501    0  0.00000000000E+00  0.00000000000E+00  0.15649448462E+04  0.15649448462E+04  0.50400001928E-02 0.  1.
       -1   -1    0    0    0  501  0.00000000000E+00  0.00000000000E+00 -0.10794183249E+04  0.10794183249E+04  0.50400001928E-02 0. -1.
    10030    2    1    2    0    0  0.00000000000E+00  0.00000000000E+00  0.48552652127E+03  0.26443631711E+04  0.25994077360E+04 0.  0.
        3    1    3    3  502    0 -0.93485305439E+03 -0.83027457380E+03 -0.11823158860E+03  0.12559000040E+04  0.10100000352E+00 0. -1.
       -3    1    3    3    0  502  0.93485305439E+03  0.83027457380E+03  0.60375810987E+03  0.13884631672E+04  0.10100000352E+00 0.  1.
</event>
<event>
 5   0  0.7160320E-07  0.2599210E+04  0.7818609E-02  0.8368470E-01
       -2   -1    0    0    0  501  0.00000000000E+00  0.00000000000E+00  0.91071300319E+03  0.91071300319E+03  0.25500000920E-02 0.  1.
        2   -1    0    0  501    0  0.00000000000E+00  0.00000000000E+00 -0.18545615221E+04  0.18545615221E+04  0.25500000920E-02 0. -1.
    10030    2    1    2    0    0  0.00000000000E+00  0.00000000000E+00 -0.94384851886E+03  0.27652745252E+04  0.25992101057E+04 0.  0.
        1    1    3    3  502    0 -0.11227079052E+04  0.28309728036E+03  0.15600197404E+03  0.11683123412E+04  0.50400001928E-02 0.  1.
       -1    1    3    3    0  502  0.11227079052E+04 -0.28309728036E+03 -0.10998504929E+04  0.15969621841E+04  0.50400001928E-02 0. -1.
</event>
<event>
 5   0  0.2864801E-07  0.2600128E+04  0.7818609E-02  0.8368158E-01
        1   -1    0    0  501    0  0.00000000000E+00  0.00000000000E+00  0.12891268718E+04  0.12891268718E+04  0.50400001928E-02 0. -1.
       -1   -1    0    0    0  501  0.00000000000E+00  0.00000000000E+00 -0.13110939537E+04  0.13110939537E+04  0.50400001928E-02 0.  1.
    10030    2    1    2    0    0  0.00000000000E+00  0.00000000000E+00 -0.21967081919E+02  0.26002208256E+04  0.26001280332E+04 0.  0.
        5    1    3    3  502    0 -0.23365731935E+03  0.11856889639E+04  0.46829371664E+03  0.12960614018E+04  0.46999998093E+01 0. -1.
       -5    1    3    3    0  502  0.23365731935E+03 -0.11856889639E+04 -0.49026079856E+03  0.13041594238E+04  0.46999998093E+01 0.  1.
</event>
<event>
 5   0  0.6780984E-07  0.2599528E+04  0.7818609E-02  0.8368362E-01
       -2   -1    0    0    0  501  0.00000000000E+00  0.00000000000E+00  0.15684489018E+04  0.15684489018E+04  0.25500000920E-02 0.  1.
        2   -1    0    0  501    0  0.00000000000E+00  0.00000000000E+00 -0.10771061597E+04  0.10771061597E+04  0.25500000920E-02 0. -1.
    10030    2    1    2    0    0  0.00000000000E+00  0.00000000000E+00  0.49134274204E+03  0.26455550615E+04  0.25995276289E+04 0.  0.
        2    1    3    3  502    0  0.10710050527E+04  0.58274023447E+03 -0.21257667724E+03  0.12376699267E+04  0.25500000920E-02 0. -1.
       -2    1    3    3    0  502 -0.10710050527E+04 -0.58274023447E+03  0.70391941928E+03  0.14078851348E+04  0.25500000920E-02 0.  1.
</event>
<event>
 5   0  0.2755061E-07  0.2600033E+04  0.7818609E-02  0.8368190E-01
        1   -1    0    0  501    0  0.00000000000E+00  0.00000000000E+00  0.91901665583E+03  0.91901665585E+03  0.50400001928E-02 0. -1.
       -1   -1    0    0    0  501  0.00000000000E+00  0.00000000000E+00 -0.18389681581E+04  0.18389681581E+04  0.50400001928E-02 0.  1.
    10030    2    1    2    0    0  0.00000000000E+00  0.00000000000E+00 -0.91995150224E+03  0.27579848139E+04  0.26000325897E+04 0.  0.
        4    1    3    3  502    0 -0.33352665610E+03 -0.75295091353E+03  0.60704902673E+03  0.10230763619E+04  0.12699999809E+01 0. -1.
       -4    1    3    3    0  502  0.33352665610E+03  0.75295091353E+03 -0.15270005290E+04  0.17349084520E+04  0.12699999809E+01 0.  1.
</event>
<event>
 5   0  0.6526351E-07  0.2599233E+04  0.7818609E-02  0.8368462E-01
       -2   -1    0    0    0  501  0.00000000000E+00  0.00000000000E+00  0.16903678775E+04  0.16903678775E+04  0.25500000920E-02 0. -1.
        2   -1    0    0  501    0  0.00000000000E+00  0.00000000000E+00 -0.99919231319E+03  0.99919231320E+03  0.25500000920E-02 0.  1.
    10030    2    1    2    0    0  0.00000000000E+00  0.00000000000E+00  0.69117556434E+03  0.26895601907E+04  0.25992326481E+04 0.  0.
        3    1    3    3  502    0 -0.51452309594E+03  0.40440678660E+03  0.15074271166E+04  0.16433549183E+04  0.10100000352E+00 0. -1.
       -3    1    3    3    0  502  0.51452309594E+03 -0.40440678660E+03 -0.81625155228E+03  0.10462052725E+04  0.10100000352E+00 0.  1.
</event>
<event>
 5   0  0.2623263E-07  0.2600487E+04  0.7818609E-02  0.8368036E-01
        1   -1    0    0  501    0  0.00000000000E+00  0.00000000000E+00  0.10590431074E+04  0.10590431074E+04  0.50400001928E-02 0.  1.
       -1   -1    0    0    0  501  0.00000000000E+00  0.00000000000E+00 -0.15963782332E+04  0.15963782332E+04  0.50400001928E-02 0. -1.
    10030    2    1    2    0    0  0.00000000000E+00  0.00000000000E+00 -0.53733512575E+03  0.26554213406E+04  0.26004871580E+04 0.  0.
        1    1    3    3  502    0 -0.62381215381E+03 -0.45716097316E+03 -0.13359726446E+04  0.15436841211E+04  0.50400001928E-02 0. -1.
       -1    1    3    3    0  502  0.62381215381E+03  0.45716097316E+03  0.79863751886E+03  0.11117372195E+04  0.50400001928E-02 0.  1.
</event>
<event>
 5   0  0.6526351E-07  0.2601256E+04  0.7818609E-02  0.8367775E-01
       -2   -1    0    0    0  501  0.00000000000E+00  0.00000000000E+00  0.66770730667E+03  0.66770730668E+03  0.25500000920E-02 0.  1.
        2   -1    0    0  501    0  0.00000000000E+00  0.00000000000E+00 -0.25334952359E+04  0.25334952359E+04  0.25500000920E-02 0. -1.
    10030    2    1    2    0    0  0.00000000000E+00  0.00000000000E+00 -0.18657879292E+04  0.32012025426E+04  0.26012560662E+04 0.  0.
        3    1    3    3  502    0  0.86581042115E+03 -0.62361411776E+03 -0.18481365129E+04  0.21340409635E+04  0.10100000352E+00 0. -1.
       -3    1    3    3    0  502 -0.86581042115E+03  0.62361411776E+03 -0.17651416334E+02  0.10671615791E+04  0.10100000352E+00 0.  1.
</event>
<event>
 5   0  0.2641626E-07  0.2600468E+04  0.7818609E-02  0.8368042E-01
        1   -1    0    0  501    0  0.00000000000E+00  0.00000000000E+00  0.22549230725E+04  0.22549230725E+04  0.50400001928E-02 0.  1.
       -1   -1    0    0    0  501  0.00000000000E+00  0.00000000000E+00 -0.74974095022E+03  0.74974095024E+03  0.50400001928E-02 0. -1.
    10030    2    1    2    0    0  0.00000000000E+00  0.00000000000E+00  0.15051821223E+04  0.30046640228E+04  0.26004677788E+04 0.  0.
        3    1    3    3  502    0 -0.71359203046E+03  0.81403302142E+03 -0.79596696565E+02  0.10854487506E+04  0.10100000352E+00 0. -1.
       -3    1    3    3    0  502  0.71359203046E+03 -0.81403302142E+03  0.15847788189E+04  0.19192152721E+04  0.10100000352E+00 0.  1.
</event>
<event>
 5   0  0.2864801E-07  0.2599807E+04  0.7818609E-02  0.8368267E-01
        1   -1    0    0  501    0  0.00000000000E+00  0.00000000000E+00  0.12686089746E+04  0.12686089746E+04  0.50400001928E-02 0. -1.
       -1   -1    0    0    0  501  0.00000000000E+00  0.00000000000E+00 -0.13319695540E+04  0.13319695540E+04  0.50400001928E-02 0.  1.
    10030    2    1    2    0    0  0.00000000000E+00  0.00000000000E+00 -0.63360579414E+02  0.26005785287E+04  0.25998065545E+04 0.  0.
        5    1    3    3  502    0  0.77201874458E+03 -0.75297494598E+03 -0.75766589013E+03  0.13179772010E+04  0.46999998093E+01 0.  1.
       -5    1    3    3    0  502 -0.77201874458E+03  0.75297494598E+03  0.69430531072E+03  0.12826013277E+04  0.46999998093E+01 0. -1.
</event>
<event>
 5   0  0.2641626E-07  0.2598700E+04  0.7818609E-02  0.8368643E-01
        1   -1    0    0  501    0  0.00000000000E+00  0.00000000000E+00  0.12855993791E+04  0.12855993791E+04  0.50400001928E-02 0.  1.
       -1   -1    0    0    0  501  0.00000000000E+00  0.00000000000E+00 -0.13132481945E+04  0.13132481946E+04  0.50400001928E-02 0. -1.
    10030    2    1    2    0    0  0.00000000000E+00  0.00000000000E+00 -0.27648815427E+02  0.25988475737E+04  0.25987004934E+04 0.  0.
        3    1    3    3  502    0  0.28413804325E+03 -0.22561504574E+03 -0.12615626375E+04  0.13126983184E+04  0.10100000352E+00 0. -1.
       -3    1    3    3    0  502 -0.28413804325E+03  0.22561504574E+03  0.12339138221E+04  0.12861492553E+04  0.10100000352E+00 0.  1.
</event>
<event>
 5   0  0.6599814E-07  0.2599379E+04  0.7818609E-02  0.8368412E-01
       -2   -1    0    0    0  501  0.00000000000E+00  0.00000000000E+00  0.10341245781E+04  0.10341245781E+04  0.25500000920E-02 0. -1.
        2   -1    0    0  501    0  0.00000000000E+00  0.00000000000E+00 -0.16334514936E+04  0.16334514937E+04  0.25500000920E-02 0.  1.
    10030    2    1    2    0    0  0.00000000000E+00  0.00000000000E+00 -0.59932691557E+03  0.26675760717E+04  0.25993786463E+04 0.  0.
        5    1    3    3  502    0 -0.19963949474E+03  0.57969514300E+03 -0.14757084152E+04  0.15980112025E+04  0.46999998093E+01 0.  1.
       -5    1    3    3    0  502  0.19963949474E+03 -0.57969514300E+03  0.87638149960E+03  0.10695648692E+04  0.46999998093E+01 0. -1.
</event>
<event>
 5   0  0.7160320E-07  0.2599657E+04  0.7818609E-02  0.8368318E-01
       -2   -1    0    0    0  501  0.00000000000E+00  0.00000000000E+00  0.67076821964E+03  0.67076821965E+03  0.25500000920E-02 0.  1.
        2   -1    0    0  501    0  0.00000000000E+00  0.00000000000E+00 -0.25188344951E+04  0.25188344951E+04  0.25500000920E-02 0. -1.
    10030    2    1    2    0    0  0.00000000000E+00  0.00000000000E+00 -0.18480662755E+04  0.31896027148E+04  0.25996570004E+04 0.  0.
        1    1    3    3  502    0 -0.10547758319E+04  0.77109602668E+02  0.31381214804E+01  0.10575952885E+04  0.50400001928E-02 0.  1.
       -1    1    3    3    0  502  0.10547758319E+04 -0.77109602668E+02 -0.18512043970E+04  0.21320074263E+04  0.50400001928E-02 0. -1.
</event>
<event>
 5   0  0.7160320E-07  0.2599726E+04  0.7818609E-02  0.8368294E-01
        2   -1    0    0  501    0  0.00000000000E+00  0.00000000000E+00  0.29198545880E+04  0.29198545880E+04  0.25500000920E-02 0. -1.
       -2   -1    0    0    0  501  0.00000000000E+00  0.00000000000E+00 -0.57867417146E+03  0.57867417147E+03  0.25500000920E-02 0.  1.
    10030    2    1    2    0    0  0.00000000000E+00  0.00000000000E+00  0.23411804165E+04  0.34985287594E+04  0.25997264737E+04 0.  0.
        1    1    3    3  502    0  0.10131437428E+04  0.34467324402E+03  0.21635020391E+04  0.24137110353E+04  0.50400001928E-02 0.  1.
       -1    1    3    3    0  502 -0.10131437428E+04 -0.34467324402E+03  0.17767837743E+03  0.10848177241E+04  0.50400001928E-02 0. -1.
</event>
<event>
 5   0  0.2793576E-07  0.2600286E+04  0.7818609E-02  0.8368104E-01
       -1   -1    0    0    0  501  0.00000000000E+00  0.00000000000E+00  0.10973652807E+04  0.10973652807E+04  0.50400001928E-02 0. -1.
        1   -1    0    0  501    0  0.00000000000E+00  0.00000000000E+00 -0.15403910750E+04  0.15403910750E+04  0.50400001928E-02 0.  1.
    10030    2    1    2    0    0  0.00000000000E+00  0.00000000000E+00 -0.44302579434E+03  0.26377563557E+04  0.26002858954E+04 0.  0.
        2    1    3    3  502    0 -0.55061998788E+03 -0.36854550303E+03 -0.13562763078E+04  0.15094679798E+04  0.25500000920E-02 0.  1.
       -2    1    3    3    0  502  0.55061998788E+03  0.36854550303E+03  0.91325051347E+03  0.11282883759E+04  0.25500000920E-02 0. -1.
</event>
<event>
 5   0  0.2294625E-07  0.2598021E+04  0.7818609E-02  0.8368874E-01
        4   -1    0    0  501    0  0.00000000000E+00  0.00000000000E+00  0.12831988484E+04  0.12831994769E+04  0.12699999809E+01 0.  1.
       -4   -1    0    0    0  501  0.00000000000E+00  0.00000000000E+00 -0.13150156388E+04  0.13150162521E+04  0.12699999809E+01 0. -1.
    10030    2    1    2    0    0  0.00000000000E+00  0.00000000000E+00 -0.31816790428E+02  0.25982157290E+04  0.25980209133E+04 0.  0.
        1    1    3    3  502    0  0.98988986426E+03 -0.82597303230E+03 -0.17502649507E+03  0.13010563660E+04  0.50400001928E-02 0. -1.
       -1    1    3    3    0  502 -0.98988986426E+03  0.82597303230E+03  0.14320970464E+03  0.12971593630E+04  0.50400001928E-02 0.  1.
</event>
<event>
 5   0  0.6780984E-07  0.2610529E+04  0.7818609E-02  0.8364633E-01
        2   -1    0    0  501    0  0.00000000000E+00  0.00000000000E+00  0.18226580997E+04  0.18226580997E+04  0.25500000920E-02 0.  1.
       -2   -1    0    0    0  501  0.00000000000E+00  0.00000000000E+00 -0.93474228595E+03  0.93474228595E+03  0.25500000920E-02 0. -1.
    10030    2    1    2    0    0  0.00000000000E+00  0.00000000000E+00  0.88791581376E+03  0.27574003857E+04  0.26105291407E+04 0.  0.
        2    1    3    3  502    0 -0.12690435685E+04  0.27568970202E+03  0.30527276318E+03  0.13340419224E+04  0.25500000920E-02 0. -1.
       -2    1    3    3    0  502  0.12690435685E+04 -0.27568970202E+03  0.58264305058E+03  0.14233584633E+04  0.25500000920E-02 0.  1.
</event>
<event>
 5   0  0.2864801E-07  0.2597738E+04  0.7818609E-02  0.8368970E-01
       -1   -1    0    0    0  501  0.00000000000E+00  0.00000000000E+00  0.14176406068E+04  0.14176406068E+04  0.50400001928E-02 0. -1.
        1   -1    0    0  501    0  0.00000000000E+00  0.00000000000E+00 -0.11900478243E+04  0.11900478243E+04  0.50400001928E-02 0.  1.
    10030    2    1    2    0    0  0.00000000000E+00  0.00000000000E+00  0.22759278252E+03  0.26076884311E+04  0.25977375693E+04 0.  0.
        5    1    3    3  502    0  0.86274290900E+03  0.75281959331E+03  0.72931348503E+03  0.13575650690E+04  0.46999998093E+01 0. -1.
       -5    1    3    3    0  502 -0.86274290900E+03 -0.75281959331E+03 -0.50172070251E+03  0.12501233621E+04  0.46999998093E+01 0.  1.
</event>
<event>
 5   0  0.2755061E-07  0.2599331E+04  0.7818609E-02  0.8368428E-01
        1   -1    0    0  501    0  0.00000000000E+00  0.00000000000E+00  0.15083622205E+04  0.15083622205E+04  0.50400001928E-02 0. -1.
       -1   -1    0    0    0  501  0.00000000000E+00  0.00000000000E+00 -0.11198439695E+04  0.11198439695E+04  0.50400001928E-02 0.  1.
    10030    2    1    2    0    0  0.00000000000E+00  0.00000000000E+00  0.38851825097E+03  0.26282061900E+04  0.25993309420E+04 0.  0.
        4    1    3    3  502    0  0.80150741808E+03 -0.51282644649E+03  0.10893751348E+04  0.14464248693E+04  0.12699999809E+01 0. -1.
       -4    1    3    3    0  502 -0.80150741808E+03  0.51282644649E+03 -0.70085688380E+03  0.11817813207E+04  0.12699999809E+01 0.  1.
</event>
<event>
 5   0  0.2641626E-07  0.2600828E+04  0.7818609E-02  0.8367920E-01
       -1   -1    0    0    0  501  0.00000000000E+00  0.00000000000E+00  0.94496757717E+03  0.94496757718E+03  0.50400001928E-02 0. -1.
        1   -1    0    0  501    0  0.00000000000E+00  0.00000000000E+00 -0.17895602943E+04  0.17895602944E+04  0.50400001928E-02 0.  1.
    10030    2    1    2    0    0  0.00000000000E+00  0.00000000000E+00 -0.84459271718E+03  0.27345278715E+04  0.26008279109E+04 0.  0.
        3    1    3    3  502    0  0.12834895829E+04  0.20405117019E+03 -0.37418308743E+03  0.13524035575E+04  0.10100000352E+00 0.  1.
       -3    1    3    3    0  502 -0.12834895829E+04 -0.20405117019E+03 -0.47040962975E+03  0.13821243140E+04  0.10100000352E+00 0. -1.
</event>
<event>
 5   0  0.2864801E-07  0.2599862E+04  0.7818609E-02  0.8368248E-01
        1   -1    0    0  501    0  0.00000000000E+00  0.00000000000E+00  0.10506103551E+04  0.10506103551E+04  0.50400001928E-02 0.  1.
       -1   -1    0    0    0  501  0.00000000000E+00  0.00000000000E+00 -0.16084181346E+04  0.16084181346E+04  0.50400001928E-02 0. -1.
    10030    2    1    2    0    0  0.00000000000E+00  0.00000000000E+00 -0.55780777952E+03  0.26590284897E+04  0.25998621098E+04 0.  0.
        5    1    3    3  502    0  0.38516302398E+03  0.10946348636E+04 -0.87808846613E+03  0.14552104603E+04  0.46999998093E+01 0. -1.
       -5    1    3    3    0  502 -0.38516302398E+03 -0.10946348636E+04  0.32028068661E+03  0.12038180293E+04  0.46999998093E+01 0.  1.
</event>
<event>
 5   0  0.6780984E-07  0.2600273E+04  0.7818609E-02  0.8368109E-01
       -2   -1    0    0    0  501  0.00000000000E+00  0.00000000000E+00  0.84557536553E+03  0.84557536553E+03  0.25500000920E-02 0. -1.
        2   -1    0    0  501    0  0.00000000000E+00  0.00000000000E+00 -0.19990585743E+04  0.19990585743E+04  0.25500000920E-02 0.  1.
    10030    2    1    2    0    0  0.00000000000E+00  0.00000000000E+00 -0.11534832088E+04  0.28446339399E+04  0.26002728201E+04 0.  0.
        2    1    3    3  502    0 -0.98245932383E+03  0.84139615005E+03 -0.72013533978E+03  0.14804623305E+04  0.25500000920E-02 0.  1.
       -2    1    3    3    0  502  0.98245932383E+03 -0.84139615005E+03 -0.43334786902E+03  0.13641716094E+04  0.25500000920E-02 0. -1.
</event>
<event>
 5   0  0.6780984E-07  0.2602584E+04  0.7818609E-02  0.8367324E-01
        2   -1    0    0  501    0  0.00000000000E+00  0.00000000000E+00  0.19351718827E+04  0.19351718827E+04  0.25500000920E-02 0.  1.
       -2   -1    0    0    0  501  0.00000000000E+00  0.00000000000E+00 -0.87504408884E+03  0.87504408884E+03  0.25500000920E-02 0. -1.
    10030    2    1    2    0    0  0.00000000000E+00  0.00000000000E+00  0.10601277939E+04  0.28102159716E+04  0.26025838829E+04 0.  0.
        2    1    3    3  502    0  0.62206480661E+03  0.15018061918E+03 -0.69339879383E+03  0.94356808408E+03  0.25500000920E-02 0. -1.
       -2    1    3    3    0  502 -0.62206480661E+03 -0.15018061918E+03  0.17535265877E+04  0.18666478875E+04  0.25500000920E-02 0.  1.
</event>
<event>
 5   0  0.2755061E-07  0.2600044E+04  0.7818609E-02  0.8368186E-01
       -1   -1    0    0    0  501  0.00000000000E+00  0.00000000000E+00  0.66818603115E+03  0.66818603116E+03  0.50400001928E-02 0. -1.
        1   -1    0    0  501    0  0.00000000000E+00  0.00000000000E+00 -0.25293205919E+04  0.25293205919E+04  0.50400001928E-02 0.  1.
    10030    2    1    2    0    0  0.00000000000E+00  0.00000000000E+00 -0.18611345607E+04  0.31975066230E+04  0.26000436056E+04 0.  0.
        4    1    3    3  502    0 -0.61992415008E+03  0.55146674889E+03 -0.21613609449E+04  0.23151467068E+04  0.12699999809E+01 0.  1.
       -4    1    3    3    0  502  0.61992415008E+03 -0.55146674889E+03  0.30022638424E+03  0.88235991618E+03  0.12699999809E+01 0. -1.
</event>
<event>
 5   0  0.2623263E-07  0.2599912E+04  0.7818609E-02  0.8368231E-01
        1   -1    0    0  501    0  0.00000000000E+00  0.00000000000E+00  0.13866040741E+04  0.13866040741E+04  0.50400001928E-02 0.  1.
       -1   -1    0    0    0  501  0.00000000000E+00  0.00000000000E+00 -0.12187223181E+04  0.12187223181E+04  0.50400001928E-02 0. -1.
    10030    2    1    2    0    0  0.00000000000E+00  0.00000000000E+00  0.16788175596E+03  0.26053263922E+04  0.25999117920E+04 0.  0.
        1    1    3    3  502    0  0.62966238946E+03  0.11331613516E+04 -0.12986765894E+02  0.12964173825E+04  0.50400001928E-02 0.  1.
       -1    1    3    3    0  502 -0.62966238946E+03 -0.11331613516E+04  0.18086852185E+03  0.13089090097E+04  0.50400001928E-02 0. -1.
</event>
<event>
 5   0  0.2623263E-07  0.2600229E+04  0.7818609E-02  0.8368123E-01
        1   -1    0    0  501    0  0.00000000000E+00  0.00000000000E+00  0.17633935862E+04  0.17633935863E+04  0.50400001928E-02 0. -1.
       -1   -1    0    0    0  501  0.00000000000E+00  0.00000000000E+00 -0.95854826209E+03  0.95854826210E+03  0.50400001928E-02 0.  1.
    10030    2    1    2    0    0  0.00000000000E+00  0.00000000000E+00  0.80484532416E+03  0.27219418484E+04  0.26002291111E+04 0.  0.
        1    1    3    3  502    0  0.32559410320E+03  0.38877460088E+03 -0.85075208110E+03  0.99042229067E+03  0.50400001928E-02 0.  1.
       -1    1    3    3    0  502 -0.32559410320E+03 -0.38877460088E+03  0.16555974053E+04  0.17315195577E+04  0.50400001928E-02 0. -1.
</event>
<event>
 5   0  0.2864801E-07  0.2598642E+04  0.7818609E-02  0.8368662E-01
       -1   -1    0    0    0  501  0.00000000000E+00  0.00000000000E+00  0.11874244036E+04  0.11874244036E+04  0.50400001928E-02 0.  1.
        1   -1    0    0  501    0  0.00000000000E+00  0.00000000000E+00 -0.14217626424E+04  0.14217626424E+04  0.50400001928E-02 0. -1.
    10030    2    1    2    0    0  0.00000000000E+00  0.00000000000E+00 -0.23433823881E+03  0.26091870459E+04  0.25986424591E+04 0.  0.
        5    1    3    3  502    0  0.11175019803E+04  0.56960766855E+03 -0.45758762658E+03  0.13351674420E+04  0.46999998093E+01 0. -1.
       -5    1    3    3    0  502 -0.11175019803E+04 -0.56960766855E+03  0.22324938777E+03  0.12740196040E+04  0.46999998093E+01 0.  1.
</event>
<event>
 5   0  0.6768478E-07  0.2606019E+04  0.7818609E-02  0.8366159E-01
        2   -1    0    0  501    0  0.00000000000E+00  0.00000000000E+00  0.19700056618E+04  0.19700056618E+04  0.25500000920E-02 0.  1.
       -2   -1    0    0    0  501  0.00000000000E+00  0.00000000000E+00 -0.86184226865E+03  0.86184226866E+03  0.25500000920E-02 0. -1.
    10030    2    1    2    0    0  0.00000000000E+00  0.00000000000E+00  0.11081633932E+04  0.28318479305E+04  0.26060193007E+04 0.  0.
        4    1    3    3  502    0 -0.32456165780E+03  0.92604003947E+03  0.14856589306E+04  0.17804703018E+04  0.12699999809E+01 0.  1.
       -4    1    3    3    0  502  0.32456165780E+03 -0.92604003947E+03 -0.37749553748E+03  0.10513776287E+04  0.12699999809E+01 0. -1.
</event>
<event>
 5   0  0.6526351E-07  0.2605605E+04  0.7818609E-02  0.8366300E-01
        2   -1    0    0  501    0  0.00000000000E+00  0.00000000000E+00  0.11722276577E+04  0.11722276577E+04  0.25500000920E-02 0.  1.
       -2   -1    0    0    0  501  0.00000000000E+00  0.00000000000E+00 -0.14479223531E+04  0.14479223531E+04  0.25500000920E-02 0. -1.
    10030    2    1    2    0    0  0.00000000000E+00  0.00000000000E+00 -0.27569469535E+03  0.26201500108E+04  0.26056052107E+04 0.  0.
        3    1    3    3  502    0  0.78390546304E+03 -0.79162797611E+03 -0.81697792918E+03  0.13815337761E+04  0.10100000352E+00 0. -1.
       -3    1    3    3    0  502 -0.78390546304E+03  0.79162797611E+03  0.54128323382E+03  0.12386162347E+04  0.10100000352E+00 0.  1.
</event>
<event>
 5   0  0.7160320E-07  0.2600933E+04  0.7818609E-02  0.8367884E-01
       -2   -1    0    0    0  501  0.00000000000E+00  0.00000000000E+00  0.10715002525E+04  0.10715002525E+04  0.25500000920E-02 0.  1.
        2   -1    0    0  501    0  0.00000000000E+00  0.00000000000E+00 -0.15783599684E+04  0.15783599684E+04  0.25500000920E-02 0. -1.
    10030    2    1    2    0    0  0.00000000000E+00  0.00000000000E+00 -0.50685971591E+03  0.26498602208E+04  0.26009329900E+04 0.  0.
        1    1    3    3  502    0  0.20131254403E+03 -0.12306583258E+04 -0.62937879309E+03  0.13968408357E+04  0.50400001928E-02 0.  1.
       -1    1    3    3    0  502 -0.20131254403E+03  0.12306583258E+04  0.12251907718E+03  0.12530193851E+04  0.50400001928E-02 0. -1.
</event>
<event>
 5   0  0.6526351E-07  0.2604159E+04  0.7818609E-02  0.8366790E-01
        2   -1    0    0  501    0  0.00000000000E+00  0.00000000000E+00  0.57502274228E+03  0.57502274228E+03  0.25500000920E-02 0. -1.
       -2   -1    0    0    0  501  0.00000000000E+00  0.00000000000E+00 -0.29484237703E+04  0.29484237703E+04  0.25500000920E-02 0.  1.
    10030    2    1    2    0    0  0.00000000000E+00  0.00000000000E+00 -0.23734010280E+04  0.35234465125E+04  0.26041587676E+04 0.  0.
        3    1    3    3  502    0  0.54711795448E+03  0.51252112810E+03 -0.26271260860E+04  0.27319969702E+04  0.10100000352E+00 0.  1.
       -3    1    3    3    0  502 -0.54711795448E+03 -0.51252112810E+03  0.25372505804E+03  0.79144954239E+03  0.10100000352E+00 0. -1.
</event>
<event>
 5   0  0.6599814E-07  0.2597695E+04  0.7818609E-02  0.8368985E-01
        2   -1    0    0  501    0  0.00000000000E+00  0.00000000000E+00  0.13425357764E+04  0.13425357764E+04  0.25500000920E-02 0.  1.
       -2   -1    0    0    0  501  0.00000000000E+00  0.00000000000E+00 -0.12565805870E+04  0.12565805870E+04  0.25500000920E-02 0. -1.
    10030    2    1    2    0    0  0.00000000000E+00  0.00000000000E+00  0.85955189347E+02  0.25991163634E+04  0.25976946656E+04 0.  0.
        5    1    3    3  502    0  0.12886384334E+04  0.15055559059E+03  0.10405447972E+03  0.13015780509E+04  0.46999998093E+01 0. -1.
       -5    1    3    3    0  502 -0.12886384334E+04 -0.15055559059E+03 -0.18099290375E+02  0.12975383124E+04  0.46999998093E+01 0.  1.
</event>
<event>
 5   0  0.2294625E-07  0.2599480E+04  0.7818609E-02  0.8368378E-01
        4   -1    0    0  501    0  0.00000000000E+00  0.00000000000E+00  0.87854445778E+03  0.87854537571E+03  0.12699999809E+01 0. -1.
       -4   -1    0    0    0  501  0.00000000000E+00  0.00000000000E+00 -0.19228641036E+04  0.19228645230E+04  0.12699999809E+01 0.  1.
    10030    2    1    2    0    0  0.00000000000E+00  0.00000000000E+00 -0.10443196459E+04  0.28014098988E+04  0.25994795437E+04 0.  0.
        4    1    3    3  502    0  0.54655647467E+03  0.11792031586E+04 -0.51265467525E+03  0.13971615863E+04  0.12699999809E+01 0.  1.
       -4    1    3    3    0  502 -0.54655647467E+03 -0.11792031586E+04 -0.53166497061E+03  0.14042483125E+04  0.12699999809E+01 0. -1.
</event>
<event>
 5   0  0.2641626E-07  0.2599890E+04  0.7818609E-02  0.8368239E-01
        1   -1    0    0  501    0  0.00000000000E+00  0.00000000000E+00  0.10176577194E+04  0.10176577194E+04  0.50400001928E-02 0.  1.
       -1   -1    0    0    0  501  0.00000000000E+00  0.00000000000E+00 -0.16605352238E+04  0.16605352238E+04  0.50400001928E-02 0. -1.
    10030    2    1    2    0    0  0.00000000000E+00  0.00000000000E+00 -0.64287750437E+03  0.26781929432E+04  0.25998896045E+04 0.  0.
        3    1    3    3  502    0 -0.51473741455E+03  0.11935212600E+04 -0.34226840435E+03  0.13440964530E+04  0.10100000352E+00 0. -1.
       -3    1    3    3    0  502  0.51473741455E+03 -0.11935212600E+04 -0.30060910002E+03  0.13340964903E+04  0.10100000352E+00 0.  1.
</event>
<event>
 5   0  0.7160320E-07  0.2600989E+04  0.7818609E-02  0.8367865E-01
        2   -1    0    0  501    0  0.00000000000E+00  0.00000000000E+00  0.12364120173E+04  0.12364120173E+04  0.25500000920E-02 0. -1.
       -2   -1    0    0    0  501  0.00000000000E+00  0.00000000000E+00 -0.13678980097E+04  0.13678980097E+04  0.25500000920E-02 0.  1.
    10030    2    1    2    0    0  0.00000000000E+00  0.00000000000E+00 -0.13148599238E+03  0.26043100270E+04  0.26009886872E+04 0.  0.
        1    1    3    3  502    0  0.60853652323E+03 -0.78451094108E+03 -0.90676284192E+03  0.13446162904E+04  0.50400001928E-02 0.  1.
       -1    1    3    3    0  502 -0.60853652323E+03  0.78451094108E+03  0.77527684954E+03  0.12596937367E+04  0.50400001928E-02 0. -1.
</event>
<event>
 5   0  0.2641626E-07  0.2599463E+04  0.7818609E-02  0.8368383E-01
       -1   -1    0    0    0  501  0.00000000000E+00  0.00000000000E+00  0.74382299560E+03  0.74382299562E+03  0.50400001928E-02 0. -1.
        1   -1    0    0  501    0  0.00000000000E+00  0.00000000000E+00 -0.22711082208E+04  0.22711082208E+04  0.50400001928E-02 0.  1.
    10030    2    1    2    0    0  0.00000000000E+00  0.00000000000E+00 -0.15272852252E+04  0.30149312164E+04  0.25994634217E+04 0.  0.
        3    1    3    3  502    0 -0.12256007198E+04 -0.42028466240E+03 -0.64442158301E+03  0.14470713557E+04  0.10100000352E+00 0. -1.
       -3    1    3    3    0  502  0.12256007198E+04  0.42028466240E+03 -0.88286364216E+03  0.15678598606E+04  0.10100000352E+00 0.  1.
</event>
<event>
 5   0  0.2793576E-07  0.2602720E+04  0.7818609E-02  0.8367278E-01
        1   -1    0    0  501    0  0.00000000000E+00  0.00000000000E+00  0.19157317040E+04  0.19157317040E+04  0.50400001928E-02 0.  1.
       -1   -1    0    0    0  501  0.00000000000E+00  0.00000000000E+00 -0.88401619087E+03  0.88401619089E+03  0.50400001928E-02 0. -1.
    10030    2    1    2    0    0  0.00000000000E+00  0.00000000000E+00  0.10317155132E+04  0.27997478949E+04  0.26027199955E+04 0.  0.
        2    1    3    3  502    0 -0.10982902164E+03  0.12962741968E+04  0.55231491230E+03  0.14133085189E+04  0.25500000920E-02 0.  1.
       -2    1    3    3    0  502  0.10982902164E+03 -0.12962741968E+04  0.47940060086E+03  0.13864393760E+04  0.25500000920E-02 0. -1.
</event>
<event>
 5   0  0.2755061E-07  0.2601509E+04  0.7818609E-02  0.8367689E-01
       -1   -1    0    0    0  501  0.00000000000E+00  0.00000000000E+00  0.11479948725E+04  0.11479948725E+04  0.50400001928E-02 0. -1.
        1   -1    0    0  501    0  0.00000000000E+00  0.00000000000E+00 -0.14738409919E+04  0.14738409919E+04  0.50400001928E-02 0.  1.
    10030    2    1    2    0    0  0.00000000000E+00  0.00000000000E+00 -0.32584611940E+03  0.26218358644E+04  0.26015087173E+04 0.  0.
        4    1    3    3  502    0 -0.12482293794E+04 -0.16813592489E+02 -0.53129376213E+03  0.13566996554E+04  0.12699999809E+01 0.  1.
       -4    1    3    3    0  502  0.12482293794E+04  0.16813592489E+02  0.20544764273E+03  0.12651362090E+04  0.12699999809E+01 0. -1.
</event>
<event>
 5   0  0.6768478E-07  0.2603478E+04  0.7818609E-02  0.8367021E-01
       -2   -1    0    0    0  501  0.00000000000E+00  0.00000000000E+00  0.91614985175E+03  0.91614985175E+03  0.25500000920E-02 0. -1.
        2   -1    0    0  501    0  0.00000000000E+00  0.00000000000E+00 -0.18496146754E+04  0.18496146754E+04  0.25500000920E-02 0.  1.
    10030    2    1    2    0    0  0.00000000000E+00  0.00000000000E+00 -0.93346482360E+03  0.27657645271E+04  0.26034778360E+04 0.  0.
        4    1    3    3  502    0  0.26530766450E+03  0.12190369330E+04 -0.71973404376E+02  0.12496483445E+04  0.12699999809E+01 0. -1.
       -4    1    3    3    0  502 -0.26530766450E+03 -0.12190369330E+04 -0.86149141923E+03  0.15161161826E+04  0.12699999809E+01 0.  1.
</event>
<event>
 5   0  0.2864801E-07  0.2598802E+04  0.7818609E-02  0.8368608E-01
        1   -1    0    0  501    0  0.00000000000E+00  0.00000000000E+00  0.20337690461E+04  0.20337690461E+04  0.50400001928E-02 0. -1.
       -1   -1    0    0    0  501  0.00000000000E+00  0.00000000000E+00 -0.83020390009E+03  0.83020390011E+03  0.50400001928E-02 0.  1.
    10030    2    1    2    0    0  0.00000000000E+00  0.00000000000E+00  0.12035651460E+04  0.28639729463E+04  0.25988020271E+04 0.  0.
        5    1    3    3  502    0  0.89572209006E+03 -0.93413469084E+02 -0.43047666677E+03  0.99818655043E+03  0.46999998093E+01 0.  1.
       -5    1    3    3    0  502 -0.89572209006E+03  0.93413469084E+02  0.16340418128E+04  0.18657863958E+04  0.46999998093E+01 0. -1.
</event>
<event>
 5   0  0.2864801E-07  0.2599895E+04  0.7818609E-02  0.8368237E-01
       -1   -1    0    0    0  501  0.00000000000E+00  0.00000000000E+00  0.11377519071E+04  0.11377519071E+04  0.50400001928E-02 0.  1.
        1   -1    0    0  501    0  0.00000000000E+00  0.00000000000E+00 -0.14852649861E+04  0.14852649861E+04  0.50400001928E-02 0. -1.
    10030    2    1    2    0    0  0.00000000000E+00  0.00000000000E+00 -0.34751307899E+03  0.26230168932E+04  0.25998946674E+04 0.  0.
        5    1    3    3  502    0  0.35608674380E+03 -0.44092272281E+03 -0.13540457030E+04  0.14678802650E+04  0.46999998093E+01 0. -1.
       -5    1    3    3    0  502 -0.35608674380E+03  0.44092272281E+03  0.10065326240E+04  0.11551366282E+04  0.46999998093E+01 0.  1.
</event>
<event>
 5   0  0.2864801E-07  0.2599861E+04  0.7818609E-02  0.8368248E-01
        1   -1    0    0  501    0  0.00000000000E+00  0.00000000000E+00  0.23345652024E+04  0.23345652024E+04  0.50400001928E-02 0. -1.
       -1   -1    0    0    0  501  0.00000000000E+00  0.00000000000E+00 -0.72382611664E+03  0.72382611666E+03  0.50400001928E-02 0.  1.
    10030    2    1    2    0    0  0.00000000000E+00  0.00000000000E+00  0.16107390857E+04  0.30583913190E+04  0.25998609690E+04 0.  0.
        5    1    3    3  502    0  0.82815282188E+03 -0.11675109940E+03  0.19760348101E+04  0.21457407989E+04  0.46999998093E+01 0. -1.
       -5    1    3    3    0  502 -0.82815282188E+03  0.11675109940E+03 -0.36529572435E+03  0.91265052010E+03  0.46999998093E+01 0.  1.
</event>
<event>
 5   0  0.6599814E-07  0.2600135E+04  0.7818609E-02  0.8368155E-01
       -2   -1    0    0    0  501  0.00000000000E+00  0.00000000000E+00  0.70659534614E+03  0.70659534614E+03  0.25500000920E-02 0.  1.
        2   -1    0    0  501    0  0.00000000000E+00  0.00000000000E+00 -0.23919991819E+04  0.23919991819E+04  0.25500000920E-02 0. -1.
    10030    2    1    2    0    0  0.00000000000E+00  0.00000000000E+00 -0.16854038357E+04  0.30985945280E+04  0.26001349887E+04 0.  0.
        5    1    3    3  502    0  0.89073036035E+03  0.72936719100E+03 -0.15624527513E+04  0.19407879236E+04  0.46999998093E+01 0.  1.
       -5    1    3    3    0  502 -0.89073036035E+03 -0.72936719100E+03 -0.12295108442E+03  0.11578066045E+04  0.46999998093E+01 0. -1.
</event>
<event>
 5   0  0.7160320E-07  0.2600079E+04  0.7818609E-02  0.8368174E-01
       -2   -1    0    0    0  501  0.00000000000E+00  0.00000000000E+00  0.94338949991E+03  0.94338949992E+03  0.25500000920E-02 0. -1.
        2   -1    0    0  501    0  0.00000000000E+00  0.00000000000E+00 -0.17915212966E+04  0.17915212966E+04  0.25500000920E-02 0.  1.
    10030    2    1    2    0    0  0.00000000000E+00  0.00000000000E+00 -0.84813179664E+03  0.27349107965E+04  0.26000787527E+04 0.  0.
        1    1    3    3  502    0  0.78781747243E+03  0.24225808376E+03 -0.14815651017E+04  0.16953998052E+04  0.50400001928E-02 0.  1.
       -1    1    3    3    0  502 -0.78781747243E+03 -0.24225808376E+03  0.63343330503E+03  0.10395109913E+04  0.50400001928E-02 0. -1.
</event>
<event>
 5   0  0.2793576E-07  0.2601097E+04  0.7818609E-02  0.8367829E-01
       -1   -1    0    0    0  501  0.00000000000E+00  0.00000000000E+00  0.93987074091E+03  0.93987074092E+03  0.50400001928E-02 0.  1.
        1   -1    0    0  501    0  0.00000000000E+00  0.00000000000E+00 -0.17996368007E+04  0.17996368007E+04  0.50400001928E-02 0. -1.
    10030    2    1    2    0    0  0.00000000000E+00  0.00000000000E+00 -0.85976605983E+03  0.27395075417E+04  0.26010966713E+04 0.  0.
        2    1    3    3  502    0 -0.21403876689E+03 -0.10672675242E+04 -0.11794813926E+04  0.16050074509E+04  0.25500000920E-02 0. -1.
       -2    1    3    3    0  502  0.21403876689E+03  0.10672675242E+04  0.31971533275E+03  0.11345000908E+04  0.25500000920E-02 0.  1.
</event>
<event>
 5   0  0.6599814E-07  0.2600248E+04  0.7818609E-02  0.8368117E-01
       -2   -1    0    0    0  501  0.00000000000E+00  0.00000000000E+00  0.82438824339E+03  0.82438824340E+03  0.25500000920E-02 0.  1.
        2   -1    0    0  501    0  0.00000000000E+00  0.00000000000E+00 -0.20503953942E+04  0.20503953942E+04  0.25500000920E-02 0. -1.
    10030    2    1    2    0    0  0.00000000000E+00  0.00000000000E+00 -0.12260071509E+04  0.28747836376E+04  0.26002475708E+04 0.  0.
        5    1    3    3  502    0 -0.11537083525E+04  0.59914533454E+03 -0.63155865820E+03  0.14453049932E+04  0.46999998093E+01 0. -1.
       -5    1    3    3    0  502  0.11537083525E+04 -0.59914533454E+03 -0.59444849266E+03  0.14294786445E+04  0.46999998093E+01 0.  1.
</event>
<event>
 5   0  0.7160320E-07  0.2599515E+04  0.7818609E-02  0.8368366E-01
       -2   -1    0    0    0  501  0.00000000000E+00  0.00000000000E+00  0.81462882682E+03  0.81462882682E+03  0.25500000920E-02 0.  1.
        2   -1    0    0  501    0  0.00000000000E+00  0.00000000000E+00 -0.20737897586E+04  0.20737897586E+04  0.25500000920E-02 0. -1.
    10030    2    1    2    0    0  0.00000000000E+00  0.00000000000E+00 -0.12591609317E+04  0.28884185854E+04  0.25995145070E+04 0.  0.
        1    1    3    3  502    0 -0.12085010995E+04 -0.42784284179E+03 -0.86748984780E+03  0.15479221688E+04  0.50400001928E-02 0. -1.
       -1    1    3    3    0  502  0.12085010995E+04  0.42784284179E+03 -0.39167108395E+03  0.13404964165E+04  0.50400001928E-02 0.  1.
</event>
<event>
 5   0  0.7160320E-07  0.2600636E+04  0.7818609E-02  0.8367985E-01
       -2   -1    0    0    0  501  0.00000000000E+00  0.00000000000E+00  0.92832045706E+03  0.92832045706E+03  0.25500000920E-02 0. -1.
        2   -1    0    0  501    0  0.00000000000E+00  0.00000000000E+00 -0.18213826681E+04  0.18213826681E+04  0.25500000920E-02 0.  1.
    10030    2    1    2    0    0  0.00000000000E+00  0.00000000000E+00 -0.89306221108E+03  0.27497031252E+04  0.26006359153E+04 0.  0.
        1    1    3    3  502    0 -0.15846073819E+03 -0.45069291627E+03 -0.17252290849E+04  0.17901534307E+04  0.50400001928E-02 0.  1.
       -1    1    3    3    0  502  0.15846073819E+03  0.45069291627E+03  0.83216687377E+03  0.95954969447E+03  0.50400001928E-02 0. -1.
</event>
<event>
 5   0  0.6526351E-07  0.2597505E+04  0.7818609E-02  0.8369049E-01
        2   -1    0    0  501    0  0.00000000000E+00  0.00000000000E+00  0.22956388973E+04  0.22956388973E+04  0.25500000920E-02 0. -1.
       -2   -1    0    0    0  501  0.00000000000E+00  0.00000000000E+00 -0.73476631050E+03  0.73476631051E+03  0.25500000920E-02 0.  1.
    10030    2    1    2    0    0  0.00000000000E+00  0.00000000000E+00  0.15608725868E+04  0.30304052078E+04  0.25975050513E+04 0.  0.
        3    1    3    3  502    0  0.90307216463E+03 -0.52229875435E+03 -0.12206610544E+03  0.10503501643E+04  0.10100000352E+00 0.  1.
       -3    1    3    3    0  502 -0.90307216463E+03  0.52229875435E+03  0.16829386923E+04  0.19800550435E+04  0.10100000352E+00 0. -1.
</event>
<event>
 5   0  0.2755061E-07  0.2598552E+04  0.7818609E-02  0.8368693E-01
       -1   -1    0    0    0  501  0.00000000000E+00  0.00000000000E+00  0.18645832766E+04  0.18645832766E+04  0.50400001928E-02 0.  1.
        1   -1    0    0  501    0  0.00000000000E+00  0.00000000000E+00 -0.90535957818E+03  0.90535957819E+03  0.50400001928E-02 0. -1.
    10030    2    1    2    0    0  0.00000000000E+00  0.00000000000E+00  0.95922369840E+03  0.27699428548E+04  0.25985521575E+04 0.  0.
        4    1    3    3  502    0 -0.90759420131E+03  0.92771078806E+03  0.41440376540E+03  0.13623900448E+04  0.12699999809E+01 0. -1.
       -4    1    3    3    0  502  0.90759420131E+03 -0.92771078806E+03  0.54481993301E+03  0.14075528100E+04  0.12699999809E+01 0.  1.
</event>
<event>
 5   0  0.2755061E-07  0.2614390E+04  0.7818609E-02  0.8363330E-01
        1   -1    0    0  501    0  0.00000000000E+00  0.00000000000E+00  0.11570657147E+04  0.11570657147E+04  0.50400001928E-02 0. -1.
       -1   -1    0    0    0  501  0.00000000000E+00  0.00000000000E+00 -0.14768033008E+04  0.14768033008E+04  0.50400001928E-02 0.  1.
    10030    2    1    2    0    0  0.00000000000E+00  0.00000000000E+00 -0.31973758609E+03  0.26338690154E+04  0.26143897694E+04 0.  0.
        4    1    3    3  502    0 -0.29863272236E+03 -0.12404250904E+03 -0.14358714503E+04  0.14718343934E+04  0.12699999809E+01 0.  1.
       -4    1    3    3    0  502  0.29863272236E+03  0.12404250904E+03  0.11161338643E+04  0.11620346220E+04  0.12699999809E+01 0. -1.
</event>
<event>
 5   0  0.2623263E-07  0.2599575E+04  0.7818609E-02  0.8368346E-01
        1   -1    0    0  501    0  0.00000000000E+00  0.00000000000E+00  0.92555848823E+03  0.92555848824E+03  0.50400001928E-02 0. -1.
       -1   -1    0    0    0  501  0.00000000000E+00  0.00000000000E+00 -0.18253272142E+04  0.18253272142E+04  0.50400001928E-02 0.  1.
    10030    2    1    2    0    0  0.00000000000E+00  0.00000000000E+00 -0.89976872593E+03  0.27508857024E+04  0.25995746551E+04 0.  0.
        1    1    3    3  502    0 -0.10237959840E+04 -0.74380310086E+03 -0.13588798335E+03  0.12727398846E+04  0.50400001928E-02 0.  1.
       -1    1    3    3    0  502  0.10237959840E+04  0.74380310086E+03 -0.76388074258E+03  0.14781458178E+04  0.50400001928E-02 0. -1.
</event>
<event>
 5   0  0.6599814E-07  0.2598410E+04  0.7818609E-02  0.8368741E-01
        2   -1    0    0  501    0  0.00000000000E+00  0.00000000000E+00  0.17763438990E+04  0.17763438990E+04  0.25500000920E-02 0. -1.
       -2   -1    0    0    0  501  0.00000000000E+00  0.00000000000E+00 -0.95022909855E+03  0.95022909856E+03  0.25500000920E-02 0.  1.
    10030    2    1    2    0    0  0.00000000000E+00  0.00000000000E+00  0.82611480049E+03  0.27265729976E+04  0.25984100230E+04 0.  0.
        5    1    3    3  502    0 -0.18080307119E+03  0.69427899453E+02  0.17611020064E+04  0.17717258114E+04  0.46999998093E+01 0. -1.
       -5    1    3    3    0  502  0.18080307119E+03 -0.69427899453E+02 -0.93498720592E+03  0.95484718621E+03  0.46999998093E+01 0.  1.
</event>
<event>
 5   0  0.2623263E-07  0.2600636E+04  0.7818609E-02  0.8367985E-01
        1   -1    0    0  501    0  0.00000000000E+00  0.00000000000E+00  0.14259021493E+04  0.14259021493E+04  0.50400001928E-02 0.  1.
       -1   -1    0    0    0  501  0.00000000000E+00  0.00000000000E+00 -0.11857946101E+04  0.11857946101E+04  0.50400001928E-02 0. -1.
    10030    2    1    2    0    0  0.00000000000E+00  0.00000000000E+00  0.24010753919E+03  0.26116967594E+04  0.26006361400E+04 0.  0.
        1    1    3    3  502    0 -0.73922164377E+03  0.10657264088E+04  0.21321504011E+03  0.13144132038E+04  0.50400001928E-02 0.  1.
       -1    1    3    3    0  502  0.73922164377E+03 -0.10657264088E+04  0.26892499073E+02  0.12972835556E+04  0.50400001928E-02 0. -1.
</event>
<event>
 5   0  0.6599814E-07  0.2601238E+04  0.7818609E-02  0.8367781E-01
        2   -1    0    0  501    0  0.00000000000E+00  0.00000000000E+00  0.17657481166E+04  0.17657481166E+04  0.25500000920E-02 0. -1.
       -2   -1    0    0    0  501  0.00000000000E+00  0.00000000000E+00 -0.95801317233E+03  0.95801317233E+03  0.25500000920E-02 0.  1.
    10030    2    1    2    0    0  0.00000000000E+00  0.00000000000E+00  0.80773494426E+03  0.27237612889E+04  0.26012381319E+04 0.  0.
        5    1    3    3  502    0 -0.92155394187E+03  0.39896949581E+03  0.12693271148E+04  0.16185338244E+04  0.46999998093E+01 0. -1.
       -5    1    3    3    0  502  0.92155394187E+03 -0.39896949581E+03 -0.46159217056E+03  0.11052274645E+04  0.46999998093E+01 0.  1.
</event>
<event>
 5   0  0.7160320E-07  0.2599262E+04  0.7818609E-02  0.8368452E-01
       -2   -1    0    0    0  501  0.00000000000E+00  0.00000000000E+00  0.72087934881E+03  0.72087934881E+03  0.25500000920E-02 0. -1.
        2   -1    0    0  501    0  0.00000000000E+00  0.00000000000E+00 -0.23430289876E+04  0.23430289876E+04  0.25500000920E-02 0.  1.
    10030    2    1    2    0    0  0.00000000000E+00  0.00000000000E+00 -0.16221496387E+04  0.30639083364E+04  0.25992623652E+04 0.  0.
        1    1    3    3  502    0  0.69755147066E+02 -0.11939715540E+04 -0.14105153290E+04  0.18493207795E+04  0.50400001928E-02 0.  1.
       -1    1    3    3    0  502 -0.69755147066E+02  0.11939715540E+04 -0.21163430976E+03  0.12145875569E+04  0.50400001928E-02 0. -1.
</event>
<event>
 5   0  0.6768478E-07  0.2600550E+04  0.7818609E-02  0.8368014E-01
        2   -1    0    0  501    0  0.00000000000E+00  0.00000000000E+00  0.14884678331E+04  0.14884678331E+04  0.25500000920E-02 0. -1.
       -2   -1    0    0    0  501  0.00000000000E+00  0.00000000000E+00 -0.11358760773E+04  0.11358760773E+04  0.25500000920E-02 0.  1.
    10030    2    1    2    0    0  0.00000000000E+00  0.00000000000E+00  0.35259175583E+03  0.26243439103E+04  0.26005499444E+04 0.  0.
        4    1    3    3  502    0  0.46828980277E+02  0.10676738080E+04  0.92374340496E+03  0.14125947065E+04  0.12699999809E+01 0.  1.
       -4    1    3    3    0  502 -0.46828980277E+02 -0.10676738080E+04 -0.57115164914E+03  0.12117492038E+04  0.12699999809E+01 0. -1.
</event>
<event>
 5   0  0.6599814E-07  0.2600127E+04  0.7818609E-02  0.8368158E-01
       -2   -1    0    0    0  501  0.00000000000E+00  0.00000000000E+00  0.97594663900E+03  0.97594663900E+03  0.25500000920E-02 0. -1.
        2   -1    0    0  501    0  0.00000000000E+00  0.00000000000E+00 -0.17318207472E+04  0.17318207472E+04  0.25500000920E-02 0.  1.
    10030    2    1    2    0    0  0.00000000000E+00  0.00000000000E+00 -0.75587410824E+03  0.27077673862E+04  0.26001266412E+04 0.  0.
        5    1    3    3  502    0 -0.85708945500E+03  0.39745001584E+03 -0.13079784170E+04  0.16135050289E+04  0.46999998093E+01 0.  1.
       -5    1    3    3    0  502  0.85708945500E+03 -0.39745001584E+03  0.55210430875E+03  0.10942623573E+04  0.46999998093E+01 0. -1.
</event>
<event>
 5   0  0.2755061E-07  0.2599716E+04  0.7818609E-02  0.8368298E-01
        1   -1    0    0  501    0  0.00000000000E+00  0.00000000000E+00  0.15578533639E+04  0.15578533639E+04  0.50400001928E-02 0. -1.
       -1   -1    0    0    0  501  0.00000000000E+00  0.00000000000E+00 -0.10845890864E+04  0.10845890864E+04  0.50400001928E-02 0.  1.
    10030    2    1    2    0    0  0.00000000000E+00  0.00000000000E+00  0.47326427749E+03  0.26424424503E+04  0.25997159512E+04 0.  0.
        4    1    3    3  502    0  0.62540170395E+03  0.82151438586E+03  0.10393043940E+04  0.14649806871E+04  0.12699999809E+01 0. -1.
       -4    1    3    3    0  502 -0.62540170395E+03 -0.82151438586E+03 -0.56604011646E+03  0.11774617632E+04  0.12699999809E+01 0.  1.
</event>
<event>
 5   0  0.7160320E-07  0.2598881E+04  0.7818609E-02  0.8368582E-01
       -2   -1    0    0    0  501  0.00000000000E+00  0.00000000000E+00  0.11479571092E+04  0.11479571092E+04  0.25500000920E-02 0.  1.
        2   -1    0    0  501    0  0.00000000000E+00  0.00000000000E+00 -0.14709129891E+04  0.14709129891E+04  0.25500000920E-02 0. -1.
    10030    2    1    2    0    0  0.00000000000E+00  0.00000000000E+00 -0.32295587985E+03  0.26188700983E+04  0.25988805459E+04 0.  0.
        1    1    3    3  502    0  0.11374203684E+04 -0.11290198726E+03  0.46139699197E+03  0.12326228691E+04  0.50400001928E-02 0.  1.
       -1    1    3    3    0  502 -0.11374203684E+04  0.11290198726E+03 -0.78435287182E+03  0.13862472293E+04  0.50400001928E-02 0. -1.
</event>
<event>
 5   0  0.2755061E-07  0.2598815E+04  0.7818609E-02  0.8368604E-01
        1   -1    0    0  501    0  0.00000000000E+00  0.00000000000E+00  0.22691323404E+04  0.22691323404E+04  0.50400001928E-02 0. -1.
       -1   -1    0    0    0  501  0.00000000000E+00  0.00000000000E+00 -0.74409943940E+03  0.74409943941E+03  0.50400001928E-02 0.  1.
    10030    2    1    2    0    0  0.00000000000E+00  0.00000000000E+00  0.15250329010E+04  0.30132317798E+04  0.25988151935E+04 0.  0.
        4    1    3    3  502    0  0.19264635866E+03  0.89468762827E+03  0.18320422837E+04  0.20479157975E+04  0.12699999809E+01 0. -1.
       -4    1    3    3    0  502 -0.19264635866E+03 -0.89468762827E+03 -0.30700938269E+03  0.96531598228E+03  0.12699999809E+01 0.  1.
</event>
<event>
 5   0  0.2793576E-07  0.2601675E+04  0.7818609E-02  0.8367632E-01
        1   -1    0    0  501    0  0.00000000000E+00  0.00000000000E+00  0.68524256682E+03  0.68524256684E+03  0.50400001928E-02 0. -1.
       -1   -1    0    0    0  501  0.00000000000E+00  0.00000000000E+00 -0.24694589610E+04  0.24694589610E+04  0.50400001928E-02 0.  1.
    10030    2    1    2    0    0  0.00000000000E+00  0.00000000000E+00 -0.17842163942E+04  0.31547015278E+04  0.26016751504E+04 0.  0.
        2    1    3    3  502    0 -0.73627250106E+03  0.10348632675E+04 -0.12332234087E+04  0.17702765756E+04  0.25500000920E-02 0. -1.
       -2    1    3    3    0  502  0.73627250106E+03 -0.10348632675E+04 -0.55099298545E+03  0.13844249522E+04  0.25500000920E-02 0.  1.
</event>
<event>
 5   0  0.2793576E-07  0.2600835E+04  0.7818609E-02  0.8367918E-01
        1   -1    0    0  501    0  0.00000000000E+00  0.00000000000E+00  0.20717471889E+04  0.20717471890E+04  0.50400001928E-02 0.  1.
       -1   -1    0    0    0  501  0.00000000000E+00  0.00000000000E+00 -0.81626062916E+03  0.81626062918E+03  0.50400001928E-02 0. -1.
    10030    2    1    2    0    0  0.00000000000E+00  0.00000000000E+00  0.12554865598E+04  0.28880078181E+04  0.26008349920E+04 0.  0.
        2    1    3    3  502    0  0.97518583445E+03  0.17092176499E+03  0.15639784154E+04  0.18510078729E+04  0.25500000920E-02 0.  1.
       -2    1    3    3    0  502 -0.97518583445E+03 -0.17092176499E+03 -0.30849185565E+03  0.10369999453E+04  0.25500000920E-02 0. -1.
</event>
<event>
 5   0  0.2623263E-07  0.2599294E+04  0.7818609E-02  0.8368441E-01
       -1   -1    0    0    0  501  0.00000000000E+00  0.00000000000E+00  0.14164306355E+04  0.14164306356E+04  0.50400001928E-02 0. -1.
        1   -1    0    0  501    0  0.00000000000E+00  0.00000000000E+00 -0.11924919768E+04  0.11924919768E+04  0.50400001928E-02 0.  1.
    10030    2    1    2    0    0  0.00000000000E+00  0.00000000000E+00  0.22393865874E+03  0.26089226124E+04  0.25992938800E+04 0.  0.
        1    1    3    3  502    0 -0.66399297485E+03  0.10052474498E+04  0.60129251447E+03  0.13464626968E+04  0.50400001928E-02 0. -1.
       -1    1    3    3    0  502  0.66399297485E+03 -0.10052474498E+04 -0.37735385573E+03  0.12624599156E+04  0.50400001928E-02 0.  1.
</event>
<event>
 5   0  0.2755061E-07  0.2599668E+04  0.7818609E-02  0.8368314E-01
        1   -1    0    0  501    0  0.00000000000E+00  0.00000000000E+00  0.12388170266E+04  0.12388170266E+04  0.50400001928E-02 0.  1.
       -1   -1    0    0    0  501  0.00000000000E+00  0.00000000000E+00 -0.13638557951E+04  0.13638557951E+04  0.50400001928E-02 0. -1.
    10030    2    1    2    0    0  0.00000000000E+00  0.00000000000E+00 -0.12503876842E+03  0.26026728217E+04  0.25996675024E+04 0.  0.
        4    1    3    3  502    0  0.35210007349E+03  0.34121348273E+03  0.11426849915E+04  0.12434354447E+04  0.12699999809E+01 0.  1.
       -4    1    3    3    0  502 -0.35210007349E+03 -0.34121348273E+03 -0.12677237599E+04  0.13592373770E+04  0.12699999809E+01 0. -1.
</event>
<event>
 5   0  0.6768478E-07  0.2600226E+04  0.7818609E-02  0.8368124E-01
       -2   -1    0    0    0  501  0.00000000000E+00  0.00000000000E+00  0.21307234181E+04  0.21307234181E+04  0.25500000920E-02 0.  1.
        2   -1    0    0  501    0  0.00000000000E+00  0.00000000000E+00 -0.79329571038E+03  0.79329571039E+03  0.25500000920E-02 0. -1.
    10030    2    1    2    0    0  0.00000000000E+00  0.00000000000E+00  0.13374277078E+04  0.29240191285E+04  0.26002259499E+04 0.  0.
        4    1    3    3  502    0 -0.94257400326E+03 -0.10311303899E+03  0.16689812795E+04  0.19195255077E+04  0.12699999809E+01 0.  1.
       -4    1    3    3    0  502  0.94257400326E+03  0.10311303899E+03 -0.33155357177E+03  0.10044936208E+04  0.12699999809E+01 0. -1.
</event>
<event>
 5   0  0.6768478E-07  0.2599393E+04  0.7818609E-02  0.8368408E-01
       -2   -1    0    0    0  501  0.00000000000E+00  0.00000000000E+00  0.16877883000E+04  0.16877883000E+04  0.25500000920E-02 0. -1.
        2   -1    0    0  501    0  0.00000000000E+00  0.00000000000E+00 -0.10008427238E+04  0.10008427238E+04  0.25500000920E-02 0.  1.
    10030    2    1    2    0    0  0.00000000000E+00  0.00000000000E+00  0.68694557616E+03  0.26886310238E+04  0.25993927286E+04 0.  0.
        4    1    3    3  502    0  0.33743766590E+03 -0.55931783169E+03  0.15056609462E+04  0.16412547374E+04  0.12699999809E+01 0. -1.
       -4    1    3    3    0  502 -0.33743766590E+03  0.55931783169E+03 -0.81871537007E+03  0.10473762864E+04  0.12699999809E+01 0.  1.
</event>
<event>
 5   0  0.2864801E-07  0.2600619E+04  0.7818609E-02  0.8367991E-01
        1   -1    0    0  501    0  0.00000000000E+00  0.00000000000E+00  0.13120363865E+04  0.13120363865E+04  0.50400001928E-02 0. -1.
       -1   -1    0    0    0  501  0.00000000000E+00  0.00000000000E+00 -0.12886877616E+04  0.12886877616E+04  0.50400001928E-02 0.  1.
    10030    2    1    2    0    0  0.00000000000E+00  0.00000000000E+00  0.23348624876E+02  0.26007241481E+04  0.26006193370E+04 0.  0.
        5    1    3    3  502    0  0.80172187657E+02  0.43638500780E+03 -0.12106366582E+04  0.12893884841E+04  0.46999998093E+01 0.  1.
       -5    1    3    3    0  502 -0.80172187657E+02 -0.43638500780E+03  0.12339852831E+04  0.13113356640E+04  0.46999998093E+01 0. -1.
</event>
<event>
 5   0  0.6780984E-07  0.2600109E+04  0.7818609E-02  0.8368164E-01
        2   -1    0    0  501    0  0.00000000000E+00  0.00000000000E+00  0.14608965100E+04  0.14608965100E+04  0.25500000920E-02 0. -1.
       -2   -1    0    0    0  501  0.00000000000E+00  0.00000000000E+00 -0.11569211971E+04  0.11569211971E+04  0.25500000920E-02 0.  1.
    10030    2    1    2    0    0  0.00000000000E+00  0.00000000000E+00  0.30397531294E+03  0.26178177071E+04  0.26001093356E+04 0.  0.
        2    1    3    3  502    0  0.92731914057E+03  0.40040806766E+03  0.97603292678E+03  0.14045952026E+04  0.25500000920E-02 0. -1.
       -2    1    3    3    0  502 -0.92731914057E+03 -0.40040806766E+03 -0.67205761384E+03  0.12132225045E+04  0.25500000920E-02 0.  1.
</event>
<event>
 5   0  0.2864801E-07  0.2600959E+04  0.7818609E-02  0.8367876E-01
        1   -1    0    0  501    0  0.00000000000E+00  0.00000000000E+00  0.16051167036E+04  0.16051167036E+04  0.50400001928E-02 0. -1.
       -1   -1    0    0    0  501  0.00000000000E+00  0.00000000000E+00 -0.10536597428E+04  0.10536597428E+04  0.50400001928E-02 0.  1.
    10030    2    1    2    0    0  0.00000000000E+00  0.00000000000E+00  0.55145696085E+03  0.26587764464E+04  0.26009589409E+04 0.  0.
        5    1    3    3  502    0  0.81707394790E+03  0.14818926898E+03 -0.74734630027E+03  0.11171922298E+04  0.46999998093E+01 0.  1.
       -5    1    3    3    0  502 -0.81707394790E+03 -0.14818926898E+03  0.12988032611E+04  0.15415842166E+04  0.46999998093E+01 0. -1.
</event>
<event>
 5   0  0.7160320E-07  0.2596489E+04  0.7818609E-02  0.8369395E-01
       -2   -1    0    0    0  501  0.00000000000E+00  0.00000000000E+00  0.15705263154E+04  0.15705263154E+04  0.25500000920E-02 0. -1.
        2   -1    0    0  501    0  0.00000000000E+00  0.00000000000E+00 -0.10731678602E+04  0.10731678602E+04  0.25500000920E-02 0.  1.
    10030    2    1    2    0    0  0.00000000000E+00  0.00000000000E+00  0.49735845518E+03  0.26436941756E+04  0.25964886792E+04 0.  0.
        1    1    3    3  502    0 -0.91811269854E+03  0.42470555129E+03 -0.57982986113E+03  0.11659795883E+04  0.50400001928E-02 0.  1.
       -1    1    3    3    0  502  0.91811269854E+03 -0.42470555129E+03  0.10771883163E+04  0.14777145872E+04  0.50400001928E-02 0. -1.
</event>
<event>
 5   0  0.6768478E-07  0.2599730E+04  0.7818609E-02  0.8368293E-01
       -2   -1    0    0    0  501  0.00000000000E+00  0.00000000000E+00  0.10982435088E+04  0.10982435088E+04  0.25500000920E-02 0.  1.
        2   -1    0    0  501    0  0.00000000000E+00  0.00000000000E+00 -0.15385014507E+04  0.15385014507E+04  0.25500000920E-02 0. -1.
    10030    2    1    2    0    0  0.00000000000E+00  0.00000000000E+00 -0.44025794183E+03  0.26367449595E+04  0.25997301641E+04 0.  0.
        4    1    3    3  502    0  0.43038300720E+03  0.54507044811E+03 -0.13345527798E+04  0.15044480919E+04  0.12699999809E+01 0.  1.
       -4    1    3    3    0  502 -0.43038300720E+03 -0.54507044811E+03  0.89429483795E+03  0.11322968676E+04  0.12699999809E+01 0. -1.
</event>
<event>
 5   0  0.2641626E-07  0.2594474E+04  0.7818609E-02  0.8370081E-01
        1   -1    0    0  501    0  0.00000000000E+00  0.00000000000E+00  0.16700395065E+04  0.16700395065E+04  0.50400001928E-02 0. -1.
       -1   -1    0    0    0  501  0.00000000000E+00  0.00000000000E+00 -0.10076549138E+04  0.10076549138E+04  0.50400001928E-02 0.  1.
    10030    2    1    2    0    0  0.00000000000E+00  0.00000000000E+00  0.66238459271E+03  0.26776944203E+04  0.25944737539E+04 0.  0.
        3    1    3    3  502    0 -0.11293109412E+04 -0.11132889802E+03 -0.31752824648E+03  0.11783724042E+04  0.10100000352E+00 0.  1.
       -3    1    3    3    0  502  0.11293109412E+04  0.11132889802E+03  0.97991283919E+03  0.14993220161E+04  0.10100000352E+00 0. -1.
</event>
<event>
 5   0  0.6768478E-07  0.2600288E+04  0.7818609E-02  0.8368103E-01
        2   -1    0    0  501    0  0.00000000000E+00  0.00000000000E+00  0.10890779772E+04  0.10890779772E+04  0.25500000920E-02 0.  1.
       -2   -1    0    0    0  501  0.00000000000E+00  0.00000000000E+00 -0.15521155001E+04  0.15521155001E+04  0.25500000920E-02 0. -1.
    10030    2    1    2    0    0  0.00000000000E+00  0.00000000000E+00 -0.46303752290E+03  0.26411934774E+04  0.26002882989E+04 0.  0.
        4    1    3    3  502    0  0.50467202864E+03  0.29725626509E+03  0.94748116734E+03  0.11139018444E+04  0.12699999809E+01 0.  1.
       -4    1    3    3    0  502 -0.50467202864E+03 -0.29725626509E+03 -0.14105186902E+04  0.15272916329E+04  0.12699999809E+01 0. -1.
</event>
<event>
 5   0  0.6599814E-07  0.2598619E+04  0.7818609E-02  0.8368670E-01
        2   -1    0    0  501    0  0.00000000000E+00  0.00000000000E+00  0.14339541096E+04  0.14339541096E+04  0.25500000920E-02 0. -1.
       -2   -1    0    0    0  501  0.00000000000E+00  0.00000000000E+00 -0.11773076518E+04  0.11773076518E+04  0.25500000920E-02 0.  1.
    10030    2    1    2    0    0  0.00000000000E+00  0.00000000000E+00  0.25664645773E+03  0.26112617614E+04  0.25986189760E+04 0.  0.
        5    1    3    3  502    0  0.90779019688E+02 -0.10755774115E+04 -0.59843502899E+03  0.12342018362E+04  0.46999998093E+01 0. -1.
       -5    1    3    3    0  502 -0.90779019688E+02  0.10755774115E+04  0.85508148672E+03  0.13770599252E+04  0.46999998093E+01 0.  1.
</event>
<event>
 5   0  0.7160320E-07  0.2599388E+04  0.7818609E-02  0.8368409E-01
       -2   -1    0    0    0  501  0.00000000000E+00  0.00000000000E+00  0.20989715248E+04  0.20989715248E+04  0.25500000920E-02 0.  1.
        2   -1    0    0  501    0  0.00000000000E+00  0.00000000000E+00 -0.80477750394E+03  0.80477750395E+03  0.25500000920E-02 0. -1.
    10030    2    1    2    0    0  0.00000000000E+00  0.00000000000E+00  0.12941940209E+04  0.29037490288E+04  0.25993884393E+04 0.  0.
        1    1    3    3  502    0  0.83071943424E+03  0.68776402748E+03  0.14573456325E+04  0.18130003940E+04  0.50400001928E-02 0.  1.
       -1    1    3    3    0  502 -0.83071943424E+03 -0.68776402748E+03 -0.16315161162E+03  0.10907486348E+04  0.50400001928E-02 0. -1.
</event>
<event>
 5   0  0.2755061E-07  0.2600106E+04  0.7818609E-02  0.8368165E-01
        1   -1    0    0  501    0  0.00000000000E+00  0.00000000000E+00  0.12981490446E+04  0.12981490446E+04  0.50400001928E-02 0. -1.
       -1   -1    0    0    0  501  0.00000000000E+00  0.00000000000E+00 -0.13019600947E+04  0.13019600947E+04  0.50400001928E-02 0.  1.
    10030    2    1    2    0    0  0.00000000000E+00  0.00000000000E+00 -0.38110500460E+01  0.26001091393E+04  0.26001063464E+04 0.  0.
        4    1    3    3  502    0  0.50956094905E+03  0.59862806267E+03 -0.10373431259E+04  0.13015722385E+04  0.12699999809E+01 0.  1.
       -4    1    3    3    0  502 -0.50956094905E+03 -0.59862806267E+03  0.10335320758E+04  0.12985369009E+04  0.12699999809E+01 0. -1.
</event>
<event>
 5   0  0.7160320E-07  0.2598457E+04  0.7818609E-02  0.8368726E-01
        2   -1    0    0  501    0  0.00000000000E+00  0.00000000000E+00  0.11788854813E+04  0.11788854813E+04  0.25500000920E-02 0.  1.
       -2   -1    0    0    0  501  0.00000000000E+00  0.00000000000E+00 -0.14318559131E+04  0.14318559131E+04  0.25500000920E-02 0. -1.
    10030    2    1    2    0    0  0.00000000000E+00  0.00000000000E+00 -0.25297043182E+03  0.26107413943E+04  0.25984565782E+04 0.  0.
        1    1    3    3  502    0  0.33611475886E+03 -0.42342599481E+03  0.10605109671E+04  0.11903554997E+04  0.50400001928E-02 0.  1.
       -1    1    3    3    0  502 -0.33611475886E+03  0.42342599481E+03 -0.13134813990E+04  0.14203858946E+04  0.50400001928E-02 0. -1.
</event>
<event>
 5   0  0.2793576E-07  0.2598781E+04  0.7818609E-02  0.8368615E-01
       -1   -1    0    0    0  501  0.00000000000E+00  0.00000000000E+00  0.18356182457E+04  0.18356182457E+04  0.50400001928E-02 0.  1.
        1   -1    0    0  501    0  0.00000000000E+00  0.00000000000E+00 -0.91980749392E+03  0.91980749393E+03  0.50400001928E-02 0. -1.
    10030    2    1    2    0    0  0.00000000000E+00  0.00000000000E+00  0.91581075181E+03  0.27554257397E+04  0.25987808052E+04 0.  0.
        2    1    3    3  502    0 -0.63669385384E+03  0.73521491657E+03 -0.45571534099E+03  0.10740561015E+04  0.25500000920E-02 0. -1.
       -2    1    3    3    0  502  0.63669385384E+03 -0.73521491657E+03  0.13715260928E+04  0.16813696382E+04  0.25500000920E-02 0.  1.
</event>
<event>
 5   0  0.6526351E-07  0.2600783E+04  0.7818609E-02  0.8367935E-01
       -2   -1    0    0    0  501  0.00000000000E+00  0.00000000000E+00  0.13185635051E+04  0.13185635051E+04  0.25500000920E-02 0. -1.
        2   -1    0    0  501    0  0.00000000000E+00  0.00000000000E+00 -0.12824703280E+04  0.12824703280E+04  0.25500000920E-02 0.  1.
    10030    2    1    2    0    0  0.00000000000E+00  0.00000000000E+00  0.36093177156E+02  0.26010338331E+04  0.26007833980E+04 0.  0.
        3    1    3    3  502    0 -0.77726677617E+03 -0.45017238423E+03 -0.92237355098E+03  0.12874672014E+04  0.10100000352E+00 0.  1.
       -3    1    3    3    0  502  0.77726677617E+03  0.45017238423E+03  0.95846672813E+03  0.13135666317E+04  0.10100000352E+00 0. -1.
</event>
<event>
 5   0  0.2755061E-07  0.2600203E+04  0.7818609E-02  0.8368132E-01
       -1   -1    0    0    0  501  0.00000000000E+00  0.00000000000E+00  0.14817052328E+04  0.14817052328E+04  0.50400001928E-02 0.  1.
        1   -1    0    0  501    0  0.00000000000E+00  0.00000000000E+00 -0.11407554953E+04  0.11407554953E+04  0.50400001928E-02 0. -1.
    10030    2    1    2    0    0  0.00000000000E+00  0.00000000000E+00  0.34094973751E+03  0.26224607281E+04  0.26002025973E+04 0.  0.
        4    1    3    3  502    0  0.86201940708E+03 -0.92477705383E+03 -0.13538954492E+03  0.12714645096E+04  0.12699999809E+01 0. -1.
       -4    1    3    3    0  502 -0.86201940708E+03  0.92477705383E+03  0.47633928244E+03  0.13509962185E+04  0.12699999809E+01 0.  1.
</event>
<event>
 5   0  0.2623263E-07  0.2599272E+04  0.7818609E-02  0.8368449E-01
       -1   -1    0    0    0  501  0.00000000000E+00  0.00000000000E+00  0.70979704800E+03  0.70979704802E+03  0.50400001928E-02 0.  1.
        1   -1    0    0  501    0  0.00000000000E+00  0.00000000000E+00 -0.23796282440E+04  0.23796282440E+04  0.50400001928E-02 0. -1.
    10030    2    1    2    0    0  0.00000000000E+00  0.00000000000E+00 -0.16698311960E+04  0.30894252920E+04  0.25992715156E+04 0.  0.
        1    1    3    3  502    0  0.19740076245E+03 -0.70407588493E+03  0.44210318448E+03  0.85448530620E+03  0.50400001928E-02 0.  1.
       -1    1    3    3    0  502 -0.19740076245E+03  0.70407588493E+03 -0.21119343805E+04  0.22349399858E+04  0.50400001928E-02 0. -1.
</event>
<event>
 5   0  0.7160320E-07  0.2600870E+04  0.7818609E-02  0.8367906E-01
       -2   -1    0    0    0  501  0.00000000000E+00  0.00000000000E+00  0.57050102482E+03  0.57050102483E+03  0.25500000920E-02 0. -1.
        2   -1    0    0  501    0  0.00000000000E+00  0.00000000000E+00 -0.29642919276E+04  0.29642919276E+04  0.25500000920E-02 0.  1.
    10030    2    1    2    0    0  0.00000000000E+00  0.00000000000E+00 -0.23937909028E+04  0.35347929524E+04  0.26008703025E+04 0.  0.
        1    1    3    3  502    0 -0.82817575803E+03  0.38438846483E+03  0.61632474244E+02  0.91511099873E+03  0.50400001928E-02 0. -1.
       -1    1    3    3    0  502  0.82817575803E+03 -0.38438846483E+03 -0.24554233770E+04  0.26196819537E+04  0.50400001928E-02 0.  1.
</event>
<event>
 5   0  0.6768478E-07  0.2602168E+04  0.7818609E-02  0.8367465E-01
       -2   -1    0    0    0  501  0.00000000000E+00  0.00000000000E+00  0.71627185392E+03  0.71627185393E+03  0.25500000920E-02 0. -1.
        2   -1    0    0  501    0  0.00000000000E+00  0.00000000000E+00 -0.23633762813E+04  0.23633762813E+04  0.25500000920E-02 0.  1.
    10030    2    1    2    0    0  0.00000000000E+00  0.00000000000E+00 -0.16471044274E+04  0.30796481352E+04  0.26021682578E+04 0.  0.
        4    1    3    3  502    0  0.88393102496E+03 -0.29948947036E+03 -0.18964200582E+04  0.21136316258E+04  0.12699999809E+01 0.  1.
       -4    1    3    3    0  502 -0.88393102496E+03  0.29948947036E+03  0.24931563082E+03  0.96601650939E+03  0.12699999809E+01 0. -1.
</event>
<event>
 5   0  0.2864801E-07  0.2600738E+04  0.7818609E-02  0.8367951E-01
        1   -1    0    0  501    0  0.00000000000E+00  0.00000000000E+00  0.22202559143E+04  0.22202559143E+04  0.50400001928E-02 0.  1.
       -1   -1    0    0    0  501  0.00000000000E+00  0.00000000000E+00 -0.76160566125E+03  0.76160566127E+03  0.50400001928E-02 0. -1.
    10030    2    1    2    0    0  0.00000000000E+00  0.00000000000E+00  0.14586502530E+04  0.29818615756E+04  0.26007379520E+04 0.  0.
        5    1    3    3  502    0 -0.22611447582E+03 -0.12059957561E+04  0.23566636628E+03  0.12494455755E+04  0.46999998093E+01 0. -1.
       -5    1    3    3    0  502  0.22611447582E+03  0.12059957561E+04  0.12229838868E+04  0.17324160001E+04  0.46999998093E+01 0.  1.
</event>
<event>
 5   0  0.7160320E-07  0.2601310E+04  0.7818609E-02  0.8367756E-01
        2   -1    0    0  501    0  0.00000000000E+00  0.00000000000E+00  0.11965989820E+04  0.11965989820E+04  0.25500000920E-02 0. -1.
       -2   -1    0    0    0  501  0.00000000000E+00  0.00000000000E+00 -0.14137599173E+04  0.14137599173E+04  0.25500000920E-02 0.  1.
    10030    2    1    2    0    0  0.00000000000E+00  0.00000000000E+00 -0.21716093526E+03  0.26103588993E+04  0.26013101913E+04 0.  0.
        1    1    3    3  502    0 -0.46070684514E+03 -0.11654409702E+04 -0.45792970103E+03  0.13342425054E+04  0.50400001928E-02 0. -1.
       -1    1    3    3    0  502  0.46070684514E+03  0.11654409702E+04  0.24076876576E+03  0.12761163939E+04  0.50400001928E-02 0.  1.
</event>
<event>
 5   0  0.6526351E-07  0.2600125E+04  0.7818609E-02  0.8368159E-01
       -2   -1    0    0    0  501  0.00000000000E+00  0.00000000000E+00  0.30148668916E+04  0.30148668916E+04  0.25500000920E-02 0.  1.
        2   -1    0    0  501    0  0.00000000000E+00  0.00000000000E+00 -0.56060927493E+03  0.56060927494E+03  0.25500000920E-02 0. -1.
    10030    2    1    2    0    0  0.00000000000E+00  0.00000000000E+00  0.24542576167E+04  0.35754761666E+04  0.26001248756E+04 0.  0.
        3    1    3    3  502    0  0.80476884598E+03 -0.74120575878E+03  0.26148377033E+03  0.11249056159E+04  0.10100000352E+00 0. -1.
       -3    1    3    3    0  502 -0.80476884598E+03  0.74120575878E+03  0.21927738464E+04  0.24505705507E+04  0.10100000352E+00 0.  1.
</event>
<event>
 5   0  0.2623263E-07  0.2601477E+04  0.7818609E-02  0.8367700E-01
       -1   -1    0    0    0  501  0.00000000000E+00  0.00000000000E+00  0.73031945480E+03  0.73031945482E+03  0.50400001928E-02 0.  1.
        1   -1    0    0  501    0  0.00000000000E+00  0.00000000000E+00 -0.23166853550E+04  0.23166853550E+04  0.50400001928E-02 0. -1.
    10030    2    1    2    0    0  0.00000000000E+00  0.00000000000E+00 -0.15863659002E+04  0.30470048098E+04  0.26014768001E+04 0.  0.
        1    1    3    3  502    0 -0.53994150499E+03 -0.10640977365E+04 -0.13996190368E+04  0.18392319782E+04  0.50400001928E-02 0. -1.
       -1    1    3    3    0  502  0.53994150499E+03  0.10640977365E+04 -0.18674686338E+03  0.12077728316E+04  0.50400001928E-02 0.  1.
</event>
<event>
 5   0  0.2623263E-07  0.2600547E+04  0.7818609E-02  0.8368016E-01
        1   -1    0    0  501    0  0.00000000000E+00  0.00000000000E+00  0.13804027900E+04  0.13804027900E+04  0.50400001928E-02 0.  1.
       -1   -1    0    0    0  501  0.00000000000E+00  0.00000000000E+00 -0.12247952192E+04  0.12247952192E+04  0.50400001928E-02 0. -1.
    10030    2    1    2    0    0  0.00000000000E+00  0.00000000000E+00  0.15560757082E+03  0.26051980092E+04  0.26005466638E+04 0.  0.
        1    1    3    3  502    0 -0.82382462422E+03 -0.17453179767E+03 -0.91470655134E+03  0.12433167074E+04  0.50400001928E-02 0. -1.
       -1    1    3    3    0  502  0.82382462422E+03  0.17453179767E+03  0.10703141222E+04  0.13618813017E+04  0.50400001928E-02 0.  1.
</event>
<event>
 5   0  0.2641626E-07  0.2600417E+04  0.7818609E-02  0.8368060E-01
        1   -1    0    0  501    0  0.00000000000E+00  0.00000000000E+00  0.16373215553E+04  0.16373215553E+04  0.50400001928E-02 0. -1.
       -1   -1    0    0    0  501  0.00000000000E+00  0.00000000000E+00 -0.10325042826E+04  0.10325042826E+04  0.50400001928E-02 0.  1.
    10030    2    1    2    0    0  0.00000000000E+00  0.00000000000E+00  0.60481727268E+03  0.26698258379E+04  0.26004165188E+04 0.  0.
        3    1    3    3  502    0 -0.11339390261E+04  0.52584628861E+03 -0.65212162024E+02  0.12516328017E+04  0.10100000352E+00 0.  1.
       -3    1    3    3    0  502  0.11339390261E+04 -0.52584628861E+03  0.67002943471E+03  0.14181930361E+04  0.10100000352E+00 0. -1.
</event>
<event>
 5   0  0.2864801E-07  0.2599977E+04  0.7818609E-02  0.8368209E-01
       -1   -1    0    0    0  501  0.00000000000E+00  0.00000000000E+00  0.13890233063E+04  0.13890233063E+04  0.50400001928E-02 0. -1.
        1   -1    0    0  501    0  0.00000000000E+00  0.00000000000E+00 -0.12166611567E+04  0.12166611567E+04  0.50400001928E-02 0.  1.
    10030    2    1    2    0    0  0.00000000000E+00  0.00000000000E+00  0.17236214964E+03  0.26056844630E+04  0.25999774634E+04 0.  0.
        5    1    3    3  502    0 -0.69649504663E+03 -0.75626429482E+03 -0.71112007060E+03  0.12501019472E+04  0.46999998093E+01 0.  1.
       -5    1    3    3    0  502  0.69649504663E+03  0.75626429482E+03  0.88348222024E+03  0.13555825158E+04  0.46999998093E+01 0. -1.
</event>
<event>
 5   0  0.2641626E-07  0.2600531E+04  0.7818609E-02  0.8368021E-01
        1   -1    0    0  501    0  0.00000000000E+00  0.00000000000E+00  0.69617917703E+03  0.69617917705E+03  0.50400001928E-02 0. -1.
       -1   -1    0    0    0  501  0.00000000000E+00  0.00000000000E+00 -0.24285269923E+04  0.24285269923E+04  0.50400001928E-02 0.  1.
    10030    2    1    2    0    0  0.00000000000E+00  0.00000000000E+00 -0.17323478153E+04  0.31247061694E+04  0.26005306558E+04 0.  0.
        3    1    3    3  502    0 -0.56649361090E+03 -0.11020154058E+04 -0.13397443515E+04  0.18249021627E+04  0.10100000352E+00 0.  1.
       -3    1    3    3    0  502  0.56649361090E+03  0.11020154058E+04 -0.39260346382E+03  0.12998040067E+04  0.10100000352E+00 0. -1.
</event>
<event>
 5   0  0.6768478E-07  0.2600568E+04  0.7818609E-02  0.8368008E-01
        2   -1    0    0  501    0  0.00000000000E+00  0.00000000000E+00  0.12538902128E+04  0.12538902128E+04  0.25500000920E-02 0. -1.
       -2   -1    0    0    0  501  0.00000000000E+00  0.00000000000E+00 -0.13483939147E+04  0.13483939147E+04  0.25500000920E-02 0.  1.
    10030    2    1    2    0    0  0.00000000000E+00  0.00000000000E+00 -0.94503701930E+02  0.26022841275E+04  0.26005675786E+04 0.  0.
        4    1    3    3  502    0  0.73630006962E+03  0.91190070349E+03  0.51617898055E+03  0.12806806934E+04  0.12699999809E+01 0. -1.
       -4    1    3    3    0  502 -0.73630006962E+03 -0.91190070349E+03 -0.61068268248E+03  0.13216034341E+04  0.12699999809E+01 0.  1.
</event>
<event>
 5   0  0.7160320E-07  0.2600649E+04  0.7818609E-02  0.8367981E-01
       -2   -1    0    0    0  501  0.00000000000E+00  0.00000000000E+00  0.13476793971E+04  0.13476793971E+04  0.25500000920E-02 0. -1.
        2   -1    0    0  501    0  0.00000000000E+00  0.00000000000E+00 -0.12546331983E+04  0.12546331983E+04  0.25500000920E-02 0.  1.
    10030    2    1    2    0    0  0.00000000000E+00  0.00000000000E+00  0.93046198824E+02  0.26023125954E+04  0.26006486209E+04 0.  0.
        1    1    3    3  502    0 -0.60423078665E+03  0.35803751065E+03  0.11415530387E+04  0.13403093086E+04  0.50400001928E-02 0. -1.
       -1    1    3    3    0  502  0.60423078665E+03 -0.35803751065E+03 -0.10485068399E+04  0.12620032868E+04  0.50400001928E-02 0.  1.
</event>
<event>
 5   0  0.2793576E-07  0.2596984E+04  0.7818609E-02  0.8369226E-01
       -1   -1    0    0    0  501  0.00000000000E+00  0.00000000000E+00  0.76106487292E+03  0.76106487294E+03  0.50400001928E-02 0. -1.
        1   -1    0    0  501    0  0.00000000000E+00  0.00000000000E+00 -0.22154245941E+04  0.22154245941E+04  0.50400001928E-02 0.  1.
    10030    2    1    2    0    0  0.00000000000E+00  0.00000000000E+00 -0.14543597212E+04  0.29764894670E+04  0.25969842797E+04 0.  0.
        2    1    3    3  502    0 -0.22072246149E+01 -0.71778800548E+03  0.51300670237E+03  0.88227000931E+03  0.25500000920E-02 0. -1.
       -2    1    3    3    0  502  0.22072246149E+01  0.71778800548E+03 -0.19673664235E+04  0.20942194577E+04  0.25500000920E-02 0.  1.
</event>
<event>
 5   0  0.6599814E-07  0.2599617E+04  0.7818609E-02  0.8368331E-01
        2   -1    0    0  501    0  0.00000000000E+00  0.00000000000E+00  0.31109179972E+04  0.31109179972E+04  0.25500000920E-02 0. -1.
       -2   -1    0    0    0  501  0.00000000000E+00  0.00000000000E+00 -0.54308780757E+03  0.54308780757E+03  0.25500000920E-02 0.  1.
    10030    2    1    2    0    0  0.00000000000E+00  0.00000000000E+00  0.25678301897E+04  0.36540058048E+04  0.25996166138E+04 0.  0.
        5    1    3    3  502    0 -0.16496381758E+03  0.12743767367E+04  0.15587452882E+04  0.20201381368E+04  0.46999998093E+01 0. -1.
       -5    1    3    3    0  502  0.16496381758E+03 -0.12743767367E+04  0.10090849015E+04  0.16338676680E+04  0.46999998093E+01 0.  1.
</event>
<event>
 5   0  0.2793576E-07  0.2599869E+04  0.7818609E-02  0.8368246E-01
        1   -1    0    0  501    0  0.00000000000E+00  0.00000000000E+00  0.18490897512E+04  0.18490897512E+04  0.50400001928E-02 0. -1.
       -1   -1    0    0    0  501  0.00000000000E+00  0.00000000000E+00 -0.91387131597E+03  0.91387131598E+03  0.50400001928E-02 0.  1.
    10030    2    1    2    0    0  0.00000000000E+00  0.00000000000E+00  0.93521843524E+03  0.27629610672E+04  0.25998692923E+04 0.  0.
        2    1    3    3  502    0 -0.55136831133E+03 -0.95160513378E+03  0.12040983022E+04  0.16307703906E+04  0.25500000920E-02 0. -1.
       -2    1    3    3    0  502  0.55136831133E+03  0.95160513378E+03 -0.26887986696E+03  0.11321906766E+04  0.25500000920E-02 0.  1.
</event>
<event>
 5   0  0.6780984E-07  0.2602531E+04  0.7818609E-02  0.8367342E-01
        2   -1    0    0  501    0  0.00000000000E+00  0.00000000000E+00  0.91654956275E+03  0.91654956275E+03  0.25500000920E-02 0.  1.
       -2   -1    0    0    0  501  0.00000000000E+00  0.00000000000E+00 -0.18474634804E+04  0.18474634804E+04  0.25500000920E-02 0. -1.
    10030    2    1    2    0    0  0.00000000000E+00  0.00000000000E+00 -0.93091391769E+03  0.27640130432E+04  0.26025309567E+04 0.  0.
        2    1    3    3  502    0  0.60860787043E+03  0.63105923056E+03  0.55579633560E+03  0.10380505089E+04  0.25500000920E-02 0.  1.
       -2    1    3    3    0  502 -0.60860787043E+03 -0.63105923056E+03 -0.14867102533E+04  0.17259625343E+04  0.25500000920E-02 0. -1.
</event>
<event>
 5   0  0.6526351E-07  0.2602981E+04  0.7818609E-02  0.8367189E-01
        2   -1    0    0  501    0  0.00000000000E+00  0.00000000000E+00  0.33630017922E+04  0.33630017922E+04  0.25500000920E-02 0.  1.
       -2   -1    0    0    0  501  0.00000000000E+00  0.00000000000E+00 -0.50368017270E+03  0.50368017271E+03  0.25500000920E-02 0. -1.
    10030    2    1    2    0    0  0.00000000000E+00  0.00000000000E+00  0.28593216195E+04  0.38666819649E+04  0.26029808478E+04 0.  0.
        3    1    3    3  502    0 -0.15877239015E+03 -0.10760764971E+04  0.36805736258E+03  0.11483098588E+04  0.10100000352E+00 0. -1.
       -3    1    3    3    0  502  0.15877239015E+03  0.10760764971E+04  0.24912642569E+04  0.27183721061E+04  0.10100000352E+00 0.  1.
</event>
<event>
 5   0  0.7160320E-07  0.2595798E+04  0.7818609E-02  0.8369630E-01
       -2   -1    0    0    0  501  0.00000000000E+00  0.00000000000E+00  0.68610751223E+03  0.68610751224E+03  0.25500000920E-02 0. -1.
        2   -1    0    0  501    0  0.00000000000E+00  0.00000000000E+00 -0.24552150965E+04  0.24552150965E+04  0.25500000920E-02 0.  1.
    10030    2    1    2    0    0  0.00000000000E+00  0.00000000000E+00 -0.17691075842E+04  0.31413226087E+04  0.25957977747E+04 0.  0.
        1    1    3    3  502    0 -0.76875042723E+03  0.68899106385E+03  0.67444901834E+02  0.10345214934E+04  0.50400001928E-02 0. -1.
       -1    1    3    3    0  502  0.76875042723E+03 -0.68899106385E+03 -0.18365524861E+04  0.21068011153E+04  0.50400001928E-02 0.  1.
</event>
<event>
 5   0  0.6768478E-07  0.2599746E+04  0.7818609E-02  0.8368287E-01
       -2   -1    0    0    0  501  0.00000000000E+00  0.00000000000E+00  0.96152763037E+03  0.96152763037E+03  0.25500000920E-02 0. -1.
        2   -1    0    0  501    0  0.00000000000E+00  0.00000000000E+00 -0.17572767076E+04  0.17572767076E+04  0.25500000920E-02 0.  1.
    10030    2    1    2    0    0  0.00000000000E+00  0.00000000000E+00 -0.79574907722E+03  0.27188043380E+04  0.25997462250E+04 0.  0.
        4    1    3    3  502    0  0.72036715540E+03  0.36272765516E+03 -0.14639549022E+04  0.16714262649E+04  0.12699999809E+01 0.  1.
       -4    1    3    3    0  502 -0.72036715540E+03 -0.36272765516E+03  0.66820582502E+03  0.10473780730E+04  0.12699999809E+01 0. -1.
</event>
<event>
 5   0  0.2864801E-07  0.2600514E+04  0.7818609E-02  0.8368027E-01
        1   -1    0    0  501    0  0.00000000000E+00  0.00000000000E+00  0.27537953261E+04  0.27537953261E+04  0.50400001928E-02 0.  1.
       -1   -1    0    0    0  501  0.00000000000E+00  0.00000000000E+00 -0.61394123904E+03  0.61394123906E+03  0.50400001928E-02 0. -1.
    10030    2    1    2    0    0  0.00000000000E+00  0.00000000000E+00  0.21398540871E+04  0.33677365652E+04  0.26005141912E+04 0.  0.
        5    1    3    3  502    0 -0.98437291600E+03 -0.45291122560E+03  0.13919270277E+03  0.10924812651E+04  0.46999998093E+01 0.  1.
       -5    1    3    3    0  502  0.98437291600E+03  0.45291122560E+03  0.20006613843E+04  0.22752553001E+04  0.46999998093E+01 0. -1.
</event>
<event>
 5   0  0.2755061E-07  0.2599738E+04  0.7818609E-02  0.8368290E-01
       -1   -1    0    0    0  501  0.00000000000E+00  0.00000000000E+00  0.80413016456E+03  0.80413016458E+03  0.50400001928E-02 0. -1.
        1   -1    0    0  501    0  0.00000000000E+00  0.00000000000E+00 -0.21012262516E+04  0.21012262516E+04  0.50400001928E-02 0.  1.
    10030    2    1    2    0    0  0.00000000000E+00  0.00000000000E+00 -0.12970960871E+04  0.29053564162E+04  0.25997379957E+04 0.  0.
        4    1    3    3  502    0  0.12346969549E+04 -0.19703930692E+03 -0.10458027411E+04  0.16300325289E+04  0.12699999809E+01 0.  1.
       -4    1    3    3    0  502 -0.12346969549E+04  0.19703930692E+03 -0.25129334592E+03  0.12753238873E+04  0.12699999809E+01 0. -1.
</event>
<event>
 5   0  0.2864801E-07  0.2601715E+04  0.7818609E-02  0.8367619E-01
        1   -1    0    0  501    0  0.00000000000E+00  0.00000000000E+00  0.14003541157E+04  0.14003541157E+04  0.50400001928E-02 0.  1.
       -1   -1    0    0    0  501  0.00000000000E+00  0.00000000000E+00 -0.12084300946E+04  0.12084300946E+04  0.50400001928E-02 0. -1.
    10030    2    1    2    0    0  0.00000000000E+00  0.00000000000E+00  0.19192402111E+03  0.26087842104E+04  0.26017148626E+04 0.  0.
        5    1    3    3  502    0 -0.11243227657E+04  0.94760669048E+02  0.74512107198E+03  0.13521496839E+04  0.46999998093E+01 0.  1.
       -5    1    3    3    0  502  0.11243227657E+04 -0.94760669048E+02 -0.55319705086E+03  0.12566345264E+04  0.46999998093E+01 0. -1.
</event>
<event>
 5   0  0.6526351E-07  0.2600607E+04  0.7818609E-02  0.8367995E-01
       -2   -1    0    0    0  501  0.00000000000E+00  0.00000000000E+00  0.95874135282E+03  0.95874135282E+03  0.25500000920E-02 0. -1.
        2   -1    0    0  501    0  0.00000000000E+00  0.00000000000E+00 -0.17635515845E+04  0.17635515845E+04  0.25500000920E-02 0.  1.
    10030    2    1    2    0    0  0.00000000000E+00  0.00000000000E+00 -0.80481023169E+03  0.27222929373E+04  0.26006074920E+04 0.  0.
        3    1    3    3  502    0 -0.12053765466E+04  0.30967477184E+03 -0.79680893549E+03  0.14777467893E+04  0.10100000352E+00 0.  1.
       -3    1    3    3    0  502  0.12053765466E+04 -0.30967477184E+03 -0.80012961961E+01  0.12445461480E+04  0.10100000352E+00 0. -1.
</event>
<event>
 5   0  0.6780984E-07  0.2600208E+04  0.7818609E-02  0.8368131E-01
       -2   -1    0    0    0  501  0.00000000000E+00  0.00000000000E+00  0.64739848782E+03  0.64739848783E+03  0.25500000920E-02 0. -1.
        2   -1    0    0  501    0  0.00000000000E+00  0.00000000000E+00 -0.26108654549E+04  0.26108654549E+04  0.25500000920E-02 0.  1.
    10030    2    1    2    0    0  0.00000000000E+00  0.00000000000E+00 -0.19634669670E+04  0.32582639427E+04  0.26002079512E+04 0.  0.
        2    1    3    3  502    0 -0.10309848286E+04  0.68248341183E+03 -0.47806926165E+03  0.13256181740E+04  0.25500000920E-02 0.  1.
       -2    1    3    3    0  502  0.10309848286E+04 -0.68248341183E+03 -0.14853977054E+04  0.19326457687E+04  0.25500000920E-02 0. -1.
</event>
<event>
 5   0  0.6599814E-07  0.2599924E+04  0.7818609E-02  0.8368227E-01
       -2   -1    0    0    0  501  0.00000000000E+00  0.00000000000E+00  0.58539595804E+03  0.58539595805E+03  0.25500000920E-02 0.  1.
        2   -1    0    0  501    0  0.00000000000E+00  0.00000000000E+00 -0.28867649898E+04  0.28867649898E+04  0.25500000920E-02 0. -1.
    10030    2    1    2    0    0  0.00000000000E+00  0.00000000000E+00 -0.23013690318E+04  0.34721609479E+04  0.25999235042E+04 0.  0.
        5    1    3    3  502    0  0.27444961674E+03 -0.19642752305E+03  0.52585402173E+03  0.62486070936E+03  0.46999998093E+01 0.  1.
       -5    1    3    3    0  502 -0.27444961674E+03  0.19642752305E+03 -0.28272230535E+04  0.28473002385E+04  0.46999998093E+01 0. -1.
</event>
<event>
 5   0  0.2755061E-07  0.2599564E+04  0.7818609E-02  0.8368349E-01
       -1   -1    0    0    0  501  0.00000000000E+00  0.00000000000E+00  0.12644338312E+04  0.12644338312E+04  0.50400001928E-02 0. -1.
        1   -1    0    0  501    0  0.00000000000E+00  0.00000000000E+00 -0.13361183101E+04  0.13361183101E+04  0.50400001928E-02 0.  1.
    10030    2    1    2    0    0  0.00000000000E+00  0.00000000000E+00 -0.71684478827E+02  0.26005521413E+04  0.25995639587E+04 0.  0.
        4    1    3    3  502    0  0.10261225773E+04  0.68280548125E+03  0.37696545876E+03  0.12888969853E+04  0.12699999809E+01 0.  1.
       -4    1    3    3    0  502 -0.10261225773E+04 -0.68280548125E+03 -0.44864993759E+03  0.13116551560E+04  0.12699999809E+01 0. -1.
</event>
<event>
 5   0  0.2623263E-07  0.2600448E+04  0.7818609E-02  0.8368049E-01
       -1   -1    0    0    0  501  0.00000000000E+00  0.00000000000E+00  0.99912596910E+03  0.99912596911E+03  0.50400001928E-02 0.  1.
        1   -1    0    0  501    0  0.00000000000E+00  0.00000000000E+00 -0.16920607400E+04  0.16920607400E+04  0.50400001928E-02 0. -1.
    10030    2    1    2    0    0  0.00000000000E+00  0.00000000000E+00 -0.69293477092E+03  0.26911867091E+04  0.26004475205E+04 0.  0.
        1    1    3    3  502    0 -0.29772489946E+03  0.41847627591E+03  0.88970838170E+03  0.10272991355E+04  0.50400001928E-02 0.  1.
       -1    1    3    3    0  502  0.29772489946E+03 -0.41847627591E+03 -0.15826431526E+04  0.16638875737E+04  0.50400001928E-02 0. -1.
</event>
<event>
 5   0  0.6780984E-07  0.2595968E+04  0.7818609E-02  0.8369572E-01
        2   -1    0    0  501    0  0.00000000000E+00  0.00000000000E+00  0.52296433365E+03  0.52296433366E+03  0.25500000920E-02 0. -1.
       -2   -1    0    0    0  501  0.00000000000E+00  0.00000000000E+00 -0.32215626590E+04  0.32215626590E+04  0.25500000920E-02 0.  1.
    10030    2    1    2    0    0  0.00000000000E+00  0.00000000000E+00 -0.26985983253E+04  0.37445269926E+04  0.25959679268E+04 0.  0.
        2    1    3    3  502    0 -0.96484393479E+03 -0.81801646422E+02 -0.25961103305E+04  0.27708129089E+04  0.25500000920E-02 0.  1.
       -2    1    3    3    0  502  0.96484393479E+03  0.81801646422E+02 -0.10248799484E+03  0.97371408378E+03  0.25500000920E-02 0. -1.
</event>
<event>
 5   0  0.2755061E-07  0.2599785E+04  0.7818609E-02  0.8368274E-01
        1   -1    0    0  501    0  0.00000000000E+00  0.00000000000E+00  0.17261632034E+04  0.17261632034E+04  0.50400001928E-02 0. -1.
       -1   -1    0    0    0  501  0.00000000000E+00  0.00000000000E+00 -0.97888770360E+03  0.97888770361E+03  0.50400001928E-02 0.  1.
    10030    2    1    2    0    0  0.00000000000E+00  0.00000000000E+00  0.74727549983E+03  0.27050509070E+04  0.25997845559E+04 0.  0.
        4    1    3    3  502    0 -0.62056954831E+03 -0.10344496839E+04 -0.13024932553E+03  0.12133256828E+04  0.12699999809E+01 0.  1.
       -4    1    3    3    0  502  0.62056954831E+03  0.10344496839E+04  0.87752482536E+03  0.14917252243E+04  0.12699999809E+01 0. -1.
</event>
<event>
 5   0  0.6768478E-07  0.2599764E+04  0.7818609E-02  0.8368281E-01
        2   -1    0    0  501    0  0.00000000000E+00  0.00000000000E+00  0.13170789740E+04  0.13170789740E+04  0.25500000920E-02 0.  1.
       -2   -1    0    0    0  501  0.00000000000E+00  0.00000000000E+00 -0.12829094476E+04  0.12829094476E+04  0.25500000920E-02 0. -1.
    10030    2    1    2    0    0  0.00000000000E+00  0.00000000000E+00  0.34169526319E+02  0.25999884216E+04  0.25997638808E+04 0.  0.
        4    1    3    3  502    0  0.94598558898E+03  0.86935534641E+03 -0.18047721317E+03  0.12973978150E+04  0.12699999809E+01 0. -1.
       -4    1    3    3    0  502 -0.94598558898E+03 -0.86935534641E+03  0.21464673949E+03  0.13025906067E+04  0.12699999809E+01 0.  1.
</event>
<event>
 5   0  0.2864801E-07  0.2602186E+04  0.7818609E-02  0.8367459E-01
       -1   -1    0    0    0  501  0.00000000000E+00  0.00000000000E+00  0.18986718790E+04  0.18986718790E+04  0.50400001928E-02 0.  1.
        1   -1    0    0  501    0  0.00000000000E+00  0.00000000000E+00 -0.89159298759E+03  0.89159298761E+03  0.50400001928E-02 0. -1.
    10030    2    1    2    0    0  0.00000000000E+00  0.00000000000E+00  0.10070788914E+04  0.27902648666E+04  0.26021856452E+04 0.  0.
        5    1    3    3  502    0 -0.11204527276E+04 -0.51551577965E+03  0.94779059836E+03  0.15554741857E+04  0.46999998093E+01 0.  1.
       -5    1    3    3    0  502  0.11204527276E+04  0.51551577965E+03  0.59288292998E+02  0.12347906809E+04  0.46999998093E+01 0. -1.
</event>
<event>
 5   0  0.6599814E-07  0.2600587E+04  0.7818609E-02  0.8368002E-01
       -2   -1    0    0    0  501  0.00000000000E+00  0.00000000000E+00  0.13738250239E+04  0.13738250239E+04  0.25500000920E-02 0. -1.
        2   -1    0    0  501    0  0.00000000000E+00  0.00000000000E+00 -0.12306973776E+04  0.12306973776E+04  0.25500000920E-02 0.  1.
    10030    2    1    2    0    0  0.00000000000E+00  0.00000000000E+00  0.14312764629E+03  0.26045224015E+04  0.26005867447E+04 0.  0.
        5    1    3    3  502    0  0.12329838103E+04 -0.47430320114E+02 -0.33923011969E+03  0.12796866319E+04  0.46999998093E+01 0.  1.
       -5    1    3    3    0  502 -0.12329838103E+04  0.47430320114E+02  0.48235776599E+03  0.13248357695E+04  0.46999998093E+01 0. -1.
</event>
<event>
 5   0  0.7160320E-07  0.2600164E+04  0.7818609E-02  0.8368145E-01
       -2   -1    0    0    0  501  0.00000000000E+00  0.00000000000E+00  0.11707691180E+04  0.11707691180E+04  0.25500000920E-02 0.  1.
        2   -1    0    0  501    0  0.00000000000E+00  0.00000000000E+00 -0.14436782014E+04  0.14436782014E+04  0.25500000920E-02 0. -1.
    10030    2    1    2    0    0  0.00000000000E+00  0.00000000000E+00 -0.27290908343E+03  0.26144473195E+04  0.26001644983E+04 0.  0.
        1    1    3    3  502    0  0.10980329269E+04 -0.47781428498E+03 -0.64542778652E+03  0.13603528319E+04  0.50400001928E-02 0.  1.
       -1    1    3    3    0  502 -0.10980329269E+04  0.47781428498E+03  0.37251870309E+03  0.12540944876E+04  0.50400001928E-02 0. -1.
</event>
<event>
 5   0  0.2641626E-07  0.2597744E+04  0.7818609E-02  0.8368968E-01
        1   -1    0    0  501    0  0.00000000000E+00  0.00000000000E+00  0.20210343839E+04  0.20210343839E+04  0.50400001928E-02 0. -1.
       -1   -1    0    0    0  501  0.00000000000E+00  0.00000000000E+00 -0.83475515079E+03  0.83475515081E+03  0.50400001928E-02 0.  1.
    10030    2    1    2    0    0  0.00000000000E+00  0.00000000000E+00  0.11862792331E+04  0.28557895347E+04  0.25977442999E+04 0.  0.
        3    1    3    3  502    0  0.71663894446E+03  0.13165717680E+03  0.17751995383E+04  0.19189159440E+04  0.10100000352E+00 0. -1.
       -3    1    3    3    0  502 -0.71663894446E+03 -0.13165717680E+03 -0.58892030523E+03  0.93687359074E+03  0.10100000352E+00 0.  1.
</event>
<event>
 5   0  0.2755061E-07  0.2601156E+04  0.7818609E-02  0.8367809E-01
       -1   -1    0    0    0  501  0.00000000000E+00  0.00000000000E+00  0.62764497193E+03  0.62764497195E+03  0.50400001928E-02 0.  1.
        1   -1    0    0  501    0  0.00000000000E+00  0.00000000000E+00 -0.26950006246E+04  0.26950006246E+04  0.50400001928E-02 0. -1.
    10030    2    1    2    0    0  0.00000000000E+00  0.00000000000E+00 -0.20673556527E+04  0.33226455966E+04  0.26011563517E+04 0.  0.
        4    1    3    3  502    0  0.39861603503E+03  0.74392973345E+03  0.23032456516E+03  0.87485839421E+03  0.12699999809E+01 0.  1.
       -4    1    3    3    0  502 -0.39861603503E+03 -0.74392973345E+03 -0.22976802179E+04  0.24477872024E+04  0.12699999809E+01 0. -1.
</event>
<event>
 5   0  0.2755061E-07  0.2598029E+04  0.7818609E-02  0.8368871E-01
        1   -1    0    0  501    0  0.00000000000E+00  0.00000000000E+00  0.23178317887E+04  0.23178317887E+04  0.50400001928E-02 0. -1.
       -1   -1    0    0    0  501  0.00000000000E+00  0.00000000000E+00 -0.72802439009E+03  0.72802439011E+03  0.50400001928E-02 0.  1.
    10030    2    1    2    0    0  0.00000000000E+00  0.00000000000E+00  0.15898073986E+04  0.30458561788E+04  0.25980285405E+04 0.  0.
        4    1    3    3  502    0 -0.27678436220E+03  0.12365203611E+04  0.45950634874E+03  0.13478649354E+04  0.12699999809E+01 0. -1.
       -4    1    3    3    0  502  0.27678436220E+03 -0.12365203611E+04  0.11303010498E+04  0.16979912434E+04  0.12699999809E+01 0.  1.
</event>
<event>
 5   0  0.2755061E-07  0.2581092E+04  0.7818609E-02  0.8374652E-01
        1   -1    0    0  501    0  0.00000000000E+00  0.00000000000E+00  0.11293203538E+04  0.11293203538E+04  0.50400001928E-02 0.  1.
       -1   -1    0    0    0  501  0.00000000000E+00  0.00000000000E+00 -0.14747883252E+04  0.14747883252E+04  0.50400001928E-02 0. -1.
    10030    2    1    2    0    0  0.00000000000E+00  0.00000000000E+00 -0.34546797139E+03  0.26041086790E+04  0.25810916088E+04 0.  0.
        4    1    3    3  502    0 -0.43970540776E+03 -0.11792415794E+04  0.11539159201E+03  0.12638308354E+04  0.12699999809E+01 0.  1.
       -4    1    3    3    0  502  0.43970540776E+03  0.11792415794E+04 -0.46085956340E+03  0.13402778436E+04  0.12699999809E+01 0. -1.
</event>
<event>
 5   0  0.2641626E-07  0.2599595E+04  0.7818609E-02  0.8368339E-01
        1   -1    0    0  501    0  0.00000000000E+00  0.00000000000E+00  0.24179181366E+04  0.24179181367E+04  0.50400001928E-02 0. -1.
       -1   -1    0    0    0  501  0.00000000000E+00  0.00000000000E+00 -0.69873045842E+03  0.69873045844E+03  0.50400001928E-02 0.  1.
    10030    2    1    2    0    0  0.00000000000E+00  0.00000000000E+00  0.17191876782E+04  0.31166485951E+04  0.25995946208E+04 0.  0.
        3    1    3    3  502    0 -0.39812076842E+03 -0.50208903802E+03 -0.49621049989E+03  0.81044334703E+03  0.10100000352E+00 0.  1.
       -3    1    3    3    0  502  0.39812076842E+03  0.50208903802E+03  0.22153981781E+04  0.23062052481E+04  0.10100000352E+00 0. -1.
</event>
<event>
 5   0  0.6599814E-07  0.2599802E+04  0.7818609E-02  0.8368269E-01
       -2   -1    0    0    0  501  0.00000000000E+00  0.00000000000E+00  0.13764177719E+04  0.13764177719E+04  0.25500000920E-02 0. -1.
        2   -1    0    0  501    0  0.00000000000E+00  0.00000000000E+00 -0.12276376963E+04  0.12276376963E+04  0.25500000920E-02 0.  1.
    10030    2    1    2    0    0  0.00000000000E+00  0.00000000000E+00  0.14878007554E+03  0.26040554682E+04  0.25998017945E+04 0.  0.
        5    1    3    3  502    0 -0.25068940225E+03  0.76411964431E+02  0.13496724200E+04  0.13748897033E+04  0.46999998093E+01 0. -1.
       -5    1    3    3    0  502  0.25068940225E+03 -0.76411964431E+02 -0.12008923445E+04  0.12291657650E+04  0.46999998093E+01 0.  1.
</event>
<event>
 5   0  0.6780984E-07  0.2600269E+04  0.7818609E-02  0.8368110E-01
        2   -1    0    0  501    0  0.00000000000E+00  0.00000000000E+00  0.13046474114E+04  0.13046474114E+04  0.25500000920E-02 0.  1.
       -2   -1    0    0    0  501  0.00000000000E+00  0.00000000000E+00 -0.12956371251E+04  0.12956371251E+04  0.25500000920E-02 0. -1.
    10030    2    1    2    0    0  0.00000000000E+00  0.00000000000E+00  0.90102863568E+01  0.26002845365E+04  0.26002689256E+04 0.  0.
        2    1    3    3  502    0 -0.18781335980E+03 -0.78936724751E+03 -0.10113627138E+04  0.12966221687E+04  0.25500000920E-02 0. -1.
       -2    1    3    3    0  502  0.18781335980E+03  0.78936724751E+03  0.10203730002E+04  0.13036623677E+04  0.25500000920E-02 0.  1.
</event>
<event>
 5   0  0.2793576E-07  0.2600855E+04  0.7818609E-02  0.8367911E-01
        1   -1    0    0  501    0  0.00000000000E+00  0.00000000000E+00  0.10619322402E+04  0.10619322402E+04  0.50400001928E-02 0. -1.
       -1   -1    0    0    0  501  0.00000000000E+00  0.00000000000E+00 -0.15924858731E+04  0.15924858731E+04  0.50400001928E-02 0.  1.
    10030    2    1    2    0    0  0.00000000000E+00  0.00000000000E+00 -0.53055363292E+03  0.26544181133E+04  0.26008553137E+04 0.  0.
        2    1    3    3  502    0 -0.94384667895E+03  0.79245585269E+03 -0.68889016490E+03  0.14118790639E+04  0.25500000920E-02 0.  1.
       -2    1    3    3    0  502  0.94384667895E+03 -0.79245585269E+03  0.15833653198E+03  0.12425390494E+04  0.25500000920E-02 0. -1.
</event>
<event>
 5   0  0.2623263E-07  0.2597906E+04  0.7818609E-02  0.8368913E-01
       -1   -1    0    0    0  501  0.00000000000E+00  0.00000000000E+00  0.14212786686E+04  0.14212786686E+04  0.50400001928E-02 0. -1.
        1   -1    0    0  501    0  0.00000000000E+00  0.00000000000E+00 -0.11871559388E+04  0.11871559388E+04  0.50400001928E-02 0.  1.
    10030    2    1    2    0    0  0.00000000000E+00  0.00000000000E+00  0.23412272984E+03  0.26084346075E+04  0.25979063972E+04 0.  0.
        1    1    3    3  502    0  0.58802787263E+03 -0.51677211504E+03 -0.92369577878E+03  0.12108030763E+04  0.50400001928E-02 0.  1.
       -1    1    3    3    0  502 -0.58802787263E+03  0.51677211504E+03  0.11578185086E+04  0.13976315311E+04  0.50400001928E-02 0. -1.
</event>
<event>
 5   0  0.2641626E-07  0.2600838E+04  0.7818609E-02  0.8367917E-01
       -1   -1    0    0    0  501  0.00000000000E+00  0.00000000000E+00  0.12401653762E+04  0.12401653763E+04  0.50400001928E-02 0.  1.
        1   -1    0    0  501    0  0.00000000000E+00  0.00000000000E+00 -0.13636001652E+04  0.13636001652E+04  0.50400001928E-02 0. -1.
    10030    2    1    2    0    0  0.00000000000E+00  0.00000000000E+00 -0.12343478894E+03  0.26037655414E+04  0.26008381049E+04 0.  0.
        3    1    3    3  502    0 -0.12120415942E+04 -0.62627234590E+02  0.40584437495E+03  0.12797174154E+04  0.10100000352E+00 0.  1.
       -3    1    3    3    0  502  0.12120415942E+04  0.62627234590E+02 -0.52927916388E+03  0.13240481260E+04  0.10100000352E+00 0. -1.
</event>
<event>
 5   0  0.2623263E-07  0.2592389E+04  0.7818609E-02  0.8370791E-01
       -1   -1    0    0    0  501  0.00000000000E+00  0.00000000000E+00  0.89449761411E+03  0.89449761413E+03  0.50400001928E-02 0. -1.
        1   -1    0    0  501    0  0.00000000000E+00  0.00000000000E+00 -0.18782840447E+04  0.18782840447E+04  0.50400001928E-02 0.  1.
    10030    2    1    2    0    0  0.00000000000E+00  0.00000000000E+00 -0.98378643061E+03  0.27727816589E+04  0.25923893200E+04 0.  0.
        1    1    3    3  502    0  0.18185493581E+03 -0.11109692911E+04  0.19530735577E+03  0.11425711999E+04  0.50400001928E-02 0. -1.
       -1    1    3    3    0  502 -0.18185493581E+03  0.11109692911E+04 -0.11790937864E+04  0.16302104590E+04  0.50400001928E-02 0.  1.
</event>
<event>
 5   0  0.2755061E-07  0.2596047E+04  0.7818609E-02  0.8369545E-01
       -1   -1    0    0    0  501  0.00000000000E+00  0.00000000000E+00  0.73636130357E+03  0.73636130359E+03  0.50400001928E-02 0.  1.
        1   -1    0    0  501    0  0.00000000000E+00  0.00000000000E+00 -0.22880951755E+04  0.22880951755E+04  0.50400001928E-02 0. -1.
    10030    2    1    2    0    0  0.00000000000E+00  0.00000000000E+00 -0.15517338720E+04  0.30244564791E+04  0.25960467994E+04 0.  0.
        4    1    3    3  502    0 -0.47337860726E+03  0.80392240304E+01 -0.21839134496E+04  0.22346434846E+04  0.12699999809E+01 0. -1.
       -4    1    3    3    0  502  0.47337860726E+03 -0.80392240304E+01  0.63217957768E+03  0.78981299450E+03  0.12699999809E+01 0.  1.
</event>
<event>
 5   0  0.2755061E-07  0.2600697E+04  0.7818609E-02  0.8367964E-01
        1   -1    0    0  501    0  0.00000000000E+00  0.00000000000E+00  0.98404966413E+03  0.98404966414E+03  0.50400001928E-02 0.  1.
       -1   -1    0    0    0  501  0.00000000000E+00  0.00000000000E+00 -0.17183140507E+04  0.17183140507E+04  0.50400001928E-02 0. -1.
    10030    2    1    2    0    0  0.00000000000E+00  0.00000000000E+00 -0.73426438653E+03  0.27023637148E+04  0.26006971100E+04 0.  0.
        4    1    3    3  502    0  0.82758221731E+03 -0.97220738404E+03 -0.11086329782E+03  0.12815505482E+04  0.12699999809E+01 0.  1.
       -4    1    3    3    0  502 -0.82758221731E+03  0.97220738404E+03 -0.62340108871E+03  0.14208131666E+04  0.12699999809E+01 0. -1.
</event>
<event>
 5   0  0.2641626E-07  0.2600774E+04  0.7818609E-02  0.8367938E-01
        1   -1    0    0  501    0  0.00000000000E+00  0.00000000000E+00  0.18099609408E+04  0.18099609409E+04  0.50400001928E-02 0. -1.
       -1   -1    0    0    0  501  0.00000000000E+00  0.00000000000E+00 -0.93427787961E+03  0.93427787963E+03  0.50400001928E-02 0.  1.
    10030    2    1    2    0    0  0.00000000000E+00  0.00000000000E+00  0.87568306123E+03  0.27442388205E+04  0.26007740925E+04 0.  0.
        3    1    3    3  502    0  0.39726668776E+03  0.87024362761E+03 -0.49157720092E+03  0.10755430941E+04  0.10100000352E+00 0.  1.
       -3    1    3    3    0  502 -0.39726668776E+03 -0.87024362761E+03  0.13672602622E+04  0.16686957264E+04  0.10100000352E+00 0. -1.
</event>
<event>
 5   0  0.6780984E-07  0.2598770E+04  0.7818609E-02  0.8368619E-01
        2   -1    0    0  501    0  0.00000000000E+00  0.00000000000E+00  0.15562070703E+04  0.15562070703E+04  0.25500000920E-02 0.  1.
       -2   -1    0    0    0  501  0.00000000000E+00  0.00000000000E+00 -0.10849465526E+04  0.10849465526E+04  0.25500000920E-02 0. -1.
    10030    2    1    2    0    0  0.00000000000E+00  0.00000000000E+00  0.47126051776E+03  0.26411536229E+04  0.25987700907E+04 0.  0.
        2    1    3    3  502    0  0.12345761649E+04  0.39102490539E+03  0.12748660469E+03  0.13012807607E+04  0.25500000920E-02 0.  1.
       -2    1    3    3    0  502 -0.12345761649E+04 -0.39102490539E+03  0.34377391308E+03  0.13398728623E+04  0.25500000920E-02 0. -1.
</event>
<event>
 5   0  0.2864801E-07  0.2598948E+04  0.7818609E-02  0.8368559E-01
        1   -1    0    0  501    0  0.00000000000E+00  0.00000000000E+00  0.10870309852E+04  0.10870309852E+04  0.50400001928E-02 0. -1.
       -1   -1    0    0    0  501  0.00000000000E+00  0.00000000000E+00 -0.15534360814E+04  0.15534360814E+04  0.50400001928E-02 0.  1.
    10030    2    1    2    0    0  0.00000000000E+00  0.00000000000E+00 -0.46640509617E+03  0.26404670666E+04  0.25989483673E+04 0.  0.
        5    1    3    3  502    0 -0.50807924403E+03 -0.40155780878E+03  0.91139073492E+03  0.11180556130E+04  0.46999998093E+01 0. -1.
       -5    1    3    3    0  502  0.50807924403E+03  0.40155780878E+03 -0.13777958311E+04  0.15224114536E+04  0.46999998093E+01 0.  1.
</event>
<event>
 5   0  0.7160320E-07  0.2600451E+04  0.7818609E-02  0.8368048E-01
        2   -1    0    0  501    0  0.00000000000E+00  0.00000000000E+00  0.30355677078E+04  0.30355677078E+04  0.25500000920E-02 0. -1.
       -2   -1    0    0    0  501  0.00000000000E+00  0.00000000000E+00 -0.55692572923E+03  0.55692572923E+03  0.25500000920E-02 0.  1.
    10030    2    1    2    0    0  0.00000000000E+00  0.00000000000E+00  0.24786419785E+04  0.35924934370E+04  0.26004505450E+04 0.  0.
        1    1    3    3  502    0  0.12116831836E+04 -0.19147115854E+03  0.64391946021E+03  0.13854492460E+04  0.50400001928E-02 0.  1.
       -1    1    3    3    0  502 -0.12116831836E+04  0.19147115854E+03  0.18347225183E+04  0.22070441910E+04  0.50400001928E-02 0. -1.
</event>
<event>
 5   0  0.2641626E-07  0.2607941E+04  0.7818609E-02  0.8365509E-01
        1   -1    0    0  501    0  0.00000000000E+00  0.00000000000E+00  0.14845872556E+04  0.14845872557E+04  0.50400001928E-02 0. -1.
       -1   -1    0    0    0  501  0.00000000000E+00  0.00000000000E+00 -0.11453274294E+04  0.11453274294E+04  0.50400001928E-02 0.  1.
    10030    2    1    2    0    0  0.00000000000E+00  0.00000000000E+00  0.33925982625E+03  0.26299146851E+04  0.26079405708E+04 0.  0.
        3    1    3    3  502    0  0.70191103928E+03 -0.40974922943E+03  0.11979103130E+04  0.14476058394E+04  0.10100000352E+00 0. -1.
       -3    1    3    3    0  502 -0.70191103928E+03  0.40974922943E+03 -0.85865048671E+03  0.11823088457E+04  0.10100000352E+00 0.  1.
</event>
<event>
 5   0  0.7160320E-07  0.2598511E+04  0.7818609E-02  0.8368707E-01
        2   -1    0    0  501    0  0.00000000000E+00  0.00000000000E+00  0.17092935926E+04  0.17092935926E+04  0.25500000920E-02 0.  1.
       -2   -1    0    0    0  501  0.00000000000E+00  0.00000000000E+00 -0.98758037424E+03  0.98758037425E+03  0.25500000920E-02 0. -1.
    10030    2    1    2    0    0  0.00000000000E+00  0.00000000000E+00  0.72171321839E+03  0.26968739669E+04  0.25985109628E+04 0.  0.
        1    1    3    3  502    0  0.12927373943E+02  0.75562946740E+03 -0.73599400003E+03  0.10549076628E+04  0.50400001928E-02 0. -1.
       -1    1    3    3    0  502 -0.12927373943E+02 -0.75562946740E+03  0.14577072184E+04  0.16419663040E+04  0.50400001928E-02 0.  1.
</event>
<event>
 5   0  0.2623263E-07  0.2600239E+04  0.7818609E-02  0.8368120E-01
       -1   -1    0    0    0  501  0.00000000000E+00  0.00000000000E+00  0.12147833610E+04  0.12147833610E+04  0.50400001928E-02 0.  1.
        1   -1    0    0  501    0  0.00000000000E+00  0.00000000000E+00 -0.13914505289E+04  0.13914505289E+04  0.50400001928E-02 0. -1.
    10030    2    1    2    0    0  0.00000000000E+00  0.00000000000E+00 -0.17666716786E+03  0.26062338899E+04  0.26002391815E+04 0.  0.
        1    1    3    3  502    0  0.37262480494E+03 -0.11510360243E+04  0.38876567737E+03  0.12707761118E+04  0.50400001928E-02 0.  1.
       -1    1    3    3    0  502 -0.37262480494E+03  0.11510360243E+04 -0.56543284523E+03  0.13354577781E+04  0.50400001928E-02 0. -1.
</event>
<event>
 5   0  0.6599814E-07  0.2600824E+04  0.7818609E-02  0.8367921E-01
       -2   -1    0    0    0  501  0.00000000000E+00  0.00000000000E+00  0.11323150789E+04  0.11323150789E+04  0.25500000920E-02 0.  1.
        2   -1    0    0  501    0  0.00000000000E+00  0.00000000000E+00 -0.14934637157E+04  0.14934637157E+04  0.25500000920E-02 0. -1.
    10030    2    1    2    0    0  0.00000000000E+00  0.00000000000E+00 -0.36114863677E+03  0.26257787946E+04  0.26008240887E+04 0.  0.
        5    1    3    3  502    0 -0.81699241393E+03 -0.32024984198E+03 -0.11494766426E+04  0.14461518619E+04  0.46999998093E+01 0. -1.
       -5    1    3    3    0  502  0.81699241393E+03  0.32024984198E+03  0.78832800582E+03  0.11796269327E+04  0.46999998093E+01 0.  1.
</event>
<event>
 5   0  0.2793576E-07  0.2600437E+04  0.7818609E-02  0.8368053E-01
        1   -1    0    0  501    0  0.00000000000E+00  0.00000000000E+00  0.30575494510E+04  0.30575494510E+04  0.50400001928E-02 0. -1.
       -1   -1    0    0    0  501  0.00000000000E+00  0.00000000000E+00 -0.55291614944E+03  0.55291614946E+03  0.50400001928E-02 0.  1.
    10030    2    1    2    0    0  0.00000000000E+00  0.00000000000E+00  0.25046333015E+04  0.36104656004E+04  0.26004372472E+04 0.  0.
        2    1    3    3  502    0  0.10365312220E+04  0.41470970363E+03  0.21776536548E+04  0.24471527441E+04  0.25500000920E-02 0. -1.
       -2    1    3    3    0  502 -0.10365312220E+04 -0.41470970363E+03  0.32697964672E+03  0.11633128564E+04  0.25500000920E-02 0.  1.
</event>
<event>
 5   0  0.6526351E-07  0.2600157E+04  0.7818609E-02  0.8368148E-01
        2   -1    0    0  501    0  0.00000000000E+00  0.00000000000E+00  0.12588761566E+04  0.12588761566E+04  0.25500000920E-02 0.  1.
       -2   -1    0    0    0  501  0.00000000000E+00  0.00000000000E+00 -0.13426291998E+04  0.13426291998E+04  0.25500000920E-02 0. -1.
    10030    2    1    2    0    0  0.00000000000E+00  0.00000000000E+00 -0.83753043234E+02  0.26015053564E+04  0.26001568313E+04 0.  0.
        3    1    3    3  502    0 -0.61199686238E+03 -0.10426556836E+04 -0.52017554199E+03  0.13161510699E+04  0.10100000352E+00 0. -1.
       -3    1    3    3    0  502  0.61199686238E+03  0.10426556836E+04  0.43642249876E+03  0.12853542865E+04  0.10100000352E+00 0.  1.
</event>
<event>
 5   0  0.6780984E-07  0.2601150E+04  0.7818609E-02  0.8367811E-01
        2   -1    0    0  501    0  0.00000000000E+00  0.00000000000E+00  0.96849567937E+03  0.96849567938E+03  0.25500000920E-02 0. -1.
       -2   -1    0    0    0  501  0.00000000000E+00  0.00000000000E+00 -0.17465177463E+04  0.17465177463E+04  0.25500000920E-02 0.  1.
    10030    2    1    2    0    0  0.00000000000E+00  0.00000000000E+00 -0.77802206691E+03  0.27150134257E+04  0.26011496622E+04 0.  0.
        2    1    3    3  502    0 -0.12255528867E+04  0.21145469873E+03 -0.78619691824E+03  0.14713254439E+04  0.25500000920E-02 0.  1.
       -2    1    3    3    0  502  0.12255528867E+04 -0.21145469873E+03  0.81748513244E+01  0.12436879817E+04  0.25500000920E-02 0. -1.
</event>
<event>
 5   0  0.2793576E-07  0.2601543E+04  0.7818609E-02  0.8367677E-01
       -1   -1    0    0    0  501  0.00000000000E+00  0.00000000000E+00  0.93771969091E+03  0.93771969092E+03  0.50400001928E-02 0.  1.
        1   -1    0    0  501    0  0.00000000000E+00  0.00000000000E+00 -0.18043839795E+04  0.18043839795E+04  0.50400001928E-02 0. -1.
    10030    2    1    2    0    0  0.00000000000E+00  0.00000000000E+00 -0.86666428861E+03  0.27421036704E+04  0.26015429173E+04 0.  0.
        2    1    3    3  502    0 -0.84310362323E+01 -0.97343305565E+03  0.47604781324E+03  0.10836348632E+04  0.25500000920E-02 0.  1.
       -2    1    3    3    0  502  0.84310362323E+01  0.97343305565E+03 -0.13427121019E+04  0.16584688073E+04  0.25500000920E-02 0. -1.
</event>
<event>
 5   0  0.6599814E-07  0.2589299E+04  0.7818609E-02  0.8371845E-01
        2   -1    0    0  501    0  0.00000000000E+00  0.00000000000E+00  0.17349734520E+04  0.17349734520E+04  0.25500000920E-02 0.  1.
       -2   -1    0    0    0  501  0.00000000000E+00  0.00000000000E+00 -0.96607638057E+03  0.96607638058E+03  0.25500000920E-02 0. -1.
    10030    2    1    2    0    0  0.00000000000E+00  0.00000000000E+00  0.76889707144E+03  0.27010498326E+04  0.25892986486E+04 0.  0.
        5    1    3    3  502    0 -0.25113793322E+02 -0.23309458852E+03  0.17126363960E+04  0.17286148515E+04  0.46999998093E+01 0.  1.
       -5    1    3    3    0  502  0.25113793322E+02  0.23309458852E+03 -0.94373932456E+03  0.97243498113E+03  0.46999998093E+01 0. -1.
</event>
<event>
 5   0  0.6599814E-07  0.2600240E+04  0.7818609E-02  0.8368120E-01
       -2   -1    0    0    0  501  0.00000000000E+00  0.00000000000E+00  0.12753249085E+04  0.12753249085E+04  0.25500000920E-02 0.  1.
        2   -1    0    0  501    0  0.00000000000E+00  0.00000000000E+00 -0.13253972040E+04  0.13253972041E+04  0.25500000920E-02 0. -1.
    10030    2    1    2    0    0  0.00000000000E+00  0.00000000000E+00 -0.50072295549E+02  0.26007221126E+04  0.26002400412E+04 0.  0.
        5    1    3    3  502    0 -0.43680399061E+03 -0.11210191072E+04  0.46781114337E+03  0.12908721551E+04  0.46999998093E+01 0.  1.
       -5    1    3    3    0  502  0.43680399061E+03  0.11210191072E+04 -0.51788343892E+03  0.13098499575E+04  0.46999998093E+01 0. -1.
</event>
<event>
 5   0  0.6526351E-07  0.2599583E+04  0.7818609E-02  0.8368343E-01
        2   -1    0    0  501    0  0.00000000000E+00  0.00000000000E+00  0.18218984903E+04  0.18218984903E+04  0.25500000920E-02 0.  1.
       -2   -1    0    0    0  501  0.00000000000E+00  0.00000000000E+00 -0.92730649800E+03  0.92730649801E+03  0.25500000920E-02 0. -1.
    10030    2    1    2    0    0  0.00000000000E+00  0.00000000000E+00  0.89459199231E+03  0.27492049883E+04  0.25995832810E+04 0.  0.
        3    1    3    3  502    0  0.19705161218E+02  0.19613919606E+03  0.18059980512E+04  0.18167244834E+04  0.10100000352E+00 0.  1.
       -3    1    3    3    0  502 -0.19705161218E+02 -0.19613919606E+03 -0.91140605888E+03  0.93248050488E+03  0.10100000352E+00 0. -1.
</event>
<event>
 5   0  0.7160320E-07  0.2600095E+04  0.7818609E-02  0.8368169E-01
        2   -1    0    0  501    0  0.00000000000E+00  0.00000000000E+00  0.15122284262E+04  0.15122284262E+04  0.25500000920E-02 0. -1.
       -2   -1    0    0    0  501  0.00000000000E+00  0.00000000000E+00 -0.11176373741E+04  0.11176373741E+04  0.25500000920E-02 0.  1.
    10030    2    1    2    0    0  0.00000000000E+00  0.00000000000E+00  0.39459105212E+03  0.26298658002E+04  0.26000946192E+04 0.  0.
        1    1    3    3  502    0 -0.37770030666E+03  0.11524551461E+04 -0.27637487602E+03  0.12438623146E+04  0.50400001928E-02 0. -1.
       -1    1    3    3    0  502  0.37770030666E+03 -0.11524551461E+04  0.67096592815E+03  0.13860034857E+04  0.50400001928E-02 0.  1.
</event>
<event>
 5   0  0.2864801E-07  0.2600624E+04  0.7818609E-02  0.8367989E-01
       -1   -1    0    0    0  501  0.00000000000E+00  0.00000000000E+00  0.60170440771E+03  0.60170440773E+03  0.50400001928E-02 0. -1.
        1   -1    0    0  501    0  0.00000000000E+00  0.00000000000E+00 -0.28100354253E+04  0.28100354253E+04  0.50400001928E-02 0.  1.
    10030    2    1    2    0    0  0.00000000000E+00  0.00000000000E+00 -0.22083310176E+04  0.34117398331E+04  0.26006235416E+04 0.  0.
        5    1    3    3  502    0  0.39197707232E+03  0.69273892913E+03  0.24476123375E+03  0.83274449905E+03  0.46999998093E+01 0. -1.
       -5    1    3    3    0  502 -0.39197707232E+03 -0.69273892913E+03 -0.24530922514E+04  0.25789953340E+04  0.46999998093E+01 0.  1.
</event>
<event>
 5   0  0.2623263E-07  0.2599825E+04  0.7818609E-02  0.8368261E-01
        1   -1    0    0  501    0  0.00000000000E+00  0.00000000000E+00  0.13285477764E+04  0.13285477764E+04  0.50400001928E-02 0. -1.
       -1   -1    0    0    0  501  0.00000000000E+00  0.00000000000E+00 -0.12718944326E+04  0.12718944326E+04  0.50400001928E-02 0.  1.
    10030    2    1    2    0    0  0.00000000000E+00  0.00000000000E+00  0.56653343776E+02  0.26004422090E+04  0.25998250097E+04 0.  0.
        1    1    3    3  502    0  0.95073235119E+03 -0.88315917448E+03  0.10522397829E+03  0.13018963925E+04  0.50400001928E-02 0.  1.
       -1    1    3    3    0  502 -0.95073235119E+03  0.88315917448E+03 -0.48570634517E+02  0.12985458165E+04  0.50400001928E-02 0. -1.
</event>
<event>
 5   0  0.6780984E-07  0.2600724E+04  0.7818609E-02  0.8367955E-01
        2   -1    0    0  501    0  0.00000000000E+00  0.00000000000E+00  0.13864411633E+04  0.13864411633E+04  0.25500000920E-02 0. -1.
       -2   -1    0    0    0  501  0.00000000000E+00  0.00000000000E+00 -0.12196274124E+04  0.12196274124E+04  0.25500000920E-02 0.  1.
    10030    2    1    2    0    0  0.00000000000E+00  0.00000000000E+00  0.16681375093E+03  0.26060685757E+04  0.26007242441E+04 0.  0.
        2    1    3    3  502    0  0.27808239915E+03  0.99722008947E+03 -0.70507979188E+03  0.12525634676E+04  0.25500000920E-02 0.  1.
       -2    1    3    3    0  502 -0.27808239915E+03 -0.99722008947E+03  0.87189354281E+03  0.13535051081E+04  0.25500000920E-02 0. -1.
</event>
<event>
 5   0  0.2793576E-07  0.2597116E+04  0.7818609E-02  0.8369182E-01
       -1   -1    0    0    0  501  0.00000000000E+00  0.00000000000E+00  0.80450116301E+03  0.80450116303E+03  0.50400001928E-02 0. -1.
        1   -1    0    0  501    0  0.00000000000E+00  0.00000000000E+00 -0.20960225948E+04  0.20960225948E+04  0.50400001928E-02 0.  1.
    10030    2    1    2    0    0  0.00000000000E+00  0.00000000000E+00 -0.12915214318E+04  0.29005237578E+04  0.25971157966E+04 0.  0.
        2    1    3    3  502    0 -0.85976284417E+03 -0.79322528782E+03 -0.12754104566E+04  0.17306271517E+04  0.25500000920E-02 0.  1.
       -2    1    3    3    0  502  0.85976284417E+03  0.79322528782E+03 -0.16110975173E+02  0.11698966061E+04  0.25500000920E-02 0. -1.
</event>
<event>
 5   0  0.6526351E-07  0.2599597E+04  0.7818609E-02  0.8368338E-01
       -2   -1    0    0    0  501  0.00000000000E+00  0.00000000000E+00  0.15051871515E+04  0.15051871515E+04  0.25500000920E-02 0. -1.
        2   -1    0    0  501    0  0.00000000000E+00  0.00000000000E+00 -0.11224363586E+04  0.11224363586E+04  0.25500000920E-02 0.  1.
    10030    2    1    2    0    0  0.00000000000E+00  0.00000000000E+00  0.38275079292E+03  0.26276235102E+04  0.25995974961E+04 0.  0.
        3    1    3    3  502    0  0.37893308317E+03 -0.12384149199E+04  0.79662476104E+02  0.12975391770E+04  0.10100000352E+00 0. -1.
       -3    1    3    3    0  502 -0.37893308317E+03  0.12384149199E+04  0.30308831681E+03  0.13300843332E+04  0.10100000352E+00 0.  1.
</event>
<event>
 5   0  0.6599814E-07  0.2601142E+04  0.7818609E-02  0.8367813E-01
       -2   -1    0    0    0  501  0.00000000000E+00  0.00000000000E+00  0.11940991024E+04  0.11940991024E+04  0.25500000920E-02 0.  1.
        2   -1    0    0  501    0  0.00000000000E+00  0.00000000000E+00 -0.14165362774E+04  0.14165362774E+04  0.25500000920E-02 0. -1.
    10030    2    1    2    0    0  0.00000000000E+00  0.00000000000E+00 -0.22243717501E+03  0.26106353798E+04  0.26011418241E+04 0.  0.
        5    1    3    3  502    0  0.12773802305E+04  0.54530895893E+01 -0.35651317276E+03  0.13262178259E+04  0.46999998093E+01 0. -1.
       -5    1    3    3    0  502 -0.12773802305E+04 -0.54530895893E+01  0.13407599775E+03  0.12844175538E+04  0.46999998093E+01 0.  1.
</event>
<event>
 5   0  0.2641626E-07  0.2599967E+04  0.7818609E-02  0.8368212E-01
        1   -1    0    0  501    0  0.00000000000E+00  0.00000000000E+00  0.20706612797E+04  0.20706612797E+04  0.50400001928E-02 0. -1.
       -1   -1    0    0    0  501  0.00000000000E+00  0.00000000000E+00 -0.81614381081E+03  0.81614381083E+03  0.50400001928E-02 0.  1.
    10030    2    1    2    0    0  0.00000000000E+00  0.00000000000E+00  0.12545174689E+04  0.28868050906E+04  0.25999672212E+04 0.  0.
        3    1    3    3  502    0  0.75120003118E+03 -0.17569957741E+03  0.17890125778E+04  0.19482653418E+04  0.10100000352E+00 0. -1.
       -3    1    3    3    0  502 -0.75120003118E+03  0.17569957741E+03 -0.53449510889E+03  0.93853974875E+03  0.10100000352E+00 0.  1.
</event>
<event>
 5   0  0.2864801E-07  0.2599777E+04  0.7818609E-02  0.8368277E-01
       -1   -1    0    0    0  501  0.00000000000E+00  0.00000000000E+00  0.12030875305E+04  0.12030875305E+04  0.50400001928E-02 0.  1.
        1   -1    0    0  501    0  0.00000000000E+00  0.00000000000E+00 -0.14044776365E+04  0.14044776365E+04  0.50400001928E-02 0. -1.
    10030    2    1    2    0    0  0.00000000000E+00  0.00000000000E+00 -0.20139010598E+03  0.26075651670E+04  0.25997765529E+04 0.  0.
        5    1    3    3  502    0  0.27009450147E+03  0.13770920471E+03  0.11671221188E+04  0.12058652475E+04  0.46999998093E+01 0.  1.
       -5    1    3    3    0  502 -0.27009450147E+03 -0.13770920471E+03 -0.13685122248E+04  0.14016999195E+04  0.46999998093E+01 0. -1.
</event>
<event>
 5   0  0.7160320E-07  0.2601259E+04  0.7818609E-02  0.8367774E-01
        2   -1    0    0  501    0  0.00000000000E+00  0.00000000000E+00  0.14227254976E+04  0.14227254976E+04  0.25500000920E-02 0.  1.
       -2   -1    0    0    0  501  0.00000000000E+00  0.00000000000E+00 -0.11890114378E+04  0.11890114378E+04  0.25500000920E-02 0. -1.
    10030    2    1    2    0    0  0.00000000000E+00  0.00000000000E+00  0.23371405972E+03  0.26117369354E+04  0.26012588410E+04 0.  0.
        1    1    3    3  502    0 -0.12398679258E+04 -0.37838760867E+03  0.22305279936E+03  0.13153715092E+04  0.50400001928E-02 0.  1.
       -1    1    3    3    0  502  0.12398679258E+04  0.37838760867E+03  0.10661260358E+02  0.12963654262E+04  0.50400001928E-02 0. -1.
</event>
<event>
 5   0  0.6768478E-07  0.2601520E+04  0.7818609E-02  0.8367685E-01
       -2   -1    0    0    0  501  0.00000000000E+00  0.00000000000E+00  0.13329655023E+04  0.13329655023E+04  0.25500000920E-02 0. -1.
        2   -1    0    0  501    0  0.00000000000E+00  0.00000000000E+00 -0.12693323713E+04  0.12693323713E+04  0.25500000920E-02 0.  1.
    10030    2    1    2    0    0  0.00000000000E+00  0.00000000000E+00  0.63633131010E+02  0.26022978736E+04  0.26015197572E+04 0.  0.
        4    1    3    3  502    0 -0.96831148305E+03  0.82065923459E+03  0.31627099553E+03  0.13081046071E+04  0.12699999809E+01 0. -1.
       -4    1    3    3    0  502  0.96831148305E+03 -0.82065923459E+03 -0.25263786452E+03  0.12941932665E+04  0.12699999809E+01 0.  1.
</event>
<event>
 5   0  0.2793576E-07  0.2596927E+04  0.7818609E-02  0.8369246E-01
        1   -1    0    0  501    0  0.00000000000E+00  0.00000000000E+00  0.20070053577E+04  0.20070053577E+04  0.50400001928E-02 0. -1.
       -1   -1    0    0    0  501  0.00000000000E+00  0.00000000000E+00 -0.84006149043E+03  0.84006149045E+03  0.50400001928E-02 0.  1.
    10030    2    1    2    0    0  0.00000000000E+00  0.00000000000E+00  0.11669438672E+04  0.28470668481E+04  0.25969273475E+04 0.  0.
        2    1    3    3  502    0 -0.16614494512E+03  0.31022564103E+02  0.19948941588E+04  0.20020412701E+04  0.25500000920E-02 0. -1.
       -2    1    3    3    0  502  0.16614494512E+03 -0.31022564103E+02 -0.82795029155E+03  0.84502557805E+03  0.25500000920E-02 0.  1.
</event>
<event>
 5   0  0.2755061E-07  0.2600170E+04  0.7818609E-02  0.8368144E-01
        1   -1    0    0  501    0  0.00000000000E+00  0.00000000000E+00  0.28691362185E+04  0.28691362185E+04  0.50400001928E-02 0.  1.
       -1   -1    0    0    0  501  0.00000000000E+00  0.00000000000E+00 -0.58910435152E+03  0.58910435154E+03  0.50400001928E-02 0. -1.
    10030    2    1    2    0    0  0.00000000000E+00  0.00000000000E+00  0.22800318670E+04  0.34582405700E+04  0.26001697110E+04 0.  0.
        4    1    3    3  502    0  0.92326466033E+03  0.78740725464E+03  0.17607043939E+04  0.21383426744E+04  0.12699999809E+01 0. -1.
       -4    1    3    3    0  502 -0.92326466033E+03 -0.78740725464E+03  0.51932747311E+03  0.13198978956E+04  0.12699999809E+01 0.  1.
</event>
<event>
 5   0  0.6526351E-07  0.2600744E+04  0.7818609E-02  0.8367949E-01
       -2   -1    0    0    0  501  0.00000000000E+00  0.00000000000E+00  0.10649314116E+04  0.10649314117E+04  0.25500000920E-02 0.  1.
        2   -1    0    0  501    0  0.00000000000E+00  0.00000000000E+00 -0.15878646627E+04  0.15878646627E+04  0.25500000920E-02 0. -1.
    10030    2    1    2    0    0  0.00000000000E+00  0.00000000000E+00 -0.52293325109E+03  0.26527960744E+04  0.26007437066E+04 0.  0.
        3    1    3    3  502    0 -0.45540149870E+03  0.64678805101E+03  0.79129580232E+03  0.11188719162E+04  0.10100000352E+00 0.  1.
       -3    1    3    3    0  502  0.45540149870E+03 -0.64678805101E+03 -0.13142290534E+04  0.15339241582E+04  0.10100000352E+00 0. -1.
</event>
<event>
 5   0  0.2623263E-07  0.2598612E+04  0.7818609E-02  0.8368673E-01
       -1   -1    0    0    0  501  0.00000000000E+00  0.00000000000E+00  0.15535967717E+04  0.15535967717E+04  0.50400001928E-02 0.  1.
        1   -1    0    0  501    0  0.00000000000E+00  0.00000000000E+00 -0.10866372135E+04  0.10866372135E+04  0.50400001928E-02 0. -1.
    10030    2    1    2    0    0  0.00000000000E+00  0.00000000000E+00  0.46695955818E+03  0.26402339852E+04  0.25986119887E+04 0.  0.
        1    1    3    3  502    0  0.74099567534E+02  0.11613267508E+04 -0.35372663387E+03  0.12162619371E+04  0.50400001928E-02 0. -1.
       -1    1    3    3    0  502 -0.74099567534E+02 -0.11613267508E+04  0.82068619205E+03  0.14239720481E+04  0.50400001928E-02 0.  1.
</event>
<event>
 5   0  0.6599814E-07  0.2599444E+04  0.7818609E-02  0.8368390E-01
       -2   -1    0    0    0  501  0.00000000000E+00  0.00000000000E+00  0.13027569103E+04  0.13027569103E+04  0.25500000920E-02 0.  1.
        2   -1    0    0  501    0  0.00000000000E+00  0.00000000000E+00 -0.12966938267E+04  0.12966938267E+04  0.25500000920E-02 0. -1.
    10030    2    1    2    0    0  0.00000000000E+00  0.00000000000E+00  0.60630836578E+01  0.25994507370E+04  0.25994436661E+04 0.  0.
        5    1    3    3  502    0 -0.12541353321E+04 -0.20716334907E+03 -0.26804606453E+03  0.12990930941E+04  0.46999998093E+01 0.  1.
       -5    1    3    3    0  502  0.12541353321E+04  0.20716334907E+03  0.27410914819E+03  0.13003576429E+04  0.46999998093E+01 0. -1.
</event>
<event>
 5   0  0.2793576E-07  0.2601037E+04  0.7818609E-02  0.8367849E-01
       -1   -1    0    0    0  501  0.00000000000E+00  0.00000000000E+00  0.11621983896E+04  0.11621983896E+04  0.50400001928E-02 0.  1.
        1   -1    0    0  501    0  0.00000000000E+00  0.00000000000E+00 -0.14553003564E+04  0.14553003564E+04  0.50400001928E-02 0. -1.
    10030    2    1    2    0    0  0.00000000000E+00  0.00000000000E+00 -0.29310196683E+03  0.26174987461E+04  0.26010365093E+04 0.  0.
        2    1    3    3  502    0 -0.16542006716E+03 -0.61652926655E+03  0.99370275806E+03  0.11810661736E+04  0.25500000920E-02 0.  1.
       -2    1    3    3    0  502  0.16542006716E+03  0.61652926655E+03 -0.12868047249E+04  0.14364325724E+04  0.25500000920E-02 0. -1.
</event>
<event>
 5   0  0.7160320E-07  0.2600080E+04  0.7818609E-02  0.8368174E-01
        2   -1    0    0  501    0  0.00000000000E+00  0.00000000000E+00  0.17151409028E+04  0.17151409028E+04  0.25500000920E-02 0. -1.
       -2   -1    0    0    0  501  0.00000000000E+00  0.00000000000E+00 -0.98540256650E+03  0.98540256650E+03  0.25500000920E-02 0.  1.
    10030    2    1    2    0    0  0.00000000000E+00  0.00000000000E+00  0.72973833633E+03  0.27005434693E+04  0.26000801892E+04 0.  0.
        1    1    3    3  502    0 -0.83625492248E+03  0.27325560462E+03  0.13589896702E+04  0.16189020491E+04  0.50400001928E-02 0. -1.
       -1    1    3    3    0  502  0.83625492248E+03 -0.27325560462E+03 -0.62925133385E+03  0.10816414203E+04  0.50400001928E-02 0.  1.
</event>
<event>
 5   0  0.6780984E-07  0.2600129E+04  0.7818609E-02  0.8368157E-01
        2   -1    0    0  501    0  0.00000000000E+00  0.00000000000E+00  0.11741322772E+04  0.11741322772E+04  0.25500000920E-02 0.  1.
       -2   -1    0    0    0  501  0.00000000000E+00  0.00000000000E+00 -0.14395040246E+04  0.14395040246E+04  0.25500000920E-02 0. -1.
    10030    2    1    2    0    0  0.00000000000E+00  0.00000000000E+00 -0.26537174733E+03  0.26136363018E+04  0.26001293340E+04 0.  0.
        2    1    3    3  502    0  0.28775651301E+03 -0.10522717672E+04 -0.84352875274E+03  0.13789925451E+04  0.25500000920E-02 0. -1.
       -2    1    3    3    0  502 -0.28775651301E+03  0.10522717672E+04  0.57815700541E+03  0.12346437566E+04  0.25500000920E-02 0.  1.
</event>
<event>
 5   0  0.2294625E-07  0.2600039E+04  0.7818609E-02  0.8368188E-01
       -3   -1    0    0    0  501  0.00000000000E+00  0.00000000000E+00  0.12523007654E+04  0.12523007695E+04  0.10100000352E+00 0.  1.
        3   -1    0    0  501    0  0.00000000000E+00  0.00000000000E+00 -0.13495565117E+04  0.13495565155E+04  0.10100000352E+00 0. -1.
    10030    2    1    2    0    0  0.00000000000E+00  0.00000000000E+00 -0.97255746292E+02  0.26018572850E+04  0.26000389711E+04 0.  0.
        3    1    3    3  502    0 -0.38357657384E+03 -0.11245492281E+04  0.47929077560E+03  0.12811953841E+04  0.10100000352E+00 0.  1.
       -3    1    3    3    0  502  0.38357657384E+03  0.11245492281E+04 -0.57654652189E+03  0.13206619009E+04  0.10100000352E+00 0. -1.
</event>
<event>
 5   0  0.2755061E-07  0.2599532E+04  0.7818609E-02  0.8368360E-01
        1   -1    0    0  501    0  0.00000000000E+00  0.00000000000E+00  0.19279061362E+04  0.19279061362E+04  0.50400001928E-02 0.  1.
       -1   -1    0    0    0  501  0.00000000000E+00  0.00000000000E+00 -0.87628315917E+03  0.87628315918E+03  0.50400001928E-02 0. -1.
    10030    2    1    2    0    0  0.00000000000E+00  0.00000000000E+00  0.10516229770E+04  0.28041892954E+04  0.25995320191E+04 0.  0.
        4    1    3    3  502    0  0.31252814943E+03 -0.11732454403E+04  0.25379858883E+02  0.12144235083E+04  0.12699999809E+01 0.  1.
       -4    1    3    3    0  502 -0.31252814943E+03  0.11732454403E+04  0.10262431181E+04  0.15897657871E+04  0.12699999809E+01 0. -1.
</event>
<event>
 5   0  0.6768478E-07  0.2599911E+04  0.7818609E-02  0.8368232E-01
       -2   -1    0    0    0  501  0.00000000000E+00  0.00000000000E+00  0.11549438395E+04  0.11549438395E+04  0.25500000920E-02 0. -1.
        2   -1    0    0  501    0  0.00000000000E+00  0.00000000000E+00 -0.14631739241E+04  0.14631739241E+04  0.25500000920E-02 0.  1.
    10030    2    1    2    0    0  0.00000000000E+00  0.00000000000E+00 -0.30823008461E+03  0.26181177635E+04  0.25999105444E+04 0.  0.
        4    1    3    3  502    0 -0.12228580423E+04 -0.10055882150E+03 -0.58652667407E+03  0.13599665513E+04  0.12699999809E+01 0.  1.
       -4    1    3    3    0  502  0.12228580423E+04  0.10055882150E+03  0.27829658946E+03  0.12581512123E+04  0.12699999809E+01 0. -1.
</event>
<event>
 5   0  0.6599814E-07  0.2602089E+04  0.7818609E-02  0.8367492E-01
        2   -1    0    0  501    0  0.00000000000E+00  0.00000000000E+00  0.16582382381E+04  0.16582382381E+04  0.25500000920E-02 0.  1.
       -2   -1    0    0    0  501  0.00000000000E+00  0.00000000000E+00 -0.10207926165E+04  0.10207926165E+04  0.25500000920E-02 0. -1.
    10030    2    1    2    0    0  0.00000000000E+00  0.00000000000E+00  0.63744562159E+03  0.26790308546E+04  0.26020894295E+04 0.  0.
        5    1    3    3  502    0 -0.26685527151E+03  0.46295399371E+02 -0.99143784579E+03  0.10277772580E+04  0.46999998093E+01 0. -1.
       -5    1    3    3    0  502  0.26685527151E+03 -0.46295399371E+02  0.16288834674E+04  0.16512535966E+04  0.46999998093E+01 0.  1.
</event>
<event>
 5   0  0.2623263E-07  0.2601427E+04  0.7818609E-02  0.8367716E-01
        1   -1    0    0  501    0  0.00000000000E+00  0.00000000000E+00  0.19987622684E+04  0.19987622684E+04  0.50400001928E-02 0.  1.
       -1   -1    0    0    0  501  0.00000000000E+00  0.00000000000E+00 -0.84645196811E+03  0.84645196812E+03  0.50400001928E-02 0. -1.
    10030    2    1    2    0    0  0.00000000000E+00  0.00000000000E+00  0.11523103003E+04  0.28452142365E+04  0.26014274973E+04 0.  0.
        1    1    3    3  502    0  0.13129836122E+03  0.68364043883E+02 -0.83720914708E+03  0.85019530588E+03  0.50400001928E-02 0. -1.
       -1    1    3    3    0  502 -0.13129836122E+03 -0.68364043883E+02  0.19895194474E+04  0.19950189307E+04  0.50400001928E-02 0.  1.
</event>
<event>
 5   0  0.6768478E-07  0.2599959E+04  0.7818609E-02  0.8368215E-01
        2   -1    0    0  501    0  0.00000000000E+00  0.00000000000E+00  0.10029578787E+04  0.10029578787E+04  0.25500000920E-02 0.  1.
       -2   -1    0    0    0  501  0.00000000000E+00  0.00000000000E+00 -0.16849630714E+04  0.16849630714E+04  0.25500000920E-02 0. -1.
    10030    2    1    2    0    0  0.00000000000E+00  0.00000000000E+00 -0.68200519270E+03  0.26879209501E+04  0.25999592210E+04 0.  0.
        4    1    3    3  502    0 -0.14159143426E+03 -0.10053096305E+04  0.49840898167E+03  0.11309768845E+04  0.12699999809E+01 0.  1.
       -4    1    3    3    0  502  0.14159143426E+03  0.10053096305E+04 -0.11804141744E+04  0.15569440656E+04  0.12699999809E+01 0. -1.
</event>
<event>
 5   0  0.2641626E-07  0.2600654E+04  0.7818609E-02  0.8367979E-01
       -1   -1    0    0    0  501  0.00000000000E+00  0.00000000000E+00  0.13903046413E+04  0.13903046413E+04  0.50400001928E-02 0. -1.
        1   -1    0    0  501    0  0.00000000000E+00  0.00000000000E+00 -0.12161721829E+04  0.12161721830E+04  0.50400001928E-02 0.  1.
    10030    2    1    2    0    0  0.00000000000E+00  0.00000000000E+00  0.17413245839E+03  0.26064768243E+04  0.26006536337E+04 0.  0.
        3    1    3    3  502    0  0.98612923170E+03  0.71819832233E+03 -0.36404173341E+03  0.12731009723E+04  0.10100000352E+00 0. -1.
       -3    1    3    3    0  502 -0.98612923170E+03 -0.71819832233E+03  0.53817419179E+03  0.13333758520E+04  0.10100000352E+00 0.  1.
</event>
<event>
 5   0  0.2793576E-07  0.2599638E+04  0.7818609E-02  0.8368324E-01
        1   -1    0    0  501    0  0.00000000000E+00  0.00000000000E+00  0.20740923359E+04  0.20740923359E+04  0.50400001928E-02 0.  1.
       -1   -1    0    0    0  501  0.00000000000E+00  0.00000000000E+00 -0.81458715849E+03  0.81458715851E+03  0.50400001928E-02 0. -1.
    10030    2    1    2    0    0  0.00000000000E+00  0.00000000000E+00  0.12595051774E+04  0.28886794944E+04  0.25996376535E+04 0.  0.
        2    1    3    3  502    0 -0.66424586891E+03  0.10037002985E+04  0.11751308657E+04  0.16821324012E+04  0.25500000920E-02 0. -1.
       -2    1    3    3    0  502  0.66424586891E+03 -0.10037002985E+04  0.84374311640E+02  0.12065470932E+04  0.25500000920E-02 0.  1.
</event>
<event>
 5   0  0.2793576E-07  0.2601109E+04  0.7818609E-02  0.8367825E-01
       -1   -1    0    0    0  501  0.00000000000E+00  0.00000000000E+00  0.10713221832E+04  0.10713221832E+04  0.50400001928E-02 0. -1.
        1   -1    0    0  501    0  0.00000000000E+00  0.00000000000E+00 -0.15788355897E+04  0.15788355897E+04  0.50400001928E-02 0.  1.
    10030    2    1    2    0    0  0.00000000000E+00  0.00000000000E+00 -0.50751340650E+03  0.26501577729E+04  0.26011086797E+04 0.  0.
        2    1    3    3  502    0 -0.63240748673E+03 -0.63890704227E+03  0.70380635755E+03  0.11417026000E+04  0.25500000920E-02 0. -1.
       -2    1    3    3    0  502  0.63240748673E+03  0.63890704227E+03 -0.12113197641E+04  0.15084551729E+04  0.25500000920E-02 0.  1.
</event>
<event>
 5   0  0.2623263E-07  0.2597170E+04  0.7818609E-02  0.8369163E-01
        1   -1    0    0  501    0  0.00000000000E+00  0.00000000000E+00  0.14606678197E+04  0.14606678197E+04  0.50400001928E-02 0.  1.
       -1   -1    0    0    0  501  0.00000000000E+00  0.00000000000E+00 -0.11544878059E+04  0.11544878059E+04  0.50400001928E-02 0. -1.
    10030    2    1    2    0    0  0.00000000000E+00  0.00000000000E+00  0.30618001377E+03  0.26151556256E+04  0.25971701417E+04 0.  0.
        1    1    3    3  502    0  0.20040578569E+03  0.35365051771E+03 -0.10887764043E+04  0.11621812363E+04  0.50400001928E-02 0. -1.
       -1    1    3    3    0  502 -0.20040578569E+03 -0.35365051771E+03  0.13949564180E+04  0.14529743892E+04  0.50400001928E-02 0.  1.
</event>
<event>
 5   0  0.2864801E-07  0.2599889E+04  0.7818609E-02  0.8368239E-01
        1   -1    0    0  501    0  0.00000000000E+00  0.00000000000E+00  0.24371758769E+04  0.24371758769E+04  0.50400001928E-02 0. -1.
       -1   -1    0    0    0  501  0.00000000000E+00  0.00000000000E+00 -0.69336659931E+03  0.69336659933E+03  0.50400001928E-02 0.  1.
    10030    2    1    2    0    0  0.00000000000E+00  0.00000000000E+00  0.17438092776E+04  0.31305424763E+04  0.25998894974E+04 0.  0.
        5    1    3    3  502    0  0.11837152987E+03 -0.10596175937E+04 -0.23543077002E+02  0.10664790811E+04  0.46999998093E+01 0.  1.
       -5    1    3    3    0  502 -0.11837152987E+03  0.10596175937E+04  0.17673523546E+04  0.20640633952E+04  0.46999998093E+01 0. -1.
</event>
<event>
 5   0  0.2793576E-07  0.2602110E+04  0.7818609E-02  0.8367485E-01
       -1   -1    0    0    0  501  0.00000000000E+00  0.00000000000E+00  0.11022330301E+04  0.11022330301E+04  0.50400001928E-02 0.  1.
        1   -1    0    0  501    0  0.00000000000E+00  0.00000000000E+00 -0.15357405613E+04  0.15357405613E+04  0.50400001928E-02 0. -1.
    10030    2    1    2    0    0  0.00000000000E+00  0.00000000000E+00 -0.43350753119E+03  0.26379735914E+04  0.26021098919E+04 0.  0.
        2    1    3    3  502    0 -0.91152981272E+03  0.91781332500E+03 -0.35823391511E+03  0.13422367291E+04  0.25500000920E-02 0.  1.
       -2    1    3    3    0  502  0.91152981272E+03 -0.91781332500E+03 -0.75273616077E+02  0.12957368623E+04  0.25500000920E-02 0. -1.
</event>
<event>
 5   0  0.6768478E-07  0.2607569E+04  0.7818609E-02  0.8365635E-01
       -2   -1    0    0    0  501  0.00000000000E+00  0.00000000000E+00  0.11412767878E+04  0.11412767878E+04  0.25500000920E-02 0.  1.
        2   -1    0    0  501    0  0.00000000000E+00  0.00000000000E+00 -0.14894323762E+04  0.14894323762E+04  0.25500000920E-02 0. -1.
    10030    2    1    2    0    0  0.00000000000E+00  0.00000000000E+00 -0.34815558843E+03  0.26307091640E+04  0.26075694414E+04 0.  0.
        4    1    3    3  502    0 -0.11671691559E+04  0.20042498945E+03 -0.72426018339E+03  0.13881672958E+04  0.12699999809E+01 0. -1.
       -4    1    3    3    0  502  0.11671691559E+04 -0.20042498945E+03  0.37610459496E+03  0.12425418682E+04  0.12699999809E+01 0.  1.
</event>
<event>
 5   0  0.6768478E-07  0.2601282E+04  0.7818609E-02  0.8367766E-01
       -2   -1    0    0    0  501  0.00000000000E+00  0.00000000000E+00  0.10816079662E+04  0.10816079662E+04  0.25500000920E-02 0. -1.
        2   -1    0    0  501    0  0.00000000000E+00  0.00000000000E+00 -0.15640298646E+04  0.15640298646E+04  0.25500000920E-02 0.  1.
    10030    2    1    2    0    0  0.00000000000E+00  0.00000000000E+00 -0.48242189841E+03  0.26456378307E+04  0.26012821153E+04 0.  0.
        4    1    3    3  502    0  0.48595343460E+03  0.76918211911E+03 -0.11865074645E+04  0.14951901047E+04  0.12699999809E+01 0.  1.
       -4    1    3    3    0  502 -0.48595343460E+03 -0.76918211911E+03  0.70408556612E+03  0.11504477260E+04  0.12699999809E+01 0. -1.
</event>
<event>
 5   0  0.7160320E-07  0.2600823E+04  0.7818609E-02  0.8367922E-01
       -2   -1    0    0    0  501  0.00000000000E+00  0.00000000000E+00  0.17942061182E+04  0.17942061182E+04  0.25500000920E-02 0. -1.
        2   -1    0    0  501    0  0.00000000000E+00  0.00000000000E+00 -0.94251717752E+03  0.94251717752E+03  0.25500000920E-02 0.  1.
    10030    2    1    2    0    0  0.00000000000E+00  0.00000000000E+00  0.85168894068E+03  0.27367232957E+04  0.26008230131E+04 0.  0.
        1    1    3    3  502    0  0.96928956014E+03  0.56595840971E+03  0.11168460836E+04  0.15834065641E+04  0.50400001928E-02 0.  1.
       -1    1    3    3    0  502 -0.96928956014E+03 -0.56595840971E+03 -0.26515714289E+03  0.11533167316E+04  0.50400001928E-02 0. -1.
</event>
<event>
 5   0  0.2755061E-07  0.2600259E+04  0.7818609E-02  0.8368113E-01
       -1   -1    0    0    0  501  0.00000000000E+00  0.00000000000E+00  0.10276344534E+04  0.10276344534E+04  0.50400001928E-02 0.  1.
        1   -1    0    0  501    0  0.00000000000E+00  0.00000000000E+00 -0.16448809328E+04  0.16448809328E+04  0.50400001928E-02 0. -1.
    10030    2    1    2    0    0  0.00000000000E+00  0.00000000000E+00 -0.61724647938E+03  0.26725153861E+04  0.26002586935E+04 0.  0.
        4    1    3    3  502    0 -0.38331587587E+03 -0.85630709650E+03  0.61646716799E+03  0.11225980074E+04  0.12699999809E+01 0.  1.
       -4    1    3    3    0  502  0.38331587587E+03  0.85630709650E+03 -0.12337136474E+04  0.15499173787E+04  0.12699999809E+01 0. -1.
</event>
<event>
 5   0  0.2755061E-07  0.2603905E+04  0.7818609E-02  0.8366876E-01
       -1   -1    0    0    0  501  0.00000000000E+00  0.00000000000E+00  0.88450235485E+03  0.88450235487E+03  0.50400001928E-02 0.  1.
        1   -1    0    0  501    0  0.00000000000E+00  0.00000000000E+00 -0.19164226662E+04  0.19164226662E+04  0.50400001928E-02 0. -1.
    10030    2    1    2    0    0  0.00000000000E+00  0.00000000000E+00 -0.10319203114E+04  0.28009250211E+04  0.26039050376E+04 0.  0.
        4    1    3    3  502    0 -0.13048425655E+03 -0.12823066739E+04 -0.71354928468E+03  0.14732585454E+04  0.12699999809E+01 0.  1.
       -4    1    3    3    0  502  0.13048425655E+03  0.12823066739E+04 -0.31837102669E+03  0.13276664757E+04  0.12699999809E+01 0. -1.
</event>
<event>
 5   0  0.6599814E-07  0.2599812E+04  0.7818609E-02  0.8368265E-01
       -2   -1    0    0    0  501  0.00000000000E+00  0.00000000000E+00  0.11203350050E+04  0.11203350050E+04  0.25500000920E-02 0. -1.
        2   -1    0    0  501    0  0.00000000000E+00  0.00000000000E+00 -0.15082589231E+04  0.15082589231E+04  0.25500000920E-02 0.  1.
    10030    2    1    2    0    0  0.00000000000E+00  0.00000000000E+00 -0.38792391811E+03  0.26285939282E+04  0.25998117380E+04 0.  0.
        5    1    3    3  502    0 -0.44240645260E+03 -0.42918411431E+02 -0.14290286817E+04  0.14965662439E+04  0.46999998093E+01 0.  1.
       -5    1    3    3    0  502  0.44240645260E+03  0.42918411431E+02  0.10411047635E+04  0.11320276843E+04  0.46999998093E+01 0. -1.
</event>
<event>
 5   0  0.2864801E-07  0.2600015E+04  0.7818609E-02  0.8368196E-01
       -1   -1    0    0    0  501  0.00000000000E+00  0.00000000000E+00  0.17537730352E+04  0.17537730352E+04  0.50400001928E-02 0.  1.
        1   -1    0    0  501    0  0.00000000000E+00  0.00000000000E+00 -0.96364776729E+03  0.96364776730E+03  0.50400001928E-02 0. -1.
    10030    2    1    2    0    0  0.00000000000E+00  0.00000000000E+00  0.79012526795E+03  0.27174208025E+04  0.26000149767E+04 0.  0.
        5    1    3    3  502    0 -0.19303600457E+03 -0.47893816728E+03  0.16419789644E+04  0.17212674623E+04  0.46999998093E+01 0.  1.
       -5    1    3    3    0  502  0.19303600457E+03  0.47893816728E+03 -0.85185369646E+03  0.99615334027E+03  0.46999998093E+01 0. -1.
</event>
<event>
 5   0  0.2864801E-07  0.2599249E+04  0.7818609E-02  0.8368456E-01
       -1   -1    0    0    0  501  0.00000000000E+00  0.00000000000E+00  0.16483004053E+04  0.16483004053E+04  0.50400001928E-02 0. -1.
        1   -1    0    0  501    0  0.00000000000E+00  0.00000000000E+00 -0.10247065042E+04  0.10247065042E+04  0.50400001928E-02 0.  1.
    10030    2    1    2    0    0  0.00000000000E+00  0.00000000000E+00  0.62359390110E+03  0.26730069096E+04  0.25992492349E+04 0.  0.
        5    1    3    3  502    0 -0.12279903078E+04 -0.34835356985E+03  0.60545284414E+02  0.12778881904E+04  0.46999998093E+01 0.  1.
       -5    1    3    3    0  502  0.12279903078E+04  0.34835356985E+03  0.56304861668E+03  0.13951187191E+04  0.46999998093E+01 0. -1.
</event>
<event>
 5   0  0.6780984E-07  0.2600238E+04  0.7818609E-02  0.8368120E-01
       -2   -1    0    0    0  501  0.00000000000E+00  0.00000000000E+00  0.13760105187E+04  0.13760105187E+04  0.25500000920E-02 0.  1.
        2   -1    0    0  501    0  0.00000000000E+00  0.00000000000E+00 -0.12284132467E+04  0.12284132467E+04  0.25500000920E-02 0. -1.
    10030    2    1    2    0    0  0.00000000000E+00  0.00000000000E+00  0.14759727198E+03  0.26044237654E+04  0.26002381036E+04 0.  0.
        2    1    3    3  502    0  0.74596817493E+03  0.10647435968E+04  0.61046143806E+02  0.13014891766E+04  0.25500000920E-02 0.  1.
       -2    1    3    3    0  502 -0.74596817493E+03 -0.10647435968E+04  0.86551128178E+02  0.13029345889E+04  0.25500000920E-02 0. -1.
</event>
<event>
 5   0  0.2641626E-07  0.2599544E+04  0.7818609E-02  0.8368356E-01
        1   -1    0    0  501    0  0.00000000000E+00  0.00000000000E+00  0.11950783940E+04  0.11950783940E+04  0.50400001928E-02 0. -1.
       -1   -1    0    0    0  501  0.00000000000E+00  0.00000000000E+00 -0.14136367385E+04  0.14136367385E+04  0.50400001928E-02 0.  1.
    10030    2    1    2    0    0  0.00000000000E+00  0.00000000000E+00 -0.21855834448E+03  0.26087151325E+04  0.25995435932E+04 0.  0.
        3    1    3    3  502    0 -0.34138886738E+02 -0.51189458049E+02  0.11936160904E+04  0.11952009059E+04  0.10100000352E+00 0. -1.
       -3    1    3    3    0  502  0.34138886738E+02  0.51189458049E+02 -0.14121744348E+04  0.14135142266E+04  0.10100000352E+00 0.  1.
</event>
<event>
 5   0  0.6526351E-07  0.2599568E+04  0.7818609E-02  0.8368348E-01
        2   -1    0    0  501    0  0.00000000000E+00  0.00000000000E+00  0.10827350398E+04  0.10827350398E+04  0.25500000920E-02 0.  1.
       -2   -1    0    0    0  501  0.00000000000E+00  0.00000000000E+00 -0.15603436235E+04  0.15603436235E+04  0.25500000920E-02 0. -1.
    10030    2    1    2    0    0  0.00000000000E+00  0.00000000000E+00 -0.47760858369E+03  0.26430786633E+04  0.25995682067E+04 0.  0.
        3    1    3    3  502    0 -0.58443818295E+03 -0.21459811538E+03 -0.13988739525E+04  0.15311657931E+04  0.10100000352E+00 0. -1.
       -3    1    3    3    0  502  0.58443818295E+03  0.21459811538E+03  0.92126536885E+03  0.11119128702E+04  0.10100000352E+00 0.  1.
</event>
<event>
 5   0  0.6768478E-07  0.2606001E+04  0.7818609E-02  0.8366166E-01
        2   -1    0    0  501    0  0.00000000000E+00  0.00000000000E+00  0.12697829299E+04  0.12697829299E+04  0.25500000920E-02 0. -1.
       -2   -1    0    0    0  501  0.00000000000E+00  0.00000000000E+00 -0.13370873808E+04  0.13370873808E+04  0.25500000920E-02 0.  1.
    10030    2    1    2    0    0  0.00000000000E+00  0.00000000000E+00 -0.67304450912E+02  0.26068703106E+04  0.26060013291E+04 0.  0.
        4    1    3    3  502    0  0.29249029975E+03  0.12494523176E+04  0.19253697078E+03  0.12975953789E+04  0.12699999809E+01 0. -1.
       -4    1    3    3    0  502 -0.29249029975E+03 -0.12494523176E+04 -0.25984142169E+03  0.13092749317E+04  0.12699999809E+01 0.  1.
</event>
<event>
 5   0  0.6768478E-07  0.2597546E+04  0.7818609E-02  0.8369035E-01
       -2   -1    0    0    0  501  0.00000000000E+00  0.00000000000E+00  0.83080470660E+03  0.83080470661E+03  0.25500000920E-02 0. -1.
        2   -1    0    0  501    0  0.00000000000E+00  0.00000000000E+00 -0.20303344792E+04  0.20303344792E+04  0.25500000920E-02 0.  1.
    10030    2    1    2    0    0  0.00000000000E+00  0.00000000000E+00 -0.11995297726E+04  0.28611391858E+04  0.25975461045E+04 0.  0.
        4    1    3    3  502    0 -0.55331265346E+03  0.90066356653E+03 -0.14309683830E+04  0.17790508364E+04  0.12699999809E+01 0.  1.
       -4    1    3    3    0  502  0.55331265346E+03 -0.90066356653E+03  0.23143861040E+03  0.10820883494E+04  0.12699999809E+01 0. -1.
</event>
<event>
 5   0  0.2793576E-07  0.2600187E+04  0.7818609E-02  0.8368138E-01
        1   -1    0    0  501    0  0.00000000000E+00  0.00000000000E+00  0.27099370275E+04  0.27099370276E+04  0.50400001928E-02 0.  1.
       -1   -1    0    0    0  501  0.00000000000E+00  0.00000000000E+00 -0.62372030876E+03  0.62372030878E+03  0.50400001928E-02 0. -1.
    10030    2    1    2    0    0  0.00000000000E+00  0.00000000000E+00  0.20862167188E+04  0.33336573363E+04  0.26001867314E+04 0.  0.
        2    1    3    3  502    0  0.57257035647E+03 -0.98947226095E+03  0.18369145619E+04  0.21635959133E+04  0.25500000920E-02 0.  1.
       -2    1    3    3    0  502 -0.57257035647E+03  0.98947226095E+03  0.24930215693E+03  0.11700614231E+04  0.25500000920E-02 0. -1.
</event>
<event>
 5   0  0.7160320E-07  0.2599761E+04  0.7818609E-02  0.8368282E-01
       -2   -1    0    0    0  501  0.00000000000E+00  0.00000000000E+00  0.24391336837E+04  0.24391336837E+04  0.25500000920E-02 0.  1.
        2   -1    0    0  501    0  0.00000000000E+00  0.00000000000E+00 -0.69274176966E+03  0.69274176967E+03  0.25500000920E-02 0. -1.
    10030    2    1    2    0    0  0.00000000000E+00  0.00000000000E+00  0.17463919140E+04  0.31318754534E+04  0.25997613617E+04 0.  0.
        1    1    3    3  502    0 -0.59354186046E+03  0.57063330767E+03  0.20849460775E+04  0.22416320970E+04  0.50400001928E-02 0.  1.
       -1    1    3    3    0  502  0.59354186046E+03 -0.57063330767E+03 -0.33855416350E+03  0.89024335639E+03  0.50400001928E-02 0. -1.
</event>
<event>
 5   0  0.2623263E-07  0.2600143E+04  0.7818609E-02  0.8368152E-01
       -1   -1    0    0    0  501  0.00000000000E+00  0.00000000000E+00  0.17980611370E+04  0.17980611370E+04  0.50400001928E-02 0.  1.
        1   -1    0    0  501    0  0.00000000000E+00  0.00000000000E+00 -0.94000503819E+03  0.94000503821E+03  0.50400001928E-02 0. -1.
    10030    2    1    2    0    0  0.00000000000E+00  0.00000000000E+00  0.85805609882E+03  0.27380661752E+04  0.26001434790E+04 0.  0.
        1    1    3    3  502    0  0.39393845607E+03  0.50685049514E+03 -0.76147171916E+03  0.99595386977E+03  0.50400001928E-02 0. -1.
       -1    1    3    3    0  502 -0.39393845607E+03 -0.50685049514E+03  0.16195278180E+04  0.17421123055E+04  0.50400001928E-02 0.  1.
</event>
<event>
 5   0  0.2864801E-07  0.2599586E+04  0.7818609E-02  0.8368342E-01
       -1   -1    0    0    0  501  0.00000000000E+00  0.00000000000E+00  0.71195321579E+03  0.71195321581E+03  0.50400001928E-02 0.  1.
        1   -1    0    0  501    0  0.00000000000E+00  0.00000000000E+00 -0.23729955754E+04  0.23729955754E+04  0.50400001928E-02 0. -1.
    10030    2    1    2    0    0  0.00000000000E+00  0.00000000000E+00 -0.16610423596E+04  0.30849487912E+04  0.25995859909E+04 0.  0.
        5    1    3    3  502    0 -0.94268010375E+03  0.27091256802E+03  0.18159536062E+03  0.99751609637E+03  0.46999998093E+01 0.  1.
       -5    1    3    3    0  502  0.94268010375E+03 -0.27091256802E+03 -0.18426377202E+04  0.20874326949E+04  0.46999998093E+01 0. -1.
</event>
<event>
 5   0  0.7160320E-07  0.2602099E+04  0.7818609E-02  0.8367489E-01
       -2   -1    0    0    0  501  0.00000000000E+00  0.00000000000E+00  0.79446823656E+03  0.79446823657E+03  0.25500000920E-02 0.  1.
        2   -1    0    0  501    0  0.00000000000E+00  0.00000000000E+00 -0.21306453527E+04  0.21306453527E+04  0.25500000920E-02 0. -1.
    10030    2    1    2    0    0  0.00000000000E+00  0.00000000000E+00 -0.13361771161E+04  0.29251135893E+04  0.26020991957E+04 0.  0.
        1    1    3    3  502    0 -0.35881255445E+03  0.21269757348E+03 -0.20534435741E+04  0.20953799701E+04  0.50400001928E-02 0. -1.
       -1    1    3    3    0  502  0.35881255445E+03 -0.21269757348E+03  0.71726645799E+03  0.82973361916E+03  0.50400001928E-02 0.  1.
</event>
<event>
 5   0  0.2864801E-07  0.2600476E+04  0.7818609E-02  0.8368040E-01
        1   -1    0    0  501    0  0.00000000000E+00  0.00000000000E+00  0.89679144362E+03  0.89679144363E+03  0.50400001928E-02 0. -1.
       -1   -1    0    0    0  501  0.00000000000E+00  0.00000000000E+00 -0.18851859559E+04  0.18851859559E+04  0.50400001928E-02 0.  1.
    10030    2    1    2    0    0  0.00000000000E+00  0.00000000000E+00 -0.98839451226E+03  0.27819773995E+04  0.26004758294E+04 0.  0.
        5    1    3    3  502    0 -0.14061845977E+03 -0.12720472879E+04 -0.73982820464E+03  0.14782576623E+04  0.46999998093E+01 0.  1.
       -5    1    3    3    0  502  0.14061845977E+03  0.12720472879E+04 -0.24856630762E+03  0.13037197372E+04  0.46999998093E+01 0. -1.
</event>
<event>
 5   0  0.2641626E-07  0.2600018E+04  0.7818609E-02  0.8368195E-01
       -1   -1    0    0    0  501  0.00000000000E+00  0.00000000000E+00  0.14813778217E+04  0.14813778217E+04  0.50400001928E-02 0.  1.
        1   -1    0    0  501    0  0.00000000000E+00  0.00000000000E+00 -0.11408456676E+04  0.11408456676E+04  0.50400001928E-02 0. -1.
    10030    2    1    2    0    0  0.00000000000E+00  0.00000000000E+00  0.34053215409E+03  0.26222234893E+04  0.26000180537E+04 0.  0.
        3    1    3    3  502    0 -0.94047139091E+03 -0.88017375594E+03  0.34735378910E+03  0.13341090446E+04  0.10100000352E+00 0.  1.
       -3    1    3    3    0  502  0.94047139091E+03  0.88017375594E+03 -0.68216350044E+01  0.12881144447E+04  0.10100000352E+00 0. -1.
</event>
<event>
 5   0  0.2755061E-07  0.2600975E+04  0.7818609E-02  0.8367870E-01
       -1   -1    0    0    0  501  0.00000000000E+00  0.00000000000E+00  0.73665624330E+03  0.73665624332E+03  0.50400001928E-02 0.  1.
        1   -1    0    0  501    0  0.00000000000E+00  0.00000000000E+00 -0.22958712703E+04  0.22958712703E+04  0.50400001928E-02 0. -1.
    10030    2    1    2    0    0  0.00000000000E+00  0.00000000000E+00 -0.15592150270E+04  0.30325275136E+04  0.26009751287E+04 0.  0.
        4    1    3    3  502    0  0.11196635977E+04  0.39527720521E+03 -0.13980677855E+04  0.18342534685E+04  0.12699999809E+01 0. -1.
       -4    1    3    3    0  502 -0.11196635977E+04 -0.39527720521E+03 -0.16114724147E+03  0.11982740451E+04  0.12699999809E+01 0.  1.
</event>
<event>
 5   0  0.6599814E-07  0.2599787E+04  0.7818609E-02  0.8368273E-01
        2   -1    0    0  501    0  0.00000000000E+00  0.00000000000E+00  0.23888539865E+04  0.23888539865E+04  0.25500000920E-02 0. -1.
       -2   -1    0    0    0  501  0.00000000000E+00  0.00000000000E+00 -0.70733642037E+03  0.70733642037E+03  0.25500000920E-02 0.  1.
    10030    2    1    2    0    0  0.00000000000E+00  0.00000000000E+00  0.16815175661E+04  0.30961904069E+04  0.25997872433E+04 0.  0.
        5    1    3    3  502    0 -0.18105166563E+03 -0.12871693063E+04  0.82788731794E+03  0.15411048082E+04  0.46999998093E+01 0.  1.
       -5    1    3    3    0  502  0.18105166563E+03  0.12871693063E+04  0.85363024819E+03  0.15550855987E+04  0.46999998093E+01 0. -1.
</event>
<event>
 5   0  0.7160320E-07  0.2600427E+04  0.7818609E-02  0.8368056E-01
       -2   -1    0    0    0  501  0.00000000000E+00  0.00000000000E+00  0.13301152552E+04  0.13301152552E+04  0.25500000920E-02 0. -1.
        2   -1    0    0  501    0  0.00000000000E+00  0.00000000000E+00 -0.12709837045E+04  0.12709837045E+04  0.25500000920E-02 0.  1.
    10030    2    1    2    0    0  0.00000000000E+00  0.00000000000E+00  0.59131550731E+02  0.26010989597E+04  0.26004267453E+04 0.  0.
        1    1    3    3  502    0  0.48848000732E+03 -0.25509400334E+03  0.12075242868E+04  0.13273283585E+04  0.50400001928E-02 0. -1.
       -1    1    3    3    0  502 -0.48848000732E+03  0.25509400334E+03 -0.11483927361E+04  0.12737706012E+04  0.50400001928E-02 0.  1.
</event>
<event>
 5   0  0.2793576E-07  0.2600639E+04  0.7818609E-02  0.8367984E-01
        1   -1    0    0  501    0  0.00000000000E+00  0.00000000000E+00  0.14665915908E+04  0.14665915908E+04  0.50400001928E-02 0.  1.
       -1   -1    0    0    0  501  0.00000000000E+00  0.00000000000E+00 -0.11528980200E+04  0.11528980200E+04  0.50400001928E-02 0. -1.
    10030    2    1    2    0    0  0.00000000000E+00  0.00000000000E+00  0.31369357074E+03  0.26194896108E+04  0.26006387994E+04 0.  0.
        2    1    3    3  502    0  0.70025743039E+03 -0.96604951367E+03 -0.36383193652E+03  0.12473916024E+04  0.25500000920E-02 0. -1.
       -2    1    3    3    0  502 -0.70025743039E+03  0.96604951367E+03  0.67752550726E+03  0.13720980084E+04  0.25500000920E-02 0.  1.
</event>
<event>
 5   0  0.2864801E-07  0.2599492E+04  0.7818609E-02  0.8368374E-01
        1   -1    0    0  501    0  0.00000000000E+00  0.00000000000E+00  0.84830580086E+03  0.84830580087E+03  0.50400001928E-02 0. -1.
       -1   -1    0    0    0  501  0.00000000000E+00  0.00000000000E+00 -0.19914273595E+04  0.19914273595E+04  0.50400001928E-02 0.  1.
    10030    2    1    2    0    0  0.00000000000E+00  0.00000000000E+00 -0.11431215587E+04  0.28397331604E+04  0.25994917820E+04 0.  0.
        5    1    3    3  502    0  0.60983627277E+02  0.72699087404E+03  0.60352956436E+03  0.94683935215E+03  0.46999998093E+01 0. -1.
       -5    1    3    3    0  502 -0.60983627277E+02 -0.72699087404E+03 -0.17466511230E+04  0.18928938083E+04  0.46999998093E+01 0.  1.
</event>
<event>
 5   0  0.6526351E-07  0.2600155E+04  0.7818609E-02  0.8368149E-01
       -2   -1    0    0    0  501  0.00000000000E+00  0.00000000000E+00  0.85885829862E+03  0.85885829863E+03  0.25500000920E-02 0.  1.
        2   -1    0    0  501    0  0.00000000000E+00  0.00000000000E+00 -0.19679625951E+04  0.19679625951E+04  0.25500000920E-02 0. -1.
    10030    2    1    2    0    0  0.00000000000E+00  0.00000000000E+00 -0.11091042964E+04  0.28268208937E+04  0.26001546155E+04 0.  0.
        3    1    3    3  502    0 -0.15942748622E+03  0.12661163623E+04 -0.28443098085E+03  0.13074282999E+04  0.10100000352E+00 0.  1.
       -3    1    3    3    0  502  0.15942748622E+03 -0.12661163623E+04 -0.82467331558E+03  0.15193925938E+04  0.10100000352E+00 0. -1.
</event>
<event>
 5   0  0.7160320E-07  0.2599924E+04  0.7818609E-02  0.8368227E-01
       -2   -1    0    0    0  501  0.00000000000E+00  0.00000000000E+00  0.11635246239E+04  0.11635246239E+04  0.25500000920E-02 0.  1.
        2   -1    0    0  501    0  0.00000000000E+00  0.00000000000E+00 -0.14523981507E+04  0.14523981507E+04  0.25500000920E-02 0. -1.
    10030    2    1    2    0    0  0.00000000000E+00  0.00000000000E+00 -0.28887352672E+03  0.26159227746E+04  0.25999238543E+04 0.  0.
        1    1    3    3  502    0  0.50780430971E+03 -0.11943528036E+04 -0.21944195982E+03  0.13162441301E+04  0.50400001928E-02 0.  1.
       -1    1    3    3    0  502 -0.50780430971E+03  0.11943528036E+04 -0.69431566900E+02  0.12996786445E+04  0.50400001928E-02 0. -1.
</event>
<event>
 5   0  0.2294625E-07  0.2600044E+04  0.7818609E-02  0.8368186E-01
        3   -1    0    0  501    0  0.00000000000E+00  0.00000000000E+00  0.10509064395E+04  0.10509064443E+04  0.10100000352E+00 0. -1.
       -3   -1    0    0    0  501  0.00000000000E+00  0.00000000000E+00 -0.16081899593E+04  0.16081899625E+04  0.10100000352E+00 0.  1.
    10030    2    1    2    0    0  0.00000000000E+00  0.00000000000E+00 -0.55728351984E+03  0.26590964068E+04  0.26000439956E+04 0.  0.
        4    1    3    3  502    0 -0.45988321559E+03  0.50950026111E+03  0.85050486131E+03  0.10929058606E+04  0.12699999809E+01 0. -1.
       -4    1    3    3    0  502  0.45988321559E+03 -0.50950026111E+03 -0.14077883812E+04  0.15661905462E+04  0.12699999809E+01 0.  1.
</event>
<event>
 5   0  0.2793576E-07  0.2587242E+04  0.7818609E-02  0.8372548E-01
       -1   -1    0    0    0  501  0.00000000000E+00  0.00000000000E+00  0.11884436293E+04  0.11884436293E+04  0.50400001928E-02 0. -1.
        1   -1    0    0  501    0  0.00000000000E+00  0.00000000000E+00 -0.14081064932E+04  0.14081064932E+04  0.50400001928E-02 0.  1.
    10030    2    1    2    0    0  0.00000000000E+00  0.00000000000E+00 -0.21966286391E+03  0.25965501225E+04  0.25872419224E+04 0.  0.
        2    1    3    3  502    0 -0.64888018898E+02  0.11470060327E+04  0.48696916056E+03  0.12477869439E+04  0.25500000920E-02 0. -1.
       -2    1    3    3    0  502  0.64888018898E+02 -0.11470060327E+04 -0.70663202447E+03  0.13487631786E+04  0.25500000920E-02 0.  1.
</event>
<event>
 5   0  0.2864801E-07  0.2598453E+04  0.7818609E-02  0.8368727E-01
        1   -1    0    0  501    0  0.00000000000E+00  0.00000000000E+00  0.12081498007E+04  0.12081498007E+04  0.50400001928E-02 0. -1.
       -1   -1    0    0    0  501  0.00000000000E+00  0.00000000000E+00 -0.13971691541E+04  0.13971691541E+04  0.50400001928E-02 0.  1.
    10030    2    1    2    0    0  0.00000000000E+00  0.00000000000E+00 -0.18901935344E+03  0.26053189548E+04  0.25984531052E+04 0.  0.
        5    1    3    3  502    0 -0.17939648989E+03 -0.48678666329E+03  0.10997813098E+04  0.12160120787E+04  0.46999998093E+01 0. -1.
       -5    1    3    3    0  502  0.17939648989E+03  0.48678666329E+03 -0.12888006633E+04  0.13893068760E+04  0.46999998093E+01 0.  1.
</event>
<event>
 5   0  0.2793576E-07  0.2600019E+04  0.7818609E-02  0.8368195E-01
        1   -1    0    0  501    0  0.00000000000E+00  0.00000000000E+00  0.14358709316E+04  0.14358709316E+04  0.50400001928E-02 0. -1.
       -1   -1    0    0    0  501  0.00000000000E+00  0.00000000000E+00 -0.11770034594E+04  0.11770034594E+04  0.50400001928E-02 0.  1.
    10030    2    1    2    0    0  0.00000000000E+00  0.00000000000E+00  0.25886747214E+03  0.26128743910E+04  0.26000192721E+04 0.  0.
        2    1    3    3  502    0  0.10614496075E+04 -0.18228337612E+03  0.86112876855E+03  0.13789290245E+04  0.25500000920E-02 0. -1.
       -2    1    3    3    0  502 -0.10614496075E+04  0.18228337612E+03 -0.60226129641E+03  0.12339453666E+04  0.25500000920E-02 0.  1.
</event>
<event>
 5   0  0.2864801E-07  0.2599541E+04  0.7818609E-02  0.8368357E-01
        1   -1    0    0  501    0  0.00000000000E+00  0.00000000000E+00  0.12921480161E+04  0.12921480161E+04  0.50400001928E-02 0. -1.
       -1   -1    0    0    0  501  0.00000000000E+00  0.00000000000E+00 -0.13074374836E+04  0.13074374836E+04  0.50400001928E-02 0.  1.
    10030    2    1    2    0    0  0.00000000000E+00  0.00000000000E+00 -0.15289467495E+02  0.25995854996E+04  0.25995405367E+04 0.  0.
        5    1    3    3  502    0 -0.10534021369E+04  0.60855601731E+03 -0.46523780152E+03  0.13024840844E+04  0.46999998093E+01 0.  1.
       -5    1    3    3    0  502  0.10534021369E+04 -0.60855601731E+03  0.44994833403E+03  0.12971014152E+04  0.46999998093E+01 0. -1.
</event>
<event>
 5   0  0.2793576E-07  0.2601949E+04  0.7818609E-02  0.8367539E-01
       -1   -1    0    0    0  501  0.00000000000E+00  0.00000000000E+00  0.11617014878E+04  0.11617014878E+04  0.50400001928E-02 0.  1.
        1   -1    0    0  501    0  0.00000000000E+00  0.00000000000E+00 -0.14569448656E+04  0.14569448656E+04  0.50400001928E-02 0. -1.
    10030    2    1    2    0    0  0.00000000000E+00  0.00000000000E+00 -0.29524337777E+03  0.26186463535E+04  0.26019492832E+04 0.  0.
        2    1    3    3  502    0 -0.72426790279E+03  0.96705898890E+03  0.33793461964E+03  0.12545783715E+04  0.25500000920E-02 0. -1.
       -2    1    3    3    0  502  0.72426790279E+03 -0.96705898890E+03 -0.63317799740E+03  0.13640679820E+04  0.25500000920E-02 0.  1.
</event>
<event>
 5   0  0.6526351E-07  0.2603469E+04  0.7818609E-02  0.8367024E-01
       -2   -1    0    0    0  501  0.00000000000E+00  0.00000000000E+00  0.22546386542E+04  0.22546386542E+04  0.25500000920E-02 0. -1.
        2   -1    0    0  501    0  0.00000000000E+00  0.00000000000E+00 -0.75156756597E+03  0.75156756598E+03  0.25500000920E-02 0.  1.
    10030    2    1    2    0    0  0.00000000000E+00  0.00000000000E+00  0.15030710882E+04  0.30062062202E+04  0.26034694433E+04 0.  0.
        3    1    3    3  502    0  0.47533963096E+03  0.80023536387E+03  0.18023619559E+04  0.20285051227E+04  0.10100000352E+00 0. -1.
       -3    1    3    3    0  502 -0.47533963096E+03 -0.80023536387E+03 -0.29929086771E+03  0.97770109749E+03  0.10100000352E+00 0.  1.
</event>
<event>
 5   0  0.6780984E-07  0.2599927E+04  0.7818609E-02  0.8368226E-01
        2   -1    0    0  501    0  0.00000000000E+00  0.00000000000E+00  0.86811300305E+03  0.86811300305E+03  0.25500000920E-02 0.  1.
       -2   -1    0    0    0  501  0.00000000000E+00  0.00000000000E+00 -0.19466416817E+04  0.19466416817E+04  0.25500000920E-02 0. -1.
    10030    2    1    2    0    0  0.00000000000E+00  0.00000000000E+00 -0.10785286786E+04  0.28147546847E+04  0.25999268883E+04 0.  0.
        2    1    3    3  502    0  0.11516694242E+04 -0.10617162721E+03  0.10331923757E+03  0.11611587927E+04  0.25500000920E-02 0.  1.
       -2    1    3    3    0  502 -0.11516694242E+04  0.10617162721E+03 -0.11818479162E+04  0.16535958920E+04  0.25500000920E-02 0. -1.
</event>
<event>
 5   0  0.7160320E-07  0.2604118E+04  0.7818609E-02  0.8366804E-01
        2   -1    0    0  501    0  0.00000000000E+00  0.00000000000E+00  0.14689027665E+04  0.14689027665E+04  0.25500000920E-02 0.  1.
       -2   -1    0    0    0  501  0.00000000000E+00  0.00000000000E+00 -0.11541661297E+04  0.11541661297E+04  0.25500000920E-02 0. -1.
    10030    2    1    2    0    0  0.00000000000E+00  0.00000000000E+00  0.31473663680E+03  0.26230688962E+04  0.26041181393E+04 0.  0.
        1    1    3    3  502    0  0.17476955042E+03 -0.67948147187E+03  0.12622179906E+04  0.14441030857E+04  0.50400001928E-02 0. -1.
       -1    1    3    3    0  502 -0.17476955042E+03  0.67948147187E+03 -0.94748135383E+03  0.11789658105E+04  0.50400001928E-02 0.  1.
</event>
<event>
 5   0  0.2793576E-07  0.2599471E+04  0.7818609E-02  0.8368381E-01
       -1   -1    0    0    0  501  0.00000000000E+00  0.00000000000E+00  0.20632060329E+04  0.20632060329E+04  0.50400001928E-02 0. -1.
        1   -1    0    0  501    0  0.00000000000E+00  0.00000000000E+00 -0.81878034837E+03  0.81878034839E+03  0.50400001928E-02 0.  1.
    10030    2    1    2    0    0  0.00000000000E+00  0.00000000000E+00  0.12444256846E+04  0.28819863813E+04  0.25994711419E+04 0.  0.
        2    1    3    3  502    0  0.16784388652E+03  0.10190852176E+04  0.14970227247E+04  0.18187312306E+04  0.25500000920E-02 0. -1.
       -2    1    3    3    0  502 -0.16784388652E+03 -0.10190852176E+04 -0.25259704013E+03  0.10632551507E+04  0.25500000920E-02 0.  1.
</event>
<event>
 5   0  0.6768478E-07  0.2599838E+04  0.7818609E-02  0.8368256E-01
        2   -1    0    0  501    0  0.00000000000E+00  0.00000000000E+00  0.15834243708E+04  0.15834243708E+04  0.25500000920E-02 0. -1.
       -2   -1    0    0    0  501  0.00000000000E+00  0.00000000000E+00 -0.10671741323E+04  0.10671741323E+04  0.25500000920E-02 0.  1.
    10030    2    1    2    0    0  0.00000000000E+00  0.00000000000E+00  0.51625023853E+03  0.26505985031E+04  0.25998380942E+04 0.  0.
        4    1    3    3  502    0  0.89208154098E+03 -0.76599260778E+03  0.82323398002E+03  0.14353640478E+04  0.12699999809E+01 0. -1.
       -4    1    3    3    0  502 -0.89208154098E+03  0.76599260778E+03 -0.30698374149E+03  0.12152344553E+04  0.12699999809E+01 0.  1.
</event>
<event>
 5   0  0.2623263E-07  0.2602952E+04  0.7818609E-02  0.8367199E-01
        1   -1    0    0  501    0  0.00000000000E+00  0.00000000000E+00  0.14573806407E+04  0.14573806407E+04  0.50400001928E-02 0. -1.
       -1   -1    0    0    0  501  0.00000000000E+00  0.00000000000E+00 -0.11622495086E+04  0.11622495087E+04  0.50400001928E-02 0.  1.
    10030    2    1    2    0    0  0.00000000000E+00  0.00000000000E+00  0.29513113205E+03  0.26196301494E+04  0.26029521191E+04 0.  0.
        1    1    3    3  502    0 -0.79569116334E+03 -0.72504220700E+02 -0.88637222951E+03  0.11933302220E+04  0.50400001928E-02 0.  1.
       -1    1    3    3    0  502  0.79569116334E+03  0.72504220700E+02  0.11815033616E+04  0.14262999274E+04  0.50400001928E-02 0. -1.
</event>
<event>
 5   0  0.2755061E-07  0.2600050E+04  0.7818609E-02  0.8368184E-01
        1   -1    0    0  501    0  0.00000000000E+00  0.00000000000E+00  0.11771831068E+04  0.11771831068E+04  0.50400001928E-02 0. -1.
       -1   -1    0    0    0  501  0.00000000000E+00  0.00000000000E+00 -0.14356854664E+04  0.14356854664E+04  0.50400001928E-02 0.  1.
    10030    2    1    2    0    0  0.00000000000E+00  0.00000000000E+00 -0.25850235955E+03  0.26128685732E+04  0.26000497516E+04 0.  0.
        4    1    3    3  502    0  0.10990271922E+04  0.69206094186E+03 -0.71926553284E+02  0.13007629140E+04  0.12699999809E+01 0.  1.
       -4    1    3    3    0  502 -0.10990271922E+04 -0.69206094186E+03 -0.18657580627E+03  0.13121056592E+04  0.12699999809E+01 0. -1.
</event>
<event>
 5   0  0.6526351E-07  0.2597813E+04  0.7818609E-02  0.8368945E-01
       -2   -1    0    0    0  501  0.00000000000E+00  0.00000000000E+00  0.90274414168E+03  0.90274414169E+03  0.25500000920E-02 0.  1.
        2   -1    0    0  501    0  0.00000000000E+00  0.00000000000E+00 -0.18689210523E+04  0.18689210523E+04  0.25500000920E-02 0. -1.
    10030    2    1    2    0    0  0.00000000000E+00  0.00000000000E+00 -0.96617691062E+03  0.27716651940E+04  0.25978125654E+04 0.  0.
        3    1    3    3  502    0 -0.95954527225E+00  0.69077506878E+03 -0.16566968310E+04  0.17949416471E+04  0.10100000352E+00 0. -1.
       -3    1    3    3    0  502  0.95954527225E+00 -0.69077506878E+03  0.69051992040E+03  0.97672354689E+03  0.10100000352E+00 0.  1.
</event>
<event>
 5   0  0.2864801E-07  0.2598281E+04  0.7818609E-02  0.8368785E-01
       -1   -1    0    0    0  501  0.00000000000E+00  0.00000000000E+00  0.11984827330E+04  0.11984827330E+04  0.50400001928E-02 0.  1.
        1   -1    0    0  501    0  0.00000000000E+00  0.00000000000E+00 -0.14082527924E+04  0.14082527924E+04  0.50400001928E-02 0. -1.
    10030    2    1    2    0    0  0.00000000000E+00  0.00000000000E+00 -0.20977005939E+03  0.26067355254E+04  0.25982814747E+04 0.  0.
        5    1    3    3  502    0 -0.11069601615E+04 -0.11396594884E+03 -0.77743591289E+03  0.13574894936E+04  0.46999998093E+01 0. -1.
       -5    1    3    3    0  502  0.11069601615E+04  0.11396594884E+03  0.56766585350E+03  0.12492460318E+04  0.46999998093E+01 0.  1.
</event>
<event>
 5   0  0.6526351E-07  0.2599650E+04  0.7818609E-02  0.8368320E-01
        2   -1    0    0  501    0  0.00000000000E+00  0.00000000000E+00  0.94386172607E+03  0.94386172607E+03  0.25500000920E-02 0. -1.
       -2   -1    0    0    0  501  0.00000000000E+00  0.00000000000E+00 -0.17900350953E+04  0.17900350953E+04  0.25500000920E-02 0.  1.
    10030    2    1    2    0    0  0.00000000000E+00  0.00000000000E+00 -0.84617336925E+03  0.27338968214E+04  0.25996504494E+04 0.  0.
        3    1    3    3  502    0 -0.16020128123E+03  0.70312461611E+03  0.71419149435E+03  0.10149473765E+04  0.10100000352E+00 0. -1.
       -3    1    3    3    0  502  0.16020128123E+03 -0.70312461611E+03 -0.15603648636E+04  0.17189494449E+04  0.10100000352E+00 0.  1.
</event>
<event>
 5   0  0.2755061E-07  0.2608953E+04  0.7818609E-02  0.8365166E-01
       -1   -1    0    0    0  501  0.00000000000E+00  0.00000000000E+00  0.87335268057E+03  0.87335268058E+03  0.50400001928E-02 0. -1.
        1   -1    0    0  501    0  0.00000000000E+00  0.00000000000E+00 -0.19484213166E+04  0.19484213166E+04  0.50400001928E-02 0.  1.
    10030    2    1    2    0    0  0.00000000000E+00  0.00000000000E+00 -0.10750686360E+04  0.28217739972E+04  0.26089530312E+04 0.  0.
        4    1    3    3  502    0 -0.11204954521E+04  0.64437270445E+03 -0.72775329198E+03  0.14833585903E+04  0.12699999809E+01 0. -1.
       -4    1    3    3    0  502  0.11204954521E+04 -0.64437270445E+03 -0.34731534407E+03  0.13384154069E+04  0.12699999809E+01 0.  1.
</event>
<event>
 5   0  0.2864801E-07  0.2587330E+04  0.7818609E-02  0.8372518E-01
       -1   -1    0    0    0  501  0.00000000000E+00  0.00000000000E+00  0.11276572724E+04  0.11276572724E+04  0.50400001928E-02 0. -1.
        1   -1    0    0  501    0  0.00000000000E+00  0.00000000000E+00 -0.14841110190E+04  0.14841110190E+04  0.50400001928E-02 0.  1.
    10030    2    1    2    0    0  0.00000000000E+00  0.00000000000E+00 -0.35645374661E+03  0.26117682914E+04  0.25873295759E+04 0.  0.
        5    1    3    3  502    0  0.64136894051E+03 -0.87215616676E+03  0.53665444241E+03  0.12083172504E+04  0.46999998093E+01 0. -1.
       -5    1    3    3    0  502 -0.64136894051E+03  0.87215616676E+03 -0.89310818902E+03  0.14034510410E+04  0.46999998093E+01 0.  1.
</event>
<event>
 5   0  0.6599814E-07  0.2601057E+04  0.7818609E-02  0.8367842E-01
        2   -1    0    0  501    0  0.00000000000E+00  0.00000000000E+00  0.14808917497E+04  0.14808917497E+04  0.25500000920E-02 0. -1.
       -2   -1    0    0    0  501  0.00000000000E+00  0.00000000000E+00 -0.11421321616E+04  0.11421321616E+04  0.25500000920E-02 0.  1.
    10030    2    1    2    0    0  0.00000000000E+00  0.00000000000E+00  0.33875958813E+03  0.26230239113E+04  0.26010567815E+04 0.  0.
        5    1    3    3  502    0  0.10616355409E+03  0.14716932220E+03  0.14680533777E+04  0.14792336933E+04  0.46999998093E+01 0. -1.
       -5    1    3    3    0  502 -0.10616355409E+03 -0.14716932220E+03 -0.11292937896E+04  0.11437902180E+04  0.46999998093E+01 0.  1.
</event>
<event>
 5   0  0.2623263E-07  0.2598849E+04  0.7818609E-02  0.8368592E-01
        1   -1    0    0  501    0  0.00000000000E+00  0.00000000000E+00  0.15321201182E+04  0.15321201182E+04  0.50400001928E-02 0. -1.
       -1   -1    0    0    0  501  0.00000000000E+00  0.00000000000E+00 -0.11020701230E+04  0.11020701230E+04  0.50400001928E-02 0.  1.
    10030    2    1    2    0    0  0.00000000000E+00  0.00000000000E+00  0.43004999518E+03  0.26341902412E+04  0.25988488275E+04 0.  0.
        1    1    3    3  502    0 -0.43319840551E+03 -0.82842074745E+03  0.11298292936E+04  0.14664433252E+04  0.50400001928E-02 0. -1.
       -1    1    3    3    0  502  0.43319840551E+03  0.82842074745E+03 -0.69977929837E+03  0.11677469160E+04  0.50400001928E-02 0.  1.
</event>
<event>
 5   0  0.6599814E-07  0.2603949E+04  0.7818609E-02  0.8366861E-01
        2   -1    0    0  501    0  0.00000000000E+00  0.00000000000E+00  0.11997185070E+04  0.11997185070E+04  0.25500000920E-02 0.  1.
       -2   -1    0    0    0  501  0.00000000000E+00  0.00000000000E+00 -0.14129458178E+04  0.14129458178E+04  0.25500000920E-02 0. -1.
    10030    2    1    2    0    0  0.00000000000E+00  0.00000000000E+00 -0.21322731079E+03  0.26126643248E+04  0.26039487299E+04 0.  0.
        5    1    3    3  502    0 -0.40366386282E+03  0.22901682565E+03 -0.13271233748E+04  0.14059415928E+04  0.46999998093E+01 0. -1.
       -5    1    3    3    0  502  0.40366386282E+03 -0.22901682565E+03  0.11138960640E+04  0.12067227320E+04  0.46999998093E+01 0.  1.
</event>
<event>
 5   0  0.2793576E-07  0.2600749E+04  0.7818609E-02  0.8367947E-01
        1   -1    0    0  501    0  0.00000000000E+00  0.00000000000E+00  0.78734543599E+03  0.78734543601E+03  0.50400001928E-02 0.  1.
       -1   -1    0    0    0  501  0.00000000000E+00  0.00000000000E+00 -0.21476891473E+04  0.21476891473E+04  0.50400001928E-02 0. -1.
    10030    2    1    2    0    0  0.00000000000E+00  0.00000000000E+00 -0.13603437113E+04  0.29350345833E+04  0.26007485446E+04 0.  0.
        2    1    3    3  502    0  0.16895063289E+03  0.76254305607E+02 -0.21327033250E+04  0.21407434475E+04  0.25500000920E-02 0. -1.
       -2    1    3    3    0  502 -0.16895063289E+03 -0.76254305607E+02  0.77235961373E+03  0.79429113579E+03  0.25500000920E-02 0.  1.
</event>
<event>
 5   0  0.2641626E-07  0.2600091E+04  0.7818609E-02  0.8368170E-01
       -1   -1    0    0    0  501  0.00000000000E+00  0.00000000000E+00  0.11244060202E+04  0.11244060202E+04  0.50400001928E-02 0.  1.
        1   -1    0    0  501    0  0.00000000000E+00  0.00000000000E+00 -0.15031211489E+04  0.15031211489E+04  0.50400001928E-02 0. -1.
    10030    2    1    2    0    0  0.00000000000E+00  0.00000000000E+00 -0.37871512868E+03  0.26275271691E+04  0.26000911284E+04 0.  0.
        3    1    3    3  502    0  0.99932351076E+03 -0.37451925653E+02  0.65011149740E+03  0.11927678295E+04  0.10100000352E+00 0.  1.
       -3    1    3    3    0  502 -0.99932351076E+03  0.37451925653E+02 -0.10288266261E+04  0.14347593396E+04  0.10100000352E+00 0. -1.
</event>
<event>
 5   0  0.2864801E-07  0.2599633E+04  0.7818609E-02  0.8368326E-01
       -1   -1    0    0    0  501  0.00000000000E+00  0.00000000000E+00  0.16827311031E+04  0.16827311031E+04  0.50400001928E-02 0. -1.
        1   -1    0    0  501    0  0.00000000000E+00  0.00000000000E+00 -0.10040358985E+04  0.10040358985E+04  0.50400001928E-02 0.  1.
    10030    2    1    2    0    0  0.00000000000E+00  0.00000000000E+00  0.67869520460E+03  0.26867670017E+04  0.25996326165E+04 0.  0.
        5    1    3    3  502    0 -0.37033568692E+03 -0.53058238138E+03  0.15044456344E+04  0.16376950086E+04  0.46999998093E+01 0. -1.
       -5    1    3    3    0  502  0.37033568692E+03  0.53058238138E+03 -0.82575042976E+03  0.10490719931E+04  0.46999998093E+01 0.  1.
</event>
<event>
 5   0  0.6780984E-07  0.2600609E+04  0.7818609E-02  0.8367994E-01
        2   -1    0    0  501    0  0.00000000000E+00  0.00000000000E+00  0.13295810214E+04  0.13295810214E+04  0.25500000920E-02 0.  1.
       -2   -1    0    0    0  501  0.00000000000E+00  0.00000000000E+00 -0.12716725085E+04  0.12716725086E+04  0.25500000920E-02 0. -1.
    10030    2    1    2    0    0  0.00000000000E+00  0.00000000000E+00  0.57908512842E+02  0.26012535299E+04  0.26006088770E+04 0.  0.
        2    1    3    3  502    0 -0.39001274889E+02  0.10502271569E+04 -0.73693356523E+03  0.12835767450E+04  0.25500000920E-02 0. -1.
       -2    1    3    3    0  502  0.39001274889E+02 -0.10502271569E+04  0.79484207807E+03  0.13176767850E+04  0.25500000920E-02 0.  1.
</event>
<event>
 5   0  0.7160320E-07  0.2599610E+04  0.7818609E-02  0.8368334E-01
       -2   -1    0    0    0  501  0.00000000000E+00  0.00000000000E+00  0.17164280957E+04  0.17164280957E+04  0.25500000920E-02 0.  1.
        2   -1    0    0  501    0  0.00000000000E+00  0.00000000000E+00 -0.98430723452E+03  0.98430723452E+03  0.25500000920E-02 0. -1.
    10030    2    1    2    0    0  0.00000000000E+00  0.00000000000E+00  0.73212086118E+03  0.27007353302E+04  0.25996096570E+04 0.  0.
        1    1    3    3  502    0  0.12365178308E+04 -0.40038341419E+03  0.35102801258E+03  0.13462926465E+04  0.50400001928E-02 0.  1.
       -1    1    3    3    0  502 -0.12365178308E+04  0.40038341419E+03  0.38109284861E+03  0.13544426838E+04  0.50400001928E-02 0. -1.
</event>
<event>
 5   0  0.2623263E-07  0.2600027E+04  0.7818609E-02  0.8368192E-01
       -1   -1    0    0    0  501  0.00000000000E+00  0.00000000000E+00  0.11547685679E+04  0.11547685679E+04  0.50400001928E-02 0.  1.
        1   -1    0    0  501    0  0.00000000000E+00  0.00000000000E+00 -0.14635267645E+04  0.14635267645E+04  0.50400001928E-02 0. -1.
    10030    2    1    2    0    0  0.00000000000E+00  0.00000000000E+00 -0.30875819654E+03  0.26182953324E+04  0.26000266968E+04 0.  0.
        1    1    3    3  502    0  0.29233705575E+03  0.12642802376E+04 -0.23347543981E+03  0.13184749730E+04  0.50400001928E-02 0.  1.
       -1    1    3    3    0  502 -0.29233705575E+03 -0.12642802376E+04 -0.75282756728E+02  0.12998203594E+04  0.50400001928E-02 0. -1.
</event>
<event>
 5   0  0.2641626E-07  0.2597710E+04  0.7818609E-02  0.8368979E-01
       -1   -1    0    0    0  501  0.00000000000E+00  0.00000000000E+00  0.10751293495E+04  0.10751293495E+04  0.50400001928E-02 0.  1.
        1   -1    0    0  501    0  0.00000000000E+00  0.00000000000E+00 -0.15691364322E+04  0.15691364322E+04  0.50400001928E-02 0. -1.
    10030    2    1    2    0    0  0.00000000000E+00  0.00000000000E+00 -0.49400708275E+03  0.26442657817E+04  0.25977102468E+04 0.  0.
        3    1    3    3  502    0 -0.29914861893E+03  0.68200875241E+03  0.83621003671E+03  0.11197647388E+04  0.10100000352E+00 0.  1.
       -3    1    3    3    0  502  0.29914861893E+03 -0.68200875241E+03 -0.13302171195E+04  0.15245010429E+04  0.10100000352E+00 0. -1.
</event>
<event>
 5   0  0.2641626E-07  0.2600353E+04  0.7818609E-02  0.8368081E-01
        1   -1    0    0  501    0  0.00000000000E+00  0.00000000000E+00  0.10653247037E+04  0.10653247037E+04  0.50400001928E-02 0.  1.
       -1   -1    0    0    0  501  0.00000000000E+00  0.00000000000E+00 -0.15868017732E+04  0.15868017732E+04  0.50400001928E-02 0. -1.
    10030    2    1    2    0    0  0.00000000000E+00  0.00000000000E+00 -0.52147706954E+03  0.26521264769E+04  0.26003531520E+04 0.  0.
        3    1    3    3  502    0 -0.95747192945E+03  0.41145175996E+03 -0.10536581867E+04  0.14819718725E+04  0.10100000352E+00 0. -1.
       -3    1    3    3    0  502  0.95747192945E+03 -0.41145175996E+03  0.53218111713E+03  0.11701546044E+04  0.10100000352E+00 0.  1.
</event>
<event>
 5   0  0.2793576E-07  0.2599848E+04  0.7818609E-02  0.8368253E-01
       -1   -1    0    0    0  501  0.00000000000E+00  0.00000000000E+00  0.11486583122E+04  0.11486583122E+04  0.50400001928E-02 0. -1.
        1   -1    0    0  501    0  0.00000000000E+00  0.00000000000E+00 -0.14711094655E+04  0.14711094655E+04  0.50400001928E-02 0.  1.
    10030    2    1    2    0    0  0.00000000000E+00  0.00000000000E+00 -0.32245115330E+03  0.26197677776E+04  0.25998477768E+04 0.  0.
        2    1    3    3  502    0  0.26687934325E+03  0.12699057396E+04 -0.23873662541E+03  0.13194242486E+04  0.25500000920E-02 0.  1.
       -2    1    3    3    0  502 -0.26687934325E+03 -0.12699057396E+04 -0.83714527883E+02  0.13003435291E+04  0.25500000920E-02 0. -1.
</event>
<event>
 5   0  0.7160320E-07  0.2599212E+04  0.7818609E-02  0.8368469E-01
       -2   -1    0    0    0  501  0.00000000000E+00  0.00000000000E+00  0.11668487338E+04  0.11668487338E+04  0.25500000920E-02 0. -1.
        2   -1    0    0  501    0  0.00000000000E+00  0.00000000000E+00 -0.14474681511E+04  0.14474681511E+04  0.25500000920E-02 0.  1.
    10030    2    1    2    0    0  0.00000000000E+00  0.00000000000E+00 -0.28061941725E+03  0.26143168849E+04  0.25992124802E+04 0.  0.
        1    1    3    3  502    0  0.10127243538E+03 -0.10403413187E+04  0.63645409624E+03  0.12237810189E+04  0.50400001928E-02 0. -1.
       -1    1    3    3    0  502 -0.10127243538E+03  0.10403413187E+04 -0.91707351350E+03  0.13905358660E+04  0.50400001928E-02 0.  1.
</event>
<event>
 5   0  0.6526351E-07  0.2599410E+04  0.7818609E-02  0.8368402E-01
        2   -1    0    0  501    0  0.00000000000E+00  0.00000000000E+00  0.15255735426E+04  0.15255735426E+04  0.25500000920E-02 0. -1.
       -2   -1    0    0    0  501  0.00000000000E+00  0.00000000000E+00 -0.11072769737E+04  0.11072769737E+04  0.25500000920E-02 0.  1.
    10030    2    1    2    0    0  0.00000000000E+00  0.00000000000E+00  0.41829656885E+03  0.26328505163E+04  0.25994095140E+04 0.  0.
        3    1    3    3  502    0 -0.15573430627E+03 -0.12841822329E+04  0.33668588257E+03  0.13366879124E+04  0.10100000352E+00 0. -1.
       -3    1    3    3    0  502  0.15573430627E+03  0.12841822329E+04  0.81610686275E+02  0.12961626039E+04  0.10100000352E+00 0.  1.
</event>
<event>
 5   0  0.2641626E-07  0.2599772E+04  0.7818609E-02  0.8368279E-01
        1   -1    0    0  501    0  0.00000000000E+00  0.00000000000E+00  0.15298604474E+04  0.15298604474E+04  0.50400001928E-02 0. -1.
       -1   -1    0    0    0  501  0.00000000000E+00  0.00000000000E+00 -0.11044824924E+04  0.11044824924E+04  0.50400001928E-02 0.  1.
    10030    2    1    2    0    0  0.00000000000E+00  0.00000000000E+00  0.42537795498E+03  0.26343429398E+04  0.25997723592E+04 0.  0.
        3    1    3    3  502    0  0.24791501122E+03  0.12204860349E+04 -0.16462805439E+03  0.12562445704E+04  0.10100000352E+00 0.  1.
       -3    1    3    3    0  502 -0.24791501122E+03 -0.12204860349E+04  0.59000600936E+03  0.13780983693E+04  0.10100000352E+00 0. -1.
</event>
<event>
 5   0  0.6768478E-07  0.2600511E+04  0.7818609E-02  0.8368028E-01
       -2   -1    0    0    0  501  0.00000000000E+00  0.00000000000E+00  0.85470927811E+03  0.85470927812E+03  0.25500000920E-02 0.  1.
        2   -1    0    0  501    0  0.00000000000E+00  0.00000000000E+00 -0.19780570894E+04  0.19780570894E+04  0.25500000920E-02 0. -1.
    10030    2    1    2    0    0  0.00000000000E+00  0.00000000000E+00 -0.11233478113E+04  0.28327663675E+04  0.26005105245E+04 0.  0.
        4    1    3    3  502    0 -0.69772923010E+03 -0.10607204054E+04 -0.86728023509E+03  0.15375729173E+04  0.12699999809E+01 0.  1.
       -4    1    3    3    0  502  0.69772923010E+03  0.10607204054E+04 -0.25606757618E+03  0.12951934502E+04  0.12699999809E+01 0. -1.
</event>
<event>
 5   0  0.2641626E-07  0.2600370E+04  0.7818609E-02  0.8368076E-01
       -1   -1    0    0    0  501  0.00000000000E+00  0.00000000000E+00  0.12499794491E+04  0.12499794491E+04  0.50400001928E-02 0.  1.
        1   -1    0    0  501    0  0.00000000000E+00  0.00000000000E+00 -0.13524071159E+04  0.13524071159E+04  0.50400001928E-02 0. -1.
    10030    2    1    2    0    0  0.00000000000E+00  0.00000000000E+00 -0.10242766682E+03  0.26023865650E+04  0.26003700519E+04 0.  0.
        3    1    3    3  502    0 -0.74850878152E+03 -0.32278306764E+03  0.96250146833E+03  0.12612943318E+04  0.10100000352E+00 0.  1.
       -3    1    3    3    0  502  0.74850878152E+03  0.32278306764E+03 -0.10649291351E+04  0.13410922332E+04  0.10100000352E+00 0. -1.
</event>
<event>
 5   0  0.2641626E-07  0.2600567E+04  0.7818609E-02  0.8368009E-01
       -1   -1    0    0    0  501  0.00000000000E+00  0.00000000000E+00  0.17183165197E+04  0.17183165197E+04  0.50400001928E-02 0. -1.
        1   -1    0    0  501    0  0.00000000000E+00  0.00000000000E+00 -0.98394947261E+03  0.98394947262E+03  0.50400001928E-02 0.  1.
    10030    2    1    2    0    0  0.00000000000E+00  0.00000000000E+00  0.73436704704E+03  0.27022659923E+04  0.26005665793E+04 0.  0.
        3    1    3    3  502    0  0.10500000688E+04 -0.76279371946E+03  0.45019650443E+03  0.13736925805E+04  0.10100000352E+00 0.  1.
       -3    1    3    3    0  502 -0.10500000688E+04  0.76279371946E+03  0.28417054262E+03  0.13285734118E+04  0.10100000352E+00 0. -1.
</event>
<event>
 5   0  0.6599814E-07  0.2600502E+04  0.7818609E-02  0.8368031E-01
        2   -1    0    0  501    0  0.00000000000E+00  0.00000000000E+00  0.16182334332E+04  0.16182334332E+04  0.25500000920E-02 0.  1.
       -2   -1    0    0    0  501  0.00000000000E+00  0.00000000000E+00 -0.10447521661E+04  0.10447521661E+04  0.25500000920E-02 0. -1.
    10030    2    1    2    0    0  0.00000000000E+00  0.00000000000E+00  0.57348126704E+03  0.26629855993E+04  0.26005021704E+04 0.  0.
        5    1    3    3  502    0  0.11759943947E+03  0.70035999867E+03  0.14020833113E+04  0.15716849104E+04  0.46999998093E+01 0.  1.
       -5    1    3    3    0  502 -0.11759943947E+03 -0.70035999867E+03 -0.82860204421E+03  0.10913006889E+04  0.46999998093E+01 0. -1.
</event>
<event>
 5   0  0.2755061E-07  0.2600438E+04  0.7818609E-02  0.8368053E-01
       -1   -1    0    0    0  501  0.00000000000E+00  0.00000000000E+00  0.84607744563E+03  0.84607744565E+03  0.50400001928E-02 0.  1.
        1   -1    0    0  501    0  0.00000000000E+00  0.00000000000E+00 -0.19981258384E+04  0.19981258384E+04  0.50400001928E-02 0. -1.
    10030    2    1    2    0    0  0.00000000000E+00  0.00000000000E+00 -0.11520483928E+04  0.28442032841E+04  0.26004378135E+04 0.  0.
        4    1    3    3  502    0  0.25117455030E+03  0.11429939094E+04 -0.11957453860E+04  0.16731205493E+04  0.12699999809E+01 0. -1.
       -4    1    3    3    0  502 -0.25117455030E+03 -0.11429939094E+04  0.43696993157E+02  0.11710827348E+04  0.12699999809E+01 0.  1.
</event>
<event>
 5   0  0.2641626E-07  0.2599389E+04  0.7818609E-02  0.8368409E-01
        1   -1    0    0  501    0  0.00000000000E+00  0.00000000000E+00  0.28625303206E+04  0.28625303206E+04  0.50400001928E-02 0. -1.
       -1   -1    0    0    0  501  0.00000000000E+00  0.00000000000E+00 -0.59010912048E+03  0.59010912051E+03  0.50400001928E-02 0.  1.
    10030    2    1    2    0    0  0.00000000000E+00  0.00000000000E+00  0.22724212002E+04  0.34526394412E+04  0.25993885819E+04 0.  0.
        3    1    3    3  502    0 -0.39834733050E+03  0.68550642157E+02 -0.50450175384E+03  0.64645325900E+03  0.10100000352E+00 0.  1.
       -3    1    3    3    0  502  0.39834733050E+03 -0.68550642157E+02  0.27769229540E+04  0.28061861821E+04  0.10100000352E+00 0. -1.
</event>
<event>
 5   0  0.6780984E-07  0.2600113E+04  0.7818609E-02  0.8368163E-01
       -2   -1    0    0    0  501  0.00000000000E+00  0.00000000000E+00  0.10448782298E+04  0.10448782298E+04  0.25500000920E-02 0. -1.
        2   -1    0    0  501    0  0.00000000000E+00  0.00000000000E+00 -0.16175543462E+04  0.16175543462E+04  0.25500000920E-02 0.  1.
    10030    2    1    2    0    0  0.00000000000E+00  0.00000000000E+00 -0.57267611633E+03  0.26624325760E+04  0.26001133220E+04 0.  0.
        2    1    3    3  502    0  0.68251216924E+03 -0.10599878580E+04 -0.61135747274E+03  0.14011263611E+04  0.25500000920E-02 0.  1.
       -2    1    3    3    0  502 -0.68251216924E+03  0.10599878580E+04  0.38681356403E+02  0.12613062149E+04  0.25500000920E-02 0. -1.
</event>
<event>
 5   0  0.2755061E-07  0.2600668E+04  0.7818609E-02  0.8367974E-01
        1   -1    0    0  501    0  0.00000000000E+00  0.00000000000E+00  0.15751814978E+04  0.15751814978E+04  0.50400001928E-02 0.  1.
       -1   -1    0    0    0  501  0.00000000000E+00  0.00000000000E+00 -0.10734433684E+04  0.10734433684E+04  0.50400001928E-02 0. -1.
    10030    2    1    2    0    0  0.00000000000E+00  0.00000000000E+00  0.50173812940E+03  0.26486248662E+04  0.26006677087E+04 0.  0.
        4    1    3    3  502    0  0.21208746954E+03 -0.10569649311E+04 -0.48966421228E+03  0.11840306643E+04  0.12699999809E+01 0. -1.
       -4    1    3    3    0  502 -0.21208746954E+03  0.10569649311E+04  0.99140234167E+03  0.14645942019E+04  0.12699999809E+01 0.  1.
</event>
<event>
 5   0  0.7160320E-07  0.2600086E+04  0.7818609E-02  0.8368172E-01
       -2   -1    0    0    0  501  0.00000000000E+00  0.00000000000E+00  0.15539669398E+04  0.15539669398E+04  0.25500000920E-02 0.  1.
        2   -1    0    0  501    0  0.00000000000E+00  0.00000000000E+00 -0.10876112888E+04  0.10876112888E+04  0.25500000920E-02 0. -1.
    10030    2    1    2    0    0  0.00000000000E+00  0.00000000000E+00  0.46635565104E+03  0.26415782285E+04  0.26000861417E+04 0.  0.
        1    1    3    3  502    0  0.11660334309E+04  0.57100538675E+03  0.30080486211E+03  0.13327282839E+04  0.50400001928E-02 0. -1.
       -1    1    3    3    0  502 -0.11660334309E+04 -0.57100538675E+03  0.16555078892E+03  0.13088499446E+04  0.50400001928E-02 0.  1.
</event>
<event>
 5   0  0.2793576E-07  0.2599374E+04  0.7818609E-02  0.8368414E-01
        1   -1    0    0  501    0  0.00000000000E+00  0.00000000000E+00  0.16229117911E+04  0.16229117911E+04  0.50400001928E-02 0. -1.
       -1   -1    0    0    0  501  0.00000000000E+00  0.00000000000E+00 -0.10408370724E+04  0.10408370724E+04  0.50400001928E-02 0.  1.
    10030    2    1    2    0    0  0.00000000000E+00  0.00000000000E+00  0.58207471872E+03  0.26637488636E+04  0.25993743536E+04 0.  0.
        2    1    3    3  502    0  0.12362014810E+04  0.36146600223E+03  0.11255457154E+03  0.12928728878E+04  0.25500000920E-02 0.  1.
       -2    1    3    3    0  502 -0.12362014810E+04 -0.36146600223E+03  0.46952014719E+03  0.13708759758E+04  0.25500000920E-02 0. -1.
</event>
<event>
 5   0  0.2755061E-07  0.2601396E+04  0.7818609E-02  0.8367727E-01
       -1   -1    0    0    0  501  0.00000000000E+00  0.00000000000E+00  0.65795805858E+03  0.65795805860E+03  0.50400001928E-02 0.  1.
        1   -1    0    0  501    0  0.00000000000E+00  0.00000000000E+00 -0.25713120823E+04  0.25713120823E+04  0.50400001928E-02 0. -1.
    10030    2    1    2    0    0  0.00000000000E+00  0.00000000000E+00 -0.19133540238E+04  0.32292701409E+04  0.26013961680E+04 0.  0.
        4    1    3    3  502    0 -0.35735169792E+03 -0.68331872535E+03 -0.22569622680E+04  0.23850587013E+04  0.12699999809E+01 0. -1.
       -4    1    3    3    0  502  0.35735169792E+03  0.68331872535E+03  0.34360824426E+03  0.84421143965E+03  0.12699999809E+01 0.  1.
</event>
<event>
 5   0  0.6526351E-07  0.2599544E+04  0.7818609E-02  0.8368356E-01
        2   -1    0    0  501    0  0.00000000000E+00  0.00000000000E+00  0.68861492497E+03  0.68861492498E+03  0.25500000920E-02 0.  1.
       -2   -1    0    0    0  501  0.00000000000E+00  0.00000000000E+00 -0.24533407065E+04  0.24533407065E+04  0.25500000920E-02 0. -1.
    10030    2    1    2    0    0  0.00000000000E+00  0.00000000000E+00 -0.17647257815E+04  0.31419556315E+04  0.25995438265E+04 0.  0.
        3    1    3    3  502    0  0.37713668728E+03 -0.11930463684E+04 -0.45706810467E+03  0.13321047183E+04  0.10100000352E+00 0.  1.
       -3    1    3    3    0  502 -0.37713668728E+03  0.11930463684E+04 -0.13076576768E+04  0.18098509132E+04  0.10100000352E+00 0. -1.
</event>
<event>
 5   0  0.2641626E-07  0.2600680E+04  0.7818609E-02  0.8367970E-01
        1   -1    0    0  501    0  0.00000000000E+00  0.00000000000E+00  0.17365357742E+04  0.17365357742E+04  0.50400001928E-02 0. -1.
       -1   -1    0    0    0  501  0.00000000000E+00  0.00000000000E+00 -0.97371092840E+03  0.97371092841E+03  0.50400001928E-02 0.  1.
    10030    2    1    2    0    0  0.00000000000E+00  0.00000000000E+00  0.76282484579E+03  0.27102467026E+04  0.26006798041E+04 0.  0.
        3    1    3    3  502    0 -0.10487106177E+04  0.48712189818E+03 -0.23845979458E+03  0.11806543894E+04  0.10100000352E+00 0.  1.
       -3    1    3    3    0  502  0.10487106177E+04 -0.48712189818E+03  0.10012846404E+04  0.15295923132E+04  0.10100000352E+00 0. -1.
</event>
<event>
 5   0  0.6780984E-07  0.2599938E+04  0.7818609E-02  0.8368222E-01
        2   -1    0    0  501    0  0.00000000000E+00  0.00000000000E+00  0.16789816989E+04  0.16789816989E+04  0.25500000920E-02 0.  1.
       -2   -1    0    0    0  501  0.00000000000E+00  0.00000000000E+00 -0.10065145496E+04  0.10065145496E+04  0.25500000920E-02 0. -1.
    10030    2    1    2    0    0  0.00000000000E+00  0.00000000000E+00  0.67246714932E+03  0.26854962485E+04  0.25999380826E+04 0.  0.
        2    1    3    3  502    0  0.74931973705E+03 -0.36951803144E+02  0.14328071117E+04  0.16173378508E+04  0.25500000920E-02 0.  1.
       -2    1    3    3    0  502 -0.74931973705E+03  0.36951803144E+02 -0.76033996242E+03  0.10681583977E+04  0.25500000920E-02 0. -1.
</event>
<event>
 5   0  0.6526351E-07  0.2600984E+04  0.7818609E-02  0.8367867E-01
        2   -1    0    0  501    0  0.00000000000E+00  0.00000000000E+00  0.18319398272E+04  0.18319398273E+04  0.25500000920E-02 0.  1.
       -2   -1    0    0    0  501  0.00000000000E+00  0.00000000000E+00 -0.92321812515E+03  0.92321812515E+03  0.25500000920E-02 0. -1.
    10030    2    1    2    0    0  0.00000000000E+00  0.00000000000E+00  0.90872170210E+03  0.27551579524E+04  0.26009844695E+04 0.  0.
        3    1    3    3  502    0  0.67244010280E+03 -0.23000492516E+03 -0.69932637595E+03  0.99706336195E+03  0.10100000352E+00 0. -1.
       -3    1    3    3    0  502 -0.67244010280E+03  0.23000492516E+03  0.16080480780E+04  0.17580945905E+04  0.10100000352E+00 0.  1.
</event>
<event>
 5   0  0.6780984E-07  0.2600306E+04  0.7818609E-02  0.8368097E-01
       -2   -1    0    0    0  501  0.00000000000E+00  0.00000000000E+00  0.14677377631E+04  0.14677377631E+04  0.25500000920E-02 0. -1.
        2   -1    0    0  501    0  0.00000000000E+00  0.00000000000E+00 -0.11517029526E+04  0.11517029526E+04  0.25500000920E-02 0.  1.
    10030    2    1    2    0    0  0.00000000000E+00  0.00000000000E+00  0.31603481052E+03  0.26194407157E+04  0.26003060707E+04 0.  0.
        2    1    3    3  502    0 -0.28549435287E+03  0.11872449820E+04 -0.29174338880E+03  0.12554568403E+04  0.25500000920E-02 0.  1.
       -2    1    3    3    0  502  0.28549435287E+03 -0.11872449820E+04  0.60777819932E+03  0.13639838754E+04  0.25500000920E-02 0. -1.
</event>
<event>
 5   0  0.6780984E-07  0.2598872E+04  0.7818609E-02  0.8368584E-01
       -2   -1    0    0    0  501  0.00000000000E+00  0.00000000000E+00  0.84843587060E+03  0.84843587060E+03  0.25500000920E-02 0.  1.
        2   -1    0    0  501    0  0.00000000000E+00  0.00000000000E+00 -0.19901730252E+04  0.19901730252E+04  0.25500000920E-02 0. -1.
    10030    2    1    2    0    0  0.00000000000E+00  0.00000000000E+00 -0.11417371546E+04  0.28386088959E+04  0.25988722041E+04 0.  0.
        2    1    3    3  502    0 -0.67842410034E+03 -0.10999525279E+04 -0.71894496932E+03  0.14788633110E+04  0.25500000920E-02 0.  1.
       -2    1    3    3    0  502  0.67842410034E+03  0.10999525279E+04 -0.42279218533E+03  0.13597455849E+04  0.25500000920E-02 0. -1.
</event>
<event>
 5   0  0.2864801E-07  0.2595588E+04  0.7818609E-02  0.8369701E-01
       -1   -1    0    0    0  501  0.00000000000E+00  0.00000000000E+00  0.69032642620E+03  0.69032642622E+03  0.50400001928E-02 0. -1.
        1   -1    0    0  501    0  0.00000000000E+00  0.00000000000E+00 -0.24398165071E+04  0.24398165072E+04  0.50400001928E-02 0.  1.
    10030    2    1    2    0    0  0.00000000000E+00  0.00000000000E+00 -0.17494900809E+04  0.31301429334E+04  0.25955884188E+04 0.  0.
        5    1    3    3  502    0  0.32328286805E+03  0.19457869469E+03  0.62270702972E+03  0.72812005607E+03  0.46999998093E+01 0. -1.
       -5    1    3    3    0  502 -0.32328286805E+03 -0.19457869469E+03 -0.23721971107E+04  0.24020228773E+04  0.46999998093E+01 0.  1.
</event>
<event>
 5   0  0.2623263E-07  0.2600846E+04  0.7818609E-02  0.8367914E-01
        1   -1    0    0  501    0  0.00000000000E+00  0.00000000000E+00  0.17796367913E+04  0.17796367914E+04  0.50400001928E-02 0.  1.
       -1   -1    0    0    0  501  0.00000000000E+00  0.00000000000E+00 -0.95024984369E+03  0.95024984371E+03  0.50400001928E-02 0. -1.
    10030    2    1    2    0    0  0.00000000000E+00  0.00000000000E+00  0.82938694765E+03  0.27298866351E+04  0.26008456954E+04 0.  0.
        1    1    3    3  502    0 -0.11273661124E+04  0.24174577146E+03 -0.21656440166E+03  0.11731562170E+04  0.50400001928E-02 0. -1.
       -1    1    3    3    0  502  0.11273661124E+04 -0.24174577146E+03  0.10459513493E+04  0.15567304181E+04  0.50400001928E-02 0.  1.
</event>
<event>
 5   0  0.6780984E-07  0.2599035E+04  0.7818609E-02  0.8368529E-01
        2   -1    0    0  501    0  0.00000000000E+00  0.00000000000E+00  0.22691439948E+04  0.22691439948E+04  0.25500000920E-02 0. -1.
       -2   -1    0    0    0  501  0.00000000000E+00  0.00000000000E+00 -0.74422169049E+03  0.74422169049E+03  0.25500000920E-02 0.  1.
    10030    2    1    2    0    0  0.00000000000E+00  0.00000000000E+00  0.15249223043E+04  0.30133656853E+04  0.25990353439E+04 0.  0.
        2    1    3    3  502    0 -0.27615786149E+03 -0.60101723583E+03 -0.53446025500E+03  0.85037206351E+03  0.25500000920E-02 0.  1.
       -2    1    3    3    0  502  0.27615786149E+03  0.60101723583E+03  0.20593825593E+04  0.21629936217E+04  0.25500000920E-02 0. -1.
</event>
<event>
 5   0  0.6780984E-07  0.2602074E+04  0.7818609E-02  0.8367497E-01
       -2   -1    0    0    0  501  0.00000000000E+00  0.00000000000E+00  0.10882737556E+04  0.10882737556E+04  0.25500000920E-02 0.  1.
        2   -1    0    0  501    0  0.00000000000E+00  0.00000000000E+00 -0.15553964706E+04  0.15553964706E+04  0.25500000920E-02 0. -1.
    10030    2    1    2    0    0  0.00000000000E+00  0.00000000000E+00 -0.46712271495E+03  0.26436702262E+04  0.26020739102E+04 0.  0.
        2    1    3    3  502    0 -0.47041751634E+03  0.56128670969E+03 -0.13260942228E+04  0.15148799616E+04  0.25500000920E-02 0. -1.
       -2    1    3    3    0  502  0.47041751634E+03 -0.56128670969E+03  0.85897150787E+03  0.11287902646E+04  0.25500000920E-02 0.  1.
</event>
<event>
 5   0  0.6526351E-07  0.2599620E+04  0.7818609E-02  0.8368330E-01
       -2   -1    0    0    0  501  0.00000000000E+00  0.00000000000E+00  0.10663106515E+04  0.10663106515E+04  0.25500000920E-02 0. -1.
        2   -1    0    0  501    0  0.00000000000E+00  0.00000000000E+00 -0.15844406733E+04  0.15844406733E+04  0.25500000920E-02 0.  1.
    10030    2    1    2    0    0  0.00000000000E+00  0.00000000000E+00 -0.51813002179E+03  0.26507513247E+04  0.25996199465E+04 0.  0.
        3    1    3    3  502    0 -0.80142649073E+03 -0.24125061905E+03  0.75499017925E+03  0.11271630149E+04  0.10100000352E+00 0. -1.
       -3    1    3    3    0  502  0.80142649073E+03  0.24125061905E+03 -0.12731202010E+04  0.15235883098E+04  0.10100000352E+00 0.  1.
</event>
<event>
 5   0  0.2793576E-07  0.2599298E+04  0.7818609E-02  0.8368440E-01
       -1   -1    0    0    0  501  0.00000000000E+00  0.00000000000E+00  0.58762605170E+03  0.58762605172E+03  0.50400001928E-02 0. -1.
        1   -1    0    0  501    0  0.00000000000E+00  0.00000000000E+00 -0.28744251230E+04  0.28744251230E+04  0.50400001928E-02 0.  1.
    10030    2    1    2    0    0  0.00000000000E+00  0.00000000000E+00 -0.22867990713E+04  0.34620511747E+04  0.25992976636E+04 0.  0.
        2    1    3    3  502    0  0.44401351712E+03  0.52118528679E+03 -0.26147348486E+04  0.27028911253E+04  0.25500000920E-02 0.  1.
       -2    1    3    3    0  502 -0.44401351712E+03 -0.52118528679E+03  0.32793577735E+03  0.75916004941E+03  0.25500000920E-02 0. -1.
</event>
<event>
 5   0  0.2623263E-07  0.2600207E+04  0.7818609E-02  0.8368131E-01
       -1   -1    0    0    0  501  0.00000000000E+00  0.00000000000E+00  0.72113982301E+03  0.72113982303E+03  0.50400001928E-02 0.  1.
        1   -1    0    0  501    0  0.00000000000E+00  0.00000000000E+00 -0.23438849113E+04  0.23438849113E+04  0.50400001928E-02 0. -1.
    10030    2    1    2    0    0  0.00000000000E+00  0.00000000000E+00 -0.16227450883E+04  0.30650247343E+04  0.26002067226E+04 0.  0.
        1    1    3    3  502    0 -0.18608971397E+03 -0.48418797745E+03  0.59387849674E+03  0.78851699288E+03  0.50400001928E-02 0.  1.
       -1    1    3    3    0  502  0.18608971397E+03  0.48418797745E+03 -0.22166235850E+04  0.22765077414E+04  0.50400001928E-02 0. -1.
</event>
<event>
 5   0  0.6780984E-07  0.2596776E+04  0.7818609E-02  0.8369297E-01
        2   -1    0    0  501    0  0.00000000000E+00  0.00000000000E+00  0.19694161039E+04  0.19694161039E+04  0.25500000920E-02 0. -1.
       -2   -1    0    0    0  501  0.00000000000E+00  0.00000000000E+00 -0.85599584306E+03  0.85599584306E+03  0.25500000920E-02 0.  1.
    10030    2    1    2    0    0  0.00000000000E+00  0.00000000000E+00  0.11134202608E+04  0.28254119470E+04  0.25967764618E+04 0.  0.
        2    1    3    3  502    0 -0.13030208768E+03 -0.10073543511E+04 -0.32324295282E+03  0.10659396931E+04  0.25500000920E-02 0.  1.
       -2    1    3    3    0  502  0.13030208768E+03  0.10073543511E+04  0.14366632137E+04  0.17594722539E+04  0.25500000920E-02 0. -1.
</event>
<event>
 5   0  0.6599814E-07  0.2597788E+04  0.7818609E-02  0.8368953E-01
        2   -1    0    0  501    0  0.00000000000E+00  0.00000000000E+00  0.12876805992E+04  0.12876805992E+04  0.25500000920E-02 0. -1.
       -2   -1    0    0    0  501  0.00000000000E+00  0.00000000000E+00 -0.13102048235E+04  0.13102048235E+04  0.25500000920E-02 0.  1.
    10030    2    1    2    0    0  0.00000000000E+00  0.00000000000E+00 -0.22524224354E+02  0.25978854227E+04  0.25977877759E+04 0.  0.
        5    1    3    3  502    0  0.80884060167E+03  0.61229288908E+03 -0.82245075045E+03  0.13059758910E+04  0.46999998093E+01 0.  1.
       -5    1    3    3    0  502 -0.80884060167E+03 -0.61229288908E+03  0.79992652610E+03  0.12919095317E+04  0.46999998093E+01 0. -1.
</event>
<event>
 5   0  0.2793576E-07  0.2599898E+04  0.7818609E-02  0.8368236E-01
       -1   -1    0    0    0  501  0.00000000000E+00  0.00000000000E+00  0.65470485177E+03  0.65470485179E+03  0.50400001928E-02 0. -1.
        1   -1    0    0  501    0  0.00000000000E+00  0.00000000000E+00 -0.25811123806E+04  0.25811123806E+04  0.50400001928E-02 0.  1.
    10030    2    1    2    0    0  0.00000000000E+00  0.00000000000E+00 -0.19264075288E+04  0.32358172323E+04  0.25998975353E+04 0.  0.
        2    1    3    3  502    0 -0.52617022213E+03  0.17895570027E+03  0.49938581928E+03  0.74717229728E+03  0.25500000920E-02 0. -1.
       -2    1    3    3    0  502  0.52617022213E+03 -0.17895570027E+03 -0.24257933481E+04  0.24886449351E+04  0.25500000920E-02 0.  1.
</event>
<event>
 5   0  0.2864801E-07  0.2599827E+04  0.7818609E-02  0.8368260E-01
       -1   -1    0    0    0  501  0.00000000000E+00  0.00000000000E+00  0.12586633175E+04  0.12586633175E+04  0.50400001928E-02 0.  1.
        1   -1    0    0  501    0  0.00000000000E+00  0.00000000000E+00 -0.13425155829E+04  0.13425155829E+04  0.50400001928E-02 0. -1.
    10030    2    1    2    0    0  0.00000000000E+00  0.00000000000E+00 -0.83852265351E+02  0.26011789004E+04  0.25998270076E+04 0.  0.
        5    1    3    3  502    0 -0.10461410009E+04 -0.55982498723E+03 -0.57318059635E+03  0.13177151043E+04  0.46999998093E+01 0. -1.
       -5    1    3    3    0  502  0.10461410009E+04  0.55982498723E+03  0.48932833100E+03  0.12834637960E+04  0.46999998093E+01 0.  1.
</event>
<event>
 5   0  0.6768478E-07  0.2599461E+04  0.7818609E-02  0.8368384E-01
        2   -1    0    0  501    0  0.00000000000E+00  0.00000000000E+00  0.14580908197E+04  0.14580908197E+04  0.25500000920E-02 0. -1.
       -2   -1    0    0    0  501  0.00000000000E+00  0.00000000000E+00 -0.11585689981E+04  0.11585689981E+04  0.25500000920E-02 0.  1.
    10030    2    1    2    0    0  0.00000000000E+00  0.00000000000E+00  0.29952182160E+03  0.26166598178E+04  0.25994605749E+04 0.  0.
        4    1    3    3  502    0 -0.12375016919E+03  0.10096343468E+04 -0.66467927095E+03  0.12151031909E+04  0.12699999809E+01 0.  1.
       -4    1    3    3    0  502  0.12375016919E+03 -0.10096343468E+04  0.96420109255E+03  0.14015566269E+04  0.12699999809E+01 0. -1.
</event>
<event>
 5   0  0.2641626E-07  0.2599330E+04  0.7818609E-02  0.8368429E-01
       -1   -1    0    0    0  501  0.00000000000E+00  0.00000000000E+00  0.71172739782E+03  0.71172739784E+03  0.50400001928E-02 0. -1.
        1   -1    0    0  501    0  0.00000000000E+00  0.00000000000E+00 -0.23732803868E+04  0.23732803868E+04  0.50400001928E-02 0.  1.
    10030    2    1    2    0    0  0.00000000000E+00  0.00000000000E+00 -0.16615529890E+04  0.30850077847E+04  0.25993296629E+04 0.  0.
        3    1    3    3  502    0 -0.11369834810E+04 -0.33473881056E+03 -0.14636535432E+04  0.18833648643E+04  0.10100000352E+00 0. -1.
       -3    1    3    3    0  502  0.11369834810E+04  0.33473881056E+03 -0.19789944577E+03  0.12016429204E+04  0.10100000352E+00 0.  1.
</event>
<event>
 5   0  0.2793576E-07  0.2602434E+04  0.7818609E-02  0.8367375E-01
        1   -1    0    0  501    0  0.00000000000E+00  0.00000000000E+00  0.11503222346E+04  0.11503222346E+04  0.50400001928E-02 0. -1.
       -1   -1    0    0    0  501  0.00000000000E+00  0.00000000000E+00 -0.14719050075E+04  0.14719050075E+04  0.50400001928E-02 0.  1.
    10030    2    1    2    0    0  0.00000000000E+00  0.00000000000E+00 -0.32158277288E+03  0.26222272422E+04  0.26024335207E+04 0.  0.
        2    1    3    3  502    0 -0.41915979183E+03 -0.92834727958E+03 -0.97666687042E+03  0.14111703577E+04  0.25500000920E-02 0.  1.
       -2    1    3    3    0  502  0.41915979183E+03  0.92834727958E+03  0.65508409754E+03  0.12110568845E+04  0.25500000920E-02 0. -1.
</event>
<event>
 5   0  0.6780984E-07  0.2598014E+04  0.7818609E-02  0.8368876E-01
       -2   -1    0    0    0  501  0.00000000000E+00  0.00000000000E+00  0.96434272377E+03  0.96434272378E+03  0.25500000920E-02 0. -1.
        2   -1    0    0  501    0  0.00000000000E+00  0.00000000000E+00 -0.17498129802E+04  0.17498129802E+04  0.25500000920E-02 0.  1.
    10030    2    1    2    0    0  0.00000000000E+00  0.00000000000E+00 -0.78547025640E+03  0.27141557040E+04  0.25980141766E+04 0.  0.
        2    1    3    3  502    0  0.11788172180E+03 -0.70772578131E+03  0.73856279282E+03  0.10296829030E+04  0.25500000920E-02 0. -1.
       -2    1    3    3    0  502 -0.11788172180E+03  0.70772578131E+03 -0.15240330492E+04  0.16844728009E+04  0.25500000920E-02 0.  1.
</event>
<event>
 5   0  0.6599814E-07  0.2600112E+04  0.7818609E-02  0.8368163E-01
        2   -1    0    0  501    0  0.00000000000E+00  0.00000000000E+00  0.22684395234E+04  0.22684395234E+04  0.25500000920E-02 0. -1.
       -2   -1    0    0    0  501  0.00000000000E+00  0.00000000000E+00 -0.74506961368E+03  0.74506961368E+03  0.25500000920E-02 0.  1.
    10030    2    1    2    0    0  0.00000000000E+00  0.00000000000E+00  0.15233699097E+04  0.30135091371E+04  0.26001118125E+04 0.  0.
        5    1    3    3  502    0  0.27294768294E+03 -0.92086165946E+03 -0.25376455671E+03  0.99343101105E+03  0.46999998093E+01 0.  1.
       -5    1    3    3    0  502 -0.27294768294E+03  0.92086165946E+03  0.17771344664E+04  0.20200781260E+04  0.46999998093E+01 0. -1.
</event>
<event>
 5   0  0.2755061E-07  0.2599773E+04  0.7818609E-02  0.8368278E-01
       -1   -1    0    0    0  501  0.00000000000E+00  0.00000000000E+00  0.16463788622E+04  0.16463788622E+04  0.50400001928E-02 0. -1.
        1   -1    0    0  501    0  0.00000000000E+00  0.00000000000E+00 -0.10263159081E+04  0.10263159081E+04  0.50400001928E-02 0.  1.
    10030    2    1    2    0    0  0.00000000000E+00  0.00000000000E+00  0.62006295408E+03  0.26726947703E+04  0.25997729263E+04 0.  0.
        4    1    3    3  502    0 -0.59046695267E+03 -0.11320389639E+04  0.56088344318E+03  0.13945448318E+04  0.12699999809E+01 0.  1.
       -4    1    3    3    0  502  0.59046695267E+03  0.11320389639E+04  0.59179510895E+02  0.12781499386E+04  0.12699999809E+01 0. -1.
</event>
<event>
 5   0  0.6599814E-07  0.2600412E+04  0.7818609E-02  0.8368061E-01
        2   -1    0    0  501    0  0.00000000000E+00  0.00000000000E+00  0.15258132561E+04  0.15258132561E+04  0.25500000920E-02 0.  1.
       -2   -1    0    0    0  501  0.00000000000E+00  0.00000000000E+00 -0.11079568268E+04  0.11079568268E+04  0.25500000920E-02 0. -1.
    10030    2    1    2    0    0  0.00000000000E+00  0.00000000000E+00  0.41785642926E+03  0.26337700829E+04  0.26004116701E+04 0.  0.
        5    1    3    3  502    0 -0.83266439943E+03  0.88506846326E+03 -0.25942889382E+03  0.12425786203E+04  0.46999998093E+01 0. -1.
       -5    1    3    3    0  502  0.83266439943E+03 -0.88506846326E+03  0.67728532308E+03  0.13911914626E+04  0.46999998093E+01 0.  1.
</event>
<event>
 5   0  0.2641626E-07  0.2601016E+04  0.7818609E-02  0.8367856E-01
        1   -1    0    0  501    0  0.00000000000E+00  0.00000000000E+00  0.11903363948E+04  0.11903363948E+04  0.50400001928E-02 0. -1.
       -1   -1    0    0    0  501  0.00000000000E+00  0.00000000000E+00 -0.14208765572E+04  0.14208765572E+04  0.50400001928E-02 0.  1.
    10030    2    1    2    0    0  0.00000000000E+00  0.00000000000E+00 -0.23054016237E+03  0.26112129520E+04  0.26010160157E+04 0.  0.
        3    1    3    3  502    0 -0.49090451151E+03 -0.80810619375E+03 -0.10116862038E+04  0.13847497409E+04  0.10100000352E+00 0.  1.
       -3    1    3    3    0  502  0.49090451151E+03  0.80810619375E+03  0.78114604144E+03  0.12264632110E+04  0.10100000352E+00 0. -1.
</event>
<event>
 5   0  0.6780984E-07  0.2599784E+04  0.7818609E-02  0.8368275E-01
       -2   -1    0    0    0  501  0.00000000000E+00  0.00000000000E+00  0.85449287819E+03  0.85449287819E+03  0.25500000920E-02 0. -1.
        2   -1    0    0  501    0  0.00000000000E+00  0.00000000000E+00 -0.19774526864E+04  0.19774526864E+04  0.25500000920E-02 0.  1.
    10030    2    1    2    0    0  0.00000000000E+00  0.00000000000E+00 -0.11229598083E+04  0.28319455646E+04  0.25997840199E+04 0.  0.
        2    1    3    3  502    0  0.76167010181E+03  0.91716316429E+03  0.28466571931E+01  0.11921986904E+04  0.25500000920E-02 0. -1.
       -2    1    3    3    0  502 -0.76167010181E+03 -0.91716316429E+03 -0.11258064654E+04  0.16397468742E+04  0.25500000920E-02 0.  1.
</event>
<event>
 5   0  0.6526351E-07  0.2599877E+04  0.7818609E-02  0.8368243E-01
        2   -1    0    0  501    0  0.00000000000E+00  0.00000000000E+00  0.15562951800E+04  0.15562951800E+04  0.25500000920E-02 0. -1.
       -2   -1    0    0    0  501  0.00000000000E+00  0.00000000000E+00 -0.10858097843E+04  0.10858097843E+04  0.25500000920E-02 0.  1.
    10030    2    1    2    0    0  0.00000000000E+00  0.00000000000E+00  0.47048539570E+03  0.26421049643E+04  0.25998773308E+04 0.  0.
        3    1    3    3  502    0 -0.14128338281E+03 -0.77692143064E+03 -0.81413381238E+03  0.11341877174E+04  0.10100000352E+00 0.  1.
       -3    1    3    3    0  502  0.14128338281E+03  0.77692143064E+03  0.12846192081E+04  0.15079172469E+04  0.10100000352E+00 0. -1.
</event>
<event>
 5   0  0.7160320E-07  0.2600267E+04  0.7818609E-02  0.8368111E-01
       -2   -1    0    0    0  501  0.00000000000E+00  0.00000000000E+00  0.92877910660E+03  0.92877910660E+03  0.25500000920E-02 0.  1.
        2   -1    0    0  501    0  0.00000000000E+00  0.00000000000E+00 -0.18199668198E+04  0.18199668198E+04  0.25500000920E-02 0. -1.
    10030    2    1    2    0    0  0.00000000000E+00  0.00000000000E+00 -0.89118771317E+03  0.27487459264E+04  0.26002670301E+04 0.  0.
        1    1    3    3  502    0  0.14196098649E+03  0.34812035966E+03 -0.17612526189E+04  0.18009307299E+04  0.50400001928E-02 0. -1.
       -1    1    3    3    0  502 -0.14196098649E+03 -0.34812035966E+03  0.87006490569E+03  0.94781519645E+03  0.50400001928E-02 0.  1.
</event>
<event>
 5   0  0.2623263E-07  0.2601237E+04  0.7818609E-02  0.8367781E-01
       -1   -1    0    0    0  501  0.00000000000E+00  0.00000000000E+00  0.99541462361E+03  0.99541462362E+03  0.50400001928E-02 0.  1.
        1   -1    0    0  501    0  0.00000000000E+00  0.00000000000E+00 -0.16994002334E+04  0.16994002334E+04  0.50400001928E-02 0. -1.
    10030    2    1    2    0    0  0.00000000000E+00  0.00000000000E+00 -0.70398560976E+03  0.26948148570E+04  0.26012365088E+04 0.  0.
        1    1    3    3  502    0 -0.38517820635E+03  0.11067187576E+04 -0.93657920165E+03  0.15001230816E+04  0.50400001928E-02 0. -1.
       -1    1    3    3    0  502  0.38517820635E+03 -0.11067187576E+04  0.23259359189E+03  0.11946917754E+04  0.50400001928E-02 0.  1.
</event>
<event>
 5   0  0.6526351E-07  0.2600124E+04  0.7818609E-02  0.8368159E-01
       -2   -1    0    0    0  501  0.00000000000E+00  0.00000000000E+00  0.94319051507E+03  0.94319051507E+03  0.25500000920E-02 0.  1.
        2   -1    0    0  501    0  0.00000000000E+00  0.00000000000E+00 -0.17919613902E+04  0.17919613902E+04  0.25500000920E-02 0. -1.
    10030    2    1    2    0    0  0.00000000000E+00  0.00000000000E+00 -0.84877087516E+03  0.27351519053E+04  0.26001238329E+04 0.  0.
        3    1    3    3  502    0 -0.47699704638E+03 -0.10000644246E+04 -0.11397807283E+04  0.15895770363E+04  0.10100000352E+00 0.  1.
       -3    1    3    3    0  502  0.47699704638E+03  0.10000644246E+04  0.29100985312E+03  0.11455748690E+04  0.10100000352E+00 0. -1.
</event>
<event>
 5   0  0.2755061E-07  0.2599505E+04  0.7818609E-02  0.8368369E-01
       -1   -1    0    0    0  501  0.00000000000E+00  0.00000000000E+00  0.98730457063E+03  0.98730457064E+03  0.50400001928E-02 0. -1.
        1   -1    0    0  501    0  0.00000000000E+00  0.00000000000E+00 -0.17110797967E+04  0.17110797967E+04  0.50400001928E-02 0.  1.
    10030    2    1    2    0    0  0.00000000000E+00  0.00000000000E+00 -0.72377522605E+03  0.26983843673E+04  0.25995052637E+04 0.  0.
        4    1    3    3  502    0  0.65322583958E+03 -0.30612081714E+02 -0.15278743367E+04  0.16619394389E+04  0.12699999809E+01 0.  1.
       -4    1    3    3    0  502 -0.65322583958E+03  0.30612081714E+02  0.80409911062E+03  0.10364449284E+04  0.12699999809E+01 0. -1.
</event>
<event>
 5   0  0.6599814E-07  0.2589510E+04  0.7818609E-02  0.8371773E-01
       -2   -1    0    0    0  501  0.00000000000E+00  0.00000000000E+00  0.91313393965E+03  0.91313393965E+03  0.25500000920E-02 0. -1.
        2   -1    0    0  501    0  0.00000000000E+00  0.00000000000E+00 -0.18358643051E+04  0.18358643051E+04  0.25500000920E-02 0.  1.
    10030    2    1    2    0    0  0.00000000000E+00  0.00000000000E+00 -0.92273036545E+03  0.27489982448E+04  0.25895096104E+04 0.  0.
        5    1    3    3  502    0 -0.11915053224E+04 -0.48980360170E+03 -0.59886228983E+03  0.14206514821E+04  0.46999998093E+01 0. -1.
       -5    1    3    3    0  502  0.11915053224E+04  0.48980360170E+03 -0.32386807562E+03  0.13283467626E+04  0.46999998093E+01 0.  1.
</event>
<event>
 5   0  0.2755061E-07  0.2599978E+04  0.7818609E-02  0.8368209E-01
        1   -1    0    0  501    0  0.00000000000E+00  0.00000000000E+00  0.12632019354E+04  0.12632019355E+04  0.50400001928E-02 0. -1.
       -1   -1    0    0    0  501  0.00000000000E+00  0.00000000000E+00 -0.13378478933E+04  0.13378478933E+04  0.50400001928E-02 0.  1.
    10030    2    1    2    0    0  0.00000000000E+00  0.00000000000E+00 -0.74645957851E+02  0.26010498288E+04  0.25999784985E+04 0.  0.
        4    1    3    3  502    0  0.22631885797E+03  0.21156883078E+03 -0.13003759183E+04  0.13367725077E+04  0.12699999809E+01 0.  1.
       -4    1    3    3    0  502 -0.22631885797E+03 -0.21156883078E+03  0.12257299604E+04  0.12642773210E+04  0.12699999809E+01 0. -1.
</event>
<event>
 5   0  0.2641626E-07  0.2599643E+04  0.7818609E-02  0.8368322E-01
       -1   -1    0    0    0  501  0.00000000000E+00  0.00000000000E+00  0.10283754472E+04  0.10283754472E+04  0.50400001928E-02 0. -1.
        1   -1    0    0  501    0  0.00000000000E+00  0.00000000000E+00 -0.16429180260E+04  0.16429180260E+04  0.50400001928E-02 0.  1.
    10030    2    1    2    0    0  0.00000000000E+00  0.00000000000E+00 -0.61454257877E+03  0.26712934733E+04  0.25996434831E+04 0.  0.
        3    1    3    3  502    0 -0.49381574904E+02 -0.12486180573E+04  0.60433446947E+02  0.12510546770E+04  0.10100000352E+00 0. -1.
       -3    1    3    3    0  502  0.49381574904E+02  0.12486180573E+04 -0.67497602572E+03  0.14202387963E+04  0.10100000352E+00 0.  1.
</event>
<event>
 5   0  0.7160320E-07  0.2581201E+04  0.7818609E-02  0.8374615E-01
       -2   -1    0    0    0  501  0.00000000000E+00  0.00000000000E+00  0.58432982261E+03  0.58432982261E+03  0.25500000920E-02 0. -1.
        2   -1    0    0  501    0  0.00000000000E+00  0.00000000000E+00 -0.28505303853E+04  0.28505303853E+04  0.25500000920E-02 0.  1.
    10030    2    1    2    0    0  0.00000000000E+00  0.00000000000E+00 -0.22662005627E+04  0.34348602079E+04  0.25812012044E+04 0.  0.
        1    1    3    3  502    0 -0.48742952980E+03  0.51294632451E+02  0.45566720053E+03  0.66921691813E+03  0.50400001928E-02 0. -1.
       -1    1    3    3    0  502  0.48742952980E+03 -0.51294632451E+02 -0.27218677633E+04  0.27656432898E+04  0.50400001928E-02 0.  1.
</event>
<event>
 5   0  0.6768478E-07  0.2599775E+04  0.7818609E-02  0.8368278E-01
        2   -1    0    0  501    0  0.00000000000E+00  0.00000000000E+00  0.15950955249E+04  0.15950955249E+04  0.25500000920E-02 0. -1.
       -2   -1    0    0    0  501  0.00000000000E+00  0.00000000000E+00 -0.10593139521E+04  0.10593139521E+04  0.25500000920E-02 0.  1.
    10030    2    1    2    0    0  0.00000000000E+00  0.00000000000E+00  0.53578157275E+03  0.26544094770E+04  0.25997745629E+04 0.  0.
        4    1    3    3  502    0  0.99968012954E+03  0.43785741090E+03 -0.45308325347E+03  0.11816791109E+04  0.12699999809E+01 0.  1.
       -4    1    3    3    0  502 -0.99968012954E+03 -0.43785741090E+03  0.98886482622E+03  0.14727303661E+04  0.12699999809E+01 0. -1.
</event>
<event>
 5   0  0.6526351E-07  0.2600065E+04  0.7818609E-02  0.8368179E-01
        2   -1    0    0  501    0  0.00000000000E+00  0.00000000000E+00  0.20618266887E+04  0.20618266887E+04  0.25500000920E-02 0.  1.
       -2   -1    0    0    0  501  0.00000000000E+00  0.00000000000E+00 -0.81970244570E+03  0.81970244570E+03  0.25500000920E-02 0. -1.
    10030    2    1    2    0    0  0.00000000000E+00  0.00000000000E+00  0.12421242430E+04  0.28815291344E+04  0.26000649064E+04 0.  0.
        3    1    3    3  502    0  0.12151526841E+04 -0.45909681370E+03  0.56327931605E+03  0.14158564645E+04  0.10100000352E+00 0.  1.
       -3    1    3    3    0  502 -0.12151526841E+04  0.45909681370E+03  0.67884492693E+03  0.14656726698E+04  0.10100000352E+00 0. -1.
</event>
<event>
 5   0  0.2755061E-07  0.2600994E+04  0.7818609E-02  0.8367864E-01
       -1   -1    0    0    0  501  0.00000000000E+00  0.00000000000E+00  0.17957542806E+04  0.17957542806E+04  0.50400001928E-02 0.  1.
        1   -1    0    0  501    0  0.00000000000E+00  0.00000000000E+00 -0.94182828092E+03  0.94182828094E+03  0.50400001928E-02 0. -1.
    10030    2    1    2    0    0  0.00000000000E+00  0.00000000000E+00  0.85392599966E+03  0.27375825615E+04  0.26009937847E+04 0.  0.
        4    1    3    3  502    0  0.85411691309E+03  0.58387230271E+03  0.12562933232E+04  0.16274818260E+04  0.12699999809E+01 0.  1.
       -4    1    3    3    0  502 -0.85411691309E+03 -0.58387230271E+03 -0.40236732354E+03  0.11101007355E+04  0.12699999809E+01 0. -1.
</event>
<event>
 5   0  0.2793576E-07  0.2600431E+04  0.7818609E-02  0.8368055E-01
       -1   -1    0    0    0  501  0.00000000000E+00  0.00000000000E+00  0.25130226102E+04  0.25130226102E+04  0.50400001928E-02 0. -1.
        1   -1    0    0  501    0  0.00000000000E+00  0.00000000000E+00 -0.67271983826E+03  0.67271983828E+03  0.50400001928E-02 0.  1.
    10030    2    1    2    0    0  0.00000000000E+00  0.00000000000E+00  0.18403027719E+04  0.31857424485E+04  0.26004308596E+04 0.  0.
        2    1    3    3  502    0 -0.77751579641E+03  0.79746354260E+03  0.17420359252E+04  0.20676479585E+04  0.25500000920E-02 0. -1.
       -2    1    3    3    0  502  0.77751579641E+03 -0.79746354260E+03  0.98266846756E+02  0.11180944900E+04  0.25500000920E-02 0.  1.
</event>
<event>
 5   0  0.6599814E-07  0.2600130E+04  0.7818609E-02  0.8368157E-01
       -2   -1    0    0    0  501  0.00000000000E+00  0.00000000000E+00  0.14437263247E+04  0.14437263247E+04  0.25500000920E-02 0.  1.
        2   -1    0    0  501    0  0.00000000000E+00  0.00000000000E+00 -0.11706988427E+04  0.11706988427E+04  0.25500000920E-02 0. -1.
    10030    2    1    2    0    0  0.00000000000E+00  0.00000000000E+00  0.27302748196E+03  0.26144251674E+04  0.26001297948E+04 0.  0.
        5    1    3    3  502    0  0.10840904433E+04 -0.32010299426E+03 -0.50922313916E+03  0.12397775251E+04  0.46999998093E+01 0. -1.
       -5    1    3    3    0  502 -0.10840904433E+04  0.32010299426E+03  0.78225062112E+03  0.13746476423E+04  0.46999998093E+01 0.  1.
</event>
<event>
 5   0  0.2623263E-07  0.2600582E+04  0.7818609E-02  0.8368004E-01
       -1   -1    0    0    0  501  0.00000000000E+00  0.00000000000E+00  0.72031810032E+03  0.72031810034E+03  0.50400001928E-02 0. -1.
        1   -1    0    0  501    0  0.00000000000E+00  0.00000000000E+00 -0.23472361205E+04  0.23472361205E+04  0.50400001928E-02 0.  1.
    10030    2    1    2    0    0  0.00000000000E+00  0.00000000000E+00 -0.16269180202E+04  0.30675542209E+04  0.26005819836E+04 0.  0.
        1    1    3    3  502    0  0.82385180354E+03 -0.68339551327E+03  0.57340414255E+02  0.10719370993E+04  0.50400001928E-02 0. -1.
       -1    1    3    3    0  502 -0.82385180354E+03  0.68339551327E+03 -0.16842584345E+04  0.19956171216E+04  0.50400001928E-02 0.  1.
</event>
<event>
 5   0  0.6526351E-07  0.2599601E+04  0.7818609E-02  0.8368337E-01
        2   -1    0    0  501    0  0.00000000000E+00  0.00000000000E+00  0.13516025177E+04  0.13516025177E+04  0.25500000920E-02 0.  1.
       -2   -1    0    0    0  501  0.00000000000E+00  0.00000000000E+00 -0.12499840676E+04  0.12499840676E+04  0.25500000920E-02 0. -1.
    10030    2    1    2    0    0  0.00000000000E+00  0.00000000000E+00  0.10161845015E+03  0.26015865853E+04  0.25996012101E+04 0.  0.
        3    1    3    3  502    0  0.10047612343E+04  0.37593317793E+03 -0.68365229432E+03  0.12721050907E+04  0.10100000352E+00 0. -1.
       -3    1    3    3    0  502 -0.10047612343E+04 -0.37593317793E+03  0.78527074447E+03  0.13294814946E+04  0.10100000352E+00 0.  1.
</event>
<event>
 5   0  0.2793576E-07  0.2600528E+04  0.7818609E-02  0.8368022E-01
        1   -1    0    0  501    0  0.00000000000E+00  0.00000000000E+00  0.13354859406E+04  0.13354859406E+04  0.50400001928E-02 0.  1.
       -1   -1    0    0    0  501  0.00000000000E+00  0.00000000000E+00 -0.12659713896E+04  0.12659713896E+04  0.50400001928E-02 0. -1.
    10030    2    1    2    0    0  0.00000000000E+00  0.00000000000E+00  0.69514551031E+02  0.26014573302E+04  0.26005284017E+04 0.  0.
        2    1    3    3  502    0  0.56812825758E+03 -0.15155114988E+02  0.12046567878E+04  0.13319900040E+04  0.25500000920E-02 0.  1.
       -2    1    3    3    0  502 -0.56812825758E+03  0.15155114988E+02 -0.11351422367E+04  0.12694673262E+04  0.25500000920E-02 0. -1.
</event>
<event>
 5   0  0.2755061E-07  0.2599134E+04  0.7818609E-02  0.8368495E-01
        1   -1    0    0  501    0  0.00000000000E+00  0.00000000000E+00  0.17336899578E+04  0.17336899578E+04  0.50400001928E-02 0.  1.
       -1   -1    0    0    0  501  0.00000000000E+00  0.00000000000E+00 -0.97415021671E+03  0.97415021673E+03  0.50400001928E-02 0. -1.
    10030    2    1    2    0    0  0.00000000000E+00  0.00000000000E+00  0.75953974104E+03  0.27078401745E+04  0.25991340466E+04 0.  0.
        4    1    3    3  502    0  0.48939236959E+03 -0.23836781921E+03 -0.84964807844E+03  0.10090726330E+04  0.12699999809E+01 0. -1.
       -4    1    3    3    0  502 -0.48939236959E+03  0.23836781921E+03  0.16091878195E+04  0.16987675415E+04  0.12699999809E+01 0.  1.
</event>
<event>
 5   0  0.2294625E-07  0.2601678E+04  0.7818609E-02  0.8367631E-01
       -3   -1    0    0    0  501  0.00000000000E+00  0.00000000000E+00  0.13839487211E+04  0.13839487248E+04  0.10100000352E+00 0. -1.
        3   -1    0    0  501    0  0.00000000000E+00  0.00000000000E+00 -0.12227206542E+04  0.12227206584E+04  0.10100000352E+00 0.  1.
    10030    2    1    2    0    0  0.00000000000E+00  0.00000000000E+00  0.16122806685E+03  0.26066693832E+04  0.26016784551E+04 0.  0.
        4    1    3    3  502    0 -0.12460498435E+04 -0.25261903526E+02  0.45402552992E+03  0.13264309899E+04  0.12699999809E+01 0. -1.
       -4    1    3    3    0  502  0.12460498435E+04  0.25261903526E+02 -0.29279746308E+03  0.12802383933E+04  0.12699999809E+01 0.  1.
</event>
<event>
 5   0  0.6768478E-07  0.2600845E+04  0.7818609E-02  0.8367914E-01
        2   -1    0    0  501    0  0.00000000000E+00  0.00000000000E+00  0.16453225848E+04  0.16453225848E+04  0.25500000920E-02 0.  1.
       -2   -1    0    0    0  501  0.00000000000E+00  0.00000000000E+00 -0.10278223426E+04  0.10278223426E+04  0.25500000920E-02 0. -1.
    10030    2    1    2    0    0  0.00000000000E+00  0.00000000000E+00  0.61750024218E+03  0.26731449274E+04  0.26008454883E+04 0.  0.
        4    1    3    3  502    0 -0.12456788361E+04 -0.10345993349E+03 -0.59938785302E+02  0.12514048072E+04  0.12699999809E+01 0. -1.
       -4    1    3    3    0  502  0.12456788361E+04  0.10345993349E+03  0.67743902749E+03  0.14217401202E+04  0.12699999809E+01 0.  1.
</event>
<event>
 5   0  0.2864801E-07  0.2601163E+04  0.7818609E-02  0.8367806E-01
        1   -1    0    0  501    0  0.00000000000E+00  0.00000000000E+00  0.18468433334E+04  0.18468433334E+04  0.50400001928E-02 0.  1.
       -1   -1    0    0    0  501  0.00000000000E+00  0.00000000000E+00 -0.91589391266E+03  0.91589391267E+03  0.50400001928E-02 0. -1.
    10030    2    1    2    0    0  0.00000000000E+00  0.00000000000E+00  0.93094942076E+03  0.27627372461E+04  0.26011632527E+04 0.  0.
        5    1    3    3  502    0 -0.58494812816E+03  0.10534744458E+04  0.98528016206E+03  0.15565255566E+04  0.46999998093E+01 0.  1.
       -5    1    3    3    0  502  0.58494812816E+03 -0.10534744458E+04 -0.54330741304E+02  0.12062116895E+04  0.46999998093E+01 0. -1.
</event>
<event>
 5   0  0.6780984E-07  0.2600244E+04  0.7818609E-02  0.8368118E-01
       -2   -1    0    0    0  501  0.00000000000E+00  0.00000000000E+00  0.66895224281E+03  0.66895224282E+03  0.25500000920E-02 0. -1.
        2   -1    0    0  501    0  0.00000000000E+00  0.00000000000E+00 -0.25268125570E+04  0.25268125570E+04  0.25500000920E-02 0.  1.
    10030    2    1    2    0    0  0.00000000000E+00  0.00000000000E+00 -0.18578603142E+04  0.31957647998E+04  0.26002437787E+04 0.  0.
        2    1    3    3  502    0  0.92922547275E+03  0.46540375204E+02 -0.20450385013E+04  0.22467328407E+04  0.25500000920E-02 0.  1.
       -2    1    3    3    0  502 -0.92922547275E+03 -0.46540375204E+02  0.18717818708E+03  0.94903195913E+03  0.25500000920E-02 0. -1.
</event>
<event>
 5   0  0.2755061E-07  0.2600304E+04  0.7818609E-02  0.8368098E-01
        1   -1    0    0  501    0  0.00000000000E+00  0.00000000000E+00  0.18096940032E+04  0.18096940032E+04  0.50400001928E-02 0. -1.
       -1   -1    0    0    0  501  0.00000000000E+00  0.00000000000E+00 -0.93407773624E+03  0.93407773626E+03  0.50400001928E-02 0.  1.
    10030    2    1    2    0    0  0.00000000000E+00  0.00000000000E+00  0.87561626691E+03  0.27437717394E+04  0.26003037344E+04 0.  0.
        4    1    3    3  502    0  0.47206042626E+03 -0.37109435959E+03  0.16546209908E+04  0.17602057567E+04  0.12699999809E+01 0. -1.
       -4    1    3    3    0  502 -0.47206042626E+03  0.37109435959E+03 -0.77900472386E+03  0.98356598276E+03  0.12699999809E+01 0.  1.
</event>
<event>
 5   0  0.2623263E-07  0.2601477E+04  0.7818609E-02  0.8367700E-01
       -1   -1    0    0    0  501  0.00000000000E+00  0.00000000000E+00  0.96710787161E+03  0.96710787162E+03  0.50400001928E-02 0.  1.
        1   -1    0    0  501    0  0.00000000000E+00  0.00000000000E+00 -0.17494644792E+04  0.17494644792E+04  0.50400001928E-02 0. -1.
    10030    2    1    2    0    0  0.00000000000E+00  0.00000000000E+00 -0.78235660760E+03  0.27165723508E+04  0.26014771719E+04 0.  0.
        1    1    3    3  502    0 -0.11925238277E+03  0.36573288787E+02  0.96084811497E+03  0.96891064414E+03  0.50400001928E-02 0.  1.
       -1    1    3    3    0  502  0.11925238277E+03 -0.36573288787E+02 -0.17432047226E+04  0.17476617067E+04  0.50400001928E-02 0. -1.
</event>
<event>
 5   0  0.6780984E-07  0.2617448E+04  0.7818609E-02  0.8362299E-01
        2   -1    0    0  501    0  0.00000000000E+00  0.00000000000E+00  0.14748692895E+04  0.14748692895E+04  0.25500000920E-02 0. -1.
       -2   -1    0    0    0  501  0.00000000000E+00  0.00000000000E+00 -0.11612952574E+04  0.11612952574E+04  0.25500000920E-02 0.  1.
    10030    2    1    2    0    0  0.00000000000E+00  0.00000000000E+00  0.31357403216E+03  0.26361645469E+04  0.26174481551E+04 0.  0.
        2    1    3    3  502    0 -0.16027238784E+02 -0.12691156506E+04 -0.16463024480E+03  0.12798494148E+04  0.25500000920E-02 0. -1.
       -2    1    3    3    0  502  0.16027238784E+02  0.12691156506E+04  0.47820427696E+03  0.13563151321E+04  0.25500000920E-02 0.  1.
</event>
<event>
 5   0  0.7160320E-07  0.2597456E+04  0.7818609E-02  0.8369066E-01
        2   -1    0    0  501    0  0.00000000000E+00  0.00000000000E+00  0.92629062056E+03  0.92629062057E+03  0.25500000920E-02 0.  1.
       -2   -1    0    0    0  501  0.00000000000E+00  0.00000000000E+00 -0.18209129233E+04  0.18209129233E+04  0.25500000920E-02 0. -1.
    10030    2    1    2    0    0  0.00000000000E+00  0.00000000000E+00 -0.89462230269E+03  0.27472035438E+04  0.25974561106E+04 0.  0.
        1    1    3    3  502    0 -0.71280599058E+03 -0.22649751254E+01  0.70090934546E+03  0.99968566105E+03  0.50400001928E-02 0.  1.
       -1    1    3    3    0  502  0.71280599058E+03  0.22649751254E+01 -0.15955316481E+04  0.17475178828E+04  0.50400001928E-02 0. -1.
</event>
<event>
 5   0  0.2793576E-07  0.2599959E+04  0.7818609E-02  0.8368215E-01
        1   -1    0    0  501    0  0.00000000000E+00  0.00000000000E+00  0.17236507456E+04  0.17236507456E+04  0.50400001928E-02 0.  1.
       -1   -1    0    0    0  501  0.00000000000E+00  0.00000000000E+00 -0.98044587017E+03  0.98044587018E+03  0.50400001928E-02 0. -1.
    10030    2    1    2    0    0  0.00000000000E+00  0.00000000000E+00  0.74320487541E+03  0.27040966158E+04  0.25999586575E+04 0.  0.
        2    1    3    3  502    0 -0.87637493608E+02 -0.12225792717E+04 -0.78833098732E+02  0.12282487791E+04  0.25500000920E-02 0.  1.
       -2    1    3    3    0  502  0.87637493608E+02  0.12225792717E+04  0.82203797414E+03  0.14758478366E+04  0.25500000920E-02 0. -1.
</event>
<event>
 5   0  0.2623263E-07  0.2600133E+04  0.7818609E-02  0.8368156E-01
       -1   -1    0    0    0  501  0.00000000000E+00  0.00000000000E+00  0.27127277117E+04  0.27127277117E+04  0.50400001928E-02 0.  1.
        1   -1    0    0  501    0  0.00000000000E+00  0.00000000000E+00 -0.62305272320E+03  0.62305272322E+03  0.50400001928E-02 0. -1.
    10030    2    1    2    0    0  0.00000000000E+00  0.00000000000E+00  0.20896749885E+04  0.33357804350E+04  0.26001326029E+04 0.  0.
        1    1    3    3  502    0  0.99971221555E+02  0.76723029901E+03 -0.29552094941E+03  0.82823258112E+03  0.50400001928E-02 0. -1.
       -1    1    3    3    0  502 -0.99971221555E+02 -0.76723029901E+03  0.23851959380E+04  0.25075478538E+04  0.50400001928E-02 0.  1.
</event>
<event>
 5   0  0.2623263E-07  0.2599830E+04  0.7818609E-02  0.8368259E-01
        1   -1    0    0  501    0  0.00000000000E+00  0.00000000000E+00  0.24920359703E+04  0.24920359703E+04  0.50400001928E-02 0.  1.
       -1   -1    0    0    0  501  0.00000000000E+00  0.00000000000E+00 -0.67807162308E+03  0.67807162310E+03  0.50400001928E-02 0. -1.
    10030    2    1    2    0    0  0.00000000000E+00  0.00000000000E+00  0.18139643472E+04  0.31701075934E+04  0.25998298984E+04 0.  0.
        1    1    3    3  502    0 -0.96185047962E+03  0.81854952057E+03  0.53194628515E+03  0.13704548563E+04  0.50400001928E-02 0. -1.
       -1    1    3    3    0  502  0.96185047962E+03 -0.81854952057E+03  0.12820180621E+04  0.17996527371E+04  0.50400001928E-02 0.  1.
</event>
<event>
 5   0  0.6768478E-07  0.2600181E+04  0.7818609E-02  0.8368140E-01
       -2   -1    0    0    0  501  0.00000000000E+00  0.00000000000E+00  0.14808415916E+04  0.14808415916E+04  0.25500000920E-02 0.  1.
        2   -1    0    0  501    0  0.00000000000E+00  0.00000000000E+00 -0.11414018295E+04  0.11414018295E+04  0.25500000920E-02 0. -1.
    10030    2    1    2    0    0  0.00000000000E+00  0.00000000000E+00  0.33943976212E+03  0.26222434211E+04  0.26001809951E+04 0.  0.
        4    1    3    3  502    0 -0.12004738379E+04  0.39066246285E+03  0.48296624020E+03  0.13516702991E+04  0.12699999809E+01 0.  1.
       -4    1    3    3    0  502  0.12004738379E+04 -0.39066246285E+03 -0.14352647808E+03  0.12705731220E+04  0.12699999809E+01 0. -1.
</event>
<event>
 5   0  0.2641626E-07  0.2597706E+04  0.7818609E-02  0.8368981E-01
       -1   -1    0    0    0  501  0.00000000000E+00  0.00000000000E+00  0.81654041648E+03  0.81654041650E+03  0.50400001928E-02 0. -1.
        1   -1    0    0  501    0  0.00000000000E+00  0.00000000000E+00 -0.20660571765E+04  0.20660571766E+04  0.50400001928E-02 0.  1.
    10030    2    1    2    0    0  0.00000000000E+00  0.00000000000E+00 -0.12495167601E+04  0.28825975930E+04  0.25977060553E+04 0.  0.
        3    1    3    3  502    0  0.55052510874E+03  0.11445922301E+02 -0.19301243541E+04  0.20071345089E+04  0.10100000352E+00 0.  1.
       -3    1    3    3    0  502 -0.55052510874E+03 -0.11445922301E+02  0.68060759400E+03  0.87546308415E+03  0.10100000352E+00 0. -1.
</event>
<event>
 5   0  0.2623263E-07  0.2600376E+04  0.7818609E-02  0.8368074E-01
       -1   -1    0    0    0  501  0.00000000000E+00  0.00000000000E+00  0.92709996191E+03  0.92709996193E+03  0.50400001928E-02 0. -1.
        1   -1    0    0  501    0  0.00000000000E+00  0.00000000000E+00 -0.18234154742E+04  0.18234154742E+04  0.50400001928E-02 0.  1.
    10030    2    1    2    0    0  0.00000000000E+00  0.00000000000E+00 -0.89631551231E+03  0.27505154362E+04  0.26003756780E+04 0.  0.
        1    1    3    3  502    0  0.63989219893E+03 -0.79202898593E+03 -0.13033676306E+04  0.16539465291E+04  0.50400001928E-02 0.  1.
       -1    1    3    3    0  502 -0.63989219893E+03  0.79202898593E+03  0.40705211828E+03  0.10965689070E+04  0.50400001928E-02 0. -1.
</event>
<event>
 5   0  0.2623263E-07  0.2599102E+04  0.7818609E-02  0.8368506E-01
        1   -1    0    0  501    0  0.00000000000E+00  0.00000000000E+00  0.15703655515E+04  0.15703655516E+04  0.50400001928E-02 0.  1.
       -1   -1    0    0    0  501  0.00000000000E+00  0.00000000000E+00 -0.10754391818E+04  0.10754391818E+04  0.50400001928E-02 0. -1.
    10030    2    1    2    0    0  0.00000000000E+00  0.00000000000E+00  0.49492636976E+03  0.26458047333E+04  0.25991018786E+04 0.  0.
        1    1    3    3  502    0 -0.90942092741E+03  0.64569182363E+03 -0.43150622945E+03  0.11958937998E+04  0.50400001928E-02 0. -1.
       -1    1    3    3    0  502  0.90942092741E+03 -0.64569182363E+03  0.92643259921E+03  0.14499109335E+04  0.50400001928E-02 0.  1.
</event>
<event>
 5   0  0.6768478E-07  0.2599556E+04  0.7818609E-02  0.8368352E-01
       -2   -1    0    0    0  501  0.00000000000E+00  0.00000000000E+00  0.75221043227E+03  0.75221043228E+03  0.25500000920E-02 0.  1.
        2   -1    0    0  501    0  0.00000000000E+00  0.00000000000E+00 -0.22459451000E+04  0.22459451000E+04  0.25500000920E-02 0. -1.
    10030    2    1    2    0    0  0.00000000000E+00  0.00000000000E+00 -0.14937346677E+04  0.29981555323E+04  0.25995563733E+04 0.  0.
        4    1    3    3  502    0  0.10404539145E+04 -0.67279739587E+03 -0.11997927884E+04  0.17247333221E+04  0.12699999809E+01 0. -1.
       -4    1    3    3    0  502 -0.10404539145E+04  0.67279739587E+03 -0.29394187929E+03  0.12734222102E+04  0.12699999809E+01 0.  1.
</event>
<event>
 5   0  0.6526351E-07  0.2604398E+04  0.7818609E-02  0.8366709E-01
        2   -1    0    0  501    0  0.00000000000E+00  0.00000000000E+00  0.18822025291E+04  0.18822025291E+04  0.25500000920E-02 0.  1.
       -2   -1    0    0    0  501  0.00000000000E+00  0.00000000000E+00 -0.90092454123E+03  0.90092454123E+03  0.25500000920E-02 0. -1.
    10030    2    1    2    0    0  0.00000000000E+00  0.00000000000E+00  0.98127798784E+03  0.27831270703E+04  0.26043981646E+04 0.  0.
        3    1    3    3  502    0  0.10546253001E+04  0.70739975833E+03  0.18263460583E+03  0.12829670110E+04  0.10100000352E+00 0. -1.
       -3    1    3    3    0  502 -0.10546253001E+04 -0.70739975833E+03  0.79864338200E+03  0.15001600593E+04  0.10100000352E+00 0.  1.
</event>
<event>
 5   0  0.6599814E-07  0.2599565E+04  0.7818609E-02  0.8368349E-01
       -2   -1    0    0    0  501  0.00000000000E+00  0.00000000000E+00  0.76856912756E+03  0.76856912756E+03  0.25500000920E-02 0.  1.
        2   -1    0    0  501    0  0.00000000000E+00  0.00000000000E+00 -0.21981559440E+04  0.21981559440E+04  0.25500000920E-02 0. -1.
    10030    2    1    2    0    0  0.00000000000E+00  0.00000000000E+00 -0.14295868164E+04  0.29667250715E+04  0.25995651914E+04 0.  0.
        5    1    3    3  502    0 -0.34052093065E+03 -0.11256657976E+04 -0.83146033019E+02  0.11789882717E+04  0.46999998093E+01 0.  1.
       -5    1    3    3    0  502  0.34052093065E+03  0.11256657976E+04 -0.13464407834E+04  0.17877367998E+04  0.46999998093E+01 0. -1.
</event>
<event>
 5   0  0.6526351E-07  0.2599860E+04  0.7818609E-02  0.8368249E-01
       -2   -1    0    0    0  501  0.00000000000E+00  0.00000000000E+00  0.14230337481E+04  0.14230337481E+04  0.25500000920E-02 0. -1.
        2   -1    0    0  501    0  0.00000000000E+00  0.00000000000E+00 -0.11874760913E+04  0.11874760913E+04  0.25500000920E-02 0.  1.
    10030    2    1    2    0    0  0.00000000000E+00  0.00000000000E+00  0.23555765684E+03  0.26105098394E+04  0.25998604216E+04 0.  0.
        3    1    3    3  502    0  0.35801324028E+03 -0.53338838217E+03 -0.10169572880E+04  0.12028627445E+04  0.10100000352E+00 0.  1.
       -3    1    3    3    0  502 -0.35801324028E+03  0.53338838217E+03  0.12525149448E+04  0.14076470948E+04  0.10100000352E+00 0. -1.
</event>
<event>
 5   0  0.2864801E-07  0.2599359E+04  0.7818609E-02  0.8368419E-01
       -1   -1    0    0    0  501  0.00000000000E+00  0.00000000000E+00  0.96052026461E+03  0.96052026463E+03  0.50400001928E-02 0. -1.
        1   -1    0    0  501    0  0.00000000000E+00  0.00000000000E+00 -0.17585963368E+04  0.17585963368E+04  0.50400001928E-02 0.  1.
    10030    2    1    2    0    0  0.00000000000E+00  0.00000000000E+00 -0.79807607219E+03  0.27191166014E+04  0.25993594740E+04 0.  0.
        5    1    3    3  502    0 -0.72999725995E+03 -0.10694473791E+04 -0.51614030683E+03  0.13939284782E+04  0.46999998093E+01 0.  1.
       -5    1    3    3    0  502  0.72999725995E+03  0.10694473791E+04 -0.28193576536E+03  0.13251881232E+04  0.46999998093E+01 0. -1.
</event>
<event>
 5   0  0.6599814E-07  0.2599697E+04  0.7818609E-02  0.8368304E-01
        2   -1    0    0  501    0  0.00000000000E+00  0.00000000000E+00  0.17710713395E+04  0.17710713395E+04  0.25500000920E-02 0. -1.
       -2   -1    0    0    0  501  0.00000000000E+00  0.00000000000E+00 -0.95400223145E+03  0.95400223146E+03  0.25500000920E-02 0.  1.
    10030    2    1    2    0    0  0.00000000000E+00  0.00000000000E+00  0.81706910808E+03  0.27250735710E+04  0.25996969131E+04 0.  0.
        5    1    3    3  502    0  0.10004343703E+04  0.82952285159E+03  0.38271261645E+03  0.13547944964E+04  0.46999998093E+01 0. -1.
       -5    1    3    3    0  502 -0.10004343703E+04 -0.82952285159E+03  0.43435649163E+03  0.13702790746E+04  0.46999998093E+01 0.  1.
</event>
<event>
 5   0  0.6780984E-07  0.2600110E+04  0.7818609E-02  0.8368164E-01
        2   -1    0    0  501    0  0.00000000000E+00  0.00000000000E+00  0.23037329190E+04  0.23037329190E+04  0.25500000920E-02 0. -1.
       -2   -1    0    0    0  501  0.00000000000E+00  0.00000000000E+00 -0.73365405221E+03  0.73365405221E+03  0.25500000920E-02 0.  1.
    10030    2    1    2    0    0  0.00000000000E+00  0.00000000000E+00  0.15700788668E+04  0.30373869712E+04  0.26001099909E+04 0.  0.
        2    1    3    3  502    0 -0.77726469374E+03  0.80436384521E+03  0.11038732199E+02  0.11185988795E+04  0.25500000920E-02 0.  1.
       -2    1    3    3    0  502  0.77726469374E+03 -0.80436384521E+03  0.15590401346E+04  0.19187880917E+04  0.25500000920E-02 0. -1.
</event>
<event>
 5   0  0.6599814E-07  0.2599795E+04  0.7818609E-02  0.8368271E-01
       -2   -1    0    0    0  501  0.00000000000E+00  0.00000000000E+00  0.15980473422E+04  0.15980473422E+04  0.25500000920E-02 0.  1.
        2   -1    0    0  501    0  0.00000000000E+00  0.00000000000E+00 -0.10573739091E+04  0.10573739091E+04  0.25500000920E-02 0. -1.
    10030    2    1    2    0    0  0.00000000000E+00  0.00000000000E+00  0.54067343305E+03  0.26554212513E+04  0.25997950420E+04 0.  0.
        5    1    3    3  502    0  0.76660952615E+03 -0.93281270967E+03 -0.22150754388E+03  0.12275656393E+04  0.46999998093E+01 0. -1.
       -5    1    3    3    0  502 -0.76660952615E+03  0.93281270967E+03  0.76218097693E+03  0.14278556119E+04  0.46999998093E+01 0.  1.
</event>
<event>
 5   0  0.2623263E-07  0.2599456E+04  0.7818609E-02  0.8368386E-01
       -1   -1    0    0    0  501  0.00000000000E+00  0.00000000000E+00  0.91785724771E+03  0.91785724772E+03  0.50400001928E-02 0.  1.
        1   -1    0    0  501    0  0.00000000000E+00  0.00000000000E+00 -0.18404745921E+04  0.18404745921E+04  0.50400001928E-02 0. -1.
    10030    2    1    2    0    0  0.00000000000E+00  0.00000000000E+00 -0.92261734441E+03  0.27583318398E+04  0.25994560536E+04 0.  0.
        1    1    3    3  502    0  0.45047371328E+03  0.80942071315E+03 -0.14287351560E+04  0.17027544166E+04  0.50400001928E-02 0. -1.
       -1    1    3    3    0  502 -0.45047371328E+03 -0.80942071315E+03  0.50611781158E+03  0.10555774232E+04  0.50400001928E-02 0.  1.
</event>
<event>
 5   0  0.6780984E-07  0.2599865E+04  0.7818609E-02  0.8368247E-01
        2   -1    0    0  501    0  0.00000000000E+00  0.00000000000E+00  0.19316607523E+04  0.19316607523E+04  0.25500000920E-02 0. -1.
       -2   -1    0    0    0  501  0.00000000000E+00  0.00000000000E+00 -0.87480396707E+03  0.87480396708E+03  0.25500000920E-02 0.  1.
    10030    2    1    2    0    0  0.00000000000E+00  0.00000000000E+00  0.10568567852E+04  0.28064647194E+04  0.25998649882E+04 0.  0.
        2    1    3    3  502    0  0.20929022684E+03  0.43668711661E+03  0.18306623116E+04  0.18936268206E+04  0.25500000920E-02 0. -1.
       -2    1    3    3    0  502 -0.20929022684E+03 -0.43668711661E+03 -0.77380552631E+03  0.91283789876E+03  0.25500000920E-02 0.  1.
</event>
<event>
 5   0  0.2864801E-07  0.2598890E+04  0.7818609E-02  0.8368578E-01
        1   -1    0    0  501    0  0.00000000000E+00  0.00000000000E+00  0.20040016872E+04  0.20040016872E+04  0.50400001928E-02 0. -1.
       -1   -1    0    0    0  501  0.00000000000E+00  0.00000000000E+00 -0.84259256996E+03  0.84259256998E+03  0.50400001928E-02 0.  1.
    10030    2    1    2    0    0  0.00000000000E+00  0.00000000000E+00  0.11614091173E+04  0.28465942572E+04  0.25988897105E+04 0.  0.
        5    1    3    3  502    0  0.10361275169E+04  0.56518864915E+02 -0.27600860086E+03  0.10737585627E+04  0.46999998093E+01 0.  1.
       -5    1    3    3    0  502 -0.10361275169E+04 -0.56518864915E+02  0.14374177181E+04  0.17728356945E+04  0.46999998093E+01 0. -1.
</event>
<event>
 5   0  0.2641626E-07  0.2599021E+04  0.7818609E-02  0.8368534E-01
       -1   -1    0    0    0  501  0.00000000000E+00  0.00000000000E+00  0.10803328297E+04  0.10803328297E+04  0.50400001928E-02 0.  1.
        1   -1    0    0  501    0  0.00000000000E+00  0.00000000000E+00 -0.15631543835E+04  0.15631543836E+04  0.50400001928E-02 0. -1.
    10030    2    1    2    0    0  0.00000000000E+00  0.00000000000E+00 -0.48282155387E+03  0.26434872132E+04  0.25990205835E+04 0.  0.
        3    1    3    3  502    0 -0.55894034795E+03  0.83266613618E+03 -0.10819760014E+04  0.14752692245E+04  0.10100000352E+00 0. -1.
       -3    1    3    3    0  502  0.55894034795E+03 -0.83266613618E+03  0.59915444758E+03  0.11682179887E+04  0.10100000352E+00 0.  1.
</event>
<event>
 5   0  0.6768478E-07  0.2600007E+04  0.7818609E-02  0.8368199E-01
        2   -1    0    0  501    0  0.00000000000E+00  0.00000000000E+00  0.13883748489E+04  0.13883748489E+04  0.25500000920E-02 0.  1.
       -2   -1    0    0    0  501  0.00000000000E+00  0.00000000000E+00 -0.12172569787E+04  0.12172569787E+04  0.25500000920E-02 0. -1.
    10030    2    1    2    0    0  0.00000000000E+00  0.00000000000E+00  0.17111787017E+03  0.26056318276E+04  0.26000069029E+04 0.  0.
        4    1    3    3  502    0 -0.10714846949E+04 -0.58013092900E+03  0.53972367166E+03  0.13326419627E+04  0.12699999809E+01 0.  1.
       -4    1    3    3    0  502  0.10714846949E+04  0.58013092900E+03 -0.36860580149E+03  0.12729898648E+04  0.12699999809E+01 0. -1.
</event>
<event>
 5   0  0.2864801E-07  0.2596532E+04  0.7818609E-02  0.8369380E-01
        1   -1    0    0  501    0  0.00000000000E+00  0.00000000000E+00  0.11219915001E+04  0.11219915001E+04  0.50400001928E-02 0.  1.
       -1   -1    0    0    0  501  0.00000000000E+00  0.00000000000E+00 -0.15022349015E+04  0.15022349015E+04  0.50400001928E-02 0. -1.
    10030    2    1    2    0    0  0.00000000000E+00  0.00000000000E+00 -0.38024340141E+03  0.26242264016E+04  0.25965321417E+04 0.  0.
        5    1    3    3  502    0  0.46628781835E+03 -0.91322080660E+03 -0.99490378461E+03  0.14287239768E+04  0.46999998093E+01 0. -1.
       -5    1    3    3    0  502 -0.46628781835E+03  0.91322080660E+03  0.61466038320E+03  0.11955024249E+04  0.46999998093E+01 0.  1.
</event>
<event>
 5   0  0.2623263E-07  0.2600464E+04  0.7818609E-02  0.8368044E-01
       -1   -1    0    0    0  501  0.00000000000E+00  0.00000000000E+00  0.68787576665E+03  0.68787576666E+03  0.50400001928E-02 0. -1.
        1   -1    0    0  501    0  0.00000000000E+00  0.00000000000E+00 -0.24577162491E+04  0.24577162492E+04  0.50400001928E-02 0.  1.
    10030    2    1    2    0    0  0.00000000000E+00  0.00000000000E+00 -0.17698404825E+04  0.31455920158E+04  0.26004641502E+04 0.  0.
        1    1    3    3  502    0 -0.87774921227E+03 -0.60936612267E+03 -0.17810512627E+04  0.20769964737E+04  0.50400001928E-02 0.  1.
       -1    1    3    3    0  502  0.87774921227E+03  0.60936612267E+03  0.11210780226E+02  0.10685955422E+04  0.50400001928E-02 0. -1.
</event>
<event>
 5   0  0.2641626E-07  0.2599807E+04  0.7818609E-02  0.8368267E-01
       -1   -1    0    0    0  501  0.00000000000E+00  0.00000000000E+00  0.82534160155E+03  0.82534160156E+03  0.50400001928E-02 0.  1.
        1   -1    0    0  501    0  0.00000000000E+00  0.00000000000E+00 -0.20473329968E+04  0.20473329968E+04  0.50400001928E-02 0. -1.
    10030    2    1    2    0    0  0.00000000000E+00  0.00000000000E+00 -0.12219913952E+04  0.28726745983E+04  0.25998069886E+04 0.  0.
        3    1    3    3  502    0 -0.74794354096E+03  0.10441510099E+04 -0.38978837550E+03  0.13422391217E+04  0.10100000352E+00 0.  1.
       -3    1    3    3    0  502  0.74794354096E+03 -0.10441510099E+04 -0.83220301971E+03  0.15304354766E+04  0.10100000352E+00 0. -1.
</event>
<event>
 5   0  0.6599814E-07  0.2598915E+04  0.7818609E-02  0.8368570E-01
       -2   -1    0    0    0  501  0.00000000000E+00  0.00000000000E+00  0.18532450880E+04  0.18532450880E+04  0.25500000920E-02 0. -1.
        2   -1    0    0  501    0  0.00000000000E+00  0.00000000000E+00 -0.91115305346E+03  0.91115305346E+03  0.25500000920E-02 0.  1.
    10030    2    1    2    0    0  0.00000000000E+00  0.00000000000E+00  0.94209203455E+03  0.27643981415E+04  0.25989150973E+04 0.  0.
        5    1    3    3  502    0  0.58781101397E+03  0.91967034249E+03  0.12211077168E+04  0.16378160681E+04  0.46999998093E+01 0. -1.
       -5    1    3    3    0  502 -0.58781101397E+03 -0.91967034249E+03 -0.27901568226E+03  0.11265820733E+04  0.46999998093E+01 0.  1.
</event>
<event>
 5   0  0.2755061E-07  0.2597409E+04  0.7818609E-02  0.8369082E-01
       -1   -1    0    0    0  501  0.00000000000E+00  0.00000000000E+00  0.14768358079E+04  0.14768358079E+04  0.50400001928E-02 0. -1.
        1   -1    0    0  501    0  0.00000000000E+00  0.00000000000E+00 -0.11420588811E+04  0.11420588811E+04  0.50400001928E-02 0.  1.
    10030    2    1    2    0    0  0.00000000000E+00  0.00000000000E+00  0.33477692688E+03  0.26188946890E+04  0.25974090554E+04 0.  0.
        4    1    3    3  502    0 -0.43265915502E+03  0.98120420219E+03 -0.57125329309E+03  0.12150257481E+04  0.12699999809E+01 0.  1.
       -4    1    3    3    0  502  0.43265915502E+03 -0.98120420219E+03  0.90603021996E+03  0.14038689409E+04  0.12699999809E+01 0. -1.
</event>
<event>
 5   0  0.2294625E-07  0.2599992E+04  0.7818609E-02  0.8368204E-01
        3   -1    0    0  501    0  0.00000000000E+00  0.00000000000E+00  0.80345943381E+03  0.80345944015E+03  0.10100000352E+00 0. -1.
       -3   -1    0    0    0  501  0.00000000000E+00  0.00000000000E+00 -0.21033905001E+04  0.21033905025E+04  0.10100000352E+00 0.  1.
    10030    2    1    2    0    0  0.00000000000E+00  0.00000000000E+00 -0.12999310663E+04  0.29068499427E+04  0.25999915023E+04 0.  0.
        2    1    3    3  502    0  0.13901517844E+03  0.11327703320E+04  0.45993693281E+02  0.11421949329E+04  0.25500000920E-02 0. -1.
       -2    1    3    3    0  502 -0.13901517844E+03 -0.11327703320E+04 -0.13459247596E+04  0.17646550098E+04  0.25500000920E-02 0.  1.
</event>
<event>
 5   0  0.6599814E-07  0.2599863E+04  0.7818609E-02  0.8368248E-01
        2   -1    0    0  501    0  0.00000000000E+00  0.00000000000E+00  0.14045327138E+04  0.14045327138E+04  0.25500000920E-02 0.  1.
       -2   -1    0    0    0  501  0.00000000000E+00  0.00000000000E+00 -0.12031203659E+04  0.12031203659E+04  0.25500000920E-02 0. -1.
    10030    2    1    2    0    0  0.00000000000E+00  0.00000000000E+00  0.20141234794E+03  0.26076530797E+04  0.25998630060E+04 0.  0.
        5    1    3    3  502    0  0.21104249772E+03 -0.66696464587E+03  0.11996254397E+04  0.13887058941E+04  0.46999998093E+01 0.  1.
       -5    1    3    3    0  502 -0.21104249772E+03  0.66696464587E+03 -0.99821309177E+03  0.12189471856E+04  0.46999998093E+01 0. -1.
</event>
<event>
 5   0  0.2864801E-07  0.2600226E+04  0.7818609E-02  0.8368125E-01
       -1   -1    0    0    0  501  0.00000000000E+00  0.00000000000E+00  0.11129438582E+04  0.11129438582E+04  0.50400001928E-02 0. -1.
        1   -1    0    0  501    0  0.00000000000E+00  0.00000000000E+00 -0.15187588407E+04  0.15187588407E+04  0.50400001928E-02 0.  1.
    10030    2    1    2    0    0  0.00000000000E+00  0.00000000000E+00 -0.40581498252E+03  0.26317026989E+04  0.26002256239E+04 0.  0.
        5    1    3    3  502    0 -0.56209466687E+03 -0.11492262770E+04 -0.43722638614E+03  0.13519838952E+04  0.46999998093E+01 0. -1.
       -5    1    3    3    0  502  0.56209466687E+03  0.11492262770E+04  0.31411403624E+02  0.12797188037E+04  0.46999998093E+01 0.  1.
</event>
<event>
 5   0  0.6768478E-07  0.2600974E+04  0.7818609E-02  0.8367870E-01
       -2   -1    0    0    0  501  0.00000000000E+00  0.00000000000E+00  0.12035301283E+04  0.12035301283E+04  0.25500000920E-02 0. -1.
        2   -1    0    0  501    0  0.00000000000E+00  0.00000000000E+00 -0.14052547963E+04  0.14052547963E+04  0.25500000920E-02 0.  1.
    10030    2    1    2    0    0  0.00000000000E+00  0.00000000000E+00 -0.20172466795E+03  0.26087849246E+04  0.26009740370E+04 0.  0.
        4    1    3    3  502    0  0.10987783847E+04 -0.38191361127E+03 -0.68406607599E+03  0.13494887752E+04  0.12699999809E+01 0.  1.
       -4    1    3    3    0  502 -0.10987783847E+04  0.38191361127E+03  0.48234140804E+03  0.12592961494E+04  0.12699999809E+01 0. -1.
</event>
<event>
 5   0  0.2755061E-07  0.2602814E+04  0.7818609E-02  0.8367246E-01
        1   -1    0    0  501    0  0.00000000000E+00  0.00000000000E+00  0.14570858382E+04  0.14570858382E+04  0.50400001928E-02 0. -1.
       -1   -1    0    0    0  501  0.00000000000E+00  0.00000000000E+00 -0.11623615542E+04  0.11623615542E+04  0.50400001928E-02 0.  1.
    10030    2    1    2    0    0  0.00000000000E+00  0.00000000000E+00  0.29472428398E+03  0.26194473924E+04  0.26028142919E+04 0.  0.
        4    1    3    3  502    0  0.12078090316E+04 -0.15504210837E+03  0.60944577277E+03  0.13617145351E+04  0.12699999809E+01 0. -1.
       -4    1    3    3    0  502 -0.12078090316E+04  0.15504210837E+03 -0.31472148879E+03  0.12577328574E+04  0.12699999809E+01 0.  1.
</event>
<event>
 5   0  0.2793576E-07  0.2598742E+04  0.7818609E-02  0.8368629E-01
        1   -1    0    0  501    0  0.00000000000E+00  0.00000000000E+00  0.12838692136E+04  0.12838692136E+04  0.50400001928E-02 0. -1.
       -1   -1    0    0    0  501  0.00000000000E+00  0.00000000000E+00 -0.13150596721E+04  0.13150596721E+04  0.50400001928E-02 0.  1.
    10030    2    1    2    0    0  0.00000000000E+00  0.00000000000E+00 -0.31190458491E+02  0.25989288857E+04  0.25987417163E+04 0.  0.
        2    1    3    3  502    0  0.11618191953E+04  0.57823705829E+03 -0.80273598133E+02  0.13002406657E+04  0.25500000920E-02 0.  1.
       -2    1    3    3    0  502 -0.11618191953E+04 -0.57823705829E+03  0.49083139642E+02  0.12986882200E+04  0.25500000920E-02 0. -1.
</event>
<event>
 5   0  0.2641626E-07  0.2593771E+04  0.7818609E-02  0.8370320E-01
        1   -1    0    0  501    0  0.00000000000E+00  0.00000000000E+00  0.11236241796E+04  0.11236241796E+04  0.50400001928E-02 0.  1.
       -1   -1    0    0    0  501  0.00000000000E+00  0.00000000000E+00 -0.14968632620E+04  0.14968632620E+04  0.50400001928E-02 0. -1.
    10030    2    1    2    0    0  0.00000000000E+00  0.00000000000E+00 -0.37323908240E+03  0.26204874416E+04  0.25937708108E+04 0.  0.
        3    1    3    3  502    0  0.97020851609E+03  0.14138648600E+03  0.67101595655E+03  0.11880896966E+04  0.10100000352E+00 0.  1.
       -3    1    3    3    0  502 -0.97020851609E+03 -0.14138648600E+03 -0.10442550390E+04  0.14323977449E+04  0.10100000352E+00 0. -1.
</event>
<event>
 5   0  0.6526351E-07  0.2599710E+04  0.7818609E-02  0.8368300E-01
       -2   -1    0    0    0  501  0.00000000000E+00  0.00000000000E+00  0.16967572552E+04  0.16967572552E+04  0.25500000920E-02 0. -1.
        2   -1    0    0  501    0  0.00000000000E+00  0.00000000000E+00 -0.99579539035E+03  0.99579539035E+03  0.25500000920E-02 0.  1.
    10030    2    1    2    0    0  0.00000000000E+00  0.00000000000E+00  0.70096186488E+03  0.26925526456E+04  0.25997100248E+04 0.  0.
        3    1    3    3  502    0  0.11273977713E+04 -0.51261128384E+02  0.10184711363E+04  0.15201766028E+04  0.10100000352E+00 0. -1.
       -3    1    3    3    0  502 -0.11273977713E+04  0.51261128384E+02 -0.31750927141E+03  0.11723760428E+04  0.10100000352E+00 0.  1.
</event>
<event>
 5   0  0.2793576E-07  0.2599696E+04  0.7818609E-02  0.8368305E-01
        1   -1    0    0  501    0  0.00000000000E+00  0.00000000000E+00  0.12709227319E+04  0.12709227319E+04  0.50400001928E-02 0.  1.
       -1   -1    0    0    0  501  0.00000000000E+00  0.00000000000E+00 -0.13294312052E+04  0.13294312053E+04  0.50400001928E-02 0. -1.
    10030    2    1    2    0    0  0.00000000000E+00  0.00000000000E+00 -0.58508473361E+02  0.26003539371E+04  0.25996956277E+04 0.  0.
        2    1    3    3  502    0  0.93333256378E+03  0.90111559052E+03 -0.10980634443E+03  0.13019894068E+04  0.25500000920E-02 0.  1.
       -2    1    3    3    0  502 -0.93333256378E+03 -0.90111559052E+03  0.51297871072E+02  0.12983645304E+04  0.25500000920E-02 0. -1.
</event>
<event>
 5   0  0.2793576E-07  0.2602947E+04  0.7818609E-02  0.8367201E-01
        1   -1    0    0  501    0  0.00000000000E+00  0.00000000000E+00  0.20041283315E+04  0.20041283315E+04  0.50400001928E-02 0.  1.
       -1   -1    0    0    0  501  0.00000000000E+00  0.00000000000E+00 -0.84517237831E+03  0.84517237832E+03  0.50400001928E-02 0. -1.
    10030    2    1    2    0    0  0.00000000000E+00  0.00000000000E+00  0.11589559532E+04  0.28493007099E+04  0.26029474896E+04 0.  0.
        2    1    3    3  502    0  0.29220450137E+03  0.12603517761E+04  0.73414399330E+03  0.14875609141E+04  0.25500000920E-02 0. -1.
       -2    1    3    3    0  502 -0.29220450137E+03 -0.12603517761E+04  0.42481195992E+03  0.13617397958E+04  0.25500000920E-02 0.  1.
</event>
<event>
 5   0  0.6599814E-07  0.2599356E+04  0.7818609E-02  0.8368420E-01
       -2   -1    0    0    0  501  0.00000000000E+00  0.00000000000E+00  0.14988064078E+04  0.14988064078E+04  0.25500000920E-02 0.  1.
        2   -1    0    0  501    0  0.00000000000E+00  0.00000000000E+00 -0.11270058090E+04  0.11270058090E+04  0.25500000920E-02 0. -1.
    10030    2    1    2    0    0  0.00000000000E+00  0.00000000000E+00  0.37180059886E+03  0.26258122168E+04  0.25993564805E+04 0.  0.
        5    1    3    3  502    0 -0.60356052767E+03 -0.86018616118E+03  0.95849541440E+03  0.14223013365E+04  0.46999998093E+01 0.  1.
       -5    1    3    3    0  502  0.60356052767E+03  0.86018616118E+03 -0.58669481554E+03  0.12035108803E+04  0.46999998093E+01 0. -1.
</event>
<event>
 5   0  0.6768478E-07  0.2597769E+04  0.7818609E-02  0.8368960E-01
       -2   -1    0    0    0  501  0.00000000000E+00  0.00000000000E+00  0.97586344198E+03  0.97586344198E+03  0.25500000920E-02 0.  1.
        2   -1    0    0  501    0  0.00000000000E+00  0.00000000000E+00 -0.17288283780E+04  0.17288283780E+04  0.25500000920E-02 0. -1.
    10030    2    1    2    0    0  0.00000000000E+00  0.00000000000E+00 -0.75296493600E+03  0.27046918200E+04  0.25977685898E+04 0.  0.
        4    1    3    3  502    0  0.11420484167E+04  0.55263513047E+03 -0.66617683671E+03  0.14329945444E+04  0.12699999809E+01 0. -1.
       -4    1    3    3    0  502 -0.11420484167E+04 -0.55263513047E+03 -0.86788099285E+02  0.12716972756E+04  0.12699999809E+01 0.  1.
</event>
<event>
 5   0  0.2793576E-07  0.2599362E+04  0.7818609E-02  0.8368418E-01
        1   -1    0    0  501    0  0.00000000000E+00  0.00000000000E+00  0.11728007184E+04  0.11728007184E+04  0.50400001928E-02 0. -1.
       -1   -1    0    0    0  501  0.00000000000E+00  0.00000000000E+00 -0.14402878063E+04  0.14402878063E+04  0.50400001928E-02 0.  1.
    10030    2    1    2    0    0  0.00000000000E+00  0.00000000000E+00 -0.26748708786E+03  0.26130885247E+04  0.25993619017E+04 0.  0.
        2    1    3    3  502    0  0.89953950554E+03  0.79106737242E+03 -0.64060014901E+03  0.13584283053E+04  0.25500000920E-02 0. -1.
       -2    1    3    3    0  502 -0.89953950554E+03 -0.79106737242E+03  0.37311306115E+03  0.12546602194E+04  0.25500000920E-02 0.  1.
</event>
<event>
 5   0  0.2641626E-07  0.2598927E+04  0.7818609E-02  0.8368566E-01
       -1   -1    0    0    0  501  0.00000000000E+00  0.00000000000E+00  0.11803635554E+04  0.11803635554E+04  0.50400001928E-02 0.  1.
        1   -1    0    0  501    0  0.00000000000E+00  0.00000000000E+00 -0.14305810218E+04  0.14305810218E+04  0.50400001928E-02 0. -1.
    10030    2    1    2    0    0  0.00000000000E+00  0.00000000000E+00 -0.25021746637E+03  0.26109445772E+04  0.25989272411E+04 0.  0.
        3    1    3    3  502    0 -0.77553796710E+02 -0.10249803460E+04 -0.92377302288E+03  0.13820115445E+04  0.10100000352E+00 0. -1.
       -3    1    3    3    0  502  0.77553796710E+02  0.10249803460E+04  0.67355555650E+03  0.12289330327E+04  0.10100000352E+00 0.  1.
</event>
<event>
 5   0  0.2641626E-07  0.2600035E+04  0.7818609E-02  0.8368189E-01
       -1   -1    0    0    0  501  0.00000000000E+00  0.00000000000E+00  0.62558462023E+03  0.62558462025E+03  0.50400001928E-02 0.  1.
        1   -1    0    0  501    0  0.00000000000E+00  0.00000000000E+00 -0.27015449693E+04  0.27015449693E+04  0.50400001928E-02 0. -1.
    10030    2    1    2    0    0  0.00000000000E+00  0.00000000000E+00 -0.20759603491E+04  0.33271295896E+04  0.26000346026E+04 0.  0.
        3    1    3    3  502    0 -0.93260875296E+03  0.87268512540E+03 -0.72792862742E+03  0.14701083331E+04  0.10100000352E+00 0.  1.
       -3    1    3    3    0  502  0.93260875296E+03 -0.87268512540E+03 -0.13480317217E+04  0.18570212565E+04  0.10100000352E+00 0. -1.
</event>
<event>
 5   0  0.6780984E-07  0.2600330E+04  0.7818609E-02  0.8368089E-01
        2   -1    0    0  501    0  0.00000000000E+00  0.00000000000E+00  0.14136990374E+04  0.14136990374E+04  0.25500000920E-02 0. -1.
       -2   -1    0    0    0  501  0.00000000000E+00  0.00000000000E+00 -0.11957485548E+04  0.11957485548E+04  0.25500000920E-02 0.  1.
    10030    2    1    2    0    0  0.00000000000E+00  0.00000000000E+00  0.21795048261E+03  0.26094475922E+04  0.26003296567E+04 0.  0.
        2    1    3    3  502    0  0.12172550642E+03 -0.12609913698E+03  0.14017901128E+04  0.14127043610E+04  0.25500000920E-02 0. -1.
       -2    1    3    3    0  502 -0.12172550642E+03  0.12609913698E+03 -0.11838396302E+04  0.11967432312E+04  0.25500000920E-02 0.  1.
</event>
<event>
 5   0  0.2623263E-07  0.2596820E+04  0.7818609E-02  0.8369282E-01
        1   -1    0    0  501    0  0.00000000000E+00  0.00000000000E+00  0.11443176012E+04  0.11443176012E+04  0.50400001928E-02 0.  1.
       -1   -1    0    0    0  501  0.00000000000E+00  0.00000000000E+00 -0.14732517742E+04  0.14732517742E+04  0.50400001928E-02 0. -1.
    10030    2    1    2    0    0  0.00000000000E+00  0.00000000000E+00 -0.32893417294E+03  0.26175693754E+04  0.25968195442E+04 0.  0.
        1    1    3    3  502    0  0.29661113818E+03  0.12577237517E+04 -0.36882672139E+02  0.12927519230E+04  0.50400001928E-02 0. -1.
       -1    1    3    3    0  502 -0.29661113818E+03 -0.12577237517E+04 -0.29205150080E+03  0.13248174524E+04  0.50400001928E-02 0.  1.
</event>
<event>
 5   0  0.6599814E-07  0.2598037E+04  0.7818609E-02  0.8368868E-01
        2   -1    0    0  501    0  0.00000000000E+00  0.00000000000E+00  0.11949470364E+04  0.11949470364E+04  0.25500000920E-02 0. -1.
       -2   -1    0    0    0  501  0.00000000000E+00  0.00000000000E+00 -0.14121539594E+04  0.14121539594E+04  0.25500000920E-02 0.  1.
    10030    2    1    2    0    0  0.00000000000E+00  0.00000000000E+00 -0.21720692305E+03  0.26071009958E+04  0.25980370965E+04 0.  0.
        5    1    3    3  502    0  0.61548809785E+03  0.10513758164E+04  0.34375786129E+03  0.12658626557E+04  0.46999998093E+01 0. -1.
       -5    1    3    3    0  502 -0.61548809785E+03 -0.10513758164E+04 -0.56096478434E+03  0.13412383401E+04  0.46999998093E+01 0.  1.
</event>
<event>
 5   0  0.2641626E-07  0.2598032E+04  0.7818609E-02  0.8368870E-01
        1   -1    0    0  501    0  0.00000000000E+00  0.00000000000E+00  0.79013510688E+03  0.79013510690E+03  0.50400001928E-02 0. -1.
       -1   -1    0    0    0  501  0.00000000000E+00  0.00000000000E+00 -0.21356384091E+04  0.21356384092E+04  0.50400001928E-02 0.  1.
    10030    2    1    2    0    0  0.00000000000E+00  0.00000000000E+00 -0.13455033023E+04  0.29257735161E+04  0.25980322421E+04 0.  0.
        3    1    3    3  502    0  0.10170505689E+04 -0.93432374896E+02  0.23120467263E+03  0.10471757633E+04  0.10100000352E+00 0. -1.
       -3    1    3    3    0  502 -0.10170505689E+04  0.93432374896E+02 -0.15767079749E+04  0.18785977528E+04  0.10100000352E+00 0.  1.
</event>
<event>
 5   0  0.6780984E-07  0.2590234E+04  0.7818609E-02  0.8371526E-01
       -2   -1    0    0    0  501  0.00000000000E+00  0.00000000000E+00  0.10688866956E+04  0.10688866956E+04  0.25500000920E-02 0. -1.
        2   -1    0    0  501    0  0.00000000000E+00  0.00000000000E+00 -0.15692286522E+04  0.15692286522E+04  0.25500000920E-02 0.  1.
    10030    2    1    2    0    0  0.00000000000E+00  0.00000000000E+00 -0.50034195660E+03  0.26381153477E+04  0.25902336795E+04 0.  0.
        2    1    3    3  502    0  0.96057876326E+03 -0.68987249045E+03  0.28750062157E+03  0.12170834897E+04  0.25500000920E-02 0. -1.
       -2    1    3    3    0  502 -0.96057876326E+03  0.68987249045E+03 -0.78784257817E+03  0.14210318580E+04  0.25500000920E-02 0.  1.
</event>
<event>
 5   0  0.2294625E-07  0.2599945E+04  0.7818609E-02  0.8368220E-01
        3   -1    0    0  501    0  0.00000000000E+00  0.00000000000E+00  0.73177588124E+03  0.73177588821E+03  0.10100000352E+00 0.  1.
       -3   -1    0    0    0  501  0.00000000000E+00  0.00000000000E+00 -0.23093526154E+04  0.23093526176E+04  0.10100000352E+00 0. -1.
    10030    2    1    2    0    0  0.00000000000E+00  0.00000000000E+00 -0.15775767341E+04  0.30411285058E+04  0.25999450449E+04 0.  0.
        5    1    3    3  502    0 -0.12301231842E+04 -0.39768636928E+03 -0.94809378007E+03  0.16032034813E+04  0.46999998093E+01 0.  1.
       -5    1    3    3    0  502  0.12301231842E+04  0.39768636928E+03 -0.62948295407E+03  0.14379250245E+04  0.46999998093E+01 0. -1.
</event>
<event>
 5   0  0.6599814E-07  0.2600359E+04  0.7818609E-02  0.8368079E-01
       -2   -1    0    0    0  501  0.00000000000E+00  0.00000000000E+00  0.13841540902E+04  0.13841540902E+04  0.25500000920E-02 0.  1.
        2   -1    0    0  501    0  0.00000000000E+00  0.00000000000E+00 -0.12212995924E+04  0.12212995924E+04  0.25500000920E-02 0. -1.
    10030    2    1    2    0    0  0.00000000000E+00  0.00000000000E+00  0.16285449781E+03  0.26054536825E+04  0.26003590722E+04 0.  0.
        5    1    3    3  502    0 -0.12555960224E+04  0.19063596283E+03 -0.19765264277E+03  0.12852828867E+04  0.46999998093E+01 0. -1.
       -5    1    3    3    0  502  0.12555960224E+04 -0.19063596283E+03  0.36050714058E+03  0.13201707958E+04  0.46999998093E+01 0.  1.
</event>
<event>
 5   0  0.2623263E-07  0.2600831E+04  0.7818609E-02  0.8367919E-01
        1   -1    0    0  501    0  0.00000000000E+00  0.00000000000E+00  0.23097876585E+04  0.23097876585E+04  0.50400001928E-02 0.  1.
       -1   -1    0    0    0  501  0.00000000000E+00  0.00000000000E+00 -0.73213653335E+03  0.73213653337E+03  0.50400001928E-02 0. -1.
    10030    2    1    2    0    0  0.00000000000E+00  0.00000000000E+00  0.15776511252E+04  0.30419241919E+04  0.26008305821E+04 0.  0.
        1    1    3    3  502    0  0.72218444055E+03  0.47123492937E+02  0.20524826260E+04  0.21763400285E+04  0.50400001928E-02 0.  1.
       -1    1    3    3    0  502 -0.72218444055E+03 -0.47123492937E+02 -0.47483150079E+03  0.86558416340E+03  0.50400001928E-02 0. -1.
</event>
<event>
 5   0  0.2755061E-07  0.2600801E+04  0.7818609E-02  0.8367929E-01
       -1   -1    0    0    0  501  0.00000000000E+00  0.00000000000E+00  0.17629067119E+04  0.17629067120E+04  0.50400001928E-02 0. -1.
        1   -1    0    0  501    0  0.00000000000E+00  0.00000000000E+00 -0.95923459377E+03  0.95923459378E+03  0.50400001928E-02 0.  1.
    10030    2    1    2    0    0  0.00000000000E+00  0.00000000000E+00  0.80367211818E+03  0.27221413057E+04  0.26008007257E+04 0.  0.
        4    1    3    3  502    0 -0.86816028145E+03 -0.33895053316E+01  0.14151612910E+04  0.16602399994E+04  0.12699999809E+01 0. -1.
       -4    1    3    3    0  502  0.86816028145E+03  0.33895053316E+01 -0.61148917284E+03  0.10619013064E+04  0.12699999809E+01 0.  1.
</event>
<event>
 5   0  0.6526351E-07  0.2600270E+04  0.7818609E-02  0.8368110E-01
       -2   -1    0    0    0  501  0.00000000000E+00  0.00000000000E+00  0.13667964497E+04  0.13667964497E+04  0.25500000920E-02 0.  1.
        2   -1    0    0  501    0  0.00000000000E+00  0.00000000000E+00 -0.12367243693E+04  0.12367243693E+04  0.25500000920E-02 0. -1.
    10030    2    1    2    0    0  0.00000000000E+00  0.00000000000E+00  0.13007208038E+03  0.26035208189E+04  0.26002695838E+04 0.  0.
        3    1    3    3  502    0 -0.93853722568E+03 -0.47693925939E+03 -0.69882498514E+03  0.12635978598E+04  0.10100000352E+00 0.  1.
       -3    1    3    3    0  502  0.93853722568E+03  0.47693925939E+03  0.82889706552E+03  0.13399229592E+04  0.10100000352E+00 0. -1.
</event>
<event>
 5   0  0.2864801E-07  0.2600368E+04  0.7818609E-02  0.8368076E-01
        1   -1    0    0  501    0  0.00000000000E+00  0.00000000000E+00  0.19636969929E+04  0.19636969929E+04  0.50400001928E-02 0. -1.
       -1   -1    0    0    0  501  0.00000000000E+00  0.00000000000E+00 -0.86086547679E+03  0.86086547681E+03  0.50400001928E-02 0.  1.
    10030    2    1    2    0    0  0.00000000000E+00  0.00000000000E+00  0.11028315161E+04  0.28245624697E+04  0.26003683955E+04 0.  0.
        5    1    3    3  502    0  0.18523361827E+03 -0.21987708507E+03  0.19287274706E+04  0.19500433769E+04  0.46999998093E+01 0. -1.
       -5    1    3    3    0  502 -0.18523361827E+03  0.21987708507E+03 -0.82589595455E+03  0.87451909277E+03  0.46999998093E+01 0.  1.
</event>
<event>
 5   0  0.7160320E-07  0.2599961E+04  0.7818609E-02  0.8368214E-01
       -2   -1    0    0    0  501  0.00000000000E+00  0.00000000000E+00  0.92542459343E+03  0.92542459344E+03  0.25500000920E-02 0.  1.
        2   -1    0    0  501    0  0.00000000000E+00  0.00000000000E+00 -0.18261344212E+04  0.18261344212E+04  0.25500000920E-02 0. -1.
    10030    2    1    2    0    0  0.00000000000E+00  0.00000000000E+00 -0.90070982781E+03  0.27515590147E+04  0.25999613107E+04 0.  0.
        1    1    3    3  502    0  0.49766575873E+03 -0.14560767333E+03  0.81124234520E+03  0.96280161228E+03  0.50400001928E-02 0.  1.
       -1    1    3    3    0  502 -0.49766575873E+03  0.14560767333E+03 -0.17119521730E+04  0.17887574024E+04  0.50400001928E-02 0. -1.
</event>
<event>
 5   0  0.2623263E-07  0.2599233E+04  0.7818609E-02  0.8368462E-01
       -1   -1    0    0    0  501  0.00000000000E+00  0.00000000000E+00  0.81175853987E+03  0.81175853989E+03  0.50400001928E-02 0. -1.
        1   -1    0    0  501    0  0.00000000000E+00  0.00000000000E+00 -0.20806716950E+04  0.20806716950E+04  0.50400001928E-02 0.  1.
    10030    2    1    2    0    0  0.00000000000E+00  0.00000000000E+00 -0.12689131551E+04  0.28924302349E+04  0.25992329769E+04 0.  0.
        1    1    3    3  502    0  0.25967827490E+02  0.73913331507E+03 -0.18236507102E+04  0.19679162325E+04  0.50400001928E-02 0.  1.
       -1    1    3    3    0  502 -0.25967827490E+02 -0.73913331507E+03  0.55473755507E+03  0.92451400234E+03  0.50400001928E-02 0. -1.
</event>
<event>
 5   0  0.6780984E-07  0.2599461E+04  0.7818609E-02  0.8368384E-01
       -2   -1    0    0    0  501  0.00000000000E+00  0.00000000000E+00  0.13704812140E+04  0.13704812140E+04  0.25500000920E-02 0.  1.
        2   -1    0    0  501    0  0.00000000000E+00  0.00000000000E+00 -0.12326320982E+04  0.12326320982E+04  0.25500000920E-02 0. -1.
    10030    2    1    2    0    0  0.00000000000E+00  0.00000000000E+00  0.13784911580E+03  0.26031133123E+04  0.25994608168E+04 0.  0.
        2    1    3    3  502    0 -0.11556499384E+04 -0.14402807202E+03  0.64682143495E+03  0.13321594628E+04  0.25500000920E-02 0.  1.
       -2    1    3    3    0  502  0.11556499384E+04  0.14402807202E+03 -0.50897231915E+03  0.12709538494E+04  0.25500000920E-02 0. -1.
</event>
<event>
 5   0  0.2641626E-07  0.2598656E+04  0.7818609E-02  0.8368658E-01
        1   -1    0    0  501    0  0.00000000000E+00  0.00000000000E+00  0.12702928917E+04  0.12702928917E+04  0.50400001928E-02 0. -1.
       -1   -1    0    0    0  501  0.00000000000E+00  0.00000000000E+00 -0.13290264128E+04  0.13290264128E+04  0.50400001928E-02 0.  1.
    10030    2    1    2    0    0  0.00000000000E+00  0.00000000000E+00 -0.58733521110E+02  0.25993193045E+04  0.25986556563E+04 0.  0.
        3    1    3    3  502    0 -0.23459000629E+03  0.58943502879E+03  0.11048481601E+04  0.12740312364E+04  0.10100000352E+00 0. -1.
       -3    1    3    3    0  502  0.23459000629E+03 -0.58943502879E+03 -0.11635816812E+04  0.13252880681E+04  0.10100000352E+00 0.  1.
</event>
<event>
 5   0  0.6768478E-07  0.2599808E+04  0.7818609E-02  0.8368266E-01
        2   -1    0    0  501    0  0.00000000000E+00  0.00000000000E+00  0.18367013481E+04  0.18367013481E+04  0.25500000920E-02 0. -1.
       -2   -1    0    0    0  501  0.00000000000E+00  0.00000000000E+00 -0.91999179303E+03  0.91999179303E+03  0.25500000920E-02 0.  1.
    10030    2    1    2    0    0  0.00000000000E+00  0.00000000000E+00  0.91670955504E+03  0.27566931411E+04  0.25998078133E+04 0.  0.
        4    1    3    3  502    0  0.92462292821E+03 -0.55563364542E+03 -0.31073693506E+03  0.11225931422E+04  0.12699999809E+01 0.  1.
       -4    1    3    3    0  502 -0.92462292821E+03  0.55563364542E+03  0.12274464901E+04  0.16340999989E+04  0.12699999809E+01 0. -1.
</event>
<event>
 5   0  0.7160320E-07  0.2595691E+04  0.7818609E-02  0.8369666E-01
        2   -1    0    0  501    0  0.00000000000E+00  0.00000000000E+00  0.11996477270E+04  0.11996477270E+04  0.25500000920E-02 0. -1.
       -2   -1    0    0    0  501  0.00000000000E+00  0.00000000000E+00 -0.14040810906E+04  0.14040810906E+04  0.25500000920E-02 0.  1.
    10030    2    1    2    0    0  0.00000000000E+00  0.00000000000E+00 -0.20443336368E+03  0.26037288176E+04  0.25956908051E+04 0.  0.
        1    1    3    3  502    0 -0.90331560360E+02  0.12758142305E+04 -0.32321904381E+03  0.13192165447E+04  0.50400001928E-02 0. -1.
       -1    1    3    3    0  502  0.90331560360E+02 -0.12758142305E+04  0.11878568013E+03  0.12845122729E+04  0.50400001928E-02 0.  1.
</event>
<event>
 5   0  0.2641626E-07  0.2599929E+04  0.7818609E-02  0.8368225E-01
       -1   -1    0    0    0  501  0.00000000000E+00  0.00000000000E+00  0.21740652772E+04  0.21740652772E+04  0.50400001928E-02 0.  1.
        1   -1    0    0  501    0  0.00000000000E+00  0.00000000000E+00 -0.77730316735E+03  0.77730316736E+03  0.50400001928E-02 0. -1.
    10030    2    1    2    0    0  0.00000000000E+00  0.00000000000E+00  0.13967621099E+04  0.29513684446E+04  0.25999290960E+04 0.  0.
        3    1    3    3  502    0  0.85520137195E+03  0.10057271499E+03  0.18038921150E+04  0.19988774426E+04  0.10100000352E+00 0.  1.
       -3    1    3    3    0  502 -0.85520137195E+03 -0.10057271499E+03 -0.40713000516E+03  0.95249100200E+03  0.10100000352E+00 0. -1.
</event>
<event>
 5   0  0.2864801E-07  0.2599862E+04  0.7818609E-02  0.8368248E-01
       -1   -1    0    0    0  501  0.00000000000E+00  0.00000000000E+00  0.99307881556E+03  0.99307881557E+03  0.50400001928E-02 0. -1.
        1   -1    0    0  501    0  0.00000000000E+00  0.00000000000E+00 -0.17015976715E+04  0.17015976715E+04  0.50400001928E-02 0.  1.
    10030    2    1    2    0    0  0.00000000000E+00  0.00000000000E+00 -0.70851885590E+03  0.26946764870E+04  0.25998619964E+04 0.  0.
        5    1    3    3  502    0 -0.79392687774E+03 -0.89124326898E+02 -0.14171004344E+04  0.16267940140E+04  0.46999998093E+01 0.  1.
       -5    1    3    3    0  502  0.79392687774E+03  0.89124326898E+02  0.70858157849E+03  0.10678824730E+04  0.46999998093E+01 0. -1.
</event>
<event>
 5   0  0.2641626E-07  0.2598952E+04  0.7818609E-02  0.8368557E-01
       -1   -1    0    0    0  501  0.00000000000E+00  0.00000000000E+00  0.78844441550E+03  0.78844441552E+03  0.50400001928E-02 0.  1.
        1   -1    0    0  501    0  0.00000000000E+00  0.00000000000E+00 -0.21417334169E+04  0.21417334169E+04  0.50400001928E-02 0. -1.
    10030    2    1    2    0    0  0.00000000000E+00  0.00000000000E+00 -0.13532890014E+04  0.29301778324E+04  0.25989519057E+04 0.  0.
        3    1    3    3  502    0 -0.64180456527E+03 -0.89963814673E+03  0.94132714632E+02  0.11091090448E+04  0.10100000352E+00 0.  1.
       -3    1    3    3    0  502  0.64180456527E+03  0.89963814673E+03 -0.14474217160E+04  0.18210687876E+04  0.10100000352E+00 0. -1.
</event>
<event>
 5   0  0.2864801E-07  0.2594086E+04  0.7818609E-02  0.8370213E-01
       -1   -1    0    0    0  501  0.00000000000E+00  0.00000000000E+00  0.63211126831E+03  0.63211126833E+03  0.50400001928E-02 0.  1.
        1   -1    0    0  501    0  0.00000000000E+00  0.00000000000E+00 -0.26614314094E+04  0.26614314095E+04  0.50400001928E-02 0. -1.
    10030    2    1    2    0    0  0.00000000000E+00  0.00000000000E+00 -0.20293201411E+04  0.32935426778E+04  0.25940861850E+04 0.  0.
        5    1    3    3  502    0  0.11111640665E+04 -0.27470077871E+03 -0.17891921667E+04  0.21240001883E+04  0.46999998093E+01 0. -1.
       -5    1    3    3    0  502 -0.11111640665E+04  0.27470077871E+03 -0.24012797447E+03  0.11695424895E+04  0.46999998093E+01 0.  1.
</event>
<event>
 5   0  0.6780984E-07  0.2584246E+04  0.7818609E-02  0.8373572E-01
        2   -1    0    0  501    0  0.00000000000E+00  0.00000000000E+00  0.12421057716E+04  0.12421057716E+04  0.25500000920E-02 0.  1.
       -2   -1    0    0    0  501  0.00000000000E+00  0.00000000000E+00 -0.13441540572E+04  0.13441540572E+04  0.25500000920E-02 0. -1.
    10030    2    1    2    0    0  0.00000000000E+00  0.00000000000E+00 -0.10204828556E+03  0.25862598288E+04  0.25842457409E+04 0.  0.
        2    1    3    3  502    0  0.17895583060E+03 -0.10483521877E+04 -0.78543121366E+03  0.13221080479E+04  0.25500000920E-02 0. -1.
       -2    1    3    3    0  502 -0.17895583060E+03  0.10483521877E+04  0.68338292809E+03  0.12641517809E+04  0.25500000920E-02 0.  1.
</event>
<event>
 5   0  0.2641626E-07  0.2600047E+04  0.7818609E-02  0.8368185E-01
        1   -1    0    0  501    0  0.00000000000E+00  0.00000000000E+00  0.20320191120E+04  0.20320191120E+04  0.50400001928E-02 0.  1.
       -1   -1    0    0    0  501  0.00000000000E+00  0.00000000000E+00 -0.83171500456E+03  0.83171500458E+03  0.50400001928E-02 0. -1.
    10030    2    1    2    0    0  0.00000000000E+00  0.00000000000E+00  0.12003041074E+04  0.28637341165E+04  0.26000467573E+04 0.  0.
        3    1    3    3  502    0 -0.11519584552E+04 -0.36257429707E+03  0.70105933146E+02  0.12097037883E+04  0.10100000352E+00 0.  1.
       -3    1    3    3    0  502  0.11519584552E+04  0.36257429707E+03  0.11301981743E+04  0.16540303282E+04  0.10100000352E+00 0. -1.
</event>
<event>
 5   0  0.7160320E-07  0.2596021E+04  0.7818609E-02  0.8369554E-01
        2   -1    0    0  501    0  0.00000000000E+00  0.00000000000E+00  0.14651462626E+04  0.14651462626E+04  0.25500000920E-02 0. -1.
       -2   -1    0    0    0  501  0.00000000000E+00  0.00000000000E+00 -0.11499407566E+04  0.11499407566E+04  0.25500000920E-02 0.  1.
    10030    2    1    2    0    0  0.00000000000E+00  0.00000000000E+00  0.31520550594E+03  0.26150870192E+04  0.25960211107E+04 0.  0.
        1    1    3    3  502    0 -0.48960910565E+03  0.10543761406E+04  0.73925600627E+03  0.13776521930E+04  0.50400001928E-02 0. -1.
       -1    1    3    3    0  502  0.48960910565E+03 -0.10543761406E+04 -0.42405050033E+03  0.12374348262E+04  0.50400001928E-02 0.  1.
</event>
<event>
 5   0  0.6768478E-07  0.2599978E+04  0.7818609E-02  0.8368209E-01
       -2   -1    0    0    0  501  0.00000000000E+00  0.00000000000E+00  0.90145895465E+03  0.90145895465E+03  0.25500000920E-02 0.  1.
        2   -1    0    0  501    0  0.00000000000E+00  0.00000000000E+00 -0.18747067528E+04  0.18747067528E+04  0.25500000920E-02 0. -1.
    10030    2    1    2    0    0  0.00000000000E+00  0.00000000000E+00 -0.97324779819E+03  0.27761657075E+04  0.25999778381E+04 0.  0.
        4    1    3    3  502    0  0.85942206345E+02  0.90600726938E+03 -0.14778265151E+04  0.17355713920E+04  0.12699999809E+01 0. -1.
       -4    1    3    3    0  502 -0.85942206345E+02 -0.90600726938E+03  0.50457871692E+03  0.10405943155E+04  0.12699999809E+01 0.  1.
</event>
<event>
 5   0  0.2641626E-07  0.2600538E+04  0.7818609E-02  0.8368019E-01
        1   -1    0    0  501    0  0.00000000000E+00  0.00000000000E+00  0.18813308358E+04  0.18813308358E+04  0.50400001928E-02 0. -1.
       -1   -1    0    0    0  501  0.00000000000E+00  0.00000000000E+00 -0.89867193847E+03  0.89867193848E+03  0.50400001928E-02 0.  1.
    10030    2    1    2    0    0  0.00000000000E+00  0.00000000000E+00  0.98265889734E+03  0.27800027743E+04  0.26005378129E+04 0.  0.
        3    1    3    3  502    0  0.11177044678E+03 -0.60735859547E+03  0.17145515216E+04  0.18223786727E+04  0.10100000352E+00 0. -1.
       -3    1    3    3    0  502 -0.11177044678E+03  0.60735859547E+03 -0.73189262428E+03  0.95762410159E+03  0.10100000352E+00 0.  1.
</event>
<event>
 5   0  0.6526351E-07  0.2602390E+04  0.7818609E-02  0.8367390E-01
       -2   -1    0    0    0  501  0.00000000000E+00  0.00000000000E+00  0.81851492019E+03  0.81851492019E+03  0.25500000920E-02 0. -1.
        2   -1    0    0  501    0  0.00000000000E+00  0.00000000000E+00 -0.20685126834E+04  0.20685126834E+04  0.25500000920E-02 0.  1.
    10030    2    1    2    0    0  0.00000000000E+00  0.00000000000E+00 -0.12499977632E+04  0.28870276036E+04  0.26023900507E+04 0.  0.
        3    1    3    3  502    0 -0.51327413022E+03  0.49882483492E+03 -0.18305138060E+04  0.19654661923E+04  0.10100000352E+00 0.  1.
       -3    1    3    3    0  502  0.51327413022E+03 -0.49882483492E+03  0.58051604281E+03  0.92156141133E+03  0.10100000352E+00 0. -1.
</event>
<event>
 5   0  0.6526351E-07  0.2598665E+04  0.7818609E-02  0.8368655E-01
       -2   -1    0    0    0  501  0.00000000000E+00  0.00000000000E+00  0.13354440844E+04  0.13354440844E+04  0.25500000920E-02 0.  1.
        2   -1    0    0  501    0  0.00000000000E+00  0.00000000000E+00 -0.12641977058E+04  0.12641977058E+04  0.25500000920E-02 0. -1.
    10030    2    1    2    0    0  0.00000000000E+00  0.00000000000E+00  0.71246378541E+02  0.25996417902E+04  0.25986653095E+04 0.  0.
        3    1    3    3  502    0 -0.14410850881E+03 -0.63032639707E+02 -0.12546385581E+04  0.12644596860E+04  0.10100000352E+00 0. -1.
       -3    1    3    3    0  502  0.14410850881E+03  0.63032639707E+02  0.13258849366E+04  0.13351821042E+04  0.10100000352E+00 0.  1.
</event>
<event>
 5   0  0.2793576E-07  0.2597837E+04  0.7818609E-02  0.8368936E-01
       -1   -1    0    0    0  501  0.00000000000E+00  0.00000000000E+00  0.11221257315E+04  0.11221257315E+04  0.50400001928E-02 0.  1.
        1   -1    0    0  501    0  0.00000000000E+00  0.00000000000E+00 -0.15035653214E+04  0.15035653215E+04  0.50400001928E-02 0. -1.
    10030    2    1    2    0    0  0.00000000000E+00  0.00000000000E+00 -0.38143958996E+03  0.26256910530E+04  0.25978370512E+04 0.  0.
        2    1    3    3  502    0 -0.10312765354E+03 -0.12825275902E+04 -0.37060844610E+03  0.13389783243E+04  0.25500000920E-02 0.  1.
       -2    1    3    3    0  502  0.10312765354E+03  0.12825275902E+04 -0.10831143856E+02  0.12867127287E+04  0.25500000920E-02 0. -1.
</event>
<event>
 5   0  0.2864801E-07  0.2599864E+04  0.7818609E-02  0.8368247E-01
        1   -1    0    0  501    0  0.00000000000E+00  0.00000000000E+00  0.16792182386E+04  0.16792182386E+04  0.50400001928E-02 0. -1.
       -1   -1    0    0    0  501  0.00000000000E+00  0.00000000000E+00 -0.10063154416E+04  0.10063154417E+04  0.50400001928E-02 0.  1.
    10030    2    1    2    0    0  0.00000000000E+00  0.00000000000E+00  0.67290279700E+03  0.26855336803E+04  0.25998640299E+04 0.  0.
        5    1    3    3  502    0  0.57374460688E+03 -0.53037999984E+03 -0.73668306366E+03  0.10738760843E+04  0.46999998093E+01 0.  1.
       -5    1    3    3    0  502 -0.57374460688E+03  0.53037999984E+03  0.14095858607E+04  0.16116575960E+04  0.46999998093E+01 0. -1.
</event>
<event>
 5   0  0.2623263E-07  0.2592499E+04  0.7818609E-02  0.8370753E-01
        1   -1    0    0  501    0  0.00000000000E+00  0.00000000000E+00  0.12502100752E+04  0.12502100752E+04  0.50400001928E-02 0. -1.
       -1   -1    0    0    0  501  0.00000000000E+00  0.00000000000E+00 -0.13439847168E+04  0.13439847169E+04  0.50400001928E-02 0.  1.
    10030    2    1    2    0    0  0.00000000000E+00  0.00000000000E+00 -0.93774641672E+02  0.25941947920E+04  0.25924993608E+04 0.  0.
        1    1    3    3  502    0 -0.27455076413E+03  0.43766836722E+03  0.11427263497E+04  0.12540953840E+04  0.50400001928E-02 0. -1.
       -1    1    3    3    0  502  0.27455076413E+03 -0.43766836722E+03 -0.12365009914E+04  0.13400994081E+04  0.50400001928E-02 0.  1.
</event>
<event>
 5   0  0.6599814E-07  0.2607746E+04  0.7818609E-02  0.8365575E-01
        2   -1    0    0  501    0  0.00000000000E+00  0.00000000000E+00  0.17011699743E+04  0.17011699743E+04  0.25500000920E-02 0.  1.
       -2   -1    0    0    0  501  0.00000000000E+00  0.00000000000E+00 -0.99936213758E+03  0.99936213759E+03  0.25500000920E-02 0. -1.
    10030    2    1    2    0    0  0.00000000000E+00  0.00000000000E+00  0.70180783673E+03  0.27005321119E+04  0.26077460474E+04 0.  0.
        5    1    3    3  502    0 -0.10992128575E+04  0.41150630814E+03  0.93896111177E+03  0.15030889552E+04  0.46999998093E+01 0.  1.
       -5    1    3    3    0  502  0.10992128575E+04 -0.41150630814E+03 -0.23715327504E+03  0.11974431567E+04  0.46999998093E+01 0. -1.
</event>
<event>
 5   0  0.6526351E-07  0.2600509E+04  0.7818609E-02  0.8368028E-01
        2   -1    0    0  501    0  0.00000000000E+00  0.00000000000E+00  0.21696341942E+04  0.21696341942E+04  0.25500000920E-02 0. -1.
       -2   -1    0    0    0  501  0.00000000000E+00  0.00000000000E+00 -0.77923807047E+03  0.77923807048E+03  0.25500000920E-02 0.  1.
    10030    2    1    2    0    0  0.00000000000E+00  0.00000000000E+00  0.13903961237E+04  0.29488722646E+04  0.26005088449E+04 0.  0.
        3    1    3    3  502    0 -0.87847446925E+03 -0.89237580993E+03  0.29813469886E+03  0.12872203728E+04  0.10100000352E+00 0.  1.
       -3    1    3    3    0  502  0.87847446925E+03  0.89237580993E+03  0.10922614248E+04  0.16616518918E+04  0.10100000352E+00 0. -1.
</event>
<event>
 5   0  0.6768478E-07  0.2597920E+04  0.7818609E-02  0.8368908E-01
        2   -1    0    0  501    0  0.00000000000E+00  0.00000000000E+00  0.16432955158E+04  0.16432955158E+04  0.25500000920E-02 0.  1.
       -2   -1    0    0    0  501  0.00000000000E+00  0.00000000000E+00 -0.10267763410E+04  0.10267763410E+04  0.25500000920E-02 0. -1.
    10030    2    1    2    0    0  0.00000000000E+00  0.00000000000E+00  0.61651917478E+03  0.26700718568E+04  0.25979199040E+04 0.  0.
        4    1    3    3  502    0 -0.78629525152E+03 -0.16850862316E+03 -0.74018973253E+03  0.10929491441E+04  0.12699999809E+01 0. -1.
       -4    1    3    3    0  502  0.78629525152E+03  0.16850862316E+03  0.13567089073E+04  0.15771227126E+04  0.12699999809E+01 0.  1.
</event>
<event>
 5   0  0.6526351E-07  0.2600258E+04  0.7818609E-02  0.8368114E-01
        2   -1    0    0  501    0  0.00000000000E+00  0.00000000000E+00  0.64499381975E+03  0.64499381976E+03  0.25500000920E-02 0. -1.
       -2   -1    0    0    0  501  0.00000000000E+00  0.00000000000E+00 -0.26206997699E+04  0.26206997699E+04  0.25500000920E-02 0.  1.
    10030    2    1    2    0    0  0.00000000000E+00  0.00000000000E+00 -0.19757059501E+04  0.32656935896E+04  0.26002577988E+04 0.  0.
        3    1    3    3  502    0  0.22851734361E+03  0.91292609109E+03  0.13874995970E+03  0.95126536026E+03  0.10100000352E+00 0. -1.
       -3    1    3    3    0  502 -0.22851734361E+03 -0.91292609109E+03 -0.21144559098E+04  0.23144282294E+04  0.10100000352E+00 0.  1.
</event>
<event>
 5   0  0.2864801E-07  0.2599208E+04  0.7818609E-02  0.8368470E-01
       -1   -1    0    0    0  501  0.00000000000E+00  0.00000000000E+00  0.80024130293E+03  0.80024130295E+03  0.50400001928E-02 0.  1.
        1   -1    0    0  501    0  0.00000000000E+00  0.00000000000E+00 -0.21105764990E+04  0.21105764990E+04  0.50400001928E-02 0. -1.
    10030    2    1    2    0    0  0.00000000000E+00  0.00000000000E+00 -0.13103351961E+04  0.29108178020E+04  0.25992079467E+04 0.  0.
        5    1    3    3  502    0 -0.55053217421E+03  0.11697583234E+04 -0.80343391551E+03  0.15221525405E+04  0.46999998093E+01 0. -1.
       -5    1    3    3    0  502  0.55053217421E+03 -0.11697583234E+04 -0.50690128057E+03  0.13886652614E+04  0.46999998093E+01 0.  1.
</event>
<event>
 5   0  0.2755061E-07  0.2600401E+04  0.7818609E-02  0.8368065E-01
       -1   -1    0    0    0  501  0.00000000000E+00  0.00000000000E+00  0.13321250662E+04  0.13321250662E+04  0.50400001928E-02 0.  1.
        1   -1    0    0  501    0  0.00000000000E+00  0.00000000000E+00 -0.12690408605E+04  0.12690408605E+04  0.50400001928E-02 0. -1.
    10030    2    1    2    0    0  0.00000000000E+00  0.00000000000E+00  0.63084205689E+02  0.26011659267E+04  0.26004008462E+04 0.  0.
        4    1    3    3  502    0 -0.68221988851E+02  0.75798155295E+03  0.10860482866E+04  0.13261571431E+04  0.12699999809E+01 0.  1.
       -4    1    3    3    0  502  0.68221988851E+02 -0.75798155295E+03 -0.10229640810E+04  0.12750087836E+04  0.12699999809E+01 0. -1.
</event>
<event>
 5   0  0.2864801E-07  0.2594436E+04  0.7818609E-02  0.8370093E-01
       -1   -1    0    0    0  501  0.00000000000E+00  0.00000000000E+00  0.12291772412E+04  0.12291772412E+04  0.50400001928E-02 0.  1.
        1   -1    0    0  501    0  0.00000000000E+00  0.00000000000E+00 -0.13690256080E+04  0.13690256080E+04  0.50400001928E-02 0. -1.
    10030    2    1    2    0    0  0.00000000000E+00  0.00000000000E+00 -0.13984836687E+03  0.25982028492E+04  0.25944364475E+04 0.  0.
        5    1    3    3  502    0 -0.19728779004E+03 -0.66634385875E+03  0.10270272965E+04  0.12400579696E+04  0.46999998093E+01 0.  1.
       -5    1    3    3    0  502  0.19728779004E+03  0.66634385875E+03 -0.11668756634E+04  0.13581448796E+04  0.46999998093E+01 0. -1.
</event>
<event>
 5   0  0.2755061E-07  0.2608940E+04  0.7818609E-02  0.8365171E-01
        1   -1    0    0  501    0  0.00000000000E+00  0.00000000000E+00  0.13293739012E+04  0.13293739012E+04  0.50400001928E-02 0. -1.
       -1   -1    0    0    0  501  0.00000000000E+00  0.00000000000E+00 -0.12800328792E+04  0.12800328793E+04  0.50400001928E-02 0.  1.
    10030    2    1    2    0    0  0.00000000000E+00  0.00000000000E+00  0.49341021954E+02  0.26094067805E+04  0.26089402464E+04 0.  0.
        4    1    3    3  502    0  0.61103091867E+03 -0.10692738867E+04  0.45478841072E+03  0.13128364483E+04  0.12699999809E+01 0.  1.
       -4    1    3    3    0  502 -0.61103091867E+03  0.10692738867E+04 -0.40544738877E+03  0.12965703322E+04  0.12699999809E+01 0. -1.
</event>
<event>
 5   0  0.6526351E-07  0.2599307E+04  0.7818609E-02  0.8368437E-01
       -2   -1    0    0    0  501  0.00000000000E+00  0.00000000000E+00  0.11233262485E+04  0.11233262485E+04  0.25500000920E-02 0. -1.
        2   -1    0    0  501    0  0.00000000000E+00  0.00000000000E+00 -0.15036583676E+04  0.15036583676E+04  0.25500000920E-02 0.  1.
    10030    2    1    2    0    0  0.00000000000E+00  0.00000000000E+00 -0.38033211913E+03  0.26269846162E+04  0.25993067639E+04 0.  0.
        3    1    3    3  502    0 -0.22861234127E+03 -0.16604706490E+03  0.10919094269E+04  0.11278747435E+04  0.10100000352E+00 0. -1.
       -3    1    3    3    0  502  0.22861234127E+03  0.16604706490E+03 -0.14722415460E+04  0.14991098727E+04  0.10100000352E+00 0.  1.
</event>
<event>
 5   0  0.2641626E-07  0.2604165E+04  0.7818609E-02  0.8366788E-01
        1   -1    0    0  501    0  0.00000000000E+00  0.00000000000E+00  0.12617623748E+04  0.12617623748E+04  0.50400001928E-02 0. -1.
       -1   -1    0    0    0  501  0.00000000000E+00  0.00000000000E+00 -0.13436907326E+04  0.13436907326E+04  0.50400001928E-02 0.  1.
    10030    2    1    2    0    0  0.00000000000E+00  0.00000000000E+00 -0.81928357819E+02  0.26054531075E+04  0.26041646721E+04 0.  0.
        3    1    3    3  502    0  0.93966252835E+02  0.22599615890E+03 -0.13204692599E+04  0.13429605345E+04  0.10100000352E+00 0.  1.
       -3    1    3    3    0  502 -0.93966252835E+02 -0.22599615890E+03  0.12385409021E+04  0.12624925730E+04  0.10100000352E+00 0. -1.
</event>
<event>
 5   0  0.6599814E-07  0.2600502E+04  0.7818609E-02  0.8368031E-01
        2   -1    0    0  501    0  0.00000000000E+00  0.00000000000E+00  0.54457611325E+03  0.54457611326E+03  0.25500000920E-02 0. -1.
       -2   -1    0    0    0  501  0.00000000000E+00  0.00000000000E+00 -0.31045294232E+04  0.31045294232E+04  0.25500000920E-02 0.  1.
    10030    2    1    2    0    0  0.00000000000E+00  0.00000000000E+00 -0.25599533100E+04  0.36491055365E+04  0.26005019260E+04 0.  0.
        5    1    3    3  502    0  0.90324584837E+03  0.20319661653E+03  0.11116393901E+01  0.92583219500E+03  0.46999998093E+01 0. -1.
       -5    1    3    3    0  502 -0.90324584837E+03 -0.20319661653E+03 -0.25610649494E+04  0.27232733415E+04  0.46999998093E+01 0.  1.
</event>
<event>
 5   0  0.6526351E-07  0.2594705E+04  0.7818609E-02  0.8370002E-01
       -2   -1    0    0    0  501  0.00000000000E+00  0.00000000000E+00  0.15344840929E+04  0.15344840929E+04  0.25500000920E-02 0.  1.
        2   -1    0    0  501    0  0.00000000000E+00  0.00000000000E+00 -0.10968663746E+04  0.10968663746E+04  0.25500000920E-02 0. -1.
    10030    2    1    2    0    0  0.00000000000E+00  0.00000000000E+00  0.43761771831E+03  0.26313504675E+04  0.25947053812E+04 0.  0.
        3    1    3    3  502    0 -0.54526549062E+03  0.18747901903E+02 -0.97486953653E+03  0.11171555677E+04  0.10100000352E+00 0. -1.
       -3    1    3    3    0  502  0.54526549062E+03 -0.18747901903E+02  0.14124872548E+04  0.15141948997E+04  0.10100000352E+00 0.  1.
</event>
<event>
 5   0  0.2641626E-07  0.2603846E+04  0.7818609E-02  0.8366896E-01
        1   -1    0    0  501    0  0.00000000000E+00  0.00000000000E+00  0.14141274980E+04  0.14141274980E+04  0.50400001928E-02 0.  1.
       -1   -1    0    0    0  501  0.00000000000E+00  0.00000000000E+00 -0.11986211645E+04  0.11986211645E+04  0.50400001928E-02 0. -1.
    10030    2    1    2    0    0  0.00000000000E+00  0.00000000000E+00  0.21550633351E+03  0.26127486625E+04  0.26038457316E+04 0.  0.
        3    1    3    3  502    0 -0.89324204078E+03 -0.54636000549E+03  0.88409911138E+03  0.13704093724E+04  0.10100000352E+00 0.  1.
       -3    1    3    3    0  502  0.89324204078E+03  0.54636000549E+03 -0.66859277786E+03  0.12423392901E+04  0.10100000352E+00 0. -1.
</event>
<event>
 5   0  0.6768478E-07  0.2600796E+04  0.7818609E-02  0.8367931E-01
       -2   -1    0    0    0  501  0.00000000000E+00  0.00000000000E+00  0.91007439463E+03  0.91007439463E+03  0.25500000920E-02 0. -1.
        2   -1    0    0  501    0  0.00000000000E+00  0.00000000000E+00 -0.18581284509E+04  0.18581284509E+04  0.25500000920E-02 0.  1.
    10030    2    1    2    0    0  0.00000000000E+00  0.00000000000E+00 -0.94805405625E+03  0.27682028455E+04  0.26007961282E+04 0.  0.
        4    1    3    3  502    0 -0.75410503848E+03 -0.27941145416E+03  0.61365465698E+03  0.10115922206E+04  0.12699999809E+01 0. -1.
       -4    1    3    3    0  502  0.75410503848E+03  0.27941145416E+03 -0.15617087132E+04  0.17566106249E+04  0.12699999809E+01 0.  1.
</event>
<event>
 5   0  0.6599814E-07  0.2599202E+04  0.7818609E-02  0.8368472E-01
        2   -1    0    0  501    0  0.00000000000E+00  0.00000000000E+00  0.23458174309E+04  0.23458174309E+04  0.25500000920E-02 0. -1.
       -2   -1    0    0    0  501  0.00000000000E+00  0.00000000000E+00 -0.71998886070E+03  0.71998886071E+03  0.25500000920E-02 0.  1.
    10030    2    1    2    0    0  0.00000000000E+00  0.00000000000E+00  0.16258285702E+04  0.30658062916E+04  0.25992017386E+04 0.  0.
        5    1    3    3  502    0  0.11236047944E+04  0.14808793480E+03  0.62715951235E+02  0.11350652629E+04  0.46999998093E+01 0.  1.
       -5    1    3    3    0  502 -0.11236047944E+04 -0.14808793480E+03  0.15631126190E+04  0.19307410287E+04  0.46999998093E+01 0. -1.
</event>
<event>
 5   0  0.2793576E-07  0.2599058E+04  0.7818609E-02  0.8368521E-01
       -1   -1    0    0    0  501  0.00000000000E+00  0.00000000000E+00  0.15325858125E+04  0.15325858125E+04  0.50400001928E-02 0.  1.
        1   -1    0    0  501    0  0.00000000000E+00  0.00000000000E+00 -0.11019122913E+04  0.11019122913E+04  0.50400001928E-02 0. -1.
    10030    2    1    2    0    0  0.00000000000E+00  0.00000000000E+00  0.43067352114E+03  0.26344981038E+04  0.25990576325E+04 0.  0.
        2    1    3    3  502    0 -0.93223215043E+03  0.22061180421E+03  0.11054041952E+04  0.14627524689E+04  0.25500000920E-02 0.  1.
       -2    1    3    3    0  502  0.93223215043E+03 -0.22061180421E+03 -0.67473067405E+03  0.11717456349E+04  0.25500000920E-02 0. -1.
</event>
<event>
 5   0  0.2755061E-07  0.2602460E+04  0.7818609E-02  0.8367366E-01
       -1   -1    0    0    0  501  0.00000000000E+00  0.00000000000E+00  0.13786241397E+04  0.13786241397E+04  0.50400001928E-02 0.  1.
        1   -1    0    0  501    0  0.00000000000E+00  0.00000000000E+00 -0.12281807330E+04  0.12281807330E+04  0.50400001928E-02 0. -1.
    10030    2    1    2    0    0  0.00000000000E+00  0.00000000000E+00  0.15044340664E+03  0.26068048727E+04  0.26024600719E+04 0.  0.
        4    1    3    3  502    0 -0.10132797152E+04 -0.79599592376E+03 -0.10633404110E+03  0.12929245272E+04  0.12699999809E+01 0. -1.
       -4    1    3    3    0  502  0.10132797152E+04  0.79599592376E+03  0.25677744774E+03  0.13138803455E+04  0.12699999809E+01 0.  1.
</event>
<event>
 5   0  0.2641626E-07  0.2605520E+04  0.7818609E-02  0.8366329E-01
       -1   -1    0    0    0  501  0.00000000000E+00  0.00000000000E+00  0.62557277573E+03  0.62557277575E+03  0.50400001928E-02 0. -1.
        1   -1    0    0  501    0  0.00000000000E+00  0.00000000000E+00 -0.27130069470E+04  0.27130069470E+04  0.50400001928E-02 0.  1.
    10030    2    1    2    0    0  0.00000000000E+00  0.00000000000E+00 -0.20874341713E+04  0.33385797227E+04  0.26055197458E+04 0.  0.
        3    1    3    3  502    0  0.45107793147E+02 -0.48371037243E+03 -0.25925985333E+04  0.26377220480E+04  0.10100000352E+00 0.  1.
       -3    1    3    3    0  502 -0.45107793147E+02  0.48371037243E+03  0.50516436203E+03  0.70085767476E+03  0.10100000352E+00 0. -1.
</event>
<event>
 5   0  0.2864801E-07  0.2600081E+04  0.7818609E-02  0.8368174E-01
       -1   -1    0    0    0  501  0.00000000000E+00  0.00000000000E+00  0.10603022341E+04  0.10603022341E+04  0.50400001928E-02 0.  1.
        1   -1    0    0  501    0  0.00000000000E+00  0.00000000000E+00 -0.15939842720E+04  0.15939842720E+04  0.50400001928E-02 0. -1.
    10030    2    1    2    0    0  0.00000000000E+00  0.00000000000E+00 -0.53368203787E+03  0.26542865061E+04  0.26000808331E+04 0.  0.
        5    1    3    3  502    0  0.65242112430E+03  0.98901983402E+02  0.87662143942E+03  0.10972338692E+04  0.46999998093E+01 0.  1.
       -5    1    3    3    0  502 -0.65242112430E+03 -0.98901983402E+02 -0.14103034773E+04  0.15570526368E+04  0.46999998093E+01 0. -1.
</event>
<event>
 5   0  0.6526351E-07  0.2600540E+04  0.7818609E-02  0.8368018E-01
       -2   -1    0    0    0  501  0.00000000000E+00  0.00000000000E+00  0.92395240374E+03  0.92395240374E+03  0.25500000920E-02 0.  1.
        2   -1    0    0  501    0  0.00000000000E+00  0.00000000000E+00 -0.18298588659E+04  0.18298588659E+04  0.25500000920E-02 0. -1.
    10030    2    1    2    0    0  0.00000000000E+00  0.00000000000E+00 -0.90590646220E+03  0.27538112697E+04  0.26005403267E+04 0.  0.
        3    1    3    3  502    0  0.11493720708E+04 -0.39825123423E+03  0.33515936819E+02  0.12168744926E+04  0.10100000352E+00 0.  1.
       -3    1    3    3    0  502 -0.11493720708E+04  0.39825123423E+03 -0.93942239902E+03  0.15369367770E+04  0.10100000352E+00 0. -1.
</event>
<event>
 5   0  0.2623263E-07  0.2600157E+04  0.7818609E-02  0.8368148E-01
       -1   -1    0    0    0  501  0.00000000000E+00  0.00000000000E+00  0.86091886934E+03  0.86091886935E+03  0.50400001928E-02 0.  1.
        1   -1    0    0  501    0  0.00000000000E+00  0.00000000000E+00 -0.19632554880E+04  0.19632554880E+04  0.50400001928E-02 0. -1.
    10030    2    1    2    0    0  0.00000000000E+00  0.00000000000E+00 -0.11023366187E+04  0.28241743574E+04  0.26001566837E+04 0.  0.
        1    1    3    3  502    0 -0.48984837249E+03 -0.26426023454E+03 -0.18273056550E+04  0.19101913141E+04  0.50400001928E-02 0. -1.
       -1    1    3    3    0  502  0.48984837249E+03  0.26426023454E+03  0.72496903637E+03  0.91398304323E+03  0.50400001928E-02 0.  1.
</event>
<event>
 5   0  0.7160320E-07  0.2597601E+04  0.7818609E-02  0.8369017E-01
       -2   -1    0    0    0  501  0.00000000000E+00  0.00000000000E+00  0.13100361371E+04  0.13100361371E+04  0.25500000920E-02 0. -1.
        2   -1    0    0  501    0  0.00000000000E+00  0.00000000000E+00 -0.12876611368E+04  0.12876611368E+04  0.25500000920E-02 0.  1.
    10030    2    1    2    0    0  0.00000000000E+00  0.00000000000E+00  0.22375000286E+02  0.25976972739E+04  0.25976009097E+04 0.  0.
        1    1    3    3  502    0 -0.15515529193E+03 -0.66469381561E+03 -0.10938383734E+04  0.12893306094E+04  0.50400001928E-02 0.  1.
       -1    1    3    3    0  502  0.15515529193E+03  0.66469381561E+03  0.11162133737E+04  0.13083666645E+04  0.50400001928E-02 0. -1.
</event>
<event>
 5   0  0.2641626E-07  0.2605136E+04  0.7818609E-02  0.8366459E-01
        1   -1    0    0  501    0  0.00000000000E+00  0.00000000000E+00  0.19419422869E+04  0.19419422869E+04  0.50400001928E-02 0. -1.
       -1   -1    0    0    0  501  0.00000000000E+00  0.00000000000E+00 -0.87370428828E+03  0.87370428830E+03  0.50400001928E-02 0.  1.
    10030    2    1    2    0    0  0.00000000000E+00  0.00000000000E+00  0.10682379986E+04  0.28156465752E+04  0.26051359302E+04 0.  0.
        3    1    3    3  502    0  0.31969462230E+02 -0.62324773612E+03  0.17698463983E+04  0.18766502260E+04  0.10100000352E+00 0. -1.
       -3    1    3    3    0  502 -0.31969462230E+02  0.62324773612E+03 -0.70160839967E+03  0.93899634918E+03  0.10100000352E+00 0.  1.
</event>
<event>
 5   0  0.2793576E-07  0.2600573E+04  0.7818609E-02  0.8368007E-01
       -1   -1    0    0    0  501  0.00000000000E+00  0.00000000000E+00  0.12416564531E+04  0.12416564531E+04  0.50400001928E-02 0.  1.
        1   -1    0    0  501    0  0.00000000000E+00  0.00000000000E+00 -0.13616848720E+04  0.13616848721E+04  0.50400001928E-02 0. -1.
    10030    2    1    2    0    0  0.00000000000E+00  0.00000000000E+00 -0.12002841896E+03  0.26033413252E+04  0.26005728665E+04 0.  0.
        2    1    3    3  502    0  0.73291426266E+03 -0.50014858134E+03 -0.10115169286E+04  0.13455401951E+04  0.25500000920E-02 0. -1.
       -2    1    3    3    0  502 -0.73291426266E+03  0.50014858134E+03  0.89148850966E+03  0.12578011300E+04  0.25500000920E-02 0.  1.
</event>
<event>
 5   0  0.2864801E-07  0.2617381E+04  0.7818609E-02  0.8362321E-01
       -1   -1    0    0    0  501  0.00000000000E+00  0.00000000000E+00  0.17715846023E+04  0.17715846023E+04  0.50400001928E-02 0.  1.
        1   -1    0    0  501    0  0.00000000000E+00  0.00000000000E+00 -0.96674505367E+03  0.96674505368E+03  0.50400001928E-02 0. -1.
    10030    2    1    2    0    0  0.00000000000E+00  0.00000000000E+00  0.80483954864E+03  0.27383296560E+04  0.26173808676E+04 0.  0.
        5    1    3    3  502    0 -0.58408484481E+03  0.96455138683E+03 -0.29245110326E+03  0.11649309943E+04  0.46999998093E+01 0. -1.
       -5    1    3    3    0  502  0.58408484481E+03 -0.96455138683E+03  0.10972906519E+04  0.15733986617E+04  0.46999998093E+01 0.  1.
</event>
<event>
 5   0  0.6599814E-07  0.2602015E+04  0.7818609E-02  0.8367517E-01
        2   -1    0    0  501    0  0.00000000000E+00  0.00000000000E+00  0.24565037922E+04  0.24565037922E+04  0.25500000920E-02 0. -1.
       -2   -1    0    0    0  501  0.00000000000E+00  0.00000000000E+00 -0.68903637190E+03  0.68903637190E+03  0.25500000920E-02 0.  1.
    10030    2    1    2    0    0  0.00000000000E+00  0.00000000000E+00  0.17674674203E+04  0.31455401641E+04  0.26020149581E+04 0.  0.
        5    1    3    3  502    0  0.81538714087E+03 -0.94556638329E+03  0.13256744838E+04  0.18210949733E+04  0.46999998093E+01 0.  1.
       -5    1    3    3    0  502 -0.81538714087E+03  0.94556638329E+03  0.44179293646E+03  0.13244451908E+04  0.46999998093E+01 0. -1.
</event>
<event>
 5   0  0.6599814E-07  0.2601189E+04  0.7818609E-02  0.8367797E-01
        2   -1    0    0  501    0  0.00000000000E+00  0.00000000000E+00  0.93399438720E+03  0.93399438720E+03  0.25500000920E-02 0.  1.
       -2   -1    0    0    0  501  0.00000000000E+00  0.00000000000E+00 -0.18110882518E+04  0.18110882518E+04  0.25500000920E-02 0. -1.
    10030    2    1    2    0    0  0.00000000000E+00  0.00000000000E+00 -0.87709386458E+03  0.27450826390E+04  0.26011891603E+04 0.  0.
        5    1    3    3  502    0  0.83828053298E+03 -0.82106386170E+03  0.15343309593E+03  0.11833950828E+04  0.46999998093E+01 0.  1.
       -5    1    3    3    0  502 -0.83828053298E+03  0.82106386170E+03 -0.10305269605E+04  0.15616875562E+04  0.46999998093E+01 0. -1.
</event>
<event>
 5   0  0.6599814E-07  0.2600301E+04  0.7818609E-02  0.8368099E-01
        2   -1    0    0  501    0  0.00000000000E+00  0.00000000000E+00  0.70342508441E+03  0.70342508441E+03  0.25500000920E-02 0.  1.
       -2   -1    0    0    0  501  0.00000000000E+00  0.00000000000E+00 -0.24030859859E+04  0.24030859859E+04  0.25500000920E-02 0. -1.
    10030    2    1    2    0    0  0.00000000000E+00  0.00000000000E+00 -0.16996609015E+04  0.31065110703E+04  0.26003007230E+04 0.  0.
        5    1    3    3  502    0 -0.28777171151E+03  0.12009605825E+04 -0.13354767178E+04  0.18189664737E+04  0.46999998093E+01 0. -1.
       -5    1    3    3    0  502  0.28777171151E+03 -0.12009605825E+04 -0.36418418370E+03  0.12875445966E+04  0.46999998093E+01 0.  1.
</event>
<event>
 5   0  0.2755061E-07  0.2600039E+04  0.7818609E-02  0.8368188E-01
       -1   -1    0    0    0  501  0.00000000000E+00  0.00000000000E+00  0.17234693581E+04  0.17234693581E+04  0.50400001928E-02 0. -1.
        1   -1    0    0  501    0  0.00000000000E+00  0.00000000000E+00 -0.98060977560E+03  0.98060977562E+03  0.50400001928E-02 0.  1.
    10030    2    1    2    0    0  0.00000000000E+00  0.00000000000E+00  0.74285958249E+03  0.27040791337E+04  0.26000391540E+04 0.  0.
        4    1    3    3  502    0 -0.16424869679E+03  0.95449053796E+03  0.12733207850E+04  0.15998053806E+04  0.12699999809E+01 0. -1.
       -4    1    3    3    0  502  0.16424869679E+03 -0.95449053796E+03 -0.53046120253E+03  0.11042737531E+04  0.12699999809E+01 0.  1.
</event>
<event>
 5   0  0.6780984E-07  0.2603365E+04  0.7818609E-02  0.8367059E-01
        2   -1    0    0  501    0  0.00000000000E+00  0.00000000000E+00  0.70081935721E+03  0.70081935721E+03  0.25500000920E-02 0.  1.
       -2   -1    0    0    0  501  0.00000000000E+00  0.00000000000E+00 -0.24177094885E+04  0.24177094885E+04  0.25500000920E-02 0. -1.
    10030    2    1    2    0    0  0.00000000000E+00  0.00000000000E+00 -0.17168901313E+04  0.31185288458E+04  0.26033652142E+04 0.  0.
        2    1    3    3  502    0 -0.20194699690E+03  0.19268949882E+02 -0.23986569953E+04  0.24072202357E+04  0.25500000920E-02 0. -1.
       -2    1    3    3    0  502  0.20194699690E+03 -0.19268949882E+02  0.68176686395E+03  0.71130861008E+03  0.25500000920E-02 0.  1.
</event>
<event>
 5   0  0.6526351E-07  0.2600987E+04  0.7818609E-02  0.8367866E-01
        2   -1    0    0  501    0  0.00000000000E+00  0.00000000000E+00  0.23156905604E+04  0.23156905604E+04  0.25500000920E-02 0. -1.
       -2   -1    0    0    0  501  0.00000000000E+00  0.00000000000E+00 -0.73035793807E+03  0.73035793807E+03  0.25500000920E-02 0.  1.
    10030    2    1    2    0    0  0.00000000000E+00  0.00000000000E+00  0.15853326224E+04  0.30460484985E+04  0.26009867227E+04 0.  0.
        3    1    3    3  502    0 -0.43467450561E+03 -0.12110527195E+04  0.57141477456E+03  0.14078726754E+04  0.10100000352E+00 0.  1.
       -3    1    3    3    0  502  0.43467450561E+03  0.12110527195E+04  0.10139178478E+04  0.16381758231E+04  0.10100000352E+00 0. -1.
</event>
<event>
 5   0  0.2623263E-07  0.2602530E+04  0.7818609E-02  0.8367342E-01
        1   -1    0    0  501    0  0.00000000000E+00  0.00000000000E+00  0.21716564520E+04  0.21716564520E+04  0.50400001928E-02 0.  1.
       -1   -1    0    0    0  501  0.00000000000E+00  0.00000000000E+00 -0.77972321854E+03  0.77972321856E+03  0.50400001928E-02 0. -1.
    10030    2    1    2    0    0  0.00000000000E+00  0.00000000000E+00  0.13919332335E+04  0.29513796706E+04  0.26025302752E+04 0.  0.
        1    1    3    3  502    0  0.10627720938E+04  0.63707186543E+03  0.24527089782E+03  0.12631321777E+04  0.50400001928E-02 0. -1.
       -1    1    3    3    0  502 -0.10627720938E+04 -0.63707186543E+03  0.11466623356E+04  0.16882474928E+04  0.50400001928E-02 0.  1.
</event>
<event>
 5   0  0.6526351E-07  0.2609019E+04  0.7818609E-02  0.8365144E-01
        2   -1    0    0  501    0  0.00000000000E+00  0.00000000000E+00  0.13213894471E+04  0.13213894471E+04  0.25500000920E-02 0. -1.
       -2   -1    0    0    0  501  0.00000000000E+00  0.00000000000E+00 -0.12878448553E+04  0.12878448553E+04  0.25500000920E-02 0.  1.
    10030    2    1    2    0    0  0.00000000000E+00  0.00000000000E+00  0.33544591782E+02  0.26092343024E+04  0.26090186671E+04 0.  0.
        3    1    3    3  502    0  0.34338221620E+03  0.54373707134E+03  0.11518477063E+04  0.13192098006E+04  0.10100000352E+00 0. -1.
       -3    1    3    3    0  502 -0.34338221620E+03 -0.54373707134E+03 -0.11183031145E+04  0.12900245018E+04  0.10100000352E+00 0.  1.
</event>
<event>
 5   0  0.2755061E-07  0.2599678E+04  0.7818609E-02  0.8368310E-01
       -1   -1    0    0    0  501  0.00000000000E+00  0.00000000000E+00  0.67365815618E+03  0.67365815620E+03  0.50400001928E-02 0.  1.
        1   -1    0    0  501    0  0.00000000000E+00  0.00000000000E+00 -0.25080703751E+04  0.25080703752E+04  0.50400001928E-02 0. -1.
    10030    2    1    2    0    0  0.00000000000E+00  0.00000000000E+00 -0.18344122190E+04  0.31817285313E+04  0.25996784913E+04 0.  0.
        4    1    3    3  502    0 -0.10902747457E+04  0.75548584424E+02 -0.55969805252E+02  0.10943220923E+04  0.12699999809E+01 0.  1.
       -4    1    3    3    0  502  0.10902747457E+04 -0.75548584424E+02 -0.17784424137E+04  0.20874064390E+04  0.12699999809E+01 0. -1.
</event>
<event>
 5   0  0.6599814E-07  0.2600353E+04  0.7818609E-02  0.8368081E-01
       -2   -1    0    0    0  501  0.00000000000E+00  0.00000000000E+00  0.10877860484E+04  0.10877860484E+04  0.25500000920E-02 0. -1.
        2   -1    0    0  501    0  0.00000000000E+00  0.00000000000E+00 -0.15540360472E+04  0.15540360472E+04  0.25500000920E-02 0.  1.
    10030    2    1    2    0    0  0.00000000000E+00  0.00000000000E+00 -0.46624999884E+03  0.26418220956E+04  0.26003528459E+04 0.  0.
        5    1    3    3  502    0 -0.69241887480E+03 -0.92198581231E+03  0.37723452729E+03  0.12131898923E+04  0.46999998093E+01 0. -1.
       -5    1    3    3    0  502  0.69241887480E+03  0.92198581231E+03 -0.84348452614E+03  0.14286322032E+04  0.46999998093E+01 0.  1.
</event>
<event>
 5   0  0.2641626E-07  0.2599732E+04  0.7818609E-02  0.8368292E-01
       -1   -1    0    0    0  501  0.00000000000E+00  0.00000000000E+00  0.90485022024E+03  0.90485022026E+03  0.50400001928E-02 0. -1.
        1   -1    0    0  501    0  0.00000000000E+00  0.00000000000E+00 -0.18673271600E+04  0.18673271600E+04  0.50400001928E-02 0.  1.
    10030    2    1    2    0    0  0.00000000000E+00  0.00000000000E+00 -0.96247693976E+03  0.27721773803E+04  0.25997318262E+04 0.  0.
        3    1    3    3  502    0  0.10886775051E+04  0.36484065534E+02 -0.12375841091E+04  0.16486856082E+04  0.10100000352E+00 0.  1.
       -3    1    3    3    0  502 -0.10886775051E+04 -0.36484065534E+02  0.27510716938E+03  0.11234917721E+04  0.10100000352E+00 0. -1.
</event>
<event>
 5   0  0.6780984E-07  0.2599905E+04  0.7818609E-02  0.8368233E-01
        2   -1    0    0  501    0  0.00000000000E+00  0.00000000000E+00  0.22339034331E+04  0.22339034331E+04  0.25500000920E-02 0. -1.
       -2   -1    0    0    0  501  0.00000000000E+00  0.00000000000E+00 -0.75646798801E+03  0.75646798801E+03  0.25500000920E-02 0.  1.
    10030    2    1    2    0    0  0.00000000000E+00  0.00000000000E+00  0.14774354451E+04  0.29903714211E+04  0.25999049486E+04 0.  0.
        2    1    3    3  502    0 -0.36867986097E+03  0.96246011757E+03 -0.17248872235E+03  0.10449912330E+04  0.25500000920E-02 0.  1.
       -2    1    3    3    0  502  0.36867986097E+03 -0.96246011757E+03  0.16499241674E+04  0.19453801880E+04  0.25500000920E-02 0. -1.
</event>
<event>
 5   0  0.2864801E-07  0.2600695E+04  0.7818609E-02  0.8367965E-01
       -1   -1    0    0    0  501  0.00000000000E+00  0.00000000000E+00  0.12315844393E+04  0.12315844393E+04  0.50400001928E-02 0. -1.
        1   -1    0    0  501    0  0.00000000000E+00  0.00000000000E+00 -0.13729502105E+04  0.13729502105E+04  0.50400001928E-02 0.  1.
    10030    2    1    2    0    0  0.00000000000E+00  0.00000000000E+00 -0.14136577123E+03  0.26045346499E+04  0.26006953803E+04 0.  0.
        5    1    3    3  502    0 -0.13568251131E+03 -0.38014757973E+03 -0.13086145166E+04  0.13694582758E+04  0.46999998093E+01 0.  1.
       -5    1    3    3    0  502  0.13568251131E+03  0.38014757973E+03  0.11672487453E+04  0.12350763740E+04  0.46999998093E+01 0. -1.
</event>
<event>
 5   0  0.2793576E-07  0.2599164E+04  0.7818609E-02  0.8368485E-01
       -1   -1    0    0    0  501  0.00000000000E+00  0.00000000000E+00  0.11772775334E+04  0.11772775334E+04  0.50400001928E-02 0. -1.
        1   -1    0    0  501    0  0.00000000000E+00  0.00000000000E+00 -0.14345928141E+04  0.14345928141E+04  0.50400001928E-02 0.  1.
    10030    2    1    2    0    0  0.00000000000E+00  0.00000000000E+00 -0.25731528065E+03  0.26118703475E+04  0.25991643962E+04 0.  0.
        2    1    3    3  502    0  0.60886209926E+03 -0.33750793034E+03  0.97410810379E+03  0.11972933044E+04  0.25500000920E-02 0. -1.
       -2    1    3    3    0  502 -0.60886209926E+03  0.33750793034E+03 -0.12314233844E+04  0.14145770430E+04  0.25500000920E-02 0.  1.
</event>
<event>
 5   0  0.2864801E-07  0.2599058E+04  0.7818609E-02  0.8368521E-01
        1   -1    0    0  501    0  0.00000000000E+00  0.00000000000E+00  0.16202775487E+04  0.16202775487E+04  0.50400001928E-02 0. -1.
       -1   -1    0    0    0  501  0.00000000000E+00  0.00000000000E+00 -0.10422752614E+04  0.10422752614E+04  0.50400001928E-02 0.  1.
    10030    2    1    2    0    0  0.00000000000E+00  0.00000000000E+00  0.57800228730E+03  0.26625528100E+04  0.25990576796E+04 0.  0.
        5    1    3    3  502    0  0.31756608538E+03  0.32561999253E+01 -0.10019003605E+04  0.10510400772E+04  0.46999998093E+01 0.  1.
       -5    1    3    3    0  502 -0.31756608538E+03 -0.32561999253E+01  0.15799026478E+04  0.16115127328E+04  0.46999998093E+01 0. -1.
</event>
<event>
 5   0  0.6599814E-07  0.2601367E+04  0.7818609E-02  0.8367737E-01
       -2   -1    0    0    0  501  0.00000000000E+00  0.00000000000E+00  0.12294436657E+04  0.12294436657E+04  0.25500000920E-02 0.  1.
        2   -1    0    0  501    0  0.00000000000E+00  0.00000000000E+00 -0.13760512011E+04  0.13760512011E+04  0.25500000920E-02 0. -1.
    10030    2    1    2    0    0  0.00000000000E+00  0.00000000000E+00 -0.14660753545E+03  0.26054948668E+04  0.26013668967E+04 0.  0.
        5    1    3    3  502    0  0.28614439932E+03  0.27694041402E+03 -0.13134853828E+04  0.13725307104E+04  0.46999998093E+01 0. -1.
       -5    1    3    3    0  502 -0.28614439932E+03 -0.27694041402E+03  0.11668778474E+04  0.12329641564E+04  0.46999998093E+01 0.  1.
</event>
<event>
 5   0  0.2864801E-07  0.2609474E+04  0.7818609E-02  0.8364990E-01
        1   -1    0    0  501    0  0.00000000000E+00  0.00000000000E+00  0.21536385195E+04  0.21536385195E+04  0.50400001928E-02 0. -1.
       -1   -1    0    0    0  501  0.00000000000E+00  0.00000000000E+00 -0.79044765795E+03  0.79044765796E+03  0.50400001928E-02 0.  1.
    10030    2    1    2    0    0  0.00000000000E+00  0.00000000000E+00  0.13631908615E+04  0.29440861775E+04  0.26094739116E+04 0.  0.
        5    1    3    3  502    0  0.50365531705E+03  0.98165986371E+03  0.14673098033E+04  0.18358499163E+04  0.46999998093E+01 0.  1.
       -5    1    3    3    0  502 -0.50365531705E+03 -0.98165986371E+03 -0.10411894178E+03  0.11082362611E+04  0.46999998093E+01 0. -1.
</event>
<event>
 5   0  0.7160320E-07  0.2600028E+04  0.7818609E-02  0.8368192E-01
       -2   -1    0    0    0  501  0.00000000000E+00  0.00000000000E+00  0.16595659400E+04  0.16595659400E+04  0.25500000920E-02 0.  1.
        2   -1    0    0  501    0  0.00000000000E+00  0.00000000000E+00 -0.10183603049E+04  0.10183603049E+04  0.25500000920E-02 0. -1.
    10030    2    1    2    0    0  0.00000000000E+00  0.00000000000E+00  0.64120563516E+03  0.26779262449E+04  0.26000277511E+04 0.  0.
        1    1    3    3  502    0  0.41791511576E+03  0.99104409520E+03  0.10726960109E+04  0.15190451522E+04  0.50400001928E-02 0.  1.
       -1    1    3    3    0  502 -0.41791511576E+03 -0.99104409520E+03 -0.43149037576E+03  0.11588810927E+04  0.50400001928E-02 0. -1.
</event>
<event>
 5   0  0.6599814E-07  0.2597979E+04  0.7818609E-02  0.8368888E-01
        2   -1    0    0  501    0  0.00000000000E+00  0.00000000000E+00  0.13772677582E+04  0.13772677582E+04  0.25500000920E-02 0. -1.
       -2   -1    0    0    0  501  0.00000000000E+00  0.00000000000E+00 -0.12251601788E+04  0.12251601788E+04  0.25500000920E-02 0.  1.
    10030    2    1    2    0    0  0.00000000000E+00  0.00000000000E+00  0.15210757937E+03  0.26024279370E+04  0.25979789167E+04 0.  0.
        5    1    3    3  502    0  0.13676873119E+03 -0.24741561748E+03 -0.11939625459E+04  0.12269836285E+04  0.46999998093E+01 0.  1.
       -5    1    3    3    0  502 -0.13676873119E+03  0.24741561748E+03  0.13460701253E+04  0.13754443085E+04  0.46999998093E+01 0. -1.
</event>
<event>
 5   0  0.6599814E-07  0.2602877E+04  0.7818609E-02  0.8367224E-01
       -2   -1    0    0    0  501  0.00000000000E+00  0.00000000000E+00  0.95853251960E+03  0.95853251960E+03  0.25500000920E-02 0. -1.
        2   -1    0    0  501    0  0.00000000000E+00  0.00000000000E+00 -0.17670165096E+04  0.17670165096E+04  0.25500000920E-02 0.  1.
    10030    2    1    2    0    0  0.00000000000E+00  0.00000000000E+00 -0.80848398999E+03  0.27255490292E+04  0.26028774747E+04 0.  0.
        5    1    3    3  502    0 -0.32561297186E+02 -0.30826745088E+03 -0.17277866543E+04  0.17553796945E+04  0.46999998093E+01 0.  1.
       -5    1    3    3    0  502  0.32561297186E+02  0.30826745088E+03  0.91930266428E+03  0.97016933465E+03  0.46999998093E+01 0. -1.
</event>
<event>
 5   0  0.2864801E-07  0.2600614E+04  0.7818609E-02  0.8367993E-01
       -1   -1    0    0    0  501  0.00000000000E+00  0.00000000000E+00  0.11413204537E+04  0.11413204537E+04  0.50400001928E-02 0.  1.
        1   -1    0    0  501    0  0.00000000000E+00  0.00000000000E+00 -0.14814408307E+04  0.14814408307E+04  0.50400001928E-02 0. -1.
    10030    2    1    2    0    0  0.00000000000E+00  0.00000000000E+00 -0.34012037697E+03  0.26227612844E+04  0.26006143282E+04 0.  0.
        5    1    3    3  502    0 -0.23021582244E+03 -0.10191617695E+04  0.61053813436E+03  0.12101524453E+04  0.46999998093E+01 0.  1.
       -5    1    3    3    0  502  0.23021582244E+03  0.10191617695E+04 -0.95065851133E+03  0.14126088392E+04  0.46999998093E+01 0. -1.
</event>
<event>
 5   0  0.2864801E-07  0.2601140E+04  0.7818609E-02  0.8367814E-01
        1   -1    0    0  501    0  0.00000000000E+00  0.00000000000E+00  0.17430123461E+04  0.17430123461E+04  0.50400001928E-02 0.  1.
       -1   -1    0    0    0  501  0.00000000000E+00  0.00000000000E+00 -0.97043657550E+03  0.97043657552E+03  0.50400001928E-02 0. -1.
    10030    2    1    2    0    0  0.00000000000E+00  0.00000000000E+00  0.77257577063E+03  0.27134489217E+04  0.26011404670E+04 0.  0.
        5    1    3    3  502    0 -0.98585985128E+02  0.10650594949E+04  0.11580904943E+04  0.15764728374E+04  0.46999998093E+01 0. -1.
       -5    1    3    3    0  502  0.98585985128E+02 -0.10650594949E+04 -0.38551472367E+03  0.11369760843E+04  0.46999998093E+01 0.  1.
</event>
<event>
 5   0  0.6599814E-07  0.2599342E+04  0.7818609E-02  0.8368425E-01
        2   -1    0    0  501    0  0.00000000000E+00  0.00000000000E+00  0.18427209084E+04  0.18427209084E+04  0.25500000920E-02 0.  1.
       -2   -1    0    0    0  501  0.00000000000E+00  0.00000000000E+00 -0.91665808106E+03  0.91665808106E+03  0.25500000920E-02 0. -1.
    10030    2    1    2    0    0  0.00000000000E+00  0.00000000000E+00  0.92606282737E+03  0.27593789895E+04  0.25993422336E+04 0.  0.
        5    1    3    3  502    0  0.32349238717E+02  0.26691195766E+03 -0.88680353339E+03  0.92667743213E+03  0.46999998093E+01 0. -1.
       -5    1    3    3    0  502 -0.32349238717E+02 -0.26691195766E+03  0.18128663608E+04  0.18327015574E+04  0.46999998093E+01 0.  1.
</event>
<event>
 5   0  0.2755061E-07  0.2600481E+04  0.7818609E-02  0.8368038E-01
       -1   -1    0    0    0  501  0.00000000000E+00  0.00000000000E+00  0.22182576733E+04  0.22182576733E+04  0.50400001928E-02 0.  1.
        1   -1    0    0  501    0  0.00000000000E+00  0.00000000000E+00 -0.76214103019E+03  0.76214103021E+03  0.50400001928E-02 0. -1.
    10030    2    1    2    0    0  0.00000000000E+00  0.00000000000E+00  0.14561166431E+04  0.29803987035E+04  0.26004808697E+04 0.  0.
        4    1    3    3  502    0 -0.72022317343E+03 -0.78143982498E+03  0.15866771545E+04  0.19096899290E+04  0.12699999809E+01 0.  1.
       -4    1    3    3    0  502  0.72022317343E+03  0.78143982498E+03 -0.13056051141E+03  0.10707087744E+04  0.12699999809E+01 0. -1.
</event>
<event>
 5   0  0.7160320E-07  0.2600853E+04  0.7818609E-02  0.8367912E-01
       -2   -1    0    0    0  501  0.00000000000E+00  0.00000000000E+00  0.16803497049E+04  0.16803497049E+04  0.25500000920E-02 0.  1.
        2   -1    0    0  501    0  0.00000000000E+00  0.00000000000E+00 -0.10064030699E+04  0.10064030699E+04  0.25500000920E-02 0. -1.
    10030    2    1    2    0    0  0.00000000000E+00  0.00000000000E+00  0.67394663502E+03  0.26867527748E+04  0.26008530151E+04 0.  0.
        1    1    3    3  502    0 -0.38722142445E+03 -0.11317134269E+04 -0.19016777721E+03  0.12111480074E+04  0.50400001928E-02 0. -1.
       -1    1    3    3    0  502  0.38722142445E+03  0.11317134269E+04  0.86411441222E+03  0.14756047674E+04  0.50400001928E-02 0.  1.
</event>
<event>
 5   0  0.2864801E-07  0.2598798E+04  0.7818609E-02  0.8368610E-01
       -1   -1    0    0    0  501  0.00000000000E+00  0.00000000000E+00  0.13718022540E+04  0.13718022540E+04  0.50400001928E-02 0. -1.
        1   -1    0    0  501    0  0.00000000000E+00  0.00000000000E+00 -0.12308168311E+04  0.12308168311E+04  0.50400001928E-02 0.  1.
    10030    2    1    2    0    0  0.00000000000E+00  0.00000000000E+00  0.14098542284E+03  0.26026190851E+04  0.25987976475E+04 0.  0.
        5    1    3    3  502    0  0.11578659573E+04  0.36721693442E+03 -0.39161115597E+03  0.12762771014E+04  0.46999998093E+01 0.  1.
       -5    1    3    3    0  502 -0.11578659573E+04 -0.36721693442E+03  0.53259657881E+03  0.13263419837E+04  0.46999998093E+01 0. -1.
</event>
<event>
 5   0  0.2623263E-07  0.2601068E+04  0.7818609E-02  0.8367839E-01
       -1   -1    0    0    0  501  0.00000000000E+00  0.00000000000E+00  0.10815875675E+04  0.10815875675E+04  0.50400001928E-02 0.  1.
        1   -1    0    0  501    0  0.00000000000E+00  0.00000000000E+00 -0.15638016934E+04  0.15638016934E+04  0.50400001928E-02 0. -1.
    10030    2    1    2    0    0  0.00000000000E+00  0.00000000000E+00 -0.48221412590E+03  0.26453892609E+04  0.26010678343E+04 0.  0.
        1    1    3    3  502    0  0.31439143890E+03  0.12432908533E+04 -0.46106608194E+03  0.13627898057E+04  0.50400001928E-02 0. -1.
       -1    1    3    3    0  502 -0.31439143890E+03 -0.12432908533E+04 -0.21148043965E+02  0.12825994552E+04  0.50400001928E-02 0.  1.
</event>
<event>
 5   0  0.2623263E-07  0.2598497E+04  0.7818609E-02  0.8368712E-01
       -1   -1    0    0    0  501  0.00000000000E+00  0.00000000000E+00  0.14894430300E+04  0.14894430300E+04  0.50400001928E-02 0. -1.
        1   -1    0    0  501    0  0.00000000000E+00  0.00000000000E+00 -0.11333412343E+04  0.11333412343E+04  0.50400001928E-02 0.  1.
    10030    2    1    2    0    0  0.00000000000E+00  0.00000000000E+00  0.35610179567E+03  0.26227842643E+04  0.25984974136E+04 0.  0.
        1    1    3    3  502    0  0.42730038792E+03 -0.48545273611E+03  0.13154358201E+04  0.14658176481E+04  0.50400001928E-02 0. -1.
       -1    1    3    3    0  502 -0.42730038792E+03  0.48545273611E+03 -0.95933402448E+03  0.11569666162E+04  0.50400001928E-02 0.  1.
</event>
<event>
 5   0  0.2755061E-07  0.2601081E+04  0.7818609E-02  0.8367834E-01
       -1   -1    0    0    0  501  0.00000000000E+00  0.00000000000E+00  0.13062093465E+04  0.13062093465E+04  0.50400001928E-02 0. -1.
        1   -1    0    0  501    0  0.00000000000E+00  0.00000000000E+00 -0.12948967084E+04  0.12948967084E+04  0.50400001928E-02 0.  1.
    10030    2    1    2    0    0  0.00000000000E+00  0.00000000000E+00  0.11312638090E+02  0.26011060550E+04  0.26010814546E+04 0.  0.
        4    1    3    3  502    0 -0.18851725084E+03 -0.12274496474E+04 -0.38065443997E+03  0.12988728985E+04  0.12699999809E+01 0.  1.
       -4    1    3    3    0  502  0.18851725084E+03  0.12274496474E+04  0.39196707806E+03  0.13022331565E+04  0.12699999809E+01 0. -1.
</event>
<event>
 5   0  0.6768478E-07  0.2599361E+04  0.7818609E-02  0.8368418E-01
        2   -1    0    0  501    0  0.00000000000E+00  0.00000000000E+00  0.24222619517E+04  0.24222619517E+04  0.25500000920E-02 0. -1.
       -2   -1    0    0    0  501  0.00000000000E+00  0.00000000000E+00 -0.69735193999E+03  0.69735194000E+03  0.25500000920E-02 0.  1.
    10030    2    1    2    0    0  0.00000000000E+00  0.00000000000E+00  0.17249100117E+04  0.31196138917E+04  0.25993607454E+04 0.  0.
        4    1    3    3  502    0  0.82517941472E+03  0.10401487819E+03  0.20610567747E+04  0.22225428686E+04  0.12699999809E+01 0. -1.
       -4    1    3    3    0  502 -0.82517941472E+03 -0.10401487819E+03 -0.33614676297E+03  0.89707102312E+03  0.12699999809E+01 0.  1.
</event>
<event>
 5   0  0.6526351E-07  0.2599843E+04  0.7818609E-02  0.8368255E-01
        2   -1    0    0  501    0  0.00000000000E+00  0.00000000000E+00  0.16008609824E+04  0.16008609824E+04  0.25500000920E-02 0. -1.
       -2   -1    0    0    0  501  0.00000000000E+00  0.00000000000E+00 -0.10555541801E+04  0.10555541801E+04  0.25500000920E-02 0.  1.
    10030    2    1    2    0    0  0.00000000000E+00  0.00000000000E+00  0.54530680229E+03  0.26564151624E+04  0.25998426888E+04 0.  0.
        3    1    3    3  502    0  0.47757660132E+03 -0.71648383457E+03 -0.72237870904E+03  0.11239481771E+04  0.10100000352E+00 0.  1.
       -3    1    3    3    0  502 -0.47757660132E+03  0.71648383457E+03  0.12676855113E+04  0.15324669853E+04  0.10100000352E+00 0. -1.
</event>
<event>
 5   0  0.2755061E-07  0.2600919E+04  0.7818609E-02  0.8367889E-01
        1   -1    0    0  501    0  0.00000000000E+00  0.00000000000E+00  0.12791269381E+04  0.12791269381E+04  0.50400001928E-02 0. -1.
       -1   -1    0    0    0  501  0.00000000000E+00  0.00000000000E+00 -0.13221478896E+04  0.13221478896E+04  0.50400001928E-02 0.  1.
    10030    2    1    2    0    0  0.00000000000E+00  0.00000000000E+00 -0.43020951503E+02  0.26012748278E+04  0.26009190544E+04 0.  0.
        4    1    3    3  502    0  0.11469814697E+03 -0.20826301128E+03 -0.13002252431E+04  0.13217853239E+04  0.12699999809E+01 0.  1.
       -4    1    3    3    0  502 -0.11469814697E+03  0.20826301128E+03  0.12572042916E+04  0.12794895039E+04  0.12699999809E+01 0. -1.
</event>
<event>
 5   0  0.6599814E-07  0.2599690E+04  0.7818609E-02  0.8368306E-01
        2   -1    0    0  501    0  0.00000000000E+00  0.00000000000E+00  0.12695704185E+04  0.12695704185E+04  0.25500000920E-02 0. -1.
       -2   -1    0    0    0  501  0.00000000000E+00  0.00000000000E+00 -0.13308417908E+04  0.13308417908E+04  0.25500000920E-02 0.  1.
    10030    2    1    2    0    0  0.00000000000E+00  0.00000000000E+00 -0.61271372368E+02  0.26004122093E+04  0.25996902657E+04 0.  0.
        5    1    3    3  502    0  0.52212160550E+03  0.28978539047E+03  0.11242362507E+04  0.12729948078E+04  0.46999998093E+01 0. -1.
       -5    1    3    3    0  502 -0.52212160550E+03 -0.28978539047E+03 -0.11855076230E+04  0.13274174015E+04  0.46999998093E+01 0.  1.
</event>
<event>
 5   0  0.6526351E-07  0.2606138E+04  0.7818609E-02  0.8366119E-01
       -2   -1    0    0    0  501  0.00000000000E+00  0.00000000000E+00  0.52215953221E+03  0.52215953221E+03  0.25500000920E-02 0. -1.
        2   -1    0    0  501    0  0.00000000000E+00  0.00000000000E+00 -0.32518576091E+04  0.32518576091E+04  0.25500000920E-02 0.  1.
    10030    2    1    2    0    0  0.00000000000E+00  0.00000000000E+00 -0.27296980769E+04  0.37740171413E+04  0.26061377154E+04 0.  0.
        3    1    3    3  502    0 -0.65467276134E+03  0.27324177095E+03 -0.29477056110E+04  0.30318683793E+04  0.10100000352E+00 0.  1.
       -3    1    3    3    0  502  0.65467276134E+03 -0.27324177095E+03  0.21800753414E+03  0.74214876202E+03  0.10100000352E+00 0. -1.
</event>
<event>
 5   0  0.6768478E-07  0.2602157E+04  0.7818609E-02  0.8367469E-01
       -2   -1    0    0    0  501  0.00000000000E+00  0.00000000000E+00  0.11131547822E+04  0.11131547822E+04  0.25500000920E-02 0.  1.
        2   -1    0    0  501    0  0.00000000000E+00  0.00000000000E+00 -0.15207271204E+04  0.15207271204E+04  0.25500000920E-02 0. -1.
    10030    2    1    2    0    0  0.00000000000E+00  0.00000000000E+00 -0.40757233817E+03  0.26338819026E+04  0.26021565415E+04 0.  0.
        4    1    3    3  502    0 -0.16047794606E+03  0.12860968858E+04 -0.88357746756E+02  0.12990793183E+04  0.12699999809E+01 0. -1.
       -4    1    3    3    0  502  0.16047794606E+03 -0.12860968858E+04 -0.31921459142E+03  0.13348025843E+04  0.12699999809E+01 0.  1.
</event>
<event>
 5   0  0.6780984E-07  0.2600639E+04  0.7818609E-02  0.8367984E-01
       -2   -1    0    0    0  501  0.00000000000E+00  0.00000000000E+00  0.13952320342E+04  0.13952320342E+04  0.25500000920E-02 0. -1.
        2   -1    0    0  501    0  0.00000000000E+00  0.00000000000E+00 -0.12118636731E+04  0.12118636731E+04  0.25500000920E-02 0.  1.
    10030    2    1    2    0    0  0.00000000000E+00  0.00000000000E+00  0.18336836118E+03  0.26070957073E+04  0.26006391659E+04 0.  0.
        2    1    3    3  502    0 -0.12002985555E+04  0.10846130847E+03 -0.39773946293E+03  0.12691245637E+04  0.25500000920E-02 0.  1.
       -2    1    3    3    0  502  0.12002985555E+04 -0.10846130847E+03  0.58110782411E+03  0.13379711436E+04  0.25500000920E-02 0. -1.
</event>
<event>
 5   0  0.6780984E-07  0.2599946E+04  0.7818609E-02  0.8368219E-01
       -2   -1    0    0    0  501  0.00000000000E+00  0.00000000000E+00  0.22993235243E+04  0.22993235243E+04  0.25500000920E-02 0. -1.
        2   -1    0    0  501    0  0.00000000000E+00  0.00000000000E+00 -0.73496850165E+03  0.73496850165E+03  0.25500000920E-02 0.  1.
    10030    2    1    2    0    0  0.00000000000E+00  0.00000000000E+00  0.15643550226E+04  0.30342920259E+04  0.25999464344E+04 0.  0.
        2    1    3    3  502    0  0.10709185880E+04  0.40145867589E+03  0.15033925543E+04  0.18889745533E+04  0.25500000920E-02 0. -1.
       -2    1    3    3    0  502 -0.10709185880E+04 -0.40145867589E+03  0.60962468309E+02  0.11453174726E+04  0.25500000920E-02 0.  1.
</event>
<event>
 5   0  0.6780984E-07  0.2600326E+04  0.7818609E-02  0.8368091E-01
        2   -1    0    0  501    0  0.00000000000E+00  0.00000000000E+00  0.23369513752E+04  0.23369513752E+04  0.25500000920E-02 0. -1.
       -2   -1    0    0    0  501  0.00000000000E+00  0.00000000000E+00 -0.72334564474E+03  0.72334564475E+03  0.25500000920E-02 0.  1.
    10030    2    1    2    0    0  0.00000000000E+00  0.00000000000E+00  0.16136057305E+04  0.30602970200E+04  0.26003258252E+04 0.  0.
        2    1    3    3  502    0  0.11516505456E+04 -0.29339597769E+03  0.18623094404E+03  0.12029389608E+04  0.25500000920E-02 0. -1.
       -2    1    3    3    0  502 -0.11516505456E+04  0.29339597769E+03  0.14273747865E+04  0.18573580592E+04  0.25500000920E-02 0.  1.
</event>
<event>
 5   0  0.6526351E-07  0.2599614E+04  0.7818609E-02  0.8368332E-01
       -2   -1    0    0    0  501  0.00000000000E+00  0.00000000000E+00  0.89129847737E+03  0.89129847737E+03  0.25500000920E-02 0. -1.
        2   -1    0    0  501    0  0.00000000000E+00  0.00000000000E+00 -0.18955465965E+04  0.18955465965E+04  0.25500000920E-02 0.  1.
    10030    2    1    2    0    0  0.00000000000E+00  0.00000000000E+00 -0.10042481191E+04  0.27868450739E+04  0.25996136600E+04 0.  0.
        3    1    3    3  502    0 -0.54888153272E+03 -0.68832812366E+03 -0.15272554769E+04  0.17628317687E+04  0.10100000352E+00 0.  1.
       -3    1    3    3    0  502  0.54888153272E+03  0.68832812366E+03  0.52300735774E+03  0.10240133052E+04  0.10100000352E+00 0. -1.
</event>
<event>
 5   0  0.6768478E-07  0.2599313E+04  0.7818609E-02  0.8368434E-01
       -2   -1    0    0    0  501  0.00000000000E+00  0.00000000000E+00  0.95179544605E+03  0.95179544605E+03  0.25500000920E-02 0. -1.
        2   -1    0    0  501    0  0.00000000000E+00  0.00000000000E+00 -0.17746538559E+04  0.17746538559E+04  0.25500000920E-02 0.  1.
    10030    2    1    2    0    0  0.00000000000E+00  0.00000000000E+00 -0.82285840987E+03  0.27264493020E+04  0.25993133389E+04 0.  0.
        4    1    3    3  502    0  0.89116386903E+03  0.50493584299E+03 -0.12505403330E+04  0.16164733170E+04  0.12699999809E+01 0.  1.
       -4    1    3    3    0  502 -0.89116386903E+03 -0.50493584299E+03  0.42768192317E+03  0.11099759850E+04  0.12699999809E+01 0. -1.
</event>
<event>
 5   0  0.7160320E-07  0.2601404E+04  0.7818609E-02  0.8367724E-01
        2   -1    0    0  501    0  0.00000000000E+00  0.00000000000E+00  0.18812810175E+04  0.18812810175E+04  0.25500000920E-02 0.  1.
       -2   -1    0    0    0  501  0.00000000000E+00  0.00000000000E+00 -0.89929449211E+03  0.89929449212E+03  0.25500000920E-02 0. -1.
    10030    2    1    2    0    0  0.00000000000E+00  0.00000000000E+00  0.98198652540E+03  0.27805755096E+04  0.26014039726E+04 0.  0.
        1    1    3    3  502    0 -0.89092060480E+03 -0.19976486384E+03 -0.49919123371E+03  0.10405947399E+04  0.50400001928E-02 0. -1.
       -1    1    3    3    0  502  0.89092060480E+03  0.19976486384E+03  0.14811777591E+04  0.17399807697E+04  0.50400001928E-02 0.  1.
</event>
<event>
 5   0  0.2623263E-07  0.2600920E+04  0.7818609E-02  0.8367889E-01
        1   -1    0    0  501    0  0.00000000000E+00  0.00000000000E+00  0.17601990007E+04  0.17601990007E+04  0.50400001928E-02 0.  1.
       -1   -1    0    0    0  501  0.00000000000E+00  0.00000000000E+00 -0.96079795783E+03  0.96079795784E+03  0.50400001928E-02 0. -1.
    10030    2    1    2    0    0  0.00000000000E+00  0.00000000000E+00  0.79940104284E+03  0.27209969585E+04  0.26009195337E+04 0.  0.
        1    1    3    3  502    0  0.82841155838E+03 -0.76854662235E+03  0.10730503863E+04  0.15583217743E+04  0.50400001928E-02 0.  1.
       -1    1    3    3    0  502 -0.82841155838E+03  0.76854662235E+03 -0.27364934344E+03  0.11626751842E+04  0.50400001928E-02 0. -1.
</event>
<event>
 5   0  0.2641626E-07  0.2600210E+04  0.7818609E-02  0.8368130E-01
       -1   -1    0    0    0  501  0.00000000000E+00  0.00000000000E+00  0.89064455920E+03  0.89064455921E+03  0.50400001928E-02 0. -1.
        1   -1    0    0  501    0  0.00000000000E+00  0.00000000000E+00 -0.18978080328E+04  0.18978080328E+04  0.50400001928E-02 0.  1.
    10030    2    1    2    0    0  0.00000000000E+00  0.00000000000E+00 -0.10071634736E+04  0.27884525920E+04  0.26002095291E+04 0.  0.
        3    1    3    3  502    0 -0.11485657361E+04  0.19149718221E+02  0.14934978275E+03  0.11583934261E+04  0.10100000352E+00 0. -1.
       -3    1    3    3    0  502  0.11485657361E+04 -0.19149718221E+02 -0.11565132564E+04  0.16300591659E+04  0.10100000352E+00 0.  1.
</event>
<event>
 5   0  0.2623263E-07  0.2599782E+04  0.7818609E-02  0.8368275E-01
        1   -1    0    0  501    0  0.00000000000E+00  0.00000000000E+00  0.99601780130E+03  0.99601780131E+03  0.50400001928E-02 0.  1.
       -1   -1    0    0    0  501  0.00000000000E+00  0.00000000000E+00 -0.16964719372E+04  0.16964719372E+04  0.50400001928E-02 0. -1.
    10030    2    1    2    0    0  0.00000000000E+00  0.00000000000E+00 -0.70045413589E+03  0.26924897385E+04  0.25997817207E+04 0.  0.
        1    1    3    3  502    0  0.33953072545E+03 -0.12519913985E+04 -0.26387095470E+03  0.13237792324E+04  0.50400001928E-02 0.  1.
       -1    1    3    3    0  502 -0.33953072545E+03  0.12519913985E+04 -0.43658318119E+03  0.13687105061E+04  0.50400001928E-02 0. -1.
</event>
<event>
 5   0  0.6768478E-07  0.2596924E+04  0.7818609E-02  0.8369247E-01
       -2   -1    0    0    0  501  0.00000000000E+00  0.00000000000E+00  0.12640066161E+04  0.12640066161E+04  0.25500000920E-02 0.  1.
        2   -1    0    0  501    0  0.00000000000E+00  0.00000000000E+00 -0.13338565472E+04  0.13338565472E+04  0.25500000920E-02 0. -1.
    10030    2    1    2    0    0  0.00000000000E+00  0.00000000000E+00 -0.69849931124E+02  0.25978631634E+04  0.25969239501E+04 0.  0.
        4    1    3    3  502    0  0.10445248708E+04  0.52783365447E+03 -0.59758844352E+03  0.13140601711E+04  0.12699999809E+01 0. -1.
       -4    1    3    3    0  502 -0.10445248708E+04 -0.52783365447E+03  0.52773851240E+03  0.12838029923E+04  0.12699999809E+01 0.  1.
</event>
<event>
 5   0  0.6780984E-07  0.2600213E+04  0.7818609E-02  0.8368129E-01
       -2   -1    0    0    0  501  0.00000000000E+00  0.00000000000E+00  0.15829767079E+04  0.15829767079E+04  0.25500000920E-02 0.  1.
        2   -1    0    0  501    0  0.00000000000E+00  0.00000000000E+00 -0.10677836355E+04  0.10677836355E+04  0.25500000920E-02 0. -1.
    10030    2    1    2    0    0  0.00000000000E+00  0.00000000000E+00  0.51519307236E+03  0.26507603434E+04  0.26002127791E+04 0.  0.
        2    1    3    3  502    0  0.91144853301E+03 -0.90439090724E+03  0.49632613348E+02  0.12849609869E+04  0.25500000920E-02 0. -1.
       -2    1    3    3    0  502 -0.91144853301E+03  0.90439090724E+03  0.46556045901E+03  0.13657993566E+04  0.25500000920E-02 0.  1.
</event>
<event>
 5   0  0.6780984E-07  0.2599439E+04  0.7818609E-02  0.8368392E-01
        2   -1    0    0  501    0  0.00000000000E+00  0.00000000000E+00  0.11077808899E+04  0.11077808899E+04  0.25500000920E-02 0.  1.
       -2   -1    0    0    0  501  0.00000000000E+00  0.00000000000E+00 -0.15249139342E+04  0.15249139342E+04  0.25500000920E-02 0. -1.
    10030    2    1    2    0    0  0.00000000000E+00  0.00000000000E+00 -0.41713304431E+03  0.26326948241E+04  0.25994387972E+04 0.  0.
        2    1    3    3  502    0  0.44017710876E+03  0.10797652233E+04  0.37290548794E+03  0.12242170263E+04  0.25500000920E-02 0.  1.
       -2    1    3    3    0  502 -0.44017710876E+03 -0.10797652233E+04 -0.79003853225E+03  0.14084777978E+04  0.25500000920E-02 0. -1.
</event>
<event>
 5   0  0.7160320E-07  0.2600439E+04  0.7818609E-02  0.8368052E-01
        2   -1    0    0  501    0  0.00000000000E+00  0.00000000000E+00  0.13382721416E+04  0.13382721416E+04  0.25500000920E-02 0. -1.
       -2   -1    0    0    0  501  0.00000000000E+00  0.00000000000E+00 -0.12632488374E+04  0.12632488374E+04  0.25500000920E-02 0.  1.
    10030    2    1    2    0    0  0.00000000000E+00  0.00000000000E+00  0.75023304239E+02  0.26015209790E+04  0.26004389837E+04 0.  0.
        1    1    3    3  502    0  0.47832613373E+03  0.15985512795E+03  0.12364347499E+04  0.13353353298E+04  0.50400001928E-02 0. -1.
       -1    1    3    3    0  502 -0.47832613373E+03 -0.15985512795E+03 -0.11614114456E+04  0.12661856492E+04  0.50400001928E-02 0.  1.
</event>
<event>
 5   0  0.6599814E-07  0.2599381E+04  0.7818609E-02  0.8368412E-01
       -2   -1    0    0    0  501  0.00000000000E+00  0.00000000000E+00  0.88554638759E+03  0.88554638760E+03  0.25500000920E-02 0. -1.
        2   -1    0    0  501    0  0.00000000000E+00  0.00000000000E+00 -0.19075176059E+04  0.19075176059E+04  0.25500000920E-02 0.  1.
    10030    2    1    2    0    0  0.00000000000E+00  0.00000000000E+00 -0.10219712184E+04  0.27930639935E+04  0.25993809457E+04 0.  0.
        5    1    3    3  502    0  0.74510599996E+03 -0.10196719414E+04 -0.84087878169E+03  0.15172386215E+04  0.46999998093E+01 0. -1.
       -5    1    3    3    0  502 -0.74510599996E+03  0.10196719414E+04 -0.18109243667E+03  0.12758253720E+04  0.46999998093E+01 0.  1.
</event>
<event>
 5   0  0.2793576E-07  0.2600075E+04  0.7818609E-02  0.8368176E-01
        1   -1    0    0  501    0  0.00000000000E+00  0.00000000000E+00  0.11974435283E+04  0.11974435283E+04  0.50400001928E-02 0.  1.
       -1   -1    0    0    0  501  0.00000000000E+00  0.00000000000E+00 -0.14114209902E+04  0.14114209902E+04  0.50400001928E-02 0. -1.
    10030    2    1    2    0    0  0.00000000000E+00  0.00000000000E+00 -0.21397746192E+03  0.26088645186E+04  0.26000745609E+04 0.  0.
        2    1    3    3  502    0  0.98323597527E+02  0.12670032277E+04 -0.38201795239E+03  0.13269899867E+04  0.25500000920E-02 0.  1.
       -2    1    3    3    0  502 -0.98323597527E+02 -0.12670032277E+04  0.16804049047E+03  0.12818745318E+04  0.25500000920E-02 0. -1.
</event>
<event>
 5   0  0.2641626E-07  0.2600436E+04  0.7818609E-02  0.8368053E-01
       -1   -1    0    0    0  501  0.00000000000E+00  0.00000000000E+00  0.19664330951E+04  0.19664330951E+04  0.50400001928E-02 0.  1.
        1   -1    0    0  501    0  0.00000000000E+00  0.00000000000E+00 -0.85971209025E+03  0.85971209026E+03  0.50400001928E-02 0. -1.
    10030    2    1    2    0    0  0.00000000000E+00  0.00000000000E+00  0.11067210049E+04  0.28261451854E+04  0.26004355839E+04 0.  0.
        3    1    3    3  502    0  0.91421671477E+03  0.63920998038E+03  0.12793088206E+04  0.16973546092E+04  0.10100000352E+00 0.  1.
       -3    1    3    3    0  502 -0.91421671477E+03 -0.63920998038E+03 -0.17258781576E+03  0.11287905762E+04  0.10100000352E+00 0. -1.
</event>
<event>
 5   0  0.2623263E-07  0.2599707E+04  0.7818609E-02  0.8368301E-01
       -1   -1    0    0    0  501  0.00000000000E+00  0.00000000000E+00  0.16416009645E+04  0.16416009645E+04  0.50400001928E-02 0.  1.
        1   -1    0    0  501    0  0.00000000000E+00  0.00000000000E+00 -0.10292506053E+04  0.10292506053E+04  0.50400001928E-02 0. -1.
    10030    2    1    2    0    0  0.00000000000E+00  0.00000000000E+00  0.61235035918E+03  0.26708515699E+04  0.25997067423E+04 0.  0.
        1    1    3    3  502    0  0.93291877449E+03  0.61128222586E+03  0.99198781440E+03  0.14926631313E+04  0.50400001928E-02 0.  1.
       -1    1    3    3    0  502 -0.93291877449E+03 -0.61128222586E+03 -0.37963745522E+03  0.11781884386E+04  0.50400001928E-02 0. -1.
</event>
<event>
 5   0  0.2793576E-07  0.2599316E+04  0.7818609E-02  0.8368433E-01
       -1   -1    0    0    0  501  0.00000000000E+00  0.00000000000E+00  0.18942768302E+04  0.18942768302E+04  0.50400001928E-02 0.  1.
        1   -1    0    0  501    0  0.00000000000E+00  0.00000000000E+00 -0.89169202660E+03  0.89169202661E+03  0.50400001928E-02 0. -1.
    10030    2    1    2    0    0  0.00000000000E+00  0.00000000000E+00  0.10025848036E+04  0.27859688568E+04  0.25993164838E+04 0.  0.
        2    1    3    3  502    0 -0.35607486342E+03 -0.30143930664E+03  0.18014345046E+04  0.18608657228E+04  0.25500000920E-02 0.  1.
       -2    1    3    3    0  502  0.35607486342E+03  0.30143930664E+03 -0.79884970094E+03  0.92510313406E+03  0.25500000920E-02 0. -1.
</event>
<event>
 5   0  0.6526351E-07  0.2600537E+04  0.7818609E-02  0.8368019E-01
       -2   -1    0    0    0  501  0.00000000000E+00  0.00000000000E+00  0.92189808306E+03  0.92189808306E+03  0.25500000920E-02 0.  1.
        2   -1    0    0  501    0  0.00000000000E+00  0.00000000000E+00 -0.18339314561E+04  0.18339314561E+04  0.25500000920E-02 0. -1.
    10030    2    1    2    0    0  0.00000000000E+00  0.00000000000E+00 -0.91203337306E+03  0.27558295392E+04  0.26005367860E+04 0.  0.
        3    1    3    3  502    0  0.53607031640E+03 -0.10813919026E+04  0.56515589088E+02  0.12082937776E+04  0.10100000352E+00 0.  1.
       -3    1    3    3    0  502 -0.53607031640E+03  0.10813919026E+04 -0.96854896215E+03  0.15475357616E+04  0.10100000352E+00 0. -1.
</event>
<event>
 5   0  0.2793576E-07  0.2619939E+04  0.7818609E-02  0.8361460E-01
       -1   -1    0    0    0  501  0.00000000000E+00  0.00000000000E+00  0.12643420918E+04  0.12643420918E+04  0.50400001928E-02 0. -1.
        1   -1    0    0  501    0  0.00000000000E+00  0.00000000000E+00 -0.13572435027E+04  0.13572435027E+04  0.50400001928E-02 0.  1.
    10030    2    1    2    0    0  0.00000000000E+00  0.00000000000E+00 -0.92901410965E+02  0.26215855945E+04  0.26199389987E+04 0.  0.
        2    1    3    3  502    0  0.18170125094E+03  0.19291621787E+02  0.12515278250E+04  0.12647961923E+04  0.25500000920E-02 0. -1.
       -2    1    3    3    0  502 -0.18170125094E+03 -0.19291621787E+02 -0.13444292360E+04  0.13567894022E+04  0.25500000920E-02 0.  1.
</event>
<event>
 5   0  0.6599814E-07  0.2599933E+04  0.7818609E-02  0.8368224E-01
       -2   -1    0    0    0  501  0.00000000000E+00  0.00000000000E+00  0.66398460769E+03  0.66398460770E+03  0.25500000920E-02 0.  1.
        2   -1    0    0  501    0  0.00000000000E+00  0.00000000000E+00 -0.25451076054E+04  0.25451076055E+04  0.25500000920E-02 0. -1.
    10030    2    1    2    0    0  0.00000000000E+00  0.00000000000E+00 -0.18811229978E+04  0.32090922131E+04  0.25999325183E+04 0.  0.
        5    1    3    3  502    0 -0.57288847874E+03 -0.11260171085E+04 -0.56258710689E+03  0.13829830370E+04  0.46999998093E+01 0.  1.
       -5    1    3    3    0  502  0.57288847874E+03  0.11260171085E+04 -0.13185358909E+04  0.18261091762E+04  0.46999998093E+01 0. -1.
</event>
<event>
 5   0  0.7160320E-07  0.2601247E+04  0.7818609E-02  0.8367778E-01
        2   -1    0    0  501    0  0.00000000000E+00  0.00000000000E+00  0.17249256930E+04  0.17249256931E+04  0.25500000920E-02 0.  1.
       -2   -1    0    0    0  501  0.00000000000E+00  0.00000000000E+00 -0.98069240896E+03  0.98069240896E+03  0.25500000920E-02 0. -1.
    10030    2    1    2    0    0  0.00000000000E+00  0.00000000000E+00  0.74423328409E+03  0.27056181020E+04  0.26012470342E+04 0.  0.
        1    1    3    3  502    0  0.18758923451E+03  0.12795595958E+03  0.17041486014E+04  0.17192105468E+04  0.50400001928E-02 0.  1.
       -1    1    3    3    0  502 -0.18758923451E+03 -0.12795595958E+03 -0.95991531733E+03  0.98640755521E+03  0.50400001928E-02 0. -1.
</event>
<event>
 5   0  0.2864801E-07  0.2598758E+04  0.7818609E-02  0.8368623E-01
        1   -1    0    0  501    0  0.00000000000E+00  0.00000000000E+00  0.26220287336E+04  0.26220287336E+04  0.50400001928E-02 0. -1.
       -1   -1    0    0    0  501  0.00000000000E+00  0.00000000000E+00 -0.64392364937E+03  0.64392364939E+03  0.50400001928E-02 0.  1.
    10030    2    1    2    0    0  0.00000000000E+00  0.00000000000E+00  0.19781050842E+04  0.32659523830E+04  0.25987584043E+04 0.  0.
        5    1    3    3  502    0  0.11225457885E+03 -0.28359782466E+03 -0.59828739575E+03  0.67156437855E+03  0.46999998093E+01 0.  1.
       -5    1    3    3    0  502 -0.11225457885E+03  0.28359782466E+03  0.25763924800E+04  0.25943880044E+04  0.46999998093E+01 0. -1.
</event>
<event>
 5   0  0.2641626E-07  0.2598641E+04  0.7818609E-02  0.8368663E-01
        1   -1    0    0  501    0  0.00000000000E+00  0.00000000000E+00  0.21404818172E+04  0.21404818172E+04  0.50400001928E-02 0.  1.
       -1   -1    0    0    0  501  0.00000000000E+00  0.00000000000E+00 -0.78871668528E+03  0.78871668530E+03  0.50400001928E-02 0. -1.
    10030    2    1    2    0    0  0.00000000000E+00  0.00000000000E+00  0.13517651319E+04  0.29291985025E+04  0.25986409708E+04 0.  0.
        3    1    3    3  502    0  0.63601836664E+03 -0.27548608353E+03  0.19146904151E+04  0.20362837084E+04  0.10100000352E+00 0.  1.
       -3    1    3    3    0  502 -0.63601836664E+03  0.27548608353E+03 -0.56292528321E+03  0.89291479415E+03  0.10100000352E+00 0. -1.
</event>
<event>
 5   0  0.2623263E-07  0.2599062E+04  0.7818609E-02  0.8368520E-01
       -1   -1    0    0    0  501  0.00000000000E+00  0.00000000000E+00  0.78143250965E+03  0.78143250967E+03  0.50400001928E-02 0. -1.
        1   -1    0    0  501    0  0.00000000000E+00  0.00000000000E+00 -0.21611338212E+04  0.21611338212E+04  0.50400001928E-02 0.  1.
    10030    2    1    2    0    0  0.00000000000E+00  0.00000000000E+00 -0.13797013116E+04  0.29425663309E+04  0.25990615427E+04 0.  0.
        1    1    3    3  502    0 -0.40234864422E+03 -0.18953392416E+03  0.69258377544E+03  0.82309162669E+03  0.50400001928E-02 0. -1.
       -1    1    3    3    0  502  0.40234864422E+03  0.18953392416E+03 -0.20722850870E+04  0.21194747042E+04  0.50400001928E-02 0.  1.
</event>
<event>
 5   0  0.2864801E-07  0.2599025E+04  0.7818609E-02  0.8368532E-01
       -1   -1    0    0    0  501  0.00000000000E+00  0.00000000000E+00  0.12690110824E+04  0.12690110824E+04  0.50400001928E-02 0. -1.
        1   -1    0    0  501    0  0.00000000000E+00  0.00000000000E+00 -0.13307471206E+04  0.13307471206E+04  0.50400001928E-02 0.  1.
    10030    2    1    2    0    0  0.00000000000E+00  0.00000000000E+00 -0.61736038178E+02  0.25997582031E+04  0.25990250818E+04 0.  0.
        5    1    3    3  502    0  0.53843487589E+03 -0.37000534739E+03 -0.11545257431E+04  0.13265624200E+04  0.46999998093E+01 0.  1.
       -5    1    3    3    0  502 -0.53843487589E+03  0.37000534739E+03  0.10927897050E+04  0.12731957830E+04  0.46999998093E+01 0. -1.
</event>
<event>
 5   0  0.6780984E-07  0.2599190E+04  0.7818609E-02  0.8368477E-01
       -2   -1    0    0    0  501  0.00000000000E+00  0.00000000000E+00  0.99320888821E+03  0.99320888821E+03  0.25500000920E-02 0. -1.
        2   -1    0    0  501    0  0.00000000000E+00  0.00000000000E+00 -0.17004948707E+04  0.17004948707E+04  0.25500000920E-02 0.  1.
    10030    2    1    2    0    0  0.00000000000E+00  0.00000000000E+00 -0.70728598248E+03  0.26937037589E+04  0.25991895813E+04 0.  0.
        2    1    3    3  502    0 -0.28794610576E+03  0.11462278485E+04  0.20656402894E+03  0.11997582834E+04  0.25500000920E-02 0.  1.
       -2    1    3    3    0  502  0.28794610576E+03 -0.11462278485E+04 -0.91385001142E+03  0.14939454755E+04  0.25500000920E-02 0. -1.
</event>
<event>
 5   0  0.2793576E-07  0.2600028E+04  0.7818609E-02  0.8368192E-01
        1   -1    0    0  501    0  0.00000000000E+00  0.00000000000E+00  0.15925935271E+04  0.15925935271E+04  0.50400001928E-02 0.  1.
       -1   -1    0    0    0  501  0.00000000000E+00  0.00000000000E+00 -0.10611849004E+04  0.10611849004E+04  0.50400001928E-02 0. -1.
    10030    2    1    2    0    0  0.00000000000E+00  0.00000000000E+00  0.53140862670E+03  0.26537784276E+04  0.26000278487E+04 0.  0.
        2    1    3    3  502    0 -0.60998736550E+02  0.11958542275E+04  0.78237868789E+03  0.14303512123E+04  0.25500000920E-02 0.  1.
       -2    1    3    3    0  502  0.60998736550E+02 -0.11958542275E+04 -0.25097006119E+03  0.12234272152E+04  0.25500000920E-02 0. -1.
</event>
<event>
 5   0  0.6599814E-07  0.2600409E+04  0.7818609E-02  0.8368062E-01
       -2   -1    0    0    0  501  0.00000000000E+00  0.00000000000E+00  0.93856355340E+03  0.93856355340E+03  0.25500000920E-02 0.  1.
        2   -1    0    0  501    0  0.00000000000E+00  0.00000000000E+00 -0.18011910423E+04  0.18011910423E+04  0.25500000920E-02 0. -1.
    10030    2    1    2    0    0  0.00000000000E+00  0.00000000000E+00 -0.86262748891E+03  0.27397545957E+04  0.26004094024E+04 0.  0.
        5    1    3    3  502    0 -0.58502167590E+02 -0.62197446791E+02 -0.17982248376E+04  0.18002571157E+04  0.46999998093E+01 0. -1.
       -5    1    3    3    0  502  0.58502167590E+02  0.62197446791E+02  0.93559734872E+03  0.93949748000E+03  0.46999998093E+01 0.  1.
</event>
<event>
 5   0  0.2623263E-07  0.2600730E+04  0.7818609E-02  0.8367953E-01
        1   -1    0    0  501    0  0.00000000000E+00  0.00000000000E+00  0.13424843409E+04  0.13424843409E+04  0.50400001928E-02 0.  1.
       -1   -1    0    0    0  501  0.00000000000E+00  0.00000000000E+00 -0.12595670348E+04  0.12595670348E+04  0.50400001928E-02 0. -1.
    10030    2    1    2    0    0  0.00000000000E+00  0.00000000000E+00  0.82917306044E+02  0.26020513757E+04  0.26007299134E+04 0.  0.
        1    1    3    3  502    0  0.12700861915E+04 -0.27751377672E+03  0.12875090884E+02  0.13001148404E+04  0.50400001928E-02 0. -1.
       -1    1    3    3    0  502 -0.12700861915E+04  0.27751377672E+03  0.70042215160E+02  0.13019365354E+04  0.50400001928E-02 0.  1.
</event>
<event>
 5   0  0.6526351E-07  0.2600280E+04  0.7818609E-02  0.8368106E-01
        2   -1    0    0  501    0  0.00000000000E+00  0.00000000000E+00  0.14798033019E+04  0.14798033020E+04  0.25500000920E-02 0.  1.
       -2   -1    0    0    0  501  0.00000000000E+00  0.00000000000E+00 -0.11422900790E+04  0.11422900790E+04  0.25500000920E-02 0. -1.
    10030    2    1    2    0    0  0.00000000000E+00  0.00000000000E+00  0.33751322299E+03  0.26220933809E+04  0.26002804700E+04 0.  0.
        3    1    3    3  502    0  0.20620373518E+03  0.72790398668E+03 -0.89746859311E+03  0.11738032544E+04  0.10100000352E+00 0. -1.
       -3    1    3    3    0  502 -0.20620373518E+03 -0.72790398668E+03  0.12349818161E+04  0.14482901265E+04  0.10100000352E+00 0.  1.
</event>
<event>
 5   0  0.6599814E-07  0.2599987E+04  0.7818609E-02  0.8368206E-01
       -2   -1    0    0    0  501  0.00000000000E+00  0.00000000000E+00  0.90168717870E+03  0.90168717871E+03  0.25500000920E-02 0.  1.
        2   -1    0    0  501    0  0.00000000000E+00  0.00000000000E+00 -0.18742448195E+04  0.18742448195E+04  0.25500000920E-02 0. -1.
    10030    2    1    2    0    0  0.00000000000E+00  0.00000000000E+00 -0.97255764083E+03  0.27759319982E+04  0.25999865565E+04 0.  0.
        5    1    3    3  502    0 -0.88204395448E+02  0.58837875464E+03  0.74779023950E+03  0.95560551829E+03  0.46999998093E+01 0.  1.
       -5    1    3    3    0  502  0.88204395448E+02 -0.58837875464E+03 -0.17203478803E+04  0.18203264800E+04  0.46999998093E+01 0. -1.
</event>
<event>
 5   0  0.6599814E-07  0.2599441E+04  0.7818609E-02  0.8368391E-01
        2   -1    0    0  501    0  0.00000000000E+00  0.00000000000E+00  0.90685029070E+03  0.90685029071E+03  0.25500000920E-02 0. -1.
       -2   -1    0    0    0  501  0.00000000000E+00  0.00000000000E+00 -0.18627919869E+04  0.18627919869E+04  0.25500000920E-02 0.  1.
    10030    2    1    2    0    0  0.00000000000E+00  0.00000000000E+00 -0.95594169622E+03  0.27696422776E+04  0.25994410590E+04 0.  0.
        5    1    3    3  502    0 -0.47157651756E+03  0.89470116586E+03 -0.13477392624E+04  0.16850216015E+04  0.46999998093E+01 0.  1.
       -5    1    3    3    0  502  0.47157651756E+03 -0.89470116586E+03  0.39179756623E+03  0.10846206761E+04  0.46999998093E+01 0. -1.
</event>
<event>
 5   0  0.6526351E-07  0.2599841E+04  0.7818609E-02  0.8368255E-01
        2   -1    0    0  501    0  0.00000000000E+00  0.00000000000E+00  0.68422126328E+03  0.68422126329E+03  0.25500000920E-02 0. -1.
       -2   -1    0    0    0  501  0.00000000000E+00  0.00000000000E+00 -0.24696592143E+04  0.24696592143E+04  0.25500000920E-02 0.  1.
    10030    2    1    2    0    0  0.00000000000E+00  0.00000000000E+00 -0.17854379510E+04  0.31538804776E+04  0.25998410317E+04 0.  0.
        3    1    3    3  502    0 -0.35926108050E+03  0.12191212064E+04 -0.12237617780E+04  0.17643463207E+04  0.10100000352E+00 0.  1.
       -3    1    3    3    0  502  0.35926108050E+03 -0.12191212064E+04 -0.56167617300E+03  0.13895341569E+04  0.10100000352E+00 0. -1.
</event>
<event>
 5   0  0.2623263E-07  0.2598808E+04  0.7818609E-02  0.8368606E-01
        1   -1    0    0  501    0  0.00000000000E+00  0.00000000000E+00  0.78122792397E+03  0.78122792398E+03  0.50400001928E-02 0. -1.
       -1   -1    0    0    0  501  0.00000000000E+00  0.00000000000E+00 -0.21612772147E+04  0.21612772147E+04  0.50400001928E-02 0.  1.
    10030    2    1    2    0    0  0.00000000000E+00  0.00000000000E+00 -0.13800492907E+04  0.29425051387E+04  0.25988075047E+04 0.  0.
        1    1    3    3  502    0 -0.62554868149E+03 -0.54201116857E+03 -0.18241789008E+04  0.20031764580E+04  0.50400001928E-02 0.  1.
       -1    1    3    3    0  502  0.62554868149E+03  0.54201116857E+03  0.44412961007E+03  0.93932868067E+03  0.50400001928E-02 0. -1.
</event>
<event>
 5   0  0.2755061E-07  0.2599816E+04  0.7818609E-02  0.8368264E-01
       -1   -1    0    0    0  501  0.00000000000E+00  0.00000000000E+00  0.73877157724E+03  0.73877157725E+03  0.50400001928E-02 0. -1.
        1   -1    0    0  501    0  0.00000000000E+00  0.00000000000E+00 -0.22872581205E+04  0.22872581205E+04  0.50400001928E-02 0.  1.
    10030    2    1    2    0    0  0.00000000000E+00  0.00000000000E+00 -0.15484865432E+04  0.30260296977E+04  0.25998163698E+04 0.  0.
        4    1    3    3  502    0  0.79808272703E+03 -0.59497398861E+03 -0.17472506975E+04  0.20109243395E+04  0.12699999809E+01 0.  1.
       -4    1    3    3    0  502 -0.79808272703E+03  0.59497398861E+03  0.19876415432E+03  0.10151053582E+04  0.12699999809E+01 0. -1.
</event>
<event>
 5   0  0.2864801E-07  0.2600711E+04  0.7818609E-02  0.8367960E-01
        1   -1    0    0  501    0  0.00000000000E+00  0.00000000000E+00  0.17798571474E+04  0.17798571475E+04  0.50400001928E-02 0. -1.
       -1   -1    0    0    0  501  0.00000000000E+00  0.00000000000E+00 -0.95003378621E+03  0.95003378622E+03  0.50400001928E-02 0.  1.
    10030    2    1    2    0    0  0.00000000000E+00  0.00000000000E+00  0.82982336123E+03  0.27298909337E+04  0.26007109987E+04 0.  0.
        5    1    3    3  502    0  0.77628352864E+03 -0.82769923618E+03  0.10814322661E+04  0.15675522251E+04  0.46999998093E+01 0. -1.
       -5    1    3    3    0  502 -0.77628352864E+03  0.82769923618E+03 -0.25160890482E+03  0.11623387086E+04  0.46999998093E+01 0.  1.
</event>
<event>
 5   0  0.6780984E-07  0.2599270E+04  0.7818609E-02  0.8368449E-01
       -2   -1    0    0    0  501  0.00000000000E+00  0.00000000000E+00  0.22708394905E+04  0.22708394905E+04  0.25500000920E-02 0.  1.
        2   -1    0    0  501    0  0.00000000000E+00  0.00000000000E+00 -0.74380014855E+03  0.74380014855E+03  0.25500000920E-02 0. -1.
    10030    2    1    2    0    0  0.00000000000E+00  0.00000000000E+00  0.15270393419E+04  0.30146396390E+04  0.25992697054E+04 0.  0.
        2    1    3    3  502    0 -0.11023937560E+04  0.26465261085E+03  0.15004624043E+04  0.18806117155E+04  0.25500000920E-02 0. -1.
       -2    1    3    3    0  502  0.11023937560E+04 -0.26465261085E+03  0.26576937565E+02  0.11340279235E+04  0.25500000920E-02 0.  1.
</event>
<event>
 5   0  0.2641626E-07  0.2599786E+04  0.7818609E-02  0.8368274E-01
        1   -1    0    0  501    0  0.00000000000E+00  0.00000000000E+00  0.18121555710E+04  0.18121555710E+04  0.50400001928E-02 0. -1.
       -1   -1    0    0    0  501  0.00000000000E+00  0.00000000000E+00 -0.93243740437E+03  0.93243740439E+03  0.50400001928E-02 0.  1.
    10030    2    1    2    0    0  0.00000000000E+00  0.00000000000E+00  0.87971816662E+03  0.27445929754E+04  0.25997858658E+04 0.  0.
        3    1    3    3  502    0 -0.71430148319E+03 -0.43993660918E+02  0.15854559400E+04  0.17394920520E+04  0.10100000352E+00 0. -1.
       -3    1    3    3    0  502  0.71430148319E+03  0.43993660918E+02 -0.70573777342E+03  0.10051009234E+04  0.10100000352E+00 0.  1.
</event>
<event>
 5   0  0.2755061E-07  0.2599691E+04  0.7818609E-02  0.8368306E-01
        1   -1    0    0  501    0  0.00000000000E+00  0.00000000000E+00  0.12357046274E+04  0.12357046274E+04  0.50400001928E-02 0.  1.
       -1   -1    0    0    0  501  0.00000000000E+00  0.00000000000E+00 -0.13673154716E+04  0.13673154716E+04  0.50400001928E-02 0. -1.
    10030    2    1    2    0    0  0.00000000000E+00  0.00000000000E+00 -0.13161084423E+03  0.26030200990E+04  0.25996907935E+04 0.  0.
        4    1    3    3  502    0  0.68801047689E+03  0.68277054618E+03  0.80136513730E+03  0.12576651904E+04  0.12699999809E+01 0.  1.
       -4    1    3    3    0  502 -0.68801047689E+03 -0.68277054618E+03 -0.93297598153E+03  0.13453549086E+04  0.12699999809E+01 0. -1.
</event>
<event>
 5   0  0.6768478E-07  0.2597619E+04  0.7818609E-02  0.8369010E-01
       -2   -1    0    0    0  501  0.00000000000E+00  0.00000000000E+00  0.15095006977E+04  0.15095006977E+04  0.25500000920E-02 0. -1.
        2   -1    0    0  501    0  0.00000000000E+00  0.00000000000E+00 -0.11175259521E+04  0.11175259521E+04  0.25500000920E-02 0.  1.
    10030    2    1    2    0    0  0.00000000000E+00  0.00000000000E+00  0.39197474562E+03  0.26270266499E+04  0.25976190671E+04 0.  0.
        4    1    3    3  502    0 -0.11719082096E+04  0.25999187882E+03  0.69752505264E+03  0.13883470174E+04  0.12699999809E+01 0. -1.
       -4    1    3    3    0  502  0.11719082096E+04 -0.25999187882E+03 -0.30555030702E+03  0.12386796324E+04  0.12699999809E+01 0.  1.
</event>
<event>
 5   0  0.2755061E-07  0.2600462E+04  0.7818609E-02  0.8368044E-01
       -1   -1    0    0    0  501  0.00000000000E+00  0.00000000000E+00  0.13458072757E+04  0.13458072757E+04  0.50400001928E-02 0.  1.
        1   -1    0    0  501    0  0.00000000000E+00  0.00000000000E+00 -0.12561981812E+04  0.12561981812E+04  0.50400001928E-02 0. -1.
    10030    2    1    2    0    0  0.00000000000E+00  0.00000000000E+00  0.89609094558E+02  0.26020054569E+04  0.26004619990E+04 0.  0.
        4    1    3    3  502    0  0.63061670364E+03 -0.35059273897E+02  0.11820056011E+04  0.13401661962E+04  0.12699999809E+01 0.  1.
       -4    1    3    3    0  502 -0.63061670364E+03  0.35059273897E+02 -0.10923965065E+04  0.12618392607E+04  0.12699999809E+01 0. -1.
</event>
<event>
 5   0  0.2755061E-07  0.2602087E+04  0.7818609E-02  0.8367493E-01
        1   -1    0    0  501    0  0.00000000000E+00  0.00000000000E+00  0.11758386105E+04  0.11758386105E+04  0.50400001928E-02 0.  1.
       -1   -1    0    0    0  501  0.00000000000E+00  0.00000000000E+00 -0.14395798958E+04  0.14395798958E+04  0.50400001928E-02 0. -1.
    10030    2    1    2    0    0  0.00000000000E+00  0.00000000000E+00 -0.26374128529E+03  0.26154185063E+04  0.26020865661E+04 0.  0.
        4    1    3    3  502    0  0.87214604275E+03 -0.13186978693E+03  0.82942043226E+03  0.12107717485E+04  0.12699999809E+01 0.  1.
       -4    1    3    3    0  502 -0.87214604275E+03  0.13186978693E+03 -0.10931617175E+04  0.14046467578E+04  0.12699999809E+01 0. -1.
</event>
<event>
 5   0  0.2623263E-07  0.2599795E+04  0.7818609E-02  0.8368271E-01
       -1   -1    0    0    0  501  0.00000000000E+00  0.00000000000E+00  0.10791695633E+04  0.10791695633E+04  0.50400001928E-02 0. -1.
        1   -1    0    0  501    0  0.00000000000E+00  0.00000000000E+00 -0.15657720985E+04  0.15657720985E+04  0.50400001928E-02 0.  1.
    10030    2    1    2    0    0  0.00000000000E+00  0.00000000000E+00 -0.48660253516E+03  0.26449416618E+04  0.25997950625E+04 0.  0.
        1    1    3    3  502    0  0.27682804492E+03 -0.11217287623E+04 -0.84931676018E+03  0.14339623921E+04  0.50400001928E-02 0.  1.
       -1    1    3    3    0  502 -0.27682804492E+03  0.11217287623E+04  0.36271422502E+03  0.12109792697E+04  0.50400001928E-02 0. -1.
</event>
<event>
 5   0  0.7160320E-07  0.2599715E+04  0.7818609E-02  0.8368298E-01
       -2   -1    0    0    0  501  0.00000000000E+00  0.00000000000E+00  0.12174948918E+04  0.12174948918E+04  0.25500000920E-02 0. -1.
        2   -1    0    0  501    0  0.00000000000E+00  0.00000000000E+00 -0.13877916347E+04  0.13877916347E+04  0.25500000920E-02 0.  1.
    10030    2    1    2    0    0  0.00000000000E+00  0.00000000000E+00 -0.17029674295E+03  0.26052865265E+04  0.25997147736E+04 0.  0.
        1    1    3    3  502    0 -0.11266536562E+04 -0.18069885424E+03  0.53878432882E+03  0.12618593780E+04  0.50400001928E-02 0. -1.
       -1    1    3    3    0  502  0.11266536562E+04  0.18069885424E+03 -0.70908107177E+03  0.13434271485E+04  0.50400001928E-02 0.  1.
</event>
<event>
 5   0  0.2641626E-07  0.2608768E+04  0.7818609E-02  0.8365229E-01
       -1   -1    0    0    0  501  0.00000000000E+00  0.00000000000E+00  0.10301854509E+04  0.10301854509E+04  0.50400001928E-02 0.  1.
        1   -1    0    0  501    0  0.00000000000E+00  0.00000000000E+00 -0.16515649980E+04  0.16515649980E+04  0.50400001928E-02 0. -1.
    10030    2    1    2    0    0  0.00000000000E+00  0.00000000000E+00 -0.62137954705E+03  0.26817504489E+04  0.26087684698E+04 0.  0.
        3    1    3    3  502    0 -0.11589900950E+04  0.12828513160E+03 -0.91159680900E+03  0.14801094107E+04  0.10100000352E+00 0. -1.
       -3    1    3    3    0  502  0.11589900950E+04 -0.12828513160E+03  0.29021726195E+03  0.12016410382E+04  0.10100000352E+00 0.  1.
</event>
<event>
 5   0  0.6780984E-07  0.2599367E+04  0.7818609E-02  0.8368416E-01
       -2   -1    0    0    0  501  0.00000000000E+00  0.00000000000E+00  0.81291901397E+03  0.81291901398E+03  0.25500000920E-02 0.  1.
        2   -1    0    0  501    0  0.00000000000E+00  0.00000000000E+00 -0.20779162516E+04  0.20779162516E+04  0.25500000920E-02 0. -1.
    10030    2    1    2    0    0  0.00000000000E+00  0.00000000000E+00 -0.12649972377E+04  0.28908352656E+04  0.25993673310E+04 0.  0.
        2    1    3    3  502    0 -0.84231252015E+03  0.47592197931E+02  0.46700533165E+03  0.96428697943E+03  0.25500000920E-02 0.  1.
       -2    1    3    3    0  502  0.84231252015E+03 -0.47592197931E+02 -0.17320025693E+04  0.19265482862E+04  0.25500000920E-02 0. -1.
</event>
<event>
 5   0  0.6526351E-07  0.2599917E+04  0.7818609E-02  0.8368229E-01
       -2   -1    0    0    0  501  0.00000000000E+00  0.00000000000E+00  0.95011685050E+03  0.95011685051E+03  0.25500000920E-02 0.  1.
        2   -1    0    0  501    0  0.00000000000E+00  0.00000000000E+00 -0.17786155512E+04  0.17786155512E+04  0.25500000920E-02 0. -1.
    10030    2    1    2    0    0  0.00000000000E+00  0.00000000000E+00 -0.82849870072E+03  0.27287324017E+04  0.25999173878E+04 0.  0.
        3    1    3    3  502    0 -0.97241966161E+03 -0.69641849304E+03  0.12018889866E+03  0.12020998699E+04  0.10100000352E+00 0.  1.
       -3    1    3    3    0  502  0.97241966161E+03  0.69641849304E+03 -0.94868759938E+03  0.15266325318E+04  0.10100000352E+00 0. -1.
</event>
<event>
 5   0  0.2864801E-07  0.2600101E+04  0.7818609E-02  0.8368167E-01
        1   -1    0    0  501    0  0.00000000000E+00  0.00000000000E+00  0.18347617145E+04  0.18347617145E+04  0.50400001928E-02 0. -1.
       -1   -1    0    0    0  501  0.00000000000E+00  0.00000000000E+00 -0.92117214234E+03  0.92117214235E+03  0.50400001928E-02 0.  1.
    10030    2    1    2    0    0  0.00000000000E+00  0.00000000000E+00  0.91358957219E+03  0.27559338569E+04  0.26001010590E+04 0.  0.
        5    1    3    3  502    0 -0.90096515961E+03  0.57429733932E+02  0.14483129584E+04  0.17066543026E+04  0.46999998093E+01 0. -1.
       -5    1    3    3    0  502  0.90096515961E+03 -0.57429733932E+02 -0.53472338623E+03  0.10492795542E+04  0.46999998093E+01 0.  1.
</event>
<event>
 5   0  0.6768478E-07  0.2599402E+04  0.7818609E-02  0.8368404E-01
        2   -1    0    0  501    0  0.00000000000E+00  0.00000000000E+00  0.14761331425E+04  0.14761331425E+04  0.25500000920E-02 0. -1.
       -2   -1    0    0    0  501  0.00000000000E+00  0.00000000000E+00 -0.11443569361E+04  0.11443569361E+04  0.25500000920E-02 0.  1.
    10030    2    1    2    0    0  0.00000000000E+00  0.00000000000E+00  0.33177620648E+03  0.26204900786E+04  0.25994023930E+04 0.  0.
        4    1    3    3  502    0  0.80123229108E+03 -0.29749685258E+03  0.11529862595E+04  0.14352200142E+04  0.12699999809E+01 0. -1.
       -4    1    3    3    0  502 -0.80123229108E+03  0.29749685258E+03 -0.82121005303E+03  0.11852700644E+04  0.12699999809E+01 0.  1.
</event>
<event>
 5   0  0.6768478E-07  0.2600959E+04  0.7818609E-02  0.8367875E-01
       -2   -1    0    0    0  501  0.00000000000E+00  0.00000000000E+00  0.75649088819E+03  0.75649088820E+03  0.25500000920E-02 0. -1.
        2   -1    0    0  501    0  0.00000000000E+00  0.00000000000E+00 -0.22356480146E+04  0.22356480146E+04  0.25500000920E-02 0.  1.
    10030    2    1    2    0    0  0.00000000000E+00  0.00000000000E+00 -0.14791571264E+04  0.29921389028E+04  0.26009593247E+04 0.  0.
        4    1    3    3  502    0 -0.35400009970E+03 -0.12115447757E+04 -0.37928361040E+03  0.13179584531E+04  0.12699999809E+01 0. -1.
       -4    1    3    3    0  502  0.35400009970E+03  0.12115447757E+04 -0.10998735160E+04  0.16741804497E+04  0.12699999809E+01 0.  1.
</event>
<event>
 5   0  0.6780984E-07  0.2599851E+04  0.7818609E-02  0.8368252E-01
       -2   -1    0    0    0  501  0.00000000000E+00  0.00000000000E+00  0.76093476570E+03  0.76093476571E+03  0.25500000920E-02 0.  1.
        2   -1    0    0  501    0  0.00000000000E+00  0.00000000000E+00 -0.22206984929E+04  0.22206984929E+04  0.25500000920E-02 0. -1.
    10030    2    1    2    0    0  0.00000000000E+00  0.00000000000E+00 -0.14597637272E+04  0.29816332586E+04  0.25998512938E+04 0.  0.
        2    1    3    3  502    0 -0.53641671409E+03 -0.10168556653E+04 -0.34105045807E+02  0.11501745474E+04  0.25500000920E-02 0.  1.
       -2    1    3    3    0  502  0.53641671409E+03  0.10168556653E+04 -0.14256586814E+04  0.18314587113E+04  0.25500000920E-02 0. -1.
</event>
<event>
 5   0  0.2864801E-07  0.2600187E+04  0.7818609E-02  0.8368138E-01
       -1   -1    0    0    0  501  0.00000000000E+00  0.00000000000E+00  0.12626880851E+04  0.12626880851E+04  0.50400001928E-02 0. -1.
        1   -1    0    0  501    0  0.00000000000E+00  0.00000000000E+00 -0.13386072330E+04  0.13386072330E+04  0.50400001928E-02 0.  1.
    10030    2    1    2    0    0  0.00000000000E+00  0.00000000000E+00 -0.75919147938E+02  0.26012953181E+04  0.26001872269E+04 0.  0.
        5    1    3    3  502    0 -0.88743286936E+03  0.93905830328E+03  0.10651013546E+03  0.12964312915E+04  0.46999998093E+01 0. -1.
       -5    1    3    3    0  502  0.88743286936E+03 -0.93905830328E+03 -0.18242928340E+03  0.13048640266E+04  0.46999998093E+01 0.  1.
</event>
<event>
 5   0  0.6526351E-07  0.2600134E+04  0.7818609E-02  0.8368156E-01
       -2   -1    0    0    0  501  0.00000000000E+00  0.00000000000E+00  0.11393422534E+04  0.11393422534E+04  0.25500000920E-02 0.  1.
        2   -1    0    0  501    0  0.00000000000E+00  0.00000000000E+00 -0.14834652582E+04  0.14834652582E+04  0.25500000920E-02 0. -1.
    10030    2    1    2    0    0  0.00000000000E+00  0.00000000000E+00 -0.34412300477E+03  0.26228075116E+04  0.26001343428E+04 0.  0.
        3    1    3    3  502    0  0.83344195763E+02  0.69653568583E+03  0.93204528517E+03  0.11665404581E+04  0.10100000352E+00 0.  1.
       -3    1    3    3    0  502 -0.83344195763E+02 -0.69653568583E+03 -0.12761682899E+04  0.14562670535E+04  0.10100000352E+00 0. -1.
</event>
<event>
 5   0  0.2294625E-07  0.2600212E+04  0.7818609E-02  0.8368129E-01
        3   -1    0    0  501    0  0.00000000000E+00  0.00000000000E+00  0.20718822305E+04  0.20718822330E+04  0.10100000352E+00 0. -1.
       -3   -1    0    0    0  501  0.00000000000E+00  0.00000000000E+00 -0.81581655901E+03  0.81581656526E+03  0.10100000352E+00 0.  1.
    10030    2    1    2    0    0  0.00000000000E+00  0.00000000000E+00  0.12560656715E+04  0.28876987983E+04  0.26002121795E+04 0.  0.
        1    1    3    3  502    0 -0.18433010859E+03  0.29522440304E+03  0.20191831634E+04  0.20489596591E+04  0.50400001928E-02 0. -1.
       -1    1    3    3    0  502  0.18433010859E+03 -0.29522440304E+03 -0.76311749191E+03  0.83873913916E+03  0.50400001928E-02 0.  1.
</event>
<event>
 5   0  0.2641626E-07  0.2601630E+04  0.7818609E-02  0.8367648E-01
        1   -1    0    0  501    0  0.00000000000E+00  0.00000000000E+00  0.18490077350E+04  0.18490077350E+04  0.50400001928E-02 0. -1.
       -1   -1    0    0    0  501  0.00000000000E+00  0.00000000000E+00 -0.91515006143E+03  0.91515006145E+03  0.50400001928E-02 0.  1.
    10030    2    1    2    0    0  0.00000000000E+00  0.00000000000E+00  0.93385767354E+03  0.27641577964E+04  0.26016299063E+04 0.  0.
        3    1    3    3  502    0  0.96716106061E+03  0.10871127211E+03  0.13839229709E+04  0.16918810412E+04  0.10100000352E+00 0. -1.
       -3    1    3    3    0  502 -0.96716106061E+03 -0.10871127211E+03 -0.45006529735E+03  0.10722767553E+04  0.10100000352E+00 0.  1.
</event>
<event>
 5   0  0.2294625E-07  0.2599010E+04  0.7818609E-02  0.8368538E-01
       -3   -1    0    0    0  501  0.00000000000E+00  0.00000000000E+00  0.32741274168E+04  0.32741274184E+04  0.10100000352E+00 0. -1.
        3   -1    0    0  501    0  0.00000000000E+00  0.00000000000E+00 -0.51577497765E+03  0.51577498754E+03  0.10100000352E+00 0.  1.
    10030    2    1    2    0    0  0.00000000000E+00  0.00000000000E+00  0.27583524392E+04  0.37899024059E+04  0.25990098245E+04 0.  0.
        3    1    3    3  502    0  0.39099917440E+03 -0.12179564473E+04  0.17130227318E+04  0.21379301092E+04  0.10100000352E+00 0. -1.
       -3    1    3    3    0  502 -0.39099917440E+03  0.12179564473E+04  0.10453297074E+04  0.16519722968E+04  0.10100000352E+00 0.  1.
</event>
<event>
 5   0  0.6768478E-07  0.2598720E+04  0.7818609E-02  0.8368636E-01
        2   -1    0    0  501    0  0.00000000000E+00  0.00000000000E+00  0.14556802562E+04  0.14556802562E+04  0.25500000920E-02 0. -1.
       -2   -1    0    0    0  501  0.00000000000E+00  0.00000000000E+00 -0.11598268549E+04  0.11598268549E+04  0.25500000920E-02 0.  1.
    10030    2    1    2    0    0  0.00000000000E+00  0.00000000000E+00  0.29585340137E+03  0.26155071111E+04  0.25987204954E+04 0.  0.
        4    1    3    3  502    0 -0.27956533765E+02  0.64620849124E+03  0.12821349480E+04  0.14360496578E+04  0.12699999809E+01 0. -1.
       -4    1    3    3    0  502  0.27956533765E+02 -0.64620849124E+03 -0.98628154665E+03  0.11794574533E+04  0.12699999809E+01 0.  1.
</event>
<event>
 5   0  0.2755061E-07  0.2602408E+04  0.7818609E-02  0.8367384E-01
        1   -1    0    0  501    0  0.00000000000E+00  0.00000000000E+00  0.20480312192E+04  0.20480312192E+04  0.50400001928E-02 0.  1.
       -1   -1    0    0    0  501  0.00000000000E+00  0.00000000000E+00 -0.82671181846E+03  0.82671181848E+03  0.50400001928E-02 0. -1.
    10030    2    1    2    0    0  0.00000000000E+00  0.00000000000E+00  0.12213194007E+04  0.28747430377E+04  0.26024078186E+04 0.  0.
        4    1    3    3  502    0  0.49886674141E+03 -0.18819928381E+03  0.19218175391E+04  0.19944100036E+04  0.12699999809E+01 0.  1.
       -4    1    3    3    0  502 -0.49886674141E+03  0.18819928381E+03 -0.70049813835E+03  0.88033303406E+03  0.12699999809E+01 0. -1.
</event>
<event>
 5   0  0.2641626E-07  0.2601946E+04  0.7818609E-02  0.8367540E-01
       -1   -1    0    0    0  501  0.00000000000E+00  0.00000000000E+00  0.11196514458E+04  0.11196514458E+04  0.50400001928E-02 0.  1.
        1   -1    0    0  501    0  0.00000000000E+00  0.00000000000E+00 -0.15116587473E+04  0.15116587473E+04  0.50400001928E-02 0. -1.
    10030    2    1    2    0    0  0.00000000000E+00  0.00000000000E+00 -0.39200730157E+03  0.26313101931E+04  0.26019461193E+04 0.  0.
        3    1    3    3  502    0 -0.69874696976E+03 -0.32781873771E+03 -0.12551137775E+04  0.14734391936E+04  0.10100000352E+00 0. -1.
       -3    1    3    3    0  502  0.69874696976E+03  0.32781873771E+03  0.86310647594E+03  0.11578709995E+04  0.10100000352E+00 0.  1.
</event>
<event>
 5   0  0.6780984E-07  0.2600330E+04  0.7818609E-02  0.8368089E-01
        2   -1    0    0  501    0  0.00000000000E+00  0.00000000000E+00  0.15334695875E+04  0.15334695875E+04  0.25500000920E-02 0.  1.
       -2   -1    0    0    0  501  0.00000000000E+00  0.00000000000E+00 -0.11023557797E+04  0.11023557797E+04  0.25500000920E-02 0. -1.
    10030    2    1    2    0    0  0.00000000000E+00  0.00000000000E+00  0.43111380785E+03  0.26358253672E+04  0.26003300274E+04 0.  0.
        2    1    3    3  502    0  0.24023359797E+03 -0.88354644805E+03 -0.72011567568E+03  0.11648747116E+04  0.25500000920E-02 0. -1.
       -2    1    3    3    0  502 -0.24023359797E+03  0.88354644805E+03  0.11512294835E+04  0.14709506556E+04  0.25500000920E-02 0.  1.
</event>
<event>
 5   0  0.2641626E-07  0.2600736E+04  0.7818609E-02  0.8367951E-01
        1   -1    0    0  501    0  0.00000000000E+00  0.00000000000E+00  0.14863325141E+04  0.14863325142E+04  0.50400001928E-02 0.  1.
       -1   -1    0    0    0  501  0.00000000000E+00  0.00000000000E+00 -0.11376704391E+04  0.11376704391E+04  0.50400001928E-02 0. -1.
    10030    2    1    2    0    0  0.00000000000E+00  0.00000000000E+00  0.34866207504E+03  0.26240029533E+04  0.26007357144E+04 0.  0.
        3    1    3    3  502    0  0.23397288156E+03  0.64179933751E+03 -0.94205202389E+03  0.11636630633E+04  0.10100000352E+00 0. -1.
       -3    1    3    3    0  502 -0.23397288156E+03 -0.64179933751E+03  0.12907140989E+04  0.14603398900E+04  0.10100000352E+00 0.  1.
</event>
<event>
 5   0  0.6768478E-07  0.2601309E+04  0.7818609E-02  0.8367757E-01
       -2   -1    0    0    0  501  0.00000000000E+00  0.00000000000E+00  0.10846746663E+04  0.10846746663E+04  0.25500000920E-02 0. -1.
        2   -1    0    0  501    0  0.00000000000E+00  0.00000000000E+00 -0.15596399592E+04  0.15596399592E+04  0.25500000920E-02 0.  1.
    10030    2    1    2    0    0  0.00000000000E+00  0.00000000000E+00 -0.47496529294E+03  0.26443146255E+04  0.26013088646E+04 0.  0.
        4    1    3    3  502    0 -0.80996648791E+03 -0.65552564082E+03  0.55380847081E+03  0.11800275474E+04  0.12699999809E+01 0. -1.
       -4    1    3    3    0  502  0.80996648791E+03  0.65552564082E+03 -0.10287737637E+04  0.14642870781E+04  0.12699999809E+01 0.  1.
</event>
<event>
 5   0  0.7160320E-07  0.2599588E+04  0.7818609E-02  0.8368341E-01
        2   -1    0    0  501    0  0.00000000000E+00  0.00000000000E+00  0.14466477840E+04  0.14466477840E+04  0.25500000920E-02 0. -1.
       -2   -1    0    0    0  501  0.00000000000E+00  0.00000000000E+00 -0.11678478960E+04  0.11678478960E+04  0.25500000920E-02 0.  1.
    10030    2    1    2    0    0  0.00000000000E+00  0.00000000000E+00  0.27879988800E+03  0.26144956801E+04  0.25995880988E+04 0.  0.
        1    1    3    3  502    0 -0.38944422230E+03  0.92005444926E+03 -0.69681111429E+03  0.12180774692E+04  0.50400001928E-02 0.  1.
       -1    1    3    3    0  502  0.38944422230E+03 -0.92005444926E+03  0.97561100229E+03  0.13964182109E+04  0.50400001928E-02 0. -1.
</event>
<event>
 5   0  0.6526351E-07  0.2599158E+04  0.7818609E-02  0.8368487E-01
        2   -1    0    0  501    0  0.00000000000E+00  0.00000000000E+00  0.27341069413E+04  0.27341069413E+04  0.25500000920E-02 0.  1.
       -2   -1    0    0    0  501  0.00000000000E+00  0.00000000000E+00 -0.61771730473E+03  0.61771730474E+03  0.25500000920E-02 0. -1.
    10030    2    1    2    0    0  0.00000000000E+00  0.00000000000E+00  0.21163896366E+04  0.33518242461E+04  0.25991576871E+04 0.  0.
        3    1    3    3  502    0 -0.80922684040E+03  0.91247742503E+03  0.47940130584E+03  0.13104536438E+04  0.10100000352E+00 0. -1.
       -3    1    3    3    0  502  0.80922684040E+03 -0.91247742503E+03  0.16369883307E+04  0.20413706022E+04  0.10100000352E+00 0.  1.
</event>
<event>
 5   0  0.6526351E-07  0.2599201E+04  0.7818609E-02  0.8368473E-01
        2   -1    0    0  501    0  0.00000000000E+00  0.00000000000E+00  0.22458422255E+04  0.22458422255E+04  0.25500000920E-02 0.  1.
       -2   -1    0    0    0  501  0.00000000000E+00  0.00000000000E+00 -0.75203929548E+03  0.75203929548E+03  0.25500000920E-02 0. -1.
    10030    2    1    2    0    0  0.00000000000E+00  0.00000000000E+00  0.14938029300E+04  0.29978815210E+04  0.25992011119E+04 0.  0.
        3    1    3    3  502    0  0.45948740295E+03 -0.47075440012E+03 -0.54582901480E+03  0.85479102844E+03  0.10100000352E+00 0. -1.
       -3    1    3    3    0  502 -0.45948740295E+03  0.47075440012E+03  0.20396319448E+04  0.21430904926E+04  0.10100000352E+00 0.  1.
</event>
<event>
 5   0  0.6599814E-07  0.2599172E+04  0.7818609E-02  0.8368483E-01
        2   -1    0    0  501    0  0.00000000000E+00  0.00000000000E+00  0.18619749682E+04  0.18619749682E+04  0.25500000920E-02 0.  1.
       -2   -1    0    0    0  501  0.00000000000E+00  0.00000000000E+00 -0.90706018882E+03  0.90706018883E+03  0.25500000920E-02 0. -1.
    10030    2    1    2    0    0  0.00000000000E+00  0.00000000000E+00  0.95491477936E+03  0.27690351570E+04  0.25991716882E+04 0.  0.
        5    1    3    3  502    0 -0.87377960737E+02 -0.32164931228E+03  0.18156560508E+04  0.18460016720E+04  0.46999998093E+01 0.  1.
       -5    1    3    3    0  502  0.87377960737E+02  0.32164931228E+03 -0.86074127145E+03  0.92303348503E+03  0.46999998093E+01 0. -1.
</event>
<event>
 5   0  0.2641626E-07  0.2599948E+04  0.7818609E-02  0.8368219E-01
        1   -1    0    0  501    0  0.00000000000E+00  0.00000000000E+00  0.14933111350E+04  0.14933111350E+04  0.50400001928E-02 0. -1.
       -1   -1    0    0    0  501  0.00000000000E+00  0.00000000000E+00 -0.11316676034E+04  0.11316676034E+04  0.50400001928E-02 0.  1.
    10030    2    1    2    0    0  0.00000000000E+00  0.00000000000E+00  0.36164353167E+03  0.26249787384E+04  0.25999475635E+04 0.  0.
        3    1    3    3  502    0  0.35058194792E+03 -0.12160062458E+04 -0.11928216349E+03  0.12711440267E+04  0.10100000352E+00 0. -1.
       -3    1    3    3    0  502 -0.35058194792E+03  0.12160062458E+04  0.48092569516E+03  0.13538347117E+04  0.10100000352E+00 0.  1.
</event>
<event>
 5   0  0.2755061E-07  0.2600167E+04  0.7818609E-02  0.8368145E-01
        1   -1    0    0  501    0  0.00000000000E+00  0.00000000000E+00  0.13055843039E+04  0.13055843039E+04  0.50400001928E-02 0.  1.
       -1   -1    0    0    0  501  0.00000000000E+00  0.00000000000E+00 -0.12946055601E+04  0.12946055601E+04  0.50400001928E-02 0. -1.
    10030    2    1    2    0    0  0.00000000000E+00  0.00000000000E+00  0.10978743825E+02  0.26001898640E+04  0.26001666862E+04 0.  0.
        4    1    3    3  502    0  0.30023315488E+03 -0.12351338925E+04 -0.26749549019E+03  0.12989423120E+04  0.12699999809E+01 0.  1.
       -4    1    3    3    0  502 -0.30023315488E+03  0.12351338925E+04  0.27847423402E+03  0.13012475520E+04  0.12699999809E+01 0. -1.
</event>
<event>
 5   0  0.6768478E-07  0.2600618E+04  0.7818609E-02  0.8367991E-01
       -2   -1    0    0    0  501  0.00000000000E+00  0.00000000000E+00  0.16535930740E+04  0.16535930740E+04  0.25500000920E-02 0. -1.
        2   -1    0    0  501    0  0.00000000000E+00  0.00000000000E+00 -0.10225025131E+04  0.10225025132E+04  0.25500000920E-02 0.  1.
    10030    2    1    2    0    0  0.00000000000E+00  0.00000000000E+00  0.63109056088E+03  0.26760955872E+04  0.26006176758E+04 0.  0.
        4    1    3    3  502    0 -0.12439765559E+04 -0.37816111083E+03  0.29719621603E+03  0.13337206233E+04  0.12699999809E+01 0. -1.
       -4    1    3    3    0  502  0.12439765559E+04  0.37816111083E+03  0.33389434485E+03  0.13423749639E+04  0.12699999809E+01 0.  1.
</event>
<event>
 5   0  0.2641626E-07  0.2601536E+04  0.7818609E-02  0.8367680E-01
        1   -1    0    0  501    0  0.00000000000E+00  0.00000000000E+00  0.10007796434E+04  0.10007796434E+04  0.50400001928E-02 0.  1.
       -1   -1    0    0    0  501  0.00000000000E+00  0.00000000000E+00 -0.16906789981E+04  0.16906789981E+04  0.50400001928E-02 0. -1.
    10030    2    1    2    0    0  0.00000000000E+00  0.00000000000E+00 -0.68989935476E+03  0.26914586415E+04  0.26015357963E+04 0.  0.
        3    1    3    3  502    0 -0.10605088155E+04 -0.44776716128E+02 -0.11228115281E+04  0.15451180019E+04  0.10100000352E+00 0. -1.
       -3    1    3    3    0  502  0.10605088155E+04  0.44776716128E+02  0.43291217331E+03  0.11463406396E+04  0.10100000352E+00 0.  1.
</event>
<event>
 5   0  0.2793576E-07  0.2591330E+04  0.7818609E-02  0.8371152E-01
        1   -1    0    0  501    0  0.00000000000E+00  0.00000000000E+00  0.11935671679E+04  0.11935671679E+04  0.50400001928E-02 0. -1.
       -1   -1    0    0    0  501  0.00000000000E+00  0.00000000000E+00 -0.14064966449E+04  0.14064966449E+04  0.50400001928E-02 0.  1.
    10030    2    1    2    0    0  0.00000000000E+00  0.00000000000E+00 -0.21292947697E+03  0.26000638128E+04  0.25913303279E+04 0.  0.
        2    1    3    3  502    0  0.34949741398E+02  0.12925936649E+04 -0.18876771088E+03  0.13067720213E+04  0.25500000920E-02 0. -1.
       -2    1    3    3    0  502 -0.34949741398E+02 -0.12925936649E+04 -0.24161766090E+02  0.12932917915E+04  0.25500000920E-02 0.  1.
</event>
<event>
 5   0  0.2641626E-07  0.2598642E+04  0.7818609E-02  0.8368663E-01
       -1   -1    0    0    0  501  0.00000000000E+00  0.00000000000E+00  0.16936664037E+04  0.16936664037E+04  0.50400001928E-02 0.  1.
        1   -1    0    0  501    0  0.00000000000E+00  0.00000000000E+00 -0.99679311640E+03  0.99679311641E+03  0.50400001928E-02 0. -1.
    10030    2    1    2    0    0  0.00000000000E+00  0.00000000000E+00  0.69687328734E+03  0.26904595202E+04  0.25986419628E+04 0.  0.
        3    1    3    3  502    0  0.50291313609E+03  0.41062762152E+03  0.15136799454E+04  0.16470469494E+04  0.10100000352E+00 0.  1.
       -3    1    3    3    0  502 -0.50291313609E+03 -0.41062762152E+03 -0.81680665809E+03  0.10434125708E+04  0.10100000352E+00 0. -1.
</event>
<event>
 5   0  0.2641626E-07  0.2599777E+04  0.7818609E-02  0.8368277E-01
        1   -1    0    0  501    0  0.00000000000E+00  0.00000000000E+00  0.14697415499E+04  0.14697415500E+04  0.50400001928E-02 0. -1.
       -1   -1    0    0    0  501  0.00000000000E+00  0.00000000000E+00 -0.11496644741E+04  0.11496644741E+04  0.50400001928E-02 0.  1.
    10030    2    1    2    0    0  0.00000000000E+00  0.00000000000E+00  0.32007707581E+03  0.26194060241E+04  0.25997766413E+04 0.  0.
        3    1    3    3  502    0 -0.39097502785E+03 -0.12380824236E+04  0.22376222594E+03  0.13174896979E+04  0.10100000352E+00 0. -1.
       -3    1    3    3    0  502  0.39097502785E+03  0.12380824236E+04  0.96314849871E+02  0.13019163262E+04  0.10100000352E+00 0.  1.
</event>
<event>
 5   0  0.2864801E-07  0.2595273E+04  0.7818609E-02  0.8369809E-01
       -1   -1    0    0    0  501  0.00000000000E+00  0.00000000000E+00  0.94440950470E+03  0.94440950472E+03  0.50400001928E-02 0.  1.
        1   -1    0    0  501    0  0.00000000000E+00  0.00000000000E+00 -0.17829765840E+04  0.17829765840E+04  0.50400001928E-02 0. -1.
    10030    2    1    2    0    0  0.00000000000E+00  0.00000000000E+00 -0.83856707934E+03  0.27273860888E+04  0.25952726505E+04 0.  0.
        5    1    3    3  502    0  0.45413766382E+03 -0.79719721415E+03  0.54507523840E+03  0.10671895434E+04  0.46999998093E+01 0.  1.
       -5    1    3    3    0  502 -0.45413766382E+03  0.79719721415E+03 -0.13836423177E+04  0.16601965454E+04  0.46999998093E+01 0. -1.
</event>
<event>
 5   0  0.2793576E-07  0.2600709E+04  0.7818609E-02  0.8367960E-01
       -1   -1    0    0    0  501  0.00000000000E+00  0.00000000000E+00  0.88826953887E+03  0.88826953889E+03  0.50400001928E-02 0.  1.
        1   -1    0    0  501    0  0.00000000000E+00  0.00000000000E+00 -0.19036132043E+04  0.19036132043E+04  0.50400001928E-02 0. -1.
    10030    2    1    2    0    0  0.00000000000E+00  0.00000000000E+00 -0.10153436654E+04  0.27918827431E+04  0.26007088443E+04 0.  0.
        2    1    3    3  502    0  0.24061571619E+03 -0.27928916201E+03 -0.18463429247E+04  0.18827853183E+04  0.25500000920E-02 0. -1.
       -2    1    3    3    0  502 -0.24061571619E+03  0.27928916201E+03  0.83099925935E+03  0.90909742489E+03  0.25500000920E-02 0.  1.
</event>
<event>
 5   0  0.2793576E-07  0.2598363E+04  0.7818609E-02  0.8368757E-01
        1   -1    0    0  501    0  0.00000000000E+00  0.00000000000E+00  0.25153508846E+04  0.25153508846E+04  0.50400001928E-02 0.  1.
       -1   -1    0    0    0  501  0.00000000000E+00  0.00000000000E+00 -0.67102883047E+03  0.67102883049E+03  0.50400001928E-02 0. -1.
    10030    2    1    2    0    0  0.00000000000E+00  0.00000000000E+00  0.18443220541E+04  0.31863797151E+04  0.25983633020E+04 0.  0.
        2    1    3    3  502    0  0.11818959297E+04  0.44451737308E+03  0.12969349940E+04  0.18101143783E+04  0.25500000920E-02 0.  1.
       -2    1    3    3    0  502 -0.11818959297E+04 -0.44451737308E+03  0.54738706008E+03  0.13762653368E+04  0.25500000920E-02 0. -1.
</event>
<event>
 5   0  0.6599814E-07  0.2598705E+04  0.7818609E-02  0.8368641E-01
        2   -1    0    0  501    0  0.00000000000E+00  0.00000000000E+00  0.20078040200E+04  0.20078040200E+04  0.25500000920E-02 0.  1.
       -2   -1    0    0    0  501  0.00000000000E+00  0.00000000000E+00 -0.84087713875E+03  0.84087713875E+03  0.25500000920E-02 0. -1.
    10030    2    1    2    0    0  0.00000000000E+00  0.00000000000E+00  0.11669268812E+04  0.28486811587E+04  0.25987046769E+04 0.  0.
        5    1    3    3  502    0  0.12408046254E+04  0.13581818300E+03  0.97908380225E+03  0.15864015504E+04  0.46999998093E+01 0.  1.
       -5    1    3    3    0  502 -0.12408046254E+04 -0.13581818300E+03  0.18784307897E+03  0.12622796083E+04  0.46999998093E+01 0. -1.
</event>
<event>
 5   0  0.2641626E-07  0.2600565E+04  0.7818609E-02  0.8368009E-01
       -1   -1    0    0    0  501  0.00000000000E+00  0.00000000000E+00  0.82588196196E+03  0.82588196198E+03  0.50400001928E-02 0. -1.
        1   -1    0    0  501    0  0.00000000000E+00  0.00000000000E+00 -0.20471872069E+04  0.20471872069E+04  0.50400001928E-02 0.  1.
    10030    2    1    2    0    0  0.00000000000E+00  0.00000000000E+00 -0.12213052450E+04  0.28730691689E+04  0.26005653132E+04 0.  0.
        3    1    3    3  502    0  0.11938101102E+04  0.30775214391E+03 -0.10672930818E+04  0.16306466490E+04  0.10100000352E+00 0.  1.
       -3    1    3    3    0  502 -0.11938101102E+04 -0.30775214391E+03 -0.15401216320E+03  0.12424225199E+04  0.10100000352E+00 0. -1.
</event>
<event>
 5   0  0.6599814E-07  0.2599035E+04  0.7818609E-02  0.8368529E-01
       -2   -1    0    0    0  501  0.00000000000E+00  0.00000000000E+00  0.86213157975E+03  0.86213157976E+03  0.25500000920E-02 0.  1.
        2   -1    0    0  501    0  0.00000000000E+00  0.00000000000E+00 -0.19588031663E+04  0.19588031663E+04  0.25500000920E-02 0. -1.
    10030    2    1    2    0    0  0.00000000000E+00  0.00000000000E+00 -0.10966715865E+04  0.28209347460E+04  0.25990352581E+04 0.  0.
        5    1    3    3  502    0 -0.49382968316E+03  0.11990371633E+04 -0.45645549402E+03  0.13747478252E+04  0.46999998093E+01 0.  1.
       -5    1    3    3    0  502  0.49382968316E+03 -0.11990371633E+04 -0.64021609248E+03  0.14461869208E+04  0.46999998093E+01 0. -1.
</event>
<event>
 5   0  0.2641626E-07  0.2600500E+04  0.7818609E-02  0.8368031E-01
       -1   -1    0    0    0  501  0.00000000000E+00  0.00000000000E+00  0.11368678213E+04  0.11368678213E+04  0.50400001928E-02 0. -1.
        1   -1    0    0  501    0  0.00000000000E+00  0.00000000000E+00 -0.14871123835E+04  0.14871123835E+04  0.50400001928E-02 0.  1.
    10030    2    1    2    0    0  0.00000000000E+00  0.00000000000E+00 -0.35024456218E+03  0.26239802047E+04  0.26005001176E+04 0.  0.
        3    1    3    3  502    0  0.10543695209E+04 -0.70603145208E+02 -0.93957106198E+03  0.14140274684E+04  0.10100000352E+00 0.  1.
       -3    1    3    3    0  502 -0.10543695209E+04  0.70603145208E+02  0.58932649980E+03  0.12099527364E+04  0.10100000352E+00 0. -1.
</event>
<event>
 5   0  0.6768478E-07  0.2600995E+04  0.7818609E-02  0.8367863E-01
       -2   -1    0    0    0  501  0.00000000000E+00  0.00000000000E+00  0.81725040047E+03  0.81725040047E+03  0.25500000920E-02 0. -1.
        2   -1    0    0  501    0  0.00000000000E+00  0.00000000000E+00 -0.20694924413E+04  0.20694924413E+04  0.25500000920E-02 0.  1.
    10030    2    1    2    0    0  0.00000000000E+00  0.00000000000E+00 -0.12522420408E+04  0.28867428417E+04  0.26009948300E+04 0.  0.
        4    1    3    3  502    0  0.11575522692E+04 -0.52981263527E+03 -0.92115045577E+03  0.15713524301E+04  0.12699999809E+01 0.  1.
       -4    1    3    3    0  502 -0.11575522692E+04  0.52981263527E+03 -0.33109158501E+03  0.13153904116E+04  0.12699999809E+01 0. -1.
</event>
<event>
 5   0  0.2755061E-07  0.2600260E+04  0.7818609E-02  0.8368113E-01
       -1   -1    0    0    0  501  0.00000000000E+00  0.00000000000E+00  0.84570850747E+03  0.84570850749E+03  0.50400001928E-02 0. -1.
        1   -1    0    0  501    0  0.00000000000E+00  0.00000000000E+00 -0.19987240092E+04  0.19987240092E+04  0.50400001928E-02 0.  1.
    10030    2    1    2    0    0  0.00000000000E+00  0.00000000000E+00 -0.11530155017E+04  0.28444325167E+04  0.26002599091E+04 0.  0.
        4    1    3    3  502    0 -0.49457383243E+02 -0.12758840195E+04 -0.30853447165E+03  0.13135909550E+04  0.12699999809E+01 0.  1.
       -4    1    3    3    0  502  0.49457383243E+02  0.12758840195E+04 -0.84448103006E+03  0.15308415617E+04  0.12699999809E+01 0. -1.
</event>
<event>
 5   0  0.6768478E-07  0.2597309E+04  0.7818609E-02  0.8369116E-01
        2   -1    0    0  501    0  0.00000000000E+00  0.00000000000E+00  0.27566507138E+04  0.27566507138E+04  0.25500000920E-02 0.  1.
       -2   -1    0    0    0  501  0.00000000000E+00  0.00000000000E+00 -0.61179462046E+03  0.61179462046E+03  0.25500000920E-02 0. -1.
    10030    2    1    2    0    0  0.00000000000E+00  0.00000000000E+00  0.21448560934E+04  0.33684453343E+04  0.25973094365E+04 0.  0.
        4    1    3    3  502    0 -0.39319821830E+03 -0.59502418785E+03  0.24799321448E+04  0.25804502860E+04  0.12699999809E+01 0.  1.
       -4    1    3    3    0  502  0.39319821830E+03  0.59502418785E+03 -0.33507605140E+03  0.78799504829E+03  0.12699999809E+01 0. -1.
</event>
<event>
 5   0  0.6780984E-07  0.2598276E+04  0.7818609E-02  0.8368787E-01
       -2   -1    0    0    0  501  0.00000000000E+00  0.00000000000E+00  0.13393306148E+04  0.13393306148E+04  0.25500000920E-02 0. -1.
        2   -1    0    0  501    0  0.00000000000E+00  0.00000000000E+00 -0.12601518665E+04  0.12601518665E+04  0.25500000920E-02 0.  1.
    10030    2    1    2    0    0  0.00000000000E+00  0.00000000000E+00  0.79178748306E+02  0.25994824812E+04  0.25982763317E+04 0.  0.
        2    1    3    3  502    0  0.11336521872E+04 -0.25755919651E+03 -0.54055561877E+03  0.12820703562E+04  0.25500000920E-02 0.  1.
       -2    1    3    3    0  502 -0.11336521872E+04  0.25755919651E+03  0.61973436708E+03  0.13174121250E+04  0.25500000920E-02 0. -1.
</event>
<event>
 5   0  0.2623263E-07  0.2599800E+04  0.7818609E-02  0.8368269E-01
       -1   -1    0    0    0  501  0.00000000000E+00  0.00000000000E+00  0.14695871664E+04  0.14695871664E+04  0.50400001928E-02 0. -1.
        1   -1    0    0  501    0  0.00000000000E+00  0.00000000000E+00 -0.11498056291E+04  0.11498056292E+04  0.50400001928E-02 0.  1.
    10030    2    1    2    0    0  0.00000000000E+00  0.00000000000E+00  0.31978153721E+03  0.26193927955E+04  0.25997996818E+04 0.  0.
        1    1    3    3  502    0 -0.44895905318E+03 -0.97114682794E+03  0.90372917276E+03  0.14005059124E+04  0.50400001928E-02 0. -1.
       -1    1    3    3    0  502  0.44895905318E+03  0.97114682794E+03 -0.58394763554E+03  0.12188868832E+04  0.50400001928E-02 0.  1.
</event>
<event>
 5   0  0.2294625E-07  0.2600162E+04  0.7818609E-02  0.8368146E-01
        3   -1    0    0  501    0  0.00000000000E+00  0.00000000000E+00  0.10237663691E+04  0.10237663741E+04  0.10100000352E+00 0.  1.
       -3   -1    0    0    0  501  0.00000000000E+00  0.00000000000E+00 -0.16509732501E+04  0.16509732532E+04  0.10100000352E+00 0. -1.
    10030    2    1    2    0    0  0.00000000000E+00  0.00000000000E+00 -0.62720688105E+03  0.26747396273E+04  0.26001622261E+04 0.  0.
        5    1    3    3  502    0  0.50929931061E+02 -0.11949275604E+04 -0.83787108836E+03  0.14603067428E+04  0.46999998093E+01 0. -1.
       -5    1    3    3    0  502 -0.50929931061E+02  0.11949275604E+04  0.21066420731E+03  0.12144328844E+04  0.46999998093E+01 0.  1.
</event>
<event>
 5   0  0.2623263E-07  0.2601528E+04  0.7818609E-02  0.8367682E-01
       -1   -1    0    0    0  501  0.00000000000E+00  0.00000000000E+00  0.15662420446E+04  0.15662420446E+04  0.50400001928E-02 0.  1.
        1   -1    0    0  501    0  0.00000000000E+00  0.00000000000E+00 -0.10802848742E+04  0.10802848742E+04  0.50400001928E-02 0. -1.
    10030    2    1    2    0    0  0.00000000000E+00  0.00000000000E+00  0.48595717044E+03  0.26465269188E+04  0.26015284662E+04 0.  0.
        1    1    3    3  502    0 -0.11166350146E+04  0.59217250111E+03 -0.69657075259E+02  0.12658570753E+04  0.50400001928E-02 0. -1.
       -1    1    3    3    0  502  0.11166350146E+04 -0.59217250111E+03  0.55561424569E+03  0.13806698435E+04  0.50400001928E-02 0.  1.
</event>
<event>
 5   0  0.6599814E-07  0.2600118E+04  0.7818609E-02  0.8368161E-01
        2   -1    0    0  501    0  0.00000000000E+00  0.00000000000E+00  0.24638888657E+04  0.24638888657E+04  0.25500000920E-02 0.  1.
       -2   -1    0    0    0  501  0.00000000000E+00  0.00000000000E+00 -0.68596984785E+03  0.68596984786E+03  0.25500000920E-02 0. -1.
    10030    2    1    2    0    0  0.00000000000E+00  0.00000000000E+00  0.17779190178E+04  0.31498587135E+04  0.26001180514E+04 0.  0.
        5    1    3    3  502    0 -0.11312014293E+04 -0.56701946362E+03  0.12503709347E+04  0.17789258866E+04  0.46999998093E+01 0. -1.
       -5    1    3    3    0  502  0.11312014293E+04  0.56701946362E+03  0.52754808315E+03  0.13709328269E+04  0.46999998093E+01 0.  1.
</event>
<event>
 5   0  0.6526351E-07  0.2592166E+04  0.7818609E-02  0.8370867E-01
        2   -1    0    0  501    0  0.00000000000E+00  0.00000000000E+00  0.23220798378E+04  0.23220798378E+04  0.25500000920E-02 0. -1.
       -2   -1    0    0    0  501  0.00000000000E+00  0.00000000000E+00 -0.72341667704E+03  0.72341667704E+03  0.25500000920E-02 0.  1.
    10030    2    1    2    0    0  0.00000000000E+00  0.00000000000E+00  0.15986631608E+04  0.30454965149E+04  0.25921661059E+04 0.  0.
        3    1    3    3  502    0 -0.41695798471E+02  0.10525690208E+04  0.16864988876E+04  0.19884462757E+04  0.10100000352E+00 0. -1.
       -3    1    3    3    0  502  0.41695798471E+02 -0.10525690208E+04 -0.87835726802E+02  0.10570502392E+04  0.10100000352E+00 0.  1.
</event>
<event>
 5   0  0.6599814E-07  0.2600169E+04  0.7818609E-02  0.8368144E-01
       -2   -1    0    0    0  501  0.00000000000E+00  0.00000000000E+00  0.94611499723E+03  0.94611499723E+03  0.25500000920E-02 0.  1.
        2   -1    0    0  501    0  0.00000000000E+00  0.00000000000E+00 -0.17864838398E+04  0.17864838398E+04  0.25500000920E-02 0. -1.
    10030    2    1    2    0    0  0.00000000000E+00  0.00000000000E+00 -0.84036884257E+03  0.27325988370E+04  0.26001685739E+04 0.  0.
        5    1    3    3  502    0  0.47044548099E+03 -0.11813822794E+04 -0.70454638718E+03  0.14537505778E+04  0.46999998093E+01 0. -1.
       -5    1    3    3    0  502 -0.47044548099E+03  0.11813822794E+04 -0.13582245539E+03  0.12788482592E+04  0.46999998093E+01 0.  1.
</event>
<event>
 5   0  0.2793576E-07  0.2600221E+04  0.7818609E-02  0.8368126E-01
       -1   -1    0    0    0  501  0.00000000000E+00  0.00000000000E+00  0.18361427754E+04  0.18361427754E+04  0.50400001928E-02 0. -1.
        1   -1    0    0  501    0  0.00000000000E+00  0.00000000000E+00 -0.92056424679E+03  0.92056424680E+03  0.50400001928E-02 0.  1.
    10030    2    1    2    0    0  0.00000000000E+00  0.00000000000E+00  0.91557852862E+03  0.27567070222E+04  0.26002210607E+04 0.  0.
        2    1    3    3  502    0 -0.11487948879E+04  0.66368874419E+02 -0.18373274660E+03  0.11652863356E+04  0.25500000920E-02 0.  1.
       -2    1    3    3    0  502  0.11487948879E+04 -0.66368874419E+02  0.10993112752E+04  0.15914206866E+04  0.25500000920E-02 0. -1.
</event>
<event>
 5   0  0.6768478E-07  0.2599665E+04  0.7818609E-02  0.8368315E-01
       -2   -1    0    0    0  501  0.00000000000E+00  0.00000000000E+00  0.86528093265E+03  0.86528093266E+03  0.25500000920E-02 0. -1.
        2   -1    0    0  501    0  0.00000000000E+00  0.00000000000E+00 -0.19526194310E+04  0.19526194310E+04  0.25500000920E-02 0.  1.
    10030    2    1    2    0    0  0.00000000000E+00  0.00000000000E+00 -0.10873384984E+04  0.28179003637E+04  0.25996648726E+04 0.  0.
        4    1    3    3  502    0  0.37285090714E+01 -0.11463828478E+04 -0.12077631531E+04  0.16652029854E+04  0.12699999809E+01 0.  1.
       -4    1    3    3    0  502 -0.37285090714E+01  0.11463828478E+04  0.12042465476E+03  0.11526973783E+04  0.12699999809E+01 0. -1.
</event>
<event>
 5   0  0.2623263E-07  0.2599771E+04  0.7818609E-02  0.8368279E-01
       -1   -1    0    0    0  501  0.00000000000E+00  0.00000000000E+00  0.10982520006E+04  0.10982520006E+04  0.50400001928E-02 0.  1.
        1   -1    0    0  501    0  0.00000000000E+00  0.00000000000E+00 -0.15385379237E+04  0.15385379237E+04  0.50400001928E-02 0. -1.
    10030    2    1    2    0    0  0.00000000000E+00  0.00000000000E+00 -0.44028592308E+03  0.26367899243E+04  0.25997710304E+04 0.  0.
        1    1    3    3  502    0 -0.56475400222E+03 -0.38513140032E+03 -0.13415215662E+04  0.15056405252E+04  0.50400001928E-02 0. -1.
       -1    1    3    3    0  502  0.56475400222E+03  0.38513140032E+03  0.90123564313E+03  0.11311493991E+04  0.50400001928E-02 0.  1.
</event>
<event>
 5   0  0.6526351E-07  0.2601140E+04  0.7818609E-02  0.8367814E-01
       -2   -1    0    0    0  501  0.00000000000E+00  0.00000000000E+00  0.15382818353E+04  0.15382818353E+04  0.25500000920E-02 0.  1.
        2   -1    0    0  501    0  0.00000000000E+00  0.00000000000E+00 -0.10995916940E+04  0.10995916940E+04  0.25500000920E-02 0. -1.
    10030    2    1    2    0    0  0.00000000000E+00  0.00000000000E+00  0.43869014134E+03  0.26378735293E+04  0.26011396957E+04 0.  0.
        3    1    3    3  502    0  0.10610886633E+04  0.70655737647E+03  0.48056657607E+03  0.13623790669E+04  0.10100000352E+00 0.  1.
       -3    1    3    3    0  502 -0.10610886633E+04 -0.70655737647E+03 -0.41876434736E+02  0.12754944624E+04  0.10100000352E+00 0. -1.
</event>
<event>
 5   0  0.2623263E-07  0.2601093E+04  0.7818609E-02  0.8367830E-01
       -1   -1    0    0    0  501  0.00000000000E+00  0.00000000000E+00  0.88135160265E+03  0.88135160266E+03  0.50400001928E-02 0. -1.
        1   -1    0    0  501    0  0.00000000000E+00  0.00000000000E+00 -0.19191213817E+04  0.19191213817E+04  0.50400001928E-02 0.  1.
    10030    2    1    2    0    0  0.00000000000E+00  0.00000000000E+00 -0.10377697790E+04  0.28004729843E+04  0.26010926208E+04 0.  0.
        1    1    3    3  502    0  0.61588971538E+02  0.87030361816E+03  0.51951236629E+03  0.10154381753E+04  0.50400001928E-02 0. -1.
       -1    1    3    3    0  502 -0.61588971538E+02 -0.87030361816E+03 -0.15572821453E+04  0.17850348090E+04  0.50400001928E-02 0.  1.
</event>
<event>
 5   0  0.6599814E-07  0.2600403E+04  0.7818609E-02  0.8368064E-01
        2   -1    0    0  501    0  0.00000000000E+00  0.00000000000E+00  0.27570067384E+04  0.27570067384E+04  0.25500000920E-02 0.  1.
       -2   -1    0    0    0  501  0.00000000000E+00  0.00000000000E+00 -0.61317344840E+03  0.61317344840E+03  0.25500000920E-02 0. -1.
    10030    2    1    2    0    0  0.00000000000E+00  0.00000000000E+00  0.21438332900E+04  0.33701801868E+04  0.26004025296E+04 0.  0.
        5    1    3    3  502    0 -0.37262030055E+03 -0.87803313048E+03 -0.73222589723E+02  0.95664607052E+03  0.46999998093E+01 0. -1.
       -5    1    3    3    0  502  0.37262030055E+03  0.87803313048E+03  0.22170558797E+04  0.24135341162E+04  0.46999998093E+01 0.  1.
</event>
<event>
 5   0  0.2755061E-07  0.2602585E+04  0.7818609E-02  0.8367324E-01
       -1   -1    0    0    0  501  0.00000000000E+00  0.00000000000E+00  0.79265939801E+03  0.79265939803E+03  0.50400001928E-02 0. -1.
        1   -1    0    0  501    0  0.00000000000E+00  0.00000000000E+00 -0.21363041532E+04  0.21363041532E+04  0.50400001928E-02 0.  1.
    10030    2    1    2    0    0  0.00000000000E+00  0.00000000000E+00 -0.13436447552E+04  0.29289635513E+04  0.26025845340E+04 0.  0.
        4    1    3    3  502    0  0.29251362188E+03 -0.10319824897E+04 -0.15009706339E+04  0.18448486482E+04  0.12699999809E+01 0.  1.
       -4    1    3    3    0  502 -0.29251362188E+03  0.10319824897E+04  0.15732587870E+03  0.10841149031E+04  0.12699999809E+01 0. -1.
</event>
<event>
 5   0  0.6780984E-07  0.2599757E+04  0.7818609E-02  0.8368284E-01
       -2   -1    0    0    0  501  0.00000000000E+00  0.00000000000E+00  0.85303413444E+03  0.85303413444E+03  0.25500000920E-02 0. -1.
        2   -1    0    0  501    0  0.00000000000E+00  0.00000000000E+00 -0.19807931447E+04  0.19807931447E+04  0.25500000920E-02 0.  1.
    10030    2    1    2    0    0  0.00000000000E+00  0.00000000000E+00 -0.11277590103E+04  0.28338272792E+04  0.25997570392E+04 0.  0.
        2    1    3    3  502    0  0.11336322078E+04 -0.11824817190E+03 -0.12451120159E+04  0.16880191187E+04  0.25500000920E-02 0.  1.
       -2    1    3    3    0  502 -0.11336322078E+04  0.11824817190E+03  0.11735300560E+03  0.11458081605E+04  0.25500000920E-02 0. -1.
</event>
<event>
 5   0  0.6526351E-07  0.2603196E+04  0.7818609E-02  0.8367116E-01
       -2   -1    0    0    0  501  0.00000000000E+00  0.00000000000E+00  0.10472556172E+04  0.10472556172E+04  0.25500000920E-02 0. -1.
        2   -1    0    0  501    0  0.00000000000E+00  0.00000000000E+00 -0.16177118116E+04  0.16177118116E+04  0.25500000920E-02 0.  1.
    10030    2    1    2    0    0  0.00000000000E+00  0.00000000000E+00 -0.57045619446E+03  0.26649674288E+04  0.26031963289E+04 0.  0.
        3    1    3    3  502    0 -0.58782234605E+03 -0.64487835665E+03  0.70348132783E+03  0.11208430730E+04  0.10100000352E+00 0. -1.
       -3    1    3    3    0  502  0.58782234605E+03  0.64487835665E+03 -0.12739375223E+04  0.15441243558E+04  0.10100000352E+00 0.  1.
</event>
<event>
 5   0  0.2864801E-07  0.2599759E+04  0.7818609E-02  0.8368283E-01
       -1   -1    0    0    0  501  0.00000000000E+00  0.00000000000E+00  0.10868114130E+04  0.10868114130E+04  0.50400001928E-02 0. -1.
        1   -1    0    0  501    0  0.00000000000E+00  0.00000000000E+00 -0.15547190140E+04  0.15547190140E+04  0.50400001928E-02 0.  1.
    10030    2    1    2    0    0  0.00000000000E+00  0.00000000000E+00 -0.46790760097E+03  0.26415304270E+04  0.25997587337E+04 0.  0.
        5    1    3    3  502    0  0.10750892566E+03  0.48861144874E+03  0.98505835124E+03  0.11048354458E+04  0.46999998093E+01 0. -1.
       -5    1    3    3    0  502 -0.10750892566E+03 -0.48861144874E+03 -0.14529659522E+04  0.15366949812E+04  0.46999998093E+01 0.  1.
</event>
<event>
 5   0  0.2294625E-07  0.2600070E+04  0.7818609E-02  0.8368178E-01
       -4   -1    0    0    0  501  0.00000000000E+00  0.00000000000E+00  0.10868363095E+04  0.10868370515E+04  0.12699999809E+01 0. -1.
        4   -1    0    0  501    0  0.00000000000E+00  0.00000000000E+00 -0.15550536236E+04  0.15550541422E+04  0.12699999809E+01 0.  1.
    10030    2    1    2    0    0  0.00000000000E+00  0.00000000000E+00 -0.46821731409E+03  0.26418911937E+04  0.26000695426E+04 0.  0.
        1    1    3    3  502    0  0.40476472012E+02  0.10098164943E+04  0.59679945558E+03  0.11736853442E+04  0.50400001928E-02 0. -1.
       -1    1    3    3    0  502 -0.40476472012E+02 -0.10098164943E+04 -0.10650167697E+04  0.14682058495E+04  0.50400001928E-02 0.  1.
</event>
<event>
 5   0  0.6768478E-07  0.2609227E+04  0.7818609E-02  0.8365074E-01
        2   -1    0    0  501    0  0.00000000000E+00  0.00000000000E+00  0.17599314173E+04  0.17599314173E+04  0.25500000920E-02 0.  1.
       -2   -1    0    0    0  501  0.00000000000E+00  0.00000000000E+00 -0.96709218570E+03  0.96709218570E+03  0.25500000920E-02 0. -1.
    10030    2    1    2    0    0  0.00000000000E+00  0.00000000000E+00  0.79283923160E+03  0.27270236030E+04  0.26092266448E+04 0.  0.
        4    1    3    3  502    0 -0.76062079994E+03 -0.81165176956E+03 -0.31603885655E+03  0.11563757037E+04  0.12699999809E+01 0. -1.
       -4    1    3    3    0  502  0.76062079994E+03  0.81165176956E+03  0.11088780882E+04  0.15706478993E+04  0.12699999809E+01 0.  1.
</event>
<event>
 5   0  0.6780984E-07  0.2597111E+04  0.7818609E-02  0.8369183E-01
       -2   -1    0    0    0  501  0.00000000000E+00  0.00000000000E+00  0.10669729344E+04  0.10669729344E+04  0.25500000920E-02 0. -1.
        2   -1    0    0  501    0  0.00000000000E+00  0.00000000000E+00 -0.15804025781E+04  0.15804025781E+04  0.25500000920E-02 0.  1.
    10030    2    1    2    0    0  0.00000000000E+00  0.00000000000E+00 -0.51342964371E+03  0.26473755126E+04  0.25971113002E+04 0.  0.
        2    1    3    3  502    0 -0.42992949585E+03  0.12070135269E+04 -0.41619675336E+02  0.12819723956E+04  0.25500000920E-02 0. -1.
       -2    1    3    3    0  502  0.42992949585E+03 -0.12070135269E+04 -0.47180996837E+03  0.13654031170E+04  0.25500000920E-02 0.  1.
</event>
<event>
 5   0  0.2793576E-07  0.2599383E+04  0.7818609E-02  0.8368411E-01
       -1   -1    0    0    0  501  0.00000000000E+00  0.00000000000E+00  0.11895622236E+04  0.11895622237E+04  0.50400001928E-02 0.  1.
        1   -1    0    0  501    0  0.00000000000E+00  0.00000000000E+00 -0.14200165686E+04  0.14200165686E+04  0.50400001928E-02 0. -1.
    10030    2    1    2    0    0  0.00000000000E+00  0.00000000000E+00 -0.23045434494E+03  0.26095787923E+04  0.25993830552E+04 0.  0.
        2    1    3    3  502    0 -0.15377794214E+03  0.71367991375E+03  0.96426314878E+03  0.12094585958E+04  0.25500000920E-02 0.  1.
       -2    1    3    3    0  502  0.15377794214E+03 -0.71367991375E+03 -0.11947174937E+04  0.14001201965E+04  0.25500000920E-02 0. -1.
</event>
<event>
 5   0  0.6780984E-07  0.2600475E+04  0.7818609E-02  0.8368040E-01
        2   -1    0    0  501    0  0.00000000000E+00  0.00000000000E+00  0.22062336831E+04  0.22062336831E+04  0.25500000920E-02 0.  1.
       -2   -1    0    0    0  501  0.00000000000E+00  0.00000000000E+00 -0.76629131873E+03  0.76629131873E+03  0.25500000920E-02 0. -1.
    10030    2    1    2    0    0  0.00000000000E+00  0.00000000000E+00  0.14399423644E+04  0.29725250018E+04  0.26004751246E+04 0.  0.
        2    1    3    3  502    0 -0.62840764192E+03 -0.47731812352E+03 -0.46126260661E+03  0.91405248631E+03  0.25500000920E-02 0. -1.
       -2    1    3    3    0  502  0.62840764192E+03  0.47731812352E+03  0.19012049710E+04  0.20584725155E+04  0.25500000920E-02 0.  1.
</event>
<event>
 5   0  0.6599814E-07  0.2601036E+04  0.7818609E-02  0.8367849E-01
       -2   -1    0    0    0  501  0.00000000000E+00  0.00000000000E+00  0.82569753965E+03  0.82569753966E+03  0.25500000920E-02 0. -1.
        2   -1    0    0  501    0  0.00000000000E+00  0.00000000000E+00 -0.20483860029E+04  0.20483860029E+04  0.25500000920E-02 0.  1.
    10030    2    1    2    0    0  0.00000000000E+00  0.00000000000E+00 -0.12226884633E+04  0.28740835426E+04  0.26010361650E+04 0.  0.
        5    1    3    3  502    0  0.37899137151E+03 -0.79162345945E+03  0.44910099715E+03  0.98590869601E+03  0.46999998093E+01 0. -1.
       -5    1    3    3    0  502 -0.37899137151E+03  0.79162345945E+03 -0.16717894604E+04  0.18881748466E+04  0.46999998093E+01 0.  1.
</event>
<event>
 5   0  0.6768478E-07  0.2600479E+04  0.7818609E-02  0.8368039E-01
        2   -1    0    0  501    0  0.00000000000E+00  0.00000000000E+00  0.19405815138E+04  0.19405815138E+04  0.25500000920E-02 0.  1.
       -2   -1    0    0    0  501  0.00000000000E+00  0.00000000000E+00 -0.87119359245E+03  0.87119359245E+03  0.25500000920E-02 0. -1.
    10030    2    1    2    0    0  0.00000000000E+00  0.00000000000E+00  0.10693879213E+04  0.28117751062E+04  0.26004785563E+04 0.  0.
        4    1    3    3  502    0  0.12111938491E+04  0.44126855034E+03  0.71854541879E+03  0.14758108298E+04  0.12699999809E+01 0.  1.
       -4    1    3    3    0  502 -0.12111938491E+04 -0.44126855034E+03  0.35084250255E+03  0.13359642765E+04  0.12699999809E+01 0. -1.
</event>
<event>
 5   0  0.6780984E-07  0.2602587E+04  0.7818609E-02  0.8367323E-01
        2   -1    0    0  501    0  0.00000000000E+00  0.00000000000E+00  0.13920549321E+04  0.13920549321E+04  0.25500000920E-02 0. -1.
       -2   -1    0    0    0  501  0.00000000000E+00  0.00000000000E+00 -0.12164493135E+04  0.12164493135E+04  0.25500000920E-02 0.  1.
    10030    2    1    2    0    0  0.00000000000E+00  0.00000000000E+00  0.17560561867E+03  0.26085042456E+04  0.26025866107E+04 0.  0.
        2    1    3    3  502    0 -0.17990161405E+03 -0.82871060186E+03 -0.90147662681E+03  0.12376534091E+04  0.25500000920E-02 0.  1.
       -2    1    3    3    0  502  0.17990161405E+03  0.82871060186E+03  0.10770822455E+04  0.13708508365E+04  0.25500000920E-02 0. -1.
</event>
<event>
 5   0  0.6599814E-07  0.2598731E+04  0.7818609E-02  0.8368632E-01
        2   -1    0    0  501    0  0.00000000000E+00  0.00000000000E+00  0.14622312464E+04  0.14622312464E+04  0.25500000920E-02 0. -1.
       -2   -1    0    0    0  501  0.00000000000E+00  0.00000000000E+00 -0.11546396910E+04  0.11546396910E+04  0.25500000920E-02 0.  1.
    10030    2    1    2    0    0  0.00000000000E+00  0.00000000000E+00  0.30759155541E+03  0.26168709373E+04  0.25987306397E+04 0.  0.
        5    1    3    3  502    0 -0.10083761941E+04  0.74872910355E+03 -0.18156095218E+03  0.12690170561E+04  0.46999998093E+01 0.  1.
       -5    1    3    3    0  502  0.10083761941E+04 -0.74872910355E+03  0.48915250758E+03  0.13478538812E+04  0.46999998093E+01 0. -1.
</event>
<event>
 5   0  0.2623263E-07  0.2600235E+04  0.7818609E-02  0.8368121E-01
        1   -1    0    0  501    0  0.00000000000E+00  0.00000000000E+00  0.13872033334E+04  0.13872033334E+04  0.50400001928E-02 0.  1.
       -1   -1    0    0    0  501  0.00000000000E+00  0.00000000000E+00 -0.12184991260E+04  0.12184991260E+04  0.50400001928E-02 0. -1.
    10030    2    1    2    0    0  0.00000000000E+00  0.00000000000E+00  0.16870420744E+03  0.26057024594E+04  0.26002354119E+04 0.  0.
        1    1    3    3  502    0 -0.16157805833E+03  0.12784529965E+04  0.25721556162E+03  0.13140431417E+04  0.50400001928E-02 0. -1.
       -1    1    3    3    0  502  0.16157805833E+03 -0.12784529965E+04 -0.88511354181E+02  0.12916593177E+04  0.50400001928E-02 0.  1.
</event>
<event>
 5   0  0.6526351E-07  0.2594689E+04  0.7818609E-02  0.8370007E-01
        2   -1    0    0  501    0  0.00000000000E+00  0.00000000000E+00  0.17009094851E+04  0.17009094851E+04  0.25500000920E-02 0. -1.
       -2   -1    0    0    0  501  0.00000000000E+00  0.00000000000E+00 -0.98953106079E+03  0.98953106079E+03  0.25500000920E-02 0.  1.
    10030    2    1    2    0    0  0.00000000000E+00  0.00000000000E+00  0.71137842429E+03  0.26904405459E+04  0.25946890119E+04 0.  0.
        3    1    3    3  502    0 -0.44944250448E+03  0.11663465084E+04  0.71598874430E+03  0.14404869436E+04  0.10100000352E+00 0. -1.
       -3    1    3    3    0  502  0.44944250448E+03 -0.11663465084E+04 -0.46103200058E+01  0.12499536023E+04  0.10100000352E+00 0.  1.
</event>
<event>
 5   0  0.2623263E-07  0.2599752E+04  0.7818609E-02  0.8368286E-01
        1   -1    0    0  501    0  0.00000000000E+00  0.00000000000E+00  0.12416222124E+04  0.12416222124E+04  0.50400001928E-02 0.  1.
       -1   -1    0    0    0  501  0.00000000000E+00  0.00000000000E+00 -0.13608624309E+04  0.13608624309E+04  0.50400001928E-02 0. -1.
    10030    2    1    2    0    0  0.00000000000E+00  0.00000000000E+00 -0.11924021852E+03  0.26024846434E+04  0.25997515438E+04 0.  0.
        1    1    3    3  502    0  0.11631705882E+03 -0.31872919390E+03  0.11965134226E+04  0.12436889996E+04  0.50400001928E-02 0.  1.
       -1    1    3    3    0  502 -0.11631705882E+03  0.31872919390E+03 -0.13157536412E+04  0.13587956437E+04  0.50400001928E-02 0. -1.
</event>
<event>
 5   0  0.6780984E-07  0.2598999E+04  0.7818609E-02  0.8368541E-01
        2   -1    0    0  501    0  0.00000000000E+00  0.00000000000E+00  0.10225729465E+04  0.10225729465E+04  0.25500000920E-02 0.  1.
       -2   -1    0    0    0  501  0.00000000000E+00  0.00000000000E+00 -0.16514218726E+04  0.16514218726E+04  0.25500000920E-02 0. -1.
    10030    2    1    2    0    0  0.00000000000E+00  0.00000000000E+00 -0.62884892607E+03  0.26739948190E+04  0.25989992921E+04 0.  0.
        2    1    3    3  502    0 -0.74708733978E+03  0.23522861040E+03 -0.13812773804E+04  0.15878914302E+04  0.25500000920E-02 0. -1.
       -2    1    3    3    0  502  0.74708733978E+03 -0.23522861040E+03  0.75242845433E+03  0.10861033889E+04  0.25500000920E-02 0.  1.
</event>
<event>
 5   0  0.6599814E-07  0.2600763E+04  0.7818609E-02  0.8367942E-01
        2   -1    0    0  501    0  0.00000000000E+00  0.00000000000E+00  0.13497045644E+04  0.13497045644E+04  0.25500000920E-02 0.  1.
       -2   -1    0    0    0  501  0.00000000000E+00  0.00000000000E+00 -0.12528610554E+04  0.12528610554E+04  0.25500000920E-02 0. -1.
    10030    2    1    2    0    0  0.00000000000E+00  0.00000000000E+00  0.96843509036E+02  0.26025656198E+04  0.26007631841E+04 0.  0.
        5    1    3    3  502    0 -0.11070881108E+02 -0.43823934915E+03 -0.11766790881E+04  0.12556958461E+04  0.46999998093E+01 0. -1.
       -5    1    3    3    0  502  0.11070881108E+02  0.43823934915E+03  0.12735225972E+04  0.13468697736E+04  0.46999998093E+01 0.  1.
</event>
<event>
 5   0  0.2641626E-07  0.2601434E+04  0.7818609E-02  0.8367714E-01
       -1   -1    0    0    0  501  0.00000000000E+00  0.00000000000E+00  0.11576493995E+04  0.11576493995E+04  0.50400001928E-02 0. -1.
        1   -1    0    0  501    0  0.00000000000E+00  0.00000000000E+00 -0.14614658352E+04  0.14614658352E+04  0.50400001928E-02 0.  1.
    10030    2    1    2    0    0  0.00000000000E+00  0.00000000000E+00 -0.30381643574E+03  0.26191152347E+04  0.26014342555E+04 0.  0.
        3    1    3    3  502    0 -0.83213691193E+03 -0.44672593535E+03 -0.10523295837E+04  0.14140061755E+04  0.10100000352E+00 0.  1.
       -3    1    3    3    0  502  0.83213691193E+03  0.44672593535E+03  0.74851314797E+03  0.12051090591E+04  0.10100000352E+00 0. -1.
</event>
<event>
 5   0  0.2623263E-07  0.2603260E+04  0.7818609E-02  0.8367095E-01
       -1   -1    0    0    0  501  0.00000000000E+00  0.00000000000E+00  0.17344041912E+04  0.17344041912E+04  0.50400001928E-02 0. -1.
        1   -1    0    0  501    0  0.00000000000E+00  0.00000000000E+00 -0.97684317968E+03  0.97684317969E+03  0.50400001928E-02 0.  1.
    10030    2    1    2    0    0  0.00000000000E+00  0.00000000000E+00  0.75756101156E+03  0.27112473709E+04  0.26032601906E+04 0.  0.
        1    1    3    3  502    0  0.96384346604E+03 -0.18965740155E+03  0.12681817859E+04  0.16041350315E+04  0.50400001928E-02 0. -1.
       -1    1    3    3    0  502 -0.96384346604E+03  0.18965740155E+03 -0.51062077435E+03  0.11071123395E+04  0.50400001928E-02 0.  1.
</event>
<event>
 5   0  0.2864801E-07  0.2600066E+04  0.7818609E-02  0.8368179E-01
       -1   -1    0    0    0  501  0.00000000000E+00  0.00000000000E+00  0.91790641377E+03  0.91790641379E+03  0.50400001928E-02 0.  1.
        1   -1    0    0  501    0  0.00000000000E+00  0.00000000000E+00 -0.18412399155E+04  0.18412399155E+04  0.50400001928E-02 0. -1.
    10030    2    1    2    0    0  0.00000000000E+00  0.00000000000E+00 -0.92333350175E+03  0.27591463293E+04  0.26000660975E+04 0.  0.
        5    1    3    3  502    0 -0.15845656571E+03  0.32139188753E+03 -0.17877901897E+04  0.18233532518E+04  0.46999998093E+01 0. -1.
       -5    1    3    3    0  502  0.15845656571E+03 -0.32139188753E+03  0.86445668793E+03  0.93579307750E+03  0.46999998093E+01 0.  1.
</event>
<event>
 5   0  0.2294625E-07  0.2591246E+04  0.7818609E-02  0.8371181E-01
       -3   -1    0    0    0  501  0.00000000000E+00  0.00000000000E+00  0.96974818858E+03  0.96974819384E+03  0.10100000352E+00 0. -1.
        3   -1    0    0  501    0  0.00000000000E+00  0.00000000000E+00 -0.17310056342E+04  0.17310056372E+04  0.10100000352E+00 0.  1.
    10030    2    1    2    0    0  0.00000000000E+00  0.00000000000E+00 -0.76125744566E+03  0.27007538310E+04  0.25912464872E+04 0.  0.
        1    1    3    3  502    0  0.46153921087E+03 -0.47860149609E+03  0.77837326129E+03  0.10236907586E+04  0.50400001928E-02 0. -1.
       -1    1    3    3    0  502 -0.46153921087E+03  0.47860149609E+03 -0.15396307069E+04  0.16770630725E+04  0.50400001928E-02 0.  1.
</event>
<event>
 5   0  0.2641626E-07  0.2598615E+04  0.7818609E-02  0.8368672E-01
        1   -1    0    0  501    0  0.00000000000E+00  0.00000000000E+00  0.20840278608E+04  0.20840278608E+04  0.50400001928E-02 0. -1.
       -1   -1    0    0    0  501  0.00000000000E+00  0.00000000000E+00 -0.81006564487E+03  0.81006564489E+03  0.50400001928E-02 0.  1.
    10030    2    1    2    0    0  0.00000000000E+00  0.00000000000E+00  0.12739622159E+04  0.28940935057E+04  0.25986145332E+04 0.  0.
        3    1    3    3  502    0  0.81016463282E+03  0.36788046287E+01  0.17682672743E+04  0.19450319867E+04  0.10100000352E+00 0. -1.
       -3    1    3    3    0  502 -0.81016463282E+03 -0.36788046287E+01 -0.49430505835E+03  0.94906151897E+03  0.10100000352E+00 0.  1.
</event>
<event>
 5   0  0.6599814E-07  0.2601785E+04  0.7818609E-02  0.8367595E-01
       -2   -1    0    0    0  501  0.00000000000E+00  0.00000000000E+00  0.68664124666E+03  0.68664124666E+03  0.25500000920E-02 0.  1.
        2   -1    0    0  501    0  0.00000000000E+00  0.00000000000E+00 -0.24646371436E+04  0.24646371436E+04  0.25500000920E-02 0. -1.
    10030    2    1    2    0    0  0.00000000000E+00  0.00000000000E+00 -0.17779958970E+04  0.31512783903E+04  0.26017851724E+04 0.  0.
        5    1    3    3  502    0 -0.93327163371E+03  0.21778234772E+03 -0.19544908474E+04  0.21768053785E+04  0.46999998093E+01 0. -1.
       -5    1    3    3    0  502  0.93327163371E+03 -0.21778234772E+03  0.17649495040E+03  0.97447301183E+03  0.46999998093E+01 0.  1.
</event>
<event>
 5   0  0.2294625E-07  0.2591089E+04  0.7818609E-02  0.8371234E-01
        3   -1    0    0  501    0  0.00000000000E+00  0.00000000000E+00  0.88762742143E+03  0.88762742718E+03  0.10100000352E+00 0.  1.
       -3   -1    0    0    0  501  0.00000000000E+00  0.00000000000E+00 -0.18909240653E+04  0.18909240680E+04  0.10100000352E+00 0. -1.
    10030    2    1    2    0    0  0.00000000000E+00  0.00000000000E+00 -0.10032966439E+04  0.27785514952E+04  0.25910893956E+04 0.  0.
        1    1    3    3  502    0 -0.47025862908E+03 -0.26773186401E+03 -0.17639319658E+04  0.18450689714E+04  0.50400001928E-02 0. -1.
       -1    1    3    3    0  502  0.47025862908E+03  0.26773186401E+03  0.76063532192E+03  0.93348252378E+03  0.50400001928E-02 0.  1.
</event>
<event>
 5   0  0.6599814E-07  0.2594372E+04  0.7818609E-02  0.8370116E-01
        2   -1    0    0  501    0  0.00000000000E+00  0.00000000000E+00  0.87406595671E+03  0.87406595672E+03  0.25500000920E-02 0.  1.
       -2   -1    0    0    0  501  0.00000000000E+00  0.00000000000E+00 -0.19251304955E+04  0.19251304955E+04  0.25500000920E-02 0. -1.
    10030    2    1    2    0    0  0.00000000000E+00  0.00000000000E+00 -0.10510645388E+04  0.27991964523E+04  0.25943716221E+04 0.  0.
        5    1    3    3  502    0 -0.10930073912E+03  0.10082345722E+03 -0.19158948689E+04  0.19216626290E+04  0.46999998093E+01 0. -1.
       -5    1    3    3    0  502  0.10930073912E+03 -0.10082345722E+03  0.86483033008E+03  0.87753382323E+03  0.46999998093E+01 0.  1.
</event>
<event>
 5   0  0.2623263E-07  0.2600344E+04  0.7818609E-02  0.8368084E-01
        1   -1    0    0  501    0  0.00000000000E+00  0.00000000000E+00  0.12968402374E+04  0.12968402374E+04  0.50400001928E-02 0.  1.
       -1   -1    0    0    0  501  0.00000000000E+00  0.00000000000E+00 -0.13035125299E+04  0.13035125299E+04  0.50400001928E-02 0. -1.
    10030    2    1    2    0    0  0.00000000000E+00  0.00000000000E+00 -0.66722924562E+01  0.26003527673E+04  0.26003442070E+04 0.  0.
        1    1    3    3  502    0  0.57962735553E+03 -0.54354035450E+03  0.10257656384E+04  0.12975357927E+04  0.50400001928E-02 0.  1.
       -1    1    3    3    0  502 -0.57962735553E+03  0.54354035450E+03 -0.10324379309E+04  0.13028169746E+04  0.50400001928E-02 0. -1.
</event>
<event>
 5   0  0.2864801E-07  0.2595977E+04  0.7818609E-02  0.8369569E-01
       -1   -1    0    0    0  501  0.00000000000E+00  0.00000000000E+00  0.82956796639E+03  0.82956796640E+03  0.50400001928E-02 0.  1.
        1   -1    0    0  501    0  0.00000000000E+00  0.00000000000E+00 -0.20309049036E+04  0.20309049036E+04  0.50400001928E-02 0. -1.
    10030    2    1    2    0    0  0.00000000000E+00  0.00000000000E+00 -0.12013369372E+04  0.28604728700E+04  0.25959766184E+04 0.  0.
        5    1    3    3  502    0  0.71053277818E+03 -0.81817863927E+02  0.59283363567E+03  0.92899128161E+03  0.46999998093E+01 0.  1.
       -5    1    3    3    0  502 -0.71053277818E+03  0.81817863927E+02 -0.17941705729E+04  0.19314815884E+04  0.46999998093E+01 0. -1.
</event>
<event>
 5   0  0.6526351E-07  0.2600640E+04  0.7818609E-02  0.8367984E-01
        2   -1    0    0  501    0  0.00000000000E+00  0.00000000000E+00  0.11933967791E+04  0.11933967791E+04  0.25500000920E-02 0.  1.
       -2   -1    0    0    0  501  0.00000000000E+00  0.00000000000E+00 -0.14168227865E+04  0.14168227865E+04  0.25500000920E-02 0. -1.
    10030    2    1    2    0    0  0.00000000000E+00  0.00000000000E+00 -0.22342600735E+03  0.26102195656E+04  0.26006397289E+04 0.  0.
        3    1    3    3  502    0  0.13185871075E+03 -0.44731595012E+03  0.11065759928E+04  0.12008283461E+04  0.10100000352E+00 0.  1.
       -3    1    3    3    0  502 -0.13185871075E+03  0.44731595012E+03 -0.13300020002E+04  0.14093912194E+04  0.10100000352E+00 0. -1.
</event>
<event>
 5   0  0.6599814E-07  0.2600336E+04  0.7818609E-02  0.8368087E-01
       -2   -1    0    0    0  501  0.00000000000E+00  0.00000000000E+00  0.14675969116E+04  0.14675969116E+04  0.25500000920E-02 0.  1.
        2   -1    0    0  501    0  0.00000000000E+00  0.00000000000E+00 -0.11518396182E+04  0.11518396182E+04  0.25500000920E-02 0. -1.
    10030    2    1    2    0    0  0.00000000000E+00  0.00000000000E+00  0.31575729338E+03  0.26194365298E+04  0.26003355678E+04 0.  0.
        5    1    3    3  502    0  0.16646762305E+03 -0.54385438497E+03  0.13356224960E+04  0.14516881908E+04  0.46999998093E+01 0.  1.
       -5    1    3    3    0  502 -0.16646762305E+03  0.54385438497E+03 -0.10198652026E+04  0.11677483389E+04  0.46999998093E+01 0. -1.
</event>
<event>
 5   0  0.2294625E-07  0.2596607E+04  0.7818609E-02  0.8369355E-01
        3   -1    0    0  501    0  0.00000000000E+00  0.00000000000E+00  0.25388144063E+04  0.25388144083E+04  0.10100000352E+00 0. -1.
       -3   -1    0    0    0  501  0.00000000000E+00  0.00000000000E+00 -0.66392880414E+03  0.66392881182E+03  0.10100000352E+00 0.  1.
    10030    2    1    2    0    0  0.00000000000E+00  0.00000000000E+00  0.18748856021E+04  0.32027432201E+04  0.25966070386E+04 0.  0.
        3    1    3    3  502    0 -0.23053213568E+03  0.52828940685E+03 -0.49745879355E+03  0.76138034152E+03  0.10100000352E+00 0.  1.
       -3    1    3    3    0  502  0.23053213568E+03 -0.52828940685E+03  0.23723443957E+04  0.24413628786E+04  0.10100000352E+00 0. -1.
</event>
<event>
 5   0  0.6768478E-07  0.2597392E+04  0.7818609E-02  0.8369088E-01
        2   -1    0    0  501    0  0.00000000000E+00  0.00000000000E+00  0.13359280630E+04  0.13359280630E+04  0.25500000920E-02 0.  1.
       -2   -1    0    0    0  501  0.00000000000E+00  0.00000000000E+00 -0.12625014124E+04  0.12625014124E+04  0.25500000920E-02 0. -1.
    10030    2    1    2    0    0  0.00000000000E+00  0.00000000000E+00  0.73426650531E+02  0.25984294754E+04  0.25973918198E+04 0.  0.
        4    1    3    3  502    0  0.27897216568E+03 -0.85527176825E+03 -0.90030069980E+03  0.12727365123E+04  0.12699999809E+01 0. -1.
       -4    1    3    3    0  502 -0.27897216568E+03  0.85527176825E+03  0.97372735033E+03  0.13256929631E+04  0.12699999809E+01 0.  1.
</event>
<event>
 5   0  0.2623263E-07  0.2601622E+04  0.7818609E-02  0.8367650E-01
        1   -1    0    0  501    0  0.00000000000E+00  0.00000000000E+00  0.19242172896E+04  0.19242172896E+04  0.50400001928E-02 0. -1.
       -1   -1    0    0    0  501  0.00000000000E+00  0.00000000000E+00 -0.87937558539E+03  0.87937558541E+03  0.50400001928E-02 0.  1.
    10030    2    1    2    0    0  0.00000000000E+00  0.00000000000E+00  0.10448417042E+04  0.28035928750E+04  0.26016223442E+04 0.  0.
        1    1    3    3  502    0  0.65611816925E+02 -0.96947723209E+03 -0.40954046647E+03  0.10544735216E+04  0.50400001928E-02 0.  1.
       -1    1    3    3    0  502 -0.65611816925E+02  0.96947723209E+03  0.14543821707E+04  0.17491193534E+04  0.50400001928E-02 0. -1.
</event>
<event>
 5   0  0.2755061E-07  0.2598119E+04  0.7818609E-02  0.8368840E-01
       -1   -1    0    0    0  501  0.00000000000E+00  0.00000000000E+00  0.88242078324E+03  0.88242078325E+03  0.50400001928E-02 0. -1.
        1   -1    0    0  501    0  0.00000000000E+00  0.00000000000E+00 -0.19124161747E+04  0.19124161747E+04  0.50400001928E-02 0.  1.
    10030    2    1    2    0    0  0.00000000000E+00  0.00000000000E+00 -0.10299953915E+04  0.27948369580E+04  0.25981191495E+04 0.  0.
        4    1    3    3  502    0  0.35219170205E+03 -0.32441798526E+03  0.78402311207E+03  0.91868377438E+03  0.12699999809E+01 0. -1.
       -4    1    3    3    0  502 -0.35219170205E+03  0.32441798526E+03 -0.18140185035E+04  0.18761531836E+04  0.12699999809E+01 0.  1.
</event>
<event>
 5   0  0.2755061E-07  0.2599792E+04  0.7818609E-02  0.8368272E-01
       -1   -1    0    0    0  501  0.00000000000E+00  0.00000000000E+00  0.11886643250E+04  0.11886643250E+04  0.50400001928E-02 0. -1.
        1   -1    0    0  501    0  0.00000000000E+00  0.00000000000E+00 -0.14215367863E+04  0.14215367863E+04  0.50400001928E-02 0.  1.
    10030    2    1    2    0    0  0.00000000000E+00  0.00000000000E+00 -0.23287246131E+03  0.26102011113E+04  0.25997923490E+04 0.  0.
        4    1    3    3  502    0 -0.52514617923E+03 -0.11132528396E+04  0.30311005903E+03  0.12676701919E+04  0.12699999809E+01 0. -1.
       -4    1    3    3    0  502  0.52514617923E+03  0.11132528396E+04 -0.53598252034E+03  0.13425309194E+04  0.12699999809E+01 0.  1.
</event>
<event>
 5   0  0.2755061E-07  0.2599100E+04  0.7818609E-02  0.8368507E-01
        1   -1    0    0  501    0  0.00000000000E+00  0.00000000000E+00  0.25907582545E+04  0.25907582545E+04  0.50400001928E-02 0.  1.
       -1   -1    0    0    0  501  0.00000000000E+00  0.00000000000E+00 -0.65186729535E+03  0.65186729537E+03  0.50400001928E-02 0. -1.
    10030    2    1    2    0    0  0.00000000000E+00  0.00000000000E+00  0.19388909592E+04  0.32426255499E+04  0.25991002877E+04 0.  0.
        4    1    3    3  502    0 -0.59307487208E+03  0.65253827977E+03 -0.22152463220E+03  0.90918578191E+03  0.12699999809E+01 0. -1.
       -4    1    3    3    0  502  0.59307487208E+03 -0.65253827977E+03  0.21604155914E+04  0.23334397680E+04  0.12699999809E+01 0.  1.
</event>
<event>
 5   0  0.2623263E-07  0.2600314E+04  0.7818609E-02  0.8368095E-01
        1   -1    0    0  501    0  0.00000000000E+00  0.00000000000E+00  0.15047801509E+04  0.15047801509E+04  0.50400001928E-02 0.  1.
       -1   -1    0    0    0  501  0.00000000000E+00  0.00000000000E+00 -0.11233588573E+04  0.11233588573E+04  0.50400001928E-02 0. -1.
    10030    2    1    2    0    0  0.00000000000E+00  0.00000000000E+00  0.38142129355E+03  0.26281390082E+04  0.26003139125E+04 0.  0.
        1    1    3    3  502    0  0.59564104204E+03  0.11346943272E+04  0.41234843951E+03  0.13462357531E+04  0.50400001928E-02 0.  1.
       -1    1    3    3    0  502 -0.59564104204E+03 -0.11346943272E+04 -0.30927145963E+02  0.12819032552E+04  0.50400001928E-02 0. -1.
</event>
<event>
 5   0  0.2864801E-07  0.2600337E+04  0.7818609E-02  0.8368087E-01
       -1   -1    0    0    0  501  0.00000000000E+00  0.00000000000E+00  0.11152010638E+04  0.11152010638E+04  0.50400001928E-02 0. -1.
        1   -1    0    0  501    0  0.00000000000E+00  0.00000000000E+00 -0.15158151441E+04  0.15158151441E+04  0.50400001928E-02 0.  1.
    10030    2    1    2    0    0  0.00000000000E+00  0.00000000000E+00 -0.40061408032E+03  0.26310162079E+04  0.26003374098E+04 0.  0.
        5    1    3    3  502    0  0.16209588315E+03 -0.12760023223E+04 -0.39217438239E+03  0.13447229596E+04  0.46999998093E+01 0. -1.
       -5    1    3    3    0  502 -0.16209588315E+03  0.12760023223E+04 -0.84396979314E+01  0.12862932482E+04  0.46999998093E+01 0.  1.
</event>
<event>
 5   0  0.6768478E-07  0.2599832E+04  0.7818609E-02  0.8368258E-01
        2   -1    0    0  501    0  0.00000000000E+00  0.00000000000E+00  0.12092413061E+04  0.12092413061E+04  0.25500000920E-02 0.  1.
       -2   -1    0    0    0  501  0.00000000000E+00  0.00000000000E+00 -0.13973898359E+04  0.13973898359E+04  0.25500000920E-02 0. -1.
    10030    2    1    2    0    0  0.00000000000E+00  0.00000000000E+00 -0.18814852979E+03  0.26066311420E+04  0.25998319256E+04 0.  0.
        4    1    3    3  502    0  0.35474980276E+03  0.69665257917E+03  0.94720221056E+03  0.12281554784E+04  0.12699999809E+01 0.  1.
       -4    1    3    3    0  502 -0.35474980276E+03 -0.69665257917E+03 -0.11353507404E+04  0.13784756636E+04  0.12699999809E+01 0. -1.
</event>
<event>
 5   0  0.2864801E-07  0.2601429E+04  0.7818609E-02  0.8367716E-01
        1   -1    0    0  501    0  0.00000000000E+00  0.00000000000E+00  0.16911914173E+04  0.16911914173E+04  0.50400001928E-02 0.  1.
       -1   -1    0    0    0  501  0.00000000000E+00  0.00000000000E+00 -0.10003945068E+04  0.10003945068E+04  0.50400001928E-02 0. -1.
    10030    2    1    2    0    0  0.00000000000E+00  0.00000000000E+00  0.69079691052E+03  0.26915859241E+04  0.26014293024E+04 0.  0.
        5    1    3    3  502    0 -0.66449515759E+03  0.40757573638E+03  0.14227163053E+04  0.16222871418E+04  0.46999998093E+01 0.  1.
       -5    1    3    3    0  502  0.66449515759E+03 -0.40757573638E+03 -0.73191939474E+03  0.10692987823E+04  0.46999998093E+01 0. -1.
</event>
<event>
 5   0  0.6768478E-07  0.2597755E+04  0.7818609E-02  0.8368964E-01
        2   -1    0    0  501    0  0.00000000000E+00  0.00000000000E+00  0.15521657830E+04  0.15521657830E+04  0.25500000920E-02 0. -1.
       -2   -1    0    0    0  501  0.00000000000E+00  0.00000000000E+00 -0.10869220350E+04  0.10869220350E+04  0.25500000920E-02 0.  1.
    10030    2    1    2    0    0  0.00000000000E+00  0.00000000000E+00  0.46524374796E+03  0.26390878180E+04  0.25977553322E+04 0.  0.
        4    1    3    3  502    0 -0.39775555829E+03  0.51566957648E+03  0.13743162880E+04  0.15208127658E+04  0.12699999809E+01 0. -1.
       -4    1    3    3    0  502  0.39775555829E+03 -0.51566957648E+03 -0.90907254008E+03  0.11182750522E+04  0.12699999809E+01 0.  1.
</event>
<event>
 5   0  0.2623263E-07  0.2597698E+04  0.7818609E-02  0.8368984E-01
        1   -1    0    0  501    0  0.00000000000E+00  0.00000000000E+00  0.17339913172E+04  0.17339913172E+04  0.50400001928E-02 0. -1.
       -1   -1    0    0    0  501  0.00000000000E+00  0.00000000000E+00 -0.97290493481E+03  0.97290493482E+03  0.50400001928E-02 0.  1.
    10030    2    1    2    0    0  0.00000000000E+00  0.00000000000E+00  0.76108638243E+03  0.27068962521E+04  0.25976979882E+04 0.  0.
        1    1    3    3  502    0 -0.61994126314E+03  0.71103896548E+03  0.13108811792E+04  0.16150272587E+04  0.50400001928E-02 0. -1.
       -1    1    3    3    0  502  0.61994126314E+03 -0.71103896548E+03 -0.54979479678E+03  0.10918689934E+04  0.50400001928E-02 0.  1.
</event>
<event>
 5   0  0.7160320E-07  0.2599979E+04  0.7818609E-02  0.8368208E-01
        2   -1    0    0  501    0  0.00000000000E+00  0.00000000000E+00  0.70934060325E+03  0.70934060326E+03  0.25500000920E-02 0.  1.
       -2   -1    0    0    0  501  0.00000000000E+00  0.00000000000E+00 -0.23824555206E+04  0.23824555206E+04  0.25500000920E-02 0. -1.
    10030    2    1    2    0    0  0.00000000000E+00  0.00000000000E+00 -0.16731149174E+04  0.30917961239E+04  0.25999787970E+04 0.  0.
        1    1    3    3  502    0 -0.63361531175E+03  0.11175680630E+04 -0.10730354141E+04  0.16738673002E+04  0.50400001928E-02 0.  1.
       -1    1    3    3    0  502  0.63361531175E+03 -0.11175680630E+04 -0.60007950329E+03  0.14179288237E+04  0.50400001928E-02 0. -1.
</event>
<event>
 5   0  0.2641626E-07  0.2600671E+04  0.7818609E-02  0.8367973E-01
       -1   -1    0    0    0  501  0.00000000000E+00  0.00000000000E+00  0.99404023186E+03  0.99404023187E+03  0.50400001928E-02 0. -1.
        1   -1    0    0  501    0  0.00000000000E+00  0.00000000000E+00 -0.17010100932E+04  0.17010100933E+04  0.50400001928E-02 0.  1.
    10030    2    1    2    0    0  0.00000000000E+00  0.00000000000E+00 -0.70696986139E+03  0.26950503251E+04  0.26006710423E+04 0.  0.
        3    1    3    3  502    0 -0.85600907318E+02 -0.72975105284E+02  0.98898896200E+03  0.99536528897E+03  0.10100000352E+00 0. -1.
       -3    1    3    3    0  502  0.85600907318E+02  0.72975105284E+02 -0.16959588234E+04  0.16996850362E+04  0.10100000352E+00 0.  1.
</event>
<event>
 5   0  0.6780984E-07  0.2599654E+04  0.7818609E-02  0.8368319E-01
       -2   -1    0    0    0  501  0.00000000000E+00  0.00000000000E+00  0.12361827024E+04  0.12361827024E+04  0.25500000920E-02 0. -1.
        2   -1    0    0  501    0  0.00000000000E+00  0.00000000000E+00 -0.13667478261E+04  0.13667478261E+04  0.25500000920E-02 0.  1.
    10030    2    1    2    0    0  0.00000000000E+00  0.00000000000E+00 -0.13056512367E+03  0.26029305285E+04  0.25996538394E+04 0.  0.
        2    1    3    3  502    0  0.10092816246E+04 -0.17984980555E+03  0.73482080384E+03  0.12613314252E+04  0.25500000920E-02 0. -1.
       -2    1    3    3    0  502 -0.10092816246E+04  0.17984980555E+03 -0.86538592752E+03  0.13415991033E+04  0.25500000920E-02 0.  1.
</event>
<event>
 5   0  0.2623263E-07  0.2599815E+04  0.7818609E-02  0.8368264E-01
       -1   -1    0    0    0  501  0.00000000000E+00  0.00000000000E+00  0.77895799998E+03  0.77895800000E+03  0.50400001928E-02 0.  1.
        1   -1    0    0  501    0  0.00000000000E+00  0.00000000000E+00 -0.21692554736E+04  0.21692554736E+04  0.50400001928E-02 0. -1.
    10030    2    1    2    0    0  0.00000000000E+00  0.00000000000E+00 -0.13902974736E+04  0.29482134736E+04  0.25998145358E+04 0.  0.
        1    1    3    3  502    0 -0.37109536711E+03 -0.83268708817E+03 -0.17459777804E+04  0.19696491992E+04  0.50400001928E-02 0. -1.
       -1    1    3    3    0  502  0.37109536711E+03  0.83268708817E+03  0.35568030685E+03  0.97856427433E+03  0.50400001928E-02 0.  1.
</event>
<event>
 5   0  0.2641626E-07  0.2600379E+04  0.7818609E-02  0.8368073E-01
        1   -1    0    0  501    0  0.00000000000E+00  0.00000000000E+00  0.16894328791E+04  0.16894328791E+04  0.50400001928E-02 0. -1.
       -1   -1    0    0    0  501  0.00000000000E+00  0.00000000000E+00 -0.10006271860E+04  0.10006271860E+04  0.50400001928E-02 0.  1.
    10030    2    1    2    0    0  0.00000000000E+00  0.00000000000E+00  0.68880569302E+03  0.26900600651E+04  0.26003787938E+04 0.  0.
        3    1    3    3  502    0  0.14110184593E+03  0.11253447268E+04  0.10020816288E+04  0.15134325509E+04  0.10100000352E+00 0. -1.
       -3    1    3    3    0  502 -0.14110184593E+03 -0.11253447268E+04 -0.31327593575E+03  0.11766275142E+04  0.10100000352E+00 0.  1.
</event>
<event>
 5   0  0.2623263E-07  0.2600215E+04  0.7818609E-02  0.8368128E-01
       -1   -1    0    0    0  501  0.00000000000E+00  0.00000000000E+00  0.16536489858E+04  0.16536489858E+04  0.50400001928E-02 0.  1.
        1   -1    0    0  501    0  0.00000000000E+00  0.00000000000E+00 -0.10221510203E+04  0.10221510203E+04  0.50400001928E-02 0. -1.
    10030    2    1    2    0    0  0.00000000000E+00  0.00000000000E+00  0.63149796547E+03  0.26758000061E+04  0.26002146050E+04 0.  0.
        1    1    3    3  502    0 -0.58545543944E+03  0.63840365188E+03  0.13134479828E+04  0.15733603839E+04  0.50400001928E-02 0.  1.
       -1    1    3    3    0  502  0.58545543944E+03 -0.63840365188E+03 -0.68195001730E+03  0.11024396221E+04  0.50400001928E-02 0. -1.
</event>
<event>
 5   0  0.6599814E-07  0.2600469E+04  0.7818609E-02  0.8368042E-01
       -2   -1    0    0    0  501  0.00000000000E+00  0.00000000000E+00  0.86224934697E+03  0.86224934697E+03  0.25500000920E-02 0.  1.
        2   -1    0    0  501    0  0.00000000000E+00  0.00000000000E+00 -0.19606968500E+04  0.19606968500E+04  0.25500000920E-02 0. -1.
    10030    2    1    2    0    0  0.00000000000E+00  0.00000000000E+00 -0.10984475030E+04  0.28229461970E+04  0.26004688643E+04 0.  0.
        5    1    3    3  502    0 -0.11455993291E+04  0.39134494176E+03 -0.34256458653E+02  0.12110921852E+04  0.46999998093E+01 0.  1.
       -5    1    3    3    0  502  0.11455993291E+04 -0.39134494176E+03 -0.10641910444E+04  0.16118540117E+04  0.46999998093E+01 0. -1.
</event>
<event>
 5   0  0.6526351E-07  0.2599114E+04  0.7818609E-02  0.8368502E-01
       -2   -1    0    0    0  501  0.00000000000E+00  0.00000000000E+00  0.70082210513E+03  0.70082210514E+03  0.25500000920E-02 0. -1.
        2   -1    0    0  501    0  0.00000000000E+00  0.00000000000E+00 -0.24098103911E+04  0.24098103911E+04  0.25500000920E-02 0.  1.
    10030    2    1    2    0    0  0.00000000000E+00  0.00000000000E+00 -0.17089882859E+04  0.31106324962E+04  0.25991139962E+04 0.  0.
        3    1    3    3  502    0 -0.12327894991E+04 -0.22266365646E+03 -0.12682137548E+04  0.17826147063E+04  0.10100000352E+00 0. -1.
       -3    1    3    3    0  502  0.12327894991E+04  0.22266365646E+03 -0.44077453114E+03  0.13280177900E+04  0.10100000352E+00 0.  1.
</event>
<event>
 5   0  0.7160320E-07  0.2599480E+04  0.7818609E-02  0.8368378E-01
       -2   -1    0    0    0  501  0.00000000000E+00  0.00000000000E+00  0.12594094713E+04  0.12594094713E+04  0.25500000920E-02 0.  1.
        2   -1    0    0  501    0  0.00000000000E+00  0.00000000000E+00 -0.13413615622E+04  0.13413615622E+04  0.25500000920E-02 0. -1.
    10030    2    1    2    0    0  0.00000000000E+00  0.00000000000E+00 -0.81952090946E+02  0.26007710335E+04  0.25994795293E+04 0.  0.
        1    1    3    3  502    0 -0.11338308437E+04  0.63357131916E+03  0.74055782526E+01  0.12988609784E+04  0.50400001928E-02 0. -1.
       -1    1    3    3    0  502  0.11338308437E+04 -0.63357131916E+03 -0.89357669198E+02  0.13019100551E+04  0.50400001928E-02 0.  1.
</event>
<event>
 5   0  0.2793576E-07  0.2603005E+04  0.7818609E-02  0.8367181E-01
       -1   -1    0    0    0  501  0.00000000000E+00  0.00000000000E+00  0.11188865748E+04  0.11188865748E+04  0.50400001928E-02 0.  1.
        1   -1    0    0  501    0  0.00000000000E+00  0.00000000000E+00 -0.15139237284E+04  0.15139237284E+04  0.50400001928E-02 0. -1.
    10030    2    1    2    0    0  0.00000000000E+00  0.00000000000E+00 -0.39503715359E+03  0.26328103032E+04  0.26030051364E+04 0.  0.
        2    1    3    3  502    0  0.79915741823E+03 -0.26055439833E+03 -0.12025601238E+04  0.14672055156E+04  0.25500000920E-02 0. -1.
       -2    1    3    3    0  502 -0.79915741823E+03  0.26055439833E+03  0.80752297018E+03  0.11656047876E+04  0.25500000920E-02 0.  1.
</event>
<event>
 5   0  0.2623263E-07  0.2599739E+04  0.7818609E-02  0.8368290E-01
       -1   -1    0    0    0  501  0.00000000000E+00  0.00000000000E+00  0.72731829940E+03  0.72731829942E+03  0.50400001928E-02 0. -1.
        1   -1    0    0  501    0  0.00000000000E+00  0.00000000000E+00 -0.23231386616E+04  0.23231386616E+04  0.50400001928E-02 0.  1.
    10030    2    1    2    0    0  0.00000000000E+00  0.00000000000E+00 -0.15958203622E+04  0.30504569610E+04  0.25997394182E+04 0.  0.
        1    1    3    3  502    0  0.71825533254E+03  0.10231288504E+04 -0.37979191417E+03  0.13064934999E+04  0.50400001928E-02 0.  1.
       -1    1    3    3    0  502 -0.71825533254E+03 -0.10231288504E+04 -0.12160284480E+04  0.17439634611E+04  0.50400001928E-02 0. -1.
</event>
<event>
 5   0  0.6599814E-07  0.2595913E+04  0.7818609E-02  0.8369591E-01
       -2   -1    0    0    0  501  0.00000000000E+00  0.00000000000E+00  0.12202048421E+04  0.12202048421E+04  0.25500000920E-02 0. -1.
        2   -1    0    0  501    0  0.00000000000E+00  0.00000000000E+00 -0.13806625153E+04  0.13806625153E+04  0.25500000920E-02 0.  1.
    10030    2    1    2    0    0  0.00000000000E+00  0.00000000000E+00 -0.16045767316E+03  0.26008673574E+04  0.25959130081E+04 0.  0.
        5    1    3    3  502    0  0.20646801297E+03  0.42275848187E+03 -0.12922131937E+04  0.13752057309E+04  0.46999998093E+01 0.  1.
       -5    1    3    3    0  502 -0.20646801297E+03 -0.42275848187E+03  0.11317555205E+04  0.12256616265E+04  0.46999998093E+01 0. -1.
</event>
<event>
 5   0  0.2864801E-07  0.2600058E+04  0.7818609E-02  0.8368182E-01
       -1   -1    0    0    0  501  0.00000000000E+00  0.00000000000E+00  0.95817017221E+03  0.95817017223E+03  0.50400001928E-02 0.  1.
        1   -1    0    0  501    0  0.00000000000E+00  0.00000000000E+00 -0.17638570655E+04  0.17638570655E+04  0.50400001928E-02 0. -1.
    10030    2    1    2    0    0  0.00000000000E+00  0.00000000000E+00 -0.80568689328E+03  0.27220272377E+04  0.26000578672E+04 0.  0.
        5    1    3    3  502    0 -0.90223783670E+03  0.47088783374E+03  0.44397990611E+03  0.11103642254E+04  0.46999998093E+01 0. -1.
       -5    1    3    3    0  502  0.90223783670E+03 -0.47088783374E+03 -0.12496667994E+04  0.16116630124E+04  0.46999998093E+01 0.  1.
</event>
<event>
 5   0  0.2755061E-07  0.2599382E+04  0.7818609E-02  0.8368411E-01
        1   -1    0    0  501    0  0.00000000000E+00  0.00000000000E+00  0.21643719007E+04  0.21643719007E+04  0.50400001928E-02 0. -1.
       -1   -1    0    0    0  501  0.00000000000E+00  0.00000000000E+00 -0.78045593211E+03  0.78045593212E+03  0.50400001928E-02 0.  1.
    10030    2    1    2    0    0  0.00000000000E+00  0.00000000000E+00  0.13839159686E+04  0.29448278328E+04  0.25993821491E+04 0.  0.
        4    1    3    3  502    0 -0.69693373579E+03 -0.10930972735E+04  0.58679383966E+03  0.14229922363E+04  0.12699999809E+01 0.  1.
       -4    1    3    3    0  502  0.69693373579E+03  0.10930972735E+04  0.79712212895E+03  0.15218355965E+04  0.12699999809E+01 0. -1.
</event>
<event>
 5   0  0.6599814E-07  0.2599242E+04  0.7818609E-02  0.8368459E-01
       -2   -1    0    0    0  501  0.00000000000E+00  0.00000000000E+00  0.90671646671E+03  0.90671646671E+03  0.25500000920E-02 0. -1.
        2   -1    0    0  501    0  0.00000000000E+00  0.00000000000E+00 -0.18627812472E+04  0.18627812472E+04  0.25500000920E-02 0.  1.
    10030    2    1    2    0    0  0.00000000000E+00  0.00000000000E+00 -0.95606478048E+03  0.27694977139E+04  0.25992417592E+04 0.  0.
        5    1    3    3  502    0 -0.21496925668E+03 -0.15608646545E+03  0.87746794147E+03  0.91681341849E+03  0.46999998093E+01 0. -1.
       -5    1    3    3    0  502  0.21496925668E+03  0.15608646545E+03 -0.18335327220E+04  0.18526842954E+04  0.46999998093E+01 0.  1.
</event>
<event>
 5   0  0.2294625E-07  0.2600285E+04  0.7818609E-02  0.8368104E-01
       -3   -1    0    0    0  501  0.00000000000E+00  0.00000000000E+00  0.12565220856E+04  0.12565220897E+04  0.10100000352E+00 0. -1.
        3   -1    0    0  501    0  0.00000000000E+00  0.00000000000E+00 -0.13452769848E+04  0.13452769885E+04  0.10100000352E+00 0.  1.
    10030    2    1    2    0    0  0.00000000000E+00  0.00000000000E+00 -0.88754899144E+02  0.26017990782E+04  0.26002847943E+04 0.  0.
        2    1    3    3  502    0 -0.12126090679E+04  0.23886464807E+03  0.35945786215E+03  0.12871235475E+04  0.25500000920E-02 0. -1.
       -2    1    3    3    0  502  0.12126090679E+04 -0.23886464807E+03 -0.44821276130E+03  0.13146755308E+04  0.25500000920E-02 0.  1.
</event>
<event>
 5   0  0.6599814E-07  0.2599749E+04  0.7818609E-02  0.8368287E-01
        2   -1    0    0  501    0  0.00000000000E+00  0.00000000000E+00  0.14339900034E+04  0.14339900034E+04  0.25500000920E-02 0. -1.
       -2   -1    0    0    0  501  0.00000000000E+00  0.00000000000E+00 -0.11783020362E+04  0.11783020362E+04  0.25500000920E-02 0.  1.
    10030    2    1    2    0    0  0.00000000000E+00  0.00000000000E+00  0.25568796713E+03  0.26122920396E+04  0.25997487117E+04 0.  0.
        5    1    3    3  502    0  0.10670542381E+04  0.19345184885E+03  0.84797669487E+03  0.13766317336E+04  0.46999998093E+01 0. -1.
       -5    1    3    3    0  502 -0.10670542381E+04 -0.19345184885E+03 -0.59228872773E+03  0.12356603060E+04  0.46999998093E+01 0.  1.
</event>
<event>
 5   0  0.6768478E-07  0.2602472E+04  0.7818609E-02  0.8367362E-01
        2   -1    0    0  501    0  0.00000000000E+00  0.00000000000E+00  0.12152957018E+04  0.12152957018E+04  0.25500000920E-02 0.  1.
       -2   -1    0    0    0  501  0.00000000000E+00  0.00000000000E+00 -0.13932533556E+04  0.13932533556E+04  0.25500000920E-02 0. -1.
    10030    2    1    2    0    0  0.00000000000E+00  0.00000000000E+00 -0.17795765383E+03  0.26085490574E+04  0.26024717594E+04 0.  0.
        4    1    3    3  502    0  0.79436277921E+03  0.81625834936E+03 -0.71967254401E+03  0.13473010433E+04  0.12699999809E+01 0. -1.
       -4    1    3    3    0  502 -0.79436277921E+03 -0.81625834936E+03  0.54171489018E+03  0.12612480141E+04  0.12699999809E+01 0.  1.
</event>
<event>
 5   0  0.7160320E-07  0.2600022E+04  0.7818609E-02  0.8368194E-01
       -2   -1    0    0    0  501  0.00000000000E+00  0.00000000000E+00  0.78809658105E+03  0.78809658106E+03  0.25500000920E-02 0. -1.
        2   -1    0    0  501    0  0.00000000000E+00  0.00000000000E+00 -0.21444436773E+04  0.21444436773E+04  0.25500000920E-02 0.  1.
    10030    2    1    2    0    0  0.00000000000E+00  0.00000000000E+00 -0.13563470962E+04  0.29325402583E+04  0.26000221002E+04 0.  0.
        1    1    3    3  502    0  0.11381131987E+04 -0.51086697717E+03 -0.10906516189E+04  0.16570478796E+04  0.50400001928E-02 0.  1.
       -1    1    3    3    0  502 -0.11381131987E+04  0.51086697717E+03 -0.26569547737E+03  0.12754923787E+04  0.50400001928E-02 0. -1.
</event>
<event>
 5   0  0.7160320E-07  0.2600034E+04  0.7818609E-02  0.8368190E-01
        2   -1    0    0  501    0  0.00000000000E+00  0.00000000000E+00  0.24327830050E+04  0.24327830050E+04  0.25500000920E-02 0. -1.
       -2   -1    0    0    0  501  0.00000000000E+00  0.00000000000E+00 -0.69469600844E+03  0.69469600845E+03  0.25500000920E-02 0.  1.
    10030    2    1    2    0    0  0.00000000000E+00  0.00000000000E+00  0.17380869966E+04  0.31274790135E+04  0.26000343405E+04 0.  0.
        1    1    3    3  502    0  0.87306464570E+03  0.79187481135E+03  0.15286862400E+04  0.19303339641E+04  0.50400001928E-02 0.  1.
       -1    1    3    3    0  502 -0.87306464570E+03 -0.79187481135E+03  0.20940075657E+03  0.11971450494E+04  0.50400001928E-02 0. -1.
</event>
<event>
 5   0  0.2793576E-07  0.2599302E+04  0.7818609E-02  0.8368438E-01
        1   -1    0    0  501    0  0.00000000000E+00  0.00000000000E+00  0.13680211413E+04  0.13680211413E+04  0.50400001928E-02 0. -1.
       -1   -1    0    0    0  501  0.00000000000E+00  0.00000000000E+00 -0.12346981686E+04  0.12346981686E+04  0.50400001928E-02 0.  1.
    10030    2    1    2    0    0  0.00000000000E+00  0.00000000000E+00  0.13332297269E+03  0.26027193099E+04  0.25993023663E+04 0.  0.
        2    1    3    3  502    0  0.37206652682E+03 -0.63133375923E+03  0.11414211463E+04  0.13564136718E+04  0.25500000920E-02 0. -1.
       -2    1    3    3    0  502 -0.37206652682E+03  0.63133375923E+03 -0.10080981736E+04  0.12463056381E+04  0.25500000920E-02 0.  1.
</event>
<event>
 5   0  0.7160320E-07  0.2599285E+04  0.7818609E-02  0.8368444E-01
        2   -1    0    0  501    0  0.00000000000E+00  0.00000000000E+00  0.10671743708E+04  0.10671743708E+04  0.25500000920E-02 0. -1.
       -2   -1    0    0    0  501  0.00000000000E+00  0.00000000000E+00 -0.15827504022E+04  0.15827504022E+04  0.25500000920E-02 0.  1.
    10030    2    1    2    0    0  0.00000000000E+00  0.00000000000E+00 -0.51557603138E+03  0.26499247731E+04  0.25992850284E+04 0.  0.
        1    1    3    3  502    0 -0.89260961433E+02  0.11038756275E+04  0.43558110434E+03  0.11900587459E+04  0.50400001928E-02 0.  1.
       -1    1    3    3    0  502  0.89260961433E+02 -0.11038756275E+04 -0.95115713572E+03  0.14598660271E+04  0.50400001928E-02 0. -1.
</event>
<event>
 5   0  0.2864801E-07  0.2602330E+04  0.7818609E-02  0.8367410E-01
        1   -1    0    0  501    0  0.00000000000E+00  0.00000000000E+00  0.10099039921E+04  0.10099039921E+04  0.50400001928E-02 0.  1.
       -1   -1    0    0    0  501  0.00000000000E+00  0.00000000000E+00 -0.16764264746E+04  0.16764264746E+04  0.50400001928E-02 0. -1.
    10030    2    1    2    0    0  0.00000000000E+00  0.00000000000E+00 -0.66652248248E+03  0.26863304666E+04  0.26023295634E+04 0.  0.
        5    1    3    3  502    0  0.66977146622E+02  0.42440698727E+03 -0.16010750323E+04  0.16577305505E+04  0.46999998093E+01 0. -1.
       -5    1    3    3    0  502 -0.66977146622E+02 -0.42440698727E+03  0.93455254985E+03  0.10285999161E+04  0.46999998093E+01 0.  1.
</event>
<event>
 5   0  0.2641626E-07  0.2598212E+04  0.7818609E-02  0.8368809E-01
        1   -1    0    0  501    0  0.00000000000E+00  0.00000000000E+00  0.19748759253E+04  0.19748759254E+04  0.50400001928E-02 0.  1.
       -1   -1    0    0    0  501  0.00000000000E+00  0.00000000000E+00 -0.85457327377E+03  0.85457327379E+03  0.50400001928E-02 0. -1.
    10030    2    1    2    0    0  0.00000000000E+00  0.00000000000E+00  0.11203026516E+04  0.28294491991E+04  0.25982118350E+04 0.  0.
        3    1    3    3  502    0 -0.34139151674E+03  0.77868783910E+03 -0.50949443004E+03  0.99120507611E+03  0.10100000352E+00 0. -1.
       -3    1    3    3    0  502  0.34139151674E+03 -0.77868783910E+03  0.16297970816E+04  0.18382441230E+04  0.10100000352E+00 0.  1.
</event>
<event>
 5   0  0.6768478E-07  0.2599368E+04  0.7818609E-02  0.8368416E-01
       -2   -1    0    0    0  501  0.00000000000E+00  0.00000000000E+00  0.71072045267E+03  0.71072045267E+03  0.25500000920E-02 0. -1.
        2   -1    0    0  501    0  0.00000000000E+00  0.00000000000E+00 -0.23767127718E+04  0.23767127718E+04  0.25500000920E-02 0.  1.
    10030    2    1    2    0    0  0.00000000000E+00  0.00000000000E+00 -0.16659923192E+04  0.30874332245E+04  0.25993679055E+04 0.  0.
        4    1    3    3  502    0  0.78591350466E+03  0.20649442713E+03  0.37179425556E+03  0.89360649428E+03  0.12699999809E+01 0. -1.
       -4    1    3    3    0  502 -0.78591350466E+03 -0.20649442713E+03 -0.20377865747E+04  0.21938267302E+04  0.12699999809E+01 0.  1.
</event>
<event>
 5   0  0.2623263E-07  0.2599593E+04  0.7818609E-02  0.8368339E-01
       -1   -1    0    0    0  501  0.00000000000E+00  0.00000000000E+00  0.11536177681E+04  0.11536177681E+04  0.50400001928E-02 0.  1.
        1   -1    0    0  501    0  0.00000000000E+00  0.00000000000E+00 -0.14644983696E+04  0.14644983696E+04  0.50400001928E-02 0. -1.
    10030    2    1    2    0    0  0.00000000000E+00  0.00000000000E+00 -0.31088060153E+03  0.26181161378E+04  0.25995933071E+04 0.  0.
        1    1    3    3  502    0 -0.20410356455E+03  0.48753888280E+03  0.10405051366E+04  0.11670489992E+04  0.50400001928E-02 0.  1.
       -1    1    3    3    0  502  0.20410356455E+03 -0.48753888280E+03 -0.13513857381E+04  0.14510671385E+04  0.50400001928E-02 0. -1.
</event>
<event>
 5   0  0.6526351E-07  0.2601857E+04  0.7818609E-02  0.8367571E-01
        2   -1    0    0  501    0  0.00000000000E+00  0.00000000000E+00  0.20612203802E+04  0.20612203802E+04  0.25500000920E-02 0.  1.
       -2   -1    0    0    0  501  0.00000000000E+00  0.00000000000E+00 -0.82107409598E+03  0.82107409598E+03  0.25500000920E-02 0. -1.
    10030    2    1    2    0    0  0.00000000000E+00  0.00000000000E+00  0.12401462842E+04  0.28822944762E+04  0.26018567680E+04 0.  0.
        3    1    3    3  502    0  0.30053762349E+03 -0.93942854613E+03 -0.31962900545E+03  0.10368276461E+04  0.10100000352E+00 0. -1.
       -3    1    3    3    0  502 -0.30053762349E+03  0.93942854613E+03  0.15597752897E+04  0.18454668301E+04  0.10100000352E+00 0.  1.
</event>
<event>
 5   0  0.6526351E-07  0.2597602E+04  0.7818609E-02  0.8369016E-01
        2   -1    0    0  501    0  0.00000000000E+00  0.00000000000E+00  0.22581437067E+04  0.22581437067E+04  0.25500000920E-02 0.  1.
       -2   -1    0    0    0  501  0.00000000000E+00  0.00000000000E+00 -0.74702252548E+03  0.74702252548E+03  0.25500000920E-02 0. -1.
    10030    2    1    2    0    0  0.00000000000E+00  0.00000000000E+00  0.15111211813E+04  0.30051662322E+04  0.25976021364E+04 0.  0.
        3    1    3    3  502    0  0.14900799795E+02 -0.10299380284E+04  0.16708212895E+04  0.19628138393E+04  0.10100000352E+00 0.  1.
       -3    1    3    3    0  502 -0.14900799795E+02  0.10299380284E+04 -0.15970010822E+03  0.10423523929E+04  0.10100000352E+00 0. -1.
</event>
<event>
 5   0  0.6526351E-07  0.2599539E+04  0.7818609E-02  0.8368358E-01
       -2   -1    0    0    0  501  0.00000000000E+00  0.00000000000E+00  0.87577227796E+03  0.87577227796E+03  0.25500000920E-02 0. -1.
        2   -1    0    0  501    0  0.00000000000E+00  0.00000000000E+00 -0.19290412940E+04  0.19290412940E+04  0.25500000920E-02 0.  1.
    10030    2    1    2    0    0  0.00000000000E+00  0.00000000000E+00 -0.10532690160E+04  0.28048135719E+04  0.25995391040E+04 0.  0.
        3    1    3    3  502    0  0.92595324810E+03 -0.79257102603E+03 -0.39492982800E+02  0.12194744585E+04  0.10100000352E+00 0.  1.
       -3    1    3    3    0  502 -0.92595324810E+03  0.79257102603E+03 -0.10137760332E+04  0.15853391135E+04  0.10100000352E+00 0. -1.
</event>
<event>
 5   0  0.2793576E-07  0.2600094E+04  0.7818609E-02  0.8368169E-01
       -1   -1    0    0    0  501  0.00000000000E+00  0.00000000000E+00  0.35531393913E+04  0.35531393913E+04  0.50400001928E-02 0.  1.
        1   -1    0    0  501    0  0.00000000000E+00  0.00000000000E+00 -0.47567002976E+03  0.47567002978E+03  0.50400001928E-02 0. -1.
    10030    2    1    2    0    0  0.00000000000E+00  0.00000000000E+00  0.30774693615E+04  0.40288094210E+04  0.26000937829E+04 0.  0.
        2    1    3    3  502    0 -0.54297769782E+03  0.38022212302E+03 -0.19414813669E+03  0.69071495000E+03  0.25500000920E-02 0. -1.
       -2    1    3    3    0  502  0.54297769782E+03 -0.38022212302E+03  0.32716174982E+04  0.33380944710E+04  0.25500000920E-02 0.  1.
</event>
<event>
 5   0  0.6599814E-07  0.2603988E+04  0.7818609E-02  0.8366848E-01
        2   -1    0    0  501    0  0.00000000000E+00  0.00000000000E+00  0.10471787300E+04  0.10471787300E+04  0.25500000920E-02 0. -1.
       -2   -1    0    0    0  501  0.00000000000E+00  0.00000000000E+00 -0.16188144757E+04  0.16188144757E+04  0.25500000920E-02 0.  1.
    10030    2    1    2    0    0  0.00000000000E+00  0.00000000000E+00 -0.57163574568E+03  0.26659932057E+04  0.26039877778E+04 0.  0.
        5    1    3    3  502    0  0.56465346669E+03  0.33497515983E+03 -0.14369229053E+04  0.15798137298E+04  0.46999998093E+01 0.  1.
       -5    1    3    3    0  502 -0.56465346669E+03 -0.33497515983E+03  0.86528715964E+03  0.10861794759E+04  0.46999998093E+01 0. -1.
</event>
<event>
 5   0  0.6599814E-07  0.2600702E+04  0.7818609E-02  0.8367963E-01
       -2   -1    0    0    0  501  0.00000000000E+00  0.00000000000E+00  0.11572022359E+04  0.11572022359E+04  0.25500000920E-02 0.  1.
        2   -1    0    0  501    0  0.00000000000E+00  0.00000000000E+00 -0.14612072892E+04  0.14612072892E+04  0.25500000920E-02 0. -1.
    10030    2    1    2    0    0  0.00000000000E+00  0.00000000000E+00 -0.30400505326E+03  0.26184095251E+04  0.26007017070E+04 0.  0.
        5    1    3    3  502    0  0.62528123013E+03  0.21056315127E+03  0.97615220628E+03  0.11782226773E+04  0.46999998093E+01 0.  1.
       -5    1    3    3    0  502 -0.62528123013E+03 -0.21056315127E+03 -0.12801572595E+04  0.14401868478E+04  0.46999998093E+01 0. -1.
</event>
<event>
 5   0  0.6768478E-07  0.2601133E+04  0.7818609E-02  0.8367817E-01
        2   -1    0    0  501    0  0.00000000000E+00  0.00000000000E+00  0.24560061586E+04  0.24560061586E+04  0.25500000920E-02 0.  1.
       -2   -1    0    0    0  501  0.00000000000E+00  0.00000000000E+00 -0.68870878652E+03  0.68870878653E+03  0.25500000920E-02 0. -1.
    10030    2    1    2    0    0  0.00000000000E+00  0.00000000000E+00  0.17672973720E+04  0.31447149451E+04  0.26011328464E+04 0.  0.
        4    1    3    3  502    0  0.24909101005E+03  0.44808312180E+03  0.23286929694E+04  0.23844574591E+04  0.12699999809E+01 0.  1.
       -4    1    3    3    0  502 -0.24909101005E+03 -0.44808312180E+03 -0.56139559741E+03  0.76025748600E+03  0.12699999809E+01 0. -1.
</event>
<event>
 5   0  0.6768478E-07  0.2600128E+04  0.7818609E-02  0.8368158E-01
        2   -1    0    0  501    0  0.00000000000E+00  0.00000000000E+00  0.16015671898E+04  0.16015671898E+04  0.25500000920E-02 0. -1.
       -2   -1    0    0    0  501  0.00000000000E+00  0.00000000000E+00 -0.10553201158E+04  0.10553201158E+04  0.25500000920E-02 0.  1.
    10030    2    1    2    0    0  0.00000000000E+00  0.00000000000E+00  0.54624707392E+03  0.26568873056E+04  0.26001277447E+04 0.  0.
        4    1    3    3  502    0  0.12912432398E+04 -0.15088641698E+03  0.28274416136E+03  0.13304216208E+04  0.12699999809E+01 0. -1.
       -4    1    3    3    0  502 -0.12912432398E+04  0.15088641698E+03  0.26350291256E+03  0.13264656849E+04  0.12699999809E+01 0.  1.
</event>
<event>
 5   0  0.2793576E-07  0.2600258E+04  0.7818609E-02  0.8368114E-01
       -1   -1    0    0    0  501  0.00000000000E+00  0.00000000000E+00  0.11015399727E+04  0.11015399727E+04  0.50400001928E-02 0.  1.
        1   -1    0    0  501    0  0.00000000000E+00  0.00000000000E+00 -0.15345199566E+04  0.15345199566E+04  0.50400001928E-02 0. -1.
    10030    2    1    2    0    0  0.00000000000E+00  0.00000000000E+00 -0.43297998387E+03  0.26360599293E+04  0.26002577342E+04 0.  0.
        2    1    3    3  502    0 -0.76509358766E+03 -0.27222080905E+03  0.81280366498E+03  0.11489656934E+04  0.25500000920E-02 0.  1.
       -2    1    3    3    0  502  0.76509358766E+03  0.27222080905E+03 -0.12457836489E+04  0.14870942359E+04  0.25500000920E-02 0. -1.
</event>
<event>
 5   0  0.6526351E-07  0.2598998E+04  0.7818609E-02  0.8368542E-01
        2   -1    0    0  501    0  0.00000000000E+00  0.00000000000E+00  0.21177629899E+04  0.21177629899E+04  0.25500000920E-02 0.  1.
       -2   -1    0    0    0  501  0.00000000000E+00  0.00000000000E+00 -0.79739710044E+03  0.79739710045E+03  0.25500000920E-02 0. -1.
    10030    2    1    2    0    0  0.00000000000E+00  0.00000000000E+00  0.13203658895E+04  0.29151600904E+04  0.25989983206E+04 0.  0.
        3    1    3    3  502    0 -0.12276229458E+04 -0.55242096406E+01  0.18218544529E+03  0.12410802394E+04  0.10100000352E+00 0. -1.
       -3    1    3    3    0  502  0.12276229458E+04  0.55242096406E+01  0.11381804442E+04  0.16740798510E+04  0.10100000352E+00 0.  1.
</event>
<event>
 5   0  0.2755061E-07  0.2603638E+04  0.7818609E-02  0.8366966E-01
       -1   -1    0    0    0  501  0.00000000000E+00  0.00000000000E+00  0.11217250030E+04  0.11217250030E+04  0.50400001928E-02 0.  1.
        1   -1    0    0  501    0  0.00000000000E+00  0.00000000000E+00 -0.15108274123E+04  0.15108274123E+04  0.50400001928E-02 0. -1.
    10030    2    1    2    0    0  0.00000000000E+00  0.00000000000E+00 -0.38910240934E+03  0.26325524153E+04  0.26036381343E+04 0.  0.
        4    1    3    3  502    0  0.59015270028E+03  0.45480685090E+03  0.88482531006E+03  0.11567397821E+04  0.12699999809E+01 0.  1.
       -4    1    3    3    0  502 -0.59015270028E+03 -0.45480685090E+03 -0.12739277194E+04  0.14758126332E+04  0.12699999809E+01 0. -1.
</event>
<event>
 5   0  0.7160320E-07  0.2599818E+04  0.7818609E-02  0.8368263E-01
       -2   -1    0    0    0  501  0.00000000000E+00  0.00000000000E+00  0.11608230548E+04  0.11608230548E+04  0.25500000920E-02 0. -1.
        2   -1    0    0  501    0  0.00000000000E+00  0.00000000000E+00 -0.14556595121E+04  0.14556595121E+04  0.25500000920E-02 0.  1.
    10030    2    1    2    0    0  0.00000000000E+00  0.00000000000E+00 -0.29483645725E+03  0.26164825669E+04  0.25998177795E+04 0.  0.
        1    1    3    3  502    0  0.70634602433E+03  0.33825366442E+03  0.89674019151E+03  0.11905810425E+04  0.50400001928E-02 0. -1.
       -1    1    3    3    0  502 -0.70634602433E+03 -0.33825366442E+03 -0.11915766488E+04  0.14259015245E+04  0.50400001928E-02 0.  1.
</event>
<event>
 5   0  0.6780984E-07  0.2599377E+04  0.7818609E-02  0.8368413E-01
        2   -1    0    0  501    0  0.00000000000E+00  0.00000000000E+00  0.16143188884E+04  0.16143188884E+04  0.25500000920E-02 0. -1.
       -2   -1    0    0    0  501  0.00000000000E+00  0.00000000000E+00 -0.10463798842E+04  0.10463798842E+04  0.25500000920E-02 0.  1.
    10030    2    1    2    0    0  0.00000000000E+00  0.00000000000E+00  0.56793900423E+03  0.26606987726E+04  0.25993774728E+04 0.  0.
        2    1    3    3  502    0 -0.76516276272E+03 -0.33949113078E+02 -0.79083209967E+03  0.11009277931E+04  0.25500000920E-02 0.  1.
       -2    1    3    3    0  502  0.76516276272E+03  0.33949113078E+02  0.13587711039E+04  0.15597709795E+04  0.25500000920E-02 0. -1.
</event>
<event>
 5   0  0.2755061E-07  0.2599551E+04  0.7818609E-02  0.8368354E-01
       -1   -1    0    0    0  501  0.00000000000E+00  0.00000000000E+00  0.14559970970E+04  0.14559970970E+04  0.50400001928E-02 0. -1.
        1   -1    0    0  501    0  0.00000000000E+00  0.00000000000E+00 -0.11603157373E+04  0.11603157373E+04  0.50400001928E-02 0.  1.
    10030    2    1    2    0    0  0.00000000000E+00  0.00000000000E+00  0.29568135967E+03  0.26163128343E+04  0.25995509959E+04 0.  0.
        4    1    3    3  502    0 -0.60004508176E+03 -0.56677281494E+03 -0.86268982707E+03  0.11939517890E+04  0.12699999809E+01 0.  1.
       -4    1    3    3    0  502  0.60004508176E+03  0.56677281494E+03  0.11583711867E+04  0.14223610453E+04  0.12699999809E+01 0. -1.
</event>
<event>
 5   0  0.2793576E-07  0.2598940E+04  0.7818609E-02  0.8368561E-01
       -1   -1    0    0    0  501  0.00000000000E+00  0.00000000000E+00  0.90446617618E+03  0.90446617620E+03  0.50400001928E-02 0. -1.
        1   -1    0    0  501    0  0.00000000000E+00  0.00000000000E+00 -0.18669820721E+04  0.18669820721E+04  0.50400001928E-02 0.  1.
    10030    2    1    2    0    0  0.00000000000E+00  0.00000000000E+00 -0.96251589593E+03  0.27714482483E+04  0.25989398883E+04 0.  0.
        2    1    3    3  502    0  0.59077556156E+03  0.49445286161E+03 -0.15972007546E+04  0.17732878071E+04  0.25500000920E-02 0.  1.
       -2    1    3    3    0  502 -0.59077556156E+03 -0.49445286161E+03  0.63468485867E+03  0.99816044117E+03  0.25500000920E-02 0. -1.
</event>
<event>
 5   0  0.6768478E-07  0.2600262E+04  0.7818609E-02  0.8368112E-01
       -2   -1    0    0    0  501  0.00000000000E+00  0.00000000000E+00  0.11221013385E+04  0.11221013385E+04  0.25500000920E-02 0.  1.
        2   -1    0    0  501    0  0.00000000000E+00  0.00000000000E+00 -0.15064068699E+04  0.15064068699E+04  0.25500000920E-02 0. -1.
    10030    2    1    2    0    0  0.00000000000E+00  0.00000000000E+00 -0.38430553149E+03  0.26285082084E+04  0.26002624214E+04 0.  0.
        4    1    3    3  502    0  0.69641926294E+03  0.10694680690E+04 -0.44299709256E+03  0.13509292274E+04  0.12699999809E+01 0. -1.
       -4    1    3    3    0  502 -0.69641926294E+03 -0.10694680690E+04  0.58691561068E+02  0.12775789810E+04  0.12699999809E+01 0.  1.
</event>
<event>
 5   0  0.6768478E-07  0.2599959E+04  0.7818609E-02  0.8368215E-01
        2   -1    0    0  501    0  0.00000000000E+00  0.00000000000E+00  0.12816276991E+04  0.12816276991E+04  0.25500000920E-02 0. -1.
       -2   -1    0    0    0  501  0.00000000000E+00  0.00000000000E+00 -0.13185936983E+04  0.13185936983E+04  0.25500000920E-02 0.  1.
    10030    2    1    2    0    0  0.00000000000E+00  0.00000000000E+00 -0.36965999133E+02  0.26002213974E+04  0.25999586209E+04 0.  0.
        4    1    3    3  502    0 -0.89521253746E+03 -0.10971493412E+03 -0.95479433924E+03  0.13134217514E+04  0.12699999809E+01 0.  1.
       -4    1    3    3    0  502  0.89521253746E+03  0.10971493412E+03  0.91782834011E+03  0.12867996459E+04  0.12699999809E+01 0. -1.
</event>
<event>
 5   0  0.2755061E-07  0.2600397E+04  0.7818609E-02  0.8368066E-01
        1   -1    0    0  501    0  0.00000000000E+00  0.00000000000E+00  0.13508011463E+04  0.13508011463E+04  0.50400001928E-02 0. -1.
       -1   -1    0    0    0  501  0.00000000000E+00  0.00000000000E+00 -0.12514914525E+04  0.12514914525E+04  0.50400001928E-02 0.  1.
    10030    2    1    2    0    0  0.00000000000E+00  0.00000000000E+00  0.99309693853E+02  0.26022925988E+04  0.26003969609E+04 0.  0.
        4    1    3    3  502    0  0.12353854388E+04  0.79213717403E+02 -0.34820569779E+03  0.12859629918E+04  0.12699999809E+01 0.  1.
       -4    1    3    3    0  502 -0.12353854388E+04 -0.79213717403E+02  0.44751539164E+03  0.13163296070E+04  0.12699999809E+01 0. -1.
</event>
<event>
 5   0  0.2793576E-07  0.2601416E+04  0.7818609E-02  0.8367720E-01
        1   -1    0    0  501    0  0.00000000000E+00  0.00000000000E+00  0.70162503637E+03  0.70162503639E+03  0.50400001928E-02 0. -1.
       -1   -1    0    0    0  501  0.00000000000E+00  0.00000000000E+00 -0.24113186456E+04  0.24113186456E+04  0.50400001928E-02 0.  1.
    10030    2    1    2    0    0  0.00000000000E+00  0.00000000000E+00 -0.17096936093E+04  0.31129436820E+04  0.26014161777E+04 0.  0.
        2    1    3    3  502    0 -0.68381953534E+03 -0.84862439711E+03 -0.52626083767E+01  0.10898624773E+04  0.25500000920E-02 0. -1.
       -2    1    3    3    0  502  0.68381953534E+03  0.84862439711E+03 -0.17044310009E+04  0.20230812048E+04  0.25500000920E-02 0.  1.
</event>
<event>
 5   0  0.6599814E-07  0.2598727E+04  0.7818609E-02  0.8368634E-01
       -2   -1    0    0    0  501  0.00000000000E+00  0.00000000000E+00  0.19144749263E+04  0.19144749263E+04  0.25500000920E-02 0.  1.
        2   -1    0    0  501    0  0.00000000000E+00  0.00000000000E+00 -0.88188408725E+03  0.88188408726E+03  0.25500000920E-02 0. -1.
    10030    2    1    2    0    0  0.00000000000E+00  0.00000000000E+00  0.10325908391E+04  0.27963590136E+04  0.25987265904E+04 0.  0.
        5    1    3    3  502    0 -0.12527445175E+04 -0.34274652728E+03  0.47491470002E+03  0.13828991541E+04  0.46999998093E+01 0. -1.
       -5    1    3    3    0  502  0.12527445175E+04  0.34274652728E+03  0.55767613905E+03  0.14134598594E+04  0.46999998093E+01 0.  1.
</event>
<event>
 5   0  0.6599814E-07  0.2608188E+04  0.7818609E-02  0.8365425E-01
        2   -1    0    0  501    0  0.00000000000E+00  0.00000000000E+00  0.14820891461E+04  0.14820891461E+04  0.25500000920E-02 0. -1.
       -2   -1    0    0    0  501  0.00000000000E+00  0.00000000000E+00 -0.11474757611E+04  0.11474757611E+04  0.25500000920E-02 0.  1.
    10030    2    1    2    0    0  0.00000000000E+00  0.00000000000E+00  0.33461338492E+03  0.26295649072E+04  0.26081881611E+04 0.  0.
        5    1    3    3  502    0 -0.59466290938E+03 -0.11625927021E+03  0.13315435319E+04  0.14629321451E+04  0.46999998093E+01 0. -1.
       -5    1    3    3    0  502  0.59466290938E+03  0.11625927021E+03 -0.99693014700E+03  0.11666327621E+04  0.46999998093E+01 0.  1.
</event>
<event>
 5   0  0.2864801E-07  0.2599500E+04  0.7818609E-02  0.8368371E-01
       -1   -1    0    0    0  501  0.00000000000E+00  0.00000000000E+00  0.17886339722E+04  0.17886339722E+04  0.50400001928E-02 0.  1.
        1   -1    0    0  501    0  0.00000000000E+00  0.00000000000E+00 -0.94449142632E+03  0.94449142634E+03  0.50400001928E-02 0. -1.
    10030    2    1    2    0    0  0.00000000000E+00  0.00000000000E+00  0.84414254584E+03  0.27331253985E+04  0.25994995300E+04 0.  0.
        5    1    3    3  502    0  0.50418551488E+03 -0.97899135808E+03 -0.30385498220E+03  0.11423559221E+04  0.46999998093E+01 0. -1.
       -5    1    3    3    0  502 -0.50418551488E+03  0.97899135808E+03  0.11479975280E+04  0.15907694764E+04  0.46999998093E+01 0.  1.
</event>
<event>
 5   0  0.6780984E-07  0.2599284E+04  0.7818609E-02  0.8368445E-01
        2   -1    0    0  501    0  0.00000000000E+00  0.00000000000E+00  0.14367279516E+04  0.14367279516E+04  0.25500000920E-02 0. -1.
       -2   -1    0    0    0  501  0.00000000000E+00  0.00000000000E+00 -0.11756358926E+04  0.11756358926E+04  0.25500000920E-02 0.  1.
    10030    2    1    2    0    0  0.00000000000E+00  0.00000000000E+00  0.26109205899E+03  0.26123638441E+04  0.25992837073E+04 0.  0.
        2    1    3    3  502    0  0.79784972858E+03  0.82791026784E+03 -0.47836527835E+03  0.12453244318E+04  0.25500000920E-02 0.  1.
       -2    1    3    3    0  502 -0.79784972858E+03 -0.82791026784E+03  0.73945733734E+03  0.13670394123E+04  0.25500000920E-02 0. -1.
</event>
<event>
 5   0  0.2755061E-07  0.2601858E+04  0.7818609E-02  0.8367570E-01
        1   -1    0    0  501    0  0.00000000000E+00  0.00000000000E+00  0.19347235291E+04  0.19347235291E+04  0.50400001928E-02 0.  1.
       -1   -1    0    0    0  501  0.00000000000E+00  0.00000000000E+00 -0.87475881012E+03  0.87475881014E+03  0.50400001928E-02 0. -1.
    10030    2    1    2    0    0  0.00000000000E+00  0.00000000000E+00  0.10599647189E+04  0.28094823392E+04  0.26018581454E+04 0.  0.
        4    1    3    3  502    0 -0.99416235548E+03  0.48676730902E+03  0.12679782860E+04  0.16831731191E+04  0.12699999809E+01 0.  1.
       -4    1    3    3    0  502  0.99416235548E+03 -0.48676730902E+03 -0.20801356712E+03  0.11263092201E+04  0.12699999809E+01 0. -1.
</event>
<event>
 5   0  0.6526351E-07  0.2597795E+04  0.7818609E-02  0.8368951E-01
        2   -1    0    0  501    0  0.00000000000E+00  0.00000000000E+00  0.12820181899E+04  0.12820181899E+04  0.25500000920E-02 0. -1.
       -2   -1    0    0    0  501  0.00000000000E+00  0.00000000000E+00 -0.13159987001E+04  0.13159987001E+04  0.25500000920E-02 0.  1.
    10030    2    1    2    0    0  0.00000000000E+00  0.00000000000E+00 -0.33980510200E+02  0.25980168901E+04  0.25977946582E+04 0.  0.
        3    1    3    3  502    0 -0.48117272934E+03  0.73669020574E+03  0.93854666356E+03  0.12865105925E+04  0.10100000352E+00 0. -1.
       -3    1    3    3    0  502  0.48117272934E+03 -0.73669020574E+03 -0.97252717376E+03  0.13115062976E+04  0.10100000352E+00 0.  1.
</event>
<event>
 5   0  0.2294625E-07  0.2600527E+04  0.7818609E-02  0.8368022E-01
       -4   -1    0    0    0  501  0.00000000000E+00  0.00000000000E+00  0.90433205860E+03  0.90433295037E+03  0.12699999809E+01 0.  1.
        4   -1    0    0  501    0  0.00000000000E+00  0.00000000000E+00 -0.18695380953E+04  0.18695385267E+04  0.12699999809E+01 0. -1.
    10030    2    1    2    0    0  0.00000000000E+00  0.00000000000E+00 -0.96520603673E+03  0.27738714771E+04  0.26005269231E+04 0.  0.
        2    1    3    3  502    0  0.84956145370E+03  0.85912217944E+03 -0.99508668720E+03  0.15652613513E+04  0.25500000920E-02 0. -1.
       -2    1    3    3    0  502 -0.84956145370E+03 -0.85912217944E+03  0.29880650470E+02  0.12086101258E+04  0.25500000920E-02 0.  1.
</event>
<event>
 5   0  0.6780984E-07  0.2601001E+04  0.7818609E-02  0.8367861E-01
       -2   -1    0    0    0  501  0.00000000000E+00  0.00000000000E+00  0.11440168018E+04  0.11440168018E+04  0.25500000920E-02 0.  1.
        2   -1    0    0  501    0  0.00000000000E+00  0.00000000000E+00 -0.14783885687E+04  0.14783885688E+04  0.25500000920E-02 0. -1.
    10030    2    1    2    0    0  0.00000000000E+00  0.00000000000E+00 -0.33437176700E+03  0.26224053705E+04  0.26010008552E+04 0.  0.
        2    1    3    3  502    0  0.39652438454E+03 -0.71985085669E+03 -0.11833912913E+04  0.14407747193E+04  0.25500000920E-02 0. -1.
       -2    1    3    3    0  502 -0.39652438454E+03  0.71985085669E+03  0.84901952426E+03  0.11816306513E+04  0.25500000920E-02 0.  1.
</event>
<event>
 5   0  0.2641626E-07  0.2601170E+04  0.7818609E-02  0.8367804E-01
        1   -1    0    0  501    0  0.00000000000E+00  0.00000000000E+00  0.15295845091E+04  0.15295845091E+04  0.50400001928E-02 0.  1.
       -1   -1    0    0    0  501  0.00000000000E+00  0.00000000000E+00 -0.11058701474E+04  0.11058701474E+04  0.50400001928E-02 0. -1.
    10030    2    1    2    0    0  0.00000000000E+00  0.00000000000E+00  0.42371436164E+03  0.26354546565E+04  0.26011703878E+04 0.  0.
        3    1    3    3  502    0  0.10266394406E+04  0.44959168721E+03 -0.45668877181E+03  0.12102420711E+04  0.10100000352E+00 0. -1.
       -3    1    3    3    0  502 -0.10266394406E+04 -0.44959168721E+03  0.88040313345E+03  0.14252125854E+04  0.10100000352E+00 0.  1.
</event>
<event>
 5   0  0.6780984E-07  0.2599606E+04  0.7818609E-02  0.8368335E-01
       -2   -1    0    0    0  501  0.00000000000E+00  0.00000000000E+00  0.59167636112E+03  0.59167636112E+03  0.25500000920E-02 0.  1.
        2   -1    0    0  501    0  0.00000000000E+00  0.00000000000E+00 -0.28554257875E+04  0.28554257875E+04  0.25500000920E-02 0. -1.
    10030    2    1    2    0    0  0.00000000000E+00  0.00000000000E+00 -0.22637494264E+04  0.34471021486E+04  0.25996060774E+04 0.  0.
        2    1    3    3  502    0  0.63651768496E+03 -0.11064057062E+04 -0.80653028445E+03  0.15098938538E+04  0.25500000920E-02 0.  1.
       -2    1    3    3    0  502 -0.63651768496E+03  0.11064057062E+04 -0.14572191419E+04  0.19372082948E+04  0.25500000920E-02 0. -1.
</event>
<event>
 5   0  0.2864801E-07  0.2599540E+04  0.7818609E-02  0.8368357E-01
       -1   -1    0    0    0  501  0.00000000000E+00  0.00000000000E+00  0.93172969089E+03  0.93172969091E+03  0.50400001928E-02 0. -1.
        1   -1    0    0  501    0  0.00000000000E+00  0.00000000000E+00 -0.18131896517E+04  0.18131896517E+04  0.50400001928E-02 0.  1.
    10030    2    1    2    0    0  0.00000000000E+00  0.00000000000E+00 -0.88145996084E+03  0.27449193426E+04  0.25995404469E+04 0.  0.
        5    1    3    3  502    0  0.62501554300E+03  0.70425273060E+03  0.50534816076E+03  0.10686511082E+04  0.46999998093E+01 0. -1.
       -5    1    3    3    0  502 -0.62501554300E+03 -0.70425273060E+03 -0.13868081216E+04  0.16762682344E+04  0.46999998093E+01 0.  1.
</event>
<event>
 5   0  0.2755061E-07  0.2599269E+04  0.7818609E-02  0.8368450E-01
        1   -1    0    0  501    0  0.00000000000E+00  0.00000000000E+00  0.11301188282E+04  0.11301188283E+04  0.50400001928E-02 0. -1.
       -1   -1    0    0    0  501  0.00000000000E+00  0.00000000000E+00 -0.14945773028E+04  0.14945773028E+04  0.50400001928E-02 0.  1.
    10030    2    1    2    0    0  0.00000000000E+00  0.00000000000E+00 -0.36445847459E+03  0.26246961311E+04  0.25992690898E+04 0.  0.
        4    1    3    3  502    0  0.43190400186E+03  0.12257636100E+04 -0.17890417218E+03  0.13118863557E+04  0.12699999809E+01 0. -1.
       -4    1    3    3    0  502 -0.43190400186E+03 -0.12257636100E+04 -0.18555430242E+03  0.13128097754E+04  0.12699999809E+01 0.  1.
</event>
<event>
 5   0  0.6526351E-07  0.2600829E+04  0.7818609E-02  0.8367920E-01
       -2   -1    0    0    0  501  0.00000000000E+00  0.00000000000E+00  0.16513931770E+04  0.16513931770E+04  0.25500000920E-02 0. -1.
        2   -1    0    0  501    0  0.00000000000E+00  0.00000000000E+00 -0.10240309761E+04  0.10240309762E+04  0.25500000920E-02 0.  1.
    10030    2    1    2    0    0  0.00000000000E+00  0.00000000000E+00  0.62736220085E+03  0.26754241532E+04  0.26008289194E+04 0.  0.
        3    1    3    3  502    0  0.93223267735E+02 -0.30201366243E+03 -0.98391586512E+03  0.10334375984E+04  0.10100000352E+00 0.  1.
       -3    1    3    3    0  502 -0.93223267735E+02  0.30201366243E+03  0.16112780660E+04  0.16419865548E+04  0.10100000352E+00 0. -1.
</event>
<event>
 5   0  0.2641626E-07  0.2599791E+04  0.7818609E-02  0.8368272E-01
       -1   -1    0    0    0  501  0.00000000000E+00  0.00000000000E+00  0.10571215177E+04  0.10571215177E+04  0.50400001928E-02 0. -1.
        1   -1    0    0  501    0  0.00000000000E+00  0.00000000000E+00 -0.15984243588E+04  0.15984243588E+04  0.50400001928E-02 0.  1.
    10030    2    1    2    0    0  0.00000000000E+00  0.00000000000E+00 -0.54130284105E+03  0.26555458765E+04  0.25997913640E+04 0.  0.
        3    1    3    3  502    0 -0.20221271727E+03  0.18238208149E+03  0.10276602174E+04  0.10631268689E+04  0.10100000352E+00 0. -1.
       -3    1    3    3    0  502  0.20221271727E+03 -0.18238208149E+03 -0.15689630585E+04  0.15924190076E+04  0.10100000352E+00 0.  1.
</event>
<event>
 5   0  0.2793576E-07  0.2603006E+04  0.7818609E-02  0.8367181E-01
        1   -1    0    0  501    0  0.00000000000E+00  0.00000000000E+00  0.81656888462E+03  0.81656888464E+03  0.50400001928E-02 0.  1.
       -1   -1    0    0    0  501  0.00000000000E+00  0.00000000000E+00 -0.20744232466E+04  0.20744232466E+04  0.50400001928E-02 0. -1.
    10030    2    1    2    0    0  0.00000000000E+00  0.00000000000E+00 -0.12578543620E+04  0.28909921312E+04  0.26030055526E+04 0.  0.
        2    1    3    3  502    0  0.84941057290E+03 -0.25010948899E+03  0.43046860711E+03  0.98455893656E+03  0.25500000920E-02 0.  1.
       -2    1    3    3    0  502 -0.84941057290E+03  0.25010948899E+03 -0.16883229691E+04  0.19064331947E+04  0.25500000920E-02 0. -1.
</event>
<event>
 5   0  0.2793576E-07  0.2599601E+04  0.7818609E-02  0.8368337E-01
        1   -1    0    0  501    0  0.00000000000E+00  0.00000000000E+00  0.18041300595E+04  0.18041300595E+04  0.50400001928E-02 0. -1.
       -1   -1    0    0    0  501  0.00000000000E+00  0.00000000000E+00 -0.93645206400E+03  0.93645206401E+03  0.50400001928E-02 0.  1.
    10030    2    1    2    0    0  0.00000000000E+00  0.00000000000E+00  0.86767799552E+03  0.27405821235E+04  0.25996009832E+04 0.  0.
        2    1    3    3  502    0 -0.10775434460E+04  0.28345985086E+03  0.11394910715E+04  0.15937030046E+04  0.25500000920E-02 0. -1.
       -2    1    3    3    0  502  0.10775434460E+04 -0.28345985086E+03 -0.27181307595E+03  0.11468791189E+04  0.25500000920E-02 0.  1.
</event>
<event>
 5   0  0.6768478E-07  0.2599699E+04  0.7818609E-02  0.8368303E-01
       -2   -1    0    0    0  501  0.00000000000E+00  0.00000000000E+00  0.12216005799E+04  0.12216005799E+04  0.25500000920E-02 0.  1.
        2   -1    0    0  501    0  0.00000000000E+00  0.00000000000E+00 -0.13831104734E+04  0.13831104734E+04  0.25500000920E-02 0. -1.
    10030    2    1    2    0    0  0.00000000000E+00  0.00000000000E+00 -0.16150989348E+03  0.26047110534E+04  0.25996988722E+04 0.  0.
        4    1    3    3  502    0 -0.74363204888E+03 -0.19964726938E+03  0.96852691989E+03  0.12372928771E+04  0.12699999809E+01 0.  1.
       -4    1    3    3    0  502  0.74363204888E+03  0.19964726938E+03 -0.11300368134E+04  0.13674181763E+04  0.12699999809E+01 0. -1.
</event>
<event>
 5   0  0.2623263E-07  0.2599572E+04  0.7818609E-02  0.8368347E-01
       -1   -1    0    0    0  501  0.00000000000E+00  0.00000000000E+00  0.12348146159E+04  0.12348146159E+04  0.50400001928E-02 0. -1.
        1   -1    0    0  501    0  0.00000000000E+00  0.00000000000E+00 -0.13681755179E+04  0.13681755179E+04  0.50400001928E-02 0.  1.
    10030    2    1    2    0    0  0.00000000000E+00  0.00000000000E+00 -0.13336090200E+03  0.26029901338E+04  0.25995716005E+04 0.  0.
        1    1    3    3  502    0  0.12369017652E+04 -0.10657369127E+03 -0.45210116135E+03  0.13212416087E+04  0.50400001928E-02 0. -1.
       -1    1    3    3    0  502 -0.12369017652E+04  0.10657369127E+03  0.31874025935E+03  0.12817485250E+04  0.50400001928E-02 0.  1.
</event>
<event>
 5   0  0.2623263E-07  0.2599814E+04  0.7818609E-02  0.8368264E-01
        1   -1    0    0  501    0  0.00000000000E+00  0.00000000000E+00  0.16697107831E+04  0.16697107831E+04  0.50400001928E-02 0.  1.
       -1   -1    0    0    0  501  0.00000000000E+00  0.00000000000E+00 -0.10120066373E+04  0.10120066373E+04  0.50400001928E-02 0. -1.
    10030    2    1    2    0    0  0.00000000000E+00  0.00000000000E+00  0.65770414578E+03  0.26817174204E+04  0.25998141433E+04 0.  0.
        1    1    3    3  502    0  0.15587930834E+03  0.83971415850E+03  0.13396940264E+04  0.15887725801E+04  0.50400001928E-02 0.  1.
       -1    1    3    3    0  502 -0.15587930834E+03 -0.83971415850E+03 -0.68198988063E+03  0.10929448404E+04  0.50400001928E-02 0. -1.
</event>
<event>
 5   0  0.6599814E-07  0.2600189E+04  0.7818609E-02  0.8368137E-01
        2   -1    0    0  501    0  0.00000000000E+00  0.00000000000E+00  0.14384630656E+04  0.14384630656E+04  0.25500000920E-02 0. -1.
       -2   -1    0    0    0  501  0.00000000000E+00  0.00000000000E+00 -0.11750363093E+04  0.11750363093E+04  0.25500000920E-02 0.  1.
    10030    2    1    2    0    0  0.00000000000E+00  0.00000000000E+00  0.26342675627E+03  0.26134993750E+04  0.26001894791E+04 0.  0.
        5    1    3    3  502    0  0.98691562733E+03 -0.84629662621E+03  0.12975230270E+03  0.13065520216E+04  0.46999998093E+01 0. -1.
       -5    1    3    3    0  502 -0.98691562733E+03  0.84629662621E+03  0.13367445357E+03  0.13069473534E+04  0.46999998093E+01 0.  1.
</event>
<event>
 5   0  0.7160320E-07  0.2599516E+04  0.7818609E-02  0.8368366E-01
       -2   -1    0    0    0  501  0.00000000000E+00  0.00000000000E+00  0.76084403595E+03  0.76084403596E+03  0.25500000920E-02 0.  1.
        2   -1    0    0  501    0  0.00000000000E+00  0.00000000000E+00 -0.22203903197E+04  0.22203903197E+04  0.25500000920E-02 0. -1.
    10030    2    1    2    0    0  0.00000000000E+00  0.00000000000E+00 -0.14595462837E+04  0.29812343557E+04  0.25995159028E+04 0.  0.
        1    1    3    3  502    0  0.59779666157E+03 -0.46029871430E+03  0.48400361881E+03  0.89637897009E+03  0.50400001928E-02 0.  1.
       -1    1    3    3    0  502 -0.59779666157E+03  0.46029871430E+03 -0.19435499026E+04  0.20848553856E+04  0.50400001928E-02 0. -1.
</event>
<event>
 5   0  0.7160320E-07  0.2602626E+04  0.7818609E-02  0.8367310E-01
       -2   -1    0    0    0  501  0.00000000000E+00  0.00000000000E+00  0.13573980848E+04  0.13573980848E+04  0.25500000920E-02 0.  1.
        2   -1    0    0  501    0  0.00000000000E+00  0.00000000000E+00 -0.12475449566E+04  0.12475449567E+04  0.25500000920E-02 0. -1.
    10030    2    1    2    0    0  0.00000000000E+00  0.00000000000E+00  0.10985312811E+03  0.26049430414E+04  0.26026257009E+04 0.  0.
        1    1    3    3  502    0 -0.83717750064E+03  0.16024878637E+03 -0.92924406811E+03  0.12609680326E+04  0.50400001928E-02 0. -1.
       -1    1    3    3    0  502  0.83717750064E+03 -0.16024878637E+03  0.10390971962E+04  0.13439750088E+04  0.50400001928E-02 0.  1.
</event>
<event>
 5   0  0.2641626E-07  0.2599877E+04  0.7818609E-02  0.8368243E-01
       -1   -1    0    0    0  501  0.00000000000E+00  0.00000000000E+00  0.12372779923E+04  0.12372779923E+04  0.50400001928E-02 0. -1.
        1   -1    0    0  501    0  0.00000000000E+00  0.00000000000E+00 -0.13657726721E+04  0.13657726721E+04  0.50400001928E-02 0.  1.
    10030    2    1    2    0    0  0.00000000000E+00  0.00000000000E+00 -0.12849467976E+03  0.26030506645E+04  0.25998772815E+04 0.  0.
        3    1    3    3  502    0  0.93880322006E+03 -0.87983283736E+03  0.12140593515E+03  0.12923609089E+04  0.10100000352E+00 0. -1.
       -3    1    3    3    0  502 -0.93880322006E+03  0.87983283736E+03 -0.24990061492E+03  0.13106897555E+04  0.10100000352E+00 0.  1.
</event>
<event>
 5   0  0.6599814E-07  0.2600268E+04  0.7818609E-02  0.8368110E-01
        2   -1    0    0  501    0  0.00000000000E+00  0.00000000000E+00  0.20033971436E+04  0.20033971436E+04  0.25500000920E-02 0. -1.
       -2   -1    0    0    0  501  0.00000000000E+00  0.00000000000E+00 -0.84374118901E+03  0.84374118901E+03  0.25500000920E-02 0.  1.
    10030    2    1    2    0    0  0.00000000000E+00  0.00000000000E+00  0.11596559546E+04  0.28471383326E+04  0.26002682077E+04 0.  0.
        5    1    3    3  502    0 -0.11855727914E+04 -0.51164285501E+03  0.41389722124E+03  0.13559846071E+04  0.46999998093E+01 0. -1.
       -5    1    3    3    0  502  0.11855727914E+04  0.51164285501E+03  0.74575873336E+03  0.14911537256E+04  0.46999998093E+01 0.  1.
</event>
<event>
 5   0  0.6780984E-07  0.2600867E+04  0.7818609E-02  0.8367907E-01
       -2   -1    0    0    0  501  0.00000000000E+00  0.00000000000E+00  0.21765075936E+04  0.21765075936E+04  0.25500000920E-02 0. -1.
        2   -1    0    0  501    0  0.00000000000E+00  0.00000000000E+00 -0.77699108231E+03  0.77699108231E+03  0.25500000920E-02 0.  1.
    10030    2    1    2    0    0  0.00000000000E+00  0.00000000000E+00  0.13995165113E+04  0.29534986759E+04  0.26008667715E+04 0.  0.
        2    1    3    3  502    0 -0.24980180865E+02 -0.12985619269E+04  0.77370118524E+03  0.15117872243E+04  0.25500000920E-02 0.  1.
       -2    1    3    3    0  502  0.24980180865E+02  0.12985619269E+04  0.62581532606E+03  0.14417114516E+04  0.25500000920E-02 0. -1.
</event>
<event>
 5   0  0.2864801E-07  0.2596597E+04  0.7818609E-02  0.8369358E-01
       -1   -1    0    0    0  501  0.00000000000E+00  0.00000000000E+00  0.13257765937E+04  0.13257765938E+04  0.50400001928E-02 0. -1.
        1   -1    0    0  501    0  0.00000000000E+00  0.00000000000E+00 -0.12713898222E+04  0.12713898222E+04  0.50400001928E-02 0.  1.
    10030    2    1    2    0    0  0.00000000000E+00  0.00000000000E+00  0.54386771592E+02  0.25971664159E+04  0.25965969019E+04 0.  0.
        5    1    3    3  502    0  0.34470381480E+03  0.10242300955E+04 -0.69247034434E+03  0.12835128657E+04  0.46999998093E+01 0.  1.
       -5    1    3    3    0  502 -0.34470381480E+03 -0.10242300955E+04  0.74685711593E+03  0.13136535503E+04  0.46999998093E+01 0. -1.
</event>
<event>
 5   0  0.7160320E-07  0.2600067E+04  0.7818609E-02  0.8368178E-01
        2   -1    0    0  501    0  0.00000000000E+00  0.00000000000E+00  0.22477693114E+04  0.22477693114E+04  0.25500000920E-02 0.  1.
       -2   -1    0    0    0  501  0.00000000000E+00  0.00000000000E+00 -0.75189542849E+03  0.75189542849E+03  0.25500000920E-02 0. -1.
    10030    2    1    2    0    0  0.00000000000E+00  0.00000000000E+00  0.14958738829E+04  0.29996647398E+04  0.26000672834E+04 0.  0.
        1    1    3    3  502    0 -0.72081660339E+03 -0.10642323939E+04  0.97259605714E+03  0.16118654579E+04  0.50400001928E-02 0.  1.
       -1    1    3    3    0  502  0.72081660339E+03  0.10642323939E+04  0.52327782572E+03  0.13877992819E+04  0.50400001928E-02 0. -1.
</event>
<event>
 5   0  0.6768478E-07  0.2600200E+04  0.7818609E-02  0.8368133E-01
       -2   -1    0    0    0  501  0.00000000000E+00  0.00000000000E+00  0.19709440190E+04  0.19709440190E+04  0.25500000920E-02 0. -1.
        2   -1    0    0  501    0  0.00000000000E+00  0.00000000000E+00 -0.85758913538E+03  0.85758913538E+03  0.25500000920E-02 0.  1.
    10030    2    1    2    0    0  0.00000000000E+00  0.00000000000E+00  0.11133548836E+04  0.28285331544E+04  0.26002001286E+04 0.  0.
        4    1    3    3  502    0  0.70159575395E+02 -0.12233701319E+04  0.10292216298E+04  0.16002673595E+04  0.12699999809E+01 0. -1.
       -4    1    3    3    0  502 -0.70159575395E+02  0.12233701319E+04  0.84133253867E+02  0.12282657949E+04  0.12699999809E+01 0.  1.
</event>
<event>
 5   0  0.7160320E-07  0.2599449E+04  0.7818609E-02  0.8368388E-01
        2   -1    0    0  501    0  0.00000000000E+00  0.00000000000E+00  0.66344820272E+03  0.66344820273E+03  0.25500000920E-02 0. -1.
       -2   -1    0    0    0  501  0.00000000000E+00  0.00000000000E+00 -0.25462183759E+04  0.25462183759E+04  0.25500000920E-02 0.  1.
    10030    2    1    2    0    0  0.00000000000E+00  0.00000000000E+00 -0.18827701732E+04  0.32096665786E+04  0.25994491764E+04 0.  0.
        1    1    3    3  502    0 -0.25796452874E+03 -0.11840449751E+04 -0.36121634401E+03  0.12645099638E+04  0.50400001928E-02 0. -1.
       -1    1    3    3    0  502  0.25796452874E+03  0.11840449751E+04 -0.15215538292E+04  0.19451566149E+04  0.50400001928E-02 0.  1.
</event>
<event>
 5   0  0.6780984E-07  0.2598637E+04  0.7818609E-02  0.8368664E-01
       -2   -1    0    0    0  501  0.00000000000E+00  0.00000000000E+00  0.14600353160E+04  0.14600353160E+04  0.25500000920E-02 0.  1.
        2   -1    0    0  501    0  0.00000000000E+00  0.00000000000E+00 -0.11562932038E+04  0.11562932038E+04  0.25500000920E-02 0. -1.
    10030    2    1    2    0    0  0.00000000000E+00  0.00000000000E+00  0.30374211226E+03  0.26163285198E+04  0.25986372684E+04 0.  0.
        2    1    3    3  502    0  0.29118678411E+02 -0.16751768509E+03  0.14487861209E+04  0.14587293431E+04  0.25500000920E-02 0.  1.
       -2    1    3    3    0  502 -0.29118678411E+02  0.16751768509E+03 -0.11450440086E+04  0.11575991767E+04  0.25500000920E-02 0. -1.
</event>
<event>
 5   0  0.2793576E-07  0.2597501E+04  0.7818609E-02  0.8369050E-01
       -1   -1    0    0    0  501  0.00000000000E+00  0.00000000000E+00  0.10190283759E+04  0.10190283759E+04  0.50400001928E-02 0.  1.
        1   -1    0    0  501    0  0.00000000000E+00  0.00000000000E+00 -0.16552562498E+04  0.16552562498E+04  0.50400001928E-02 0. -1.
    10030    2    1    2    0    0  0.00000000000E+00  0.00000000000E+00 -0.63622787390E+03  0.26742846256E+04  0.25975011745E+04 0.  0.
        2    1    3    3  502    0  0.94045906971E+03 -0.54888779711E+03 -0.10468595348E+04  0.15105151311E+04  0.25500000920E-02 0. -1.
       -2    1    3    3    0  502 -0.94045906971E+03  0.54888779711E+03  0.41063166086E+03  0.11637694946E+04  0.25500000920E-02 0.  1.
</event>
<event>
 5   0  0.2793576E-07  0.2599464E+04  0.7818609E-02  0.8368383E-01
        1   -1    0    0  501    0  0.00000000000E+00  0.00000000000E+00  0.23487566573E+04  0.23487566573E+04  0.50400001928E-02 0.  1.
       -1   -1    0    0    0  501  0.00000000000E+00  0.00000000000E+00 -0.71923292698E+03  0.71923292700E+03  0.50400001928E-02 0. -1.
    10030    2    1    2    0    0  0.00000000000E+00  0.00000000000E+00  0.16295237303E+04  0.30679895843E+04  0.25994638874E+04 0.  0.
        2    1    3    3  502    0  0.91972995674E+03  0.84047664977E+03  0.12516081888E+04  0.17660201727E+04  0.25500000920E-02 0.  1.
       -2    1    3    3    0  502 -0.91972995674E+03 -0.84047664977E+03  0.37791554148E+03  0.13019694116E+04  0.25500000920E-02 0. -1.
</event>
<event>
 5   0  0.7160320E-07  0.2600193E+04  0.7818609E-02  0.8368136E-01
        2   -1    0    0  501    0  0.00000000000E+00  0.00000000000E+00  0.12083791877E+04  0.12083791877E+04  0.25500000920E-02 0.  1.
       -2   -1    0    0    0  501  0.00000000000E+00  0.00000000000E+00 -0.13987747358E+04  0.13987747358E+04  0.25500000920E-02 0. -1.
    10030    2    1    2    0    0  0.00000000000E+00  0.00000000000E+00 -0.19039554807E+03  0.26071539235E+04  0.26001925152E+04 0.  0.
        1    1    3    3  502    0  0.79034418975E+03 -0.58168890125E+03 -0.95026714521E+03  0.13660210699E+04  0.50400001928E-02 0. -1.
       -1    1    3    3    0  502 -0.79034418975E+03  0.58168890125E+03  0.75987159714E+03  0.12411328536E+04  0.50400001928E-02 0.  1.
</event>
<event>
 5   0  0.2623263E-07  0.2601811E+04  0.7818609E-02  0.8367586E-01
       -1   -1    0    0    0  501  0.00000000000E+00  0.00000000000E+00  0.10664824545E+04  0.10664824545E+04  0.50400001928E-02 0.  1.
        1   -1    0    0  501    0  0.00000000000E+00  0.00000000000E+00 -0.15868565105E+04  0.15868565105E+04  0.50400001928E-02 0. -1.
    10030    2    1    2    0    0  0.00000000000E+00  0.00000000000E+00 -0.52037405604E+03  0.26533389650E+04  0.26018106205E+04 0.  0.
        1    1    3    3  502    0  0.86457073122E+03 -0.76616273464E+03  0.34988023636E+03  0.12070228105E+04  0.50400001928E-02 0.  1.
       -1    1    3    3    0  502 -0.86457073122E+03  0.76616273464E+03 -0.87025429240E+03  0.14463161545E+04  0.50400001928E-02 0. -1.
</event>
<event>
 5   0  0.2864801E-07  0.2596491E+04  0.7818609E-02  0.8369394E-01
        1   -1    0    0  501    0  0.00000000000E+00  0.00000000000E+00  0.21919039653E+04  0.21919039653E+04  0.50400001928E-02 0. -1.
       -1   -1    0    0    0  501  0.00000000000E+00  0.00000000000E+00 -0.76893914319E+03  0.76893914321E+03  0.50400001928E-02 0.  1.
    10030    2    1    2    0    0  0.00000000000E+00  0.00000000000E+00  0.14229648221E+04  0.29608431085E+04  0.25964905215E+04 0.  0.
        5    1    3    3  502    0 -0.10004196069E+04  0.45354834258E+03  0.15005948879E+04  0.18596646462E+04  0.46999998093E+01 0. -1.
       -5    1    3    3    0  502  0.10004196069E+04 -0.45354834258E+03 -0.77630065710E+02  0.11011784624E+04  0.46999998093E+01 0.  1.
</event>
<event>
 5   0  0.6526351E-07  0.2603661E+04  0.7818609E-02  0.8366959E-01
       -2   -1    0    0    0  501  0.00000000000E+00  0.00000000000E+00  0.94144414010E+03  0.94144414010E+03  0.25500000920E-02 0. -1.
        2   -1    0    0  501    0  0.00000000000E+00  0.00000000000E+00 -0.18001738565E+04  0.18001738565E+04  0.25500000920E-02 0.  1.
    10030    2    1    2    0    0  0.00000000000E+00  0.00000000000E+00 -0.85872971641E+03  0.27416179966E+04  0.26036613669E+04 0.  0.
        3    1    3    3  502    0 -0.63831683932E+03  0.68302197811E+03  0.52461670519E+03  0.10720028486E+04  0.10100000352E+00 0. -1.
       -3    1    3    3    0  502  0.63831683932E+03 -0.68302197811E+03 -0.13833464216E+04  0.16696151480E+04  0.10100000352E+00 0.  1.
</event>
<event>
 5   0  0.2755061E-07  0.2600168E+04  0.7818609E-02  0.8368144E-01
        1   -1    0    0  501    0  0.00000000000E+00  0.00000000000E+00  0.16271572093E+04  0.16271572093E+04  0.50400001928E-02 0. -1.
       -1   -1    0    0    0  501  0.00000000000E+00  0.00000000000E+00 -0.10387553272E+04  0.10387553272E+04  0.50400001928E-02 0.  1.
    10030    2    1    2    0    0  0.00000000000E+00  0.00000000000E+00  0.58840188209E+03  0.26659125365E+04  0.26001678556E+04 0.  0.
        4    1    3    3  502    0  0.82322844994E+03  0.80903820179E+03 -0.31923193475E+03  0.11975635824E+04  0.12699999809E+01 0.  1.
       -4    1    3    3    0  502 -0.82322844994E+03 -0.80903820179E+03  0.90763381684E+03  0.14683489541E+04  0.12699999809E+01 0. -1.
</event>
<event>
 5   0  0.6780984E-07  0.2600463E+04  0.7818609E-02  0.8368044E-01
       -2   -1    0    0    0  501  0.00000000000E+00  0.00000000000E+00  0.14297868367E+04  0.14297868367E+04  0.25500000920E-02 0.  1.
        2   -1    0    0  501    0  0.00000000000E+00  0.00000000000E+00 -0.11824151945E+04  0.11824151945E+04  0.25500000920E-02 0. -1.
    10030    2    1    2    0    0  0.00000000000E+00  0.00000000000E+00  0.24737164227E+03  0.26122020312E+04  0.26004627900E+04 0.  0.
        2    1    3    3  502    0  0.12730300938E+04  0.24690528965E+03  0.21916139689E+03  0.13151424104E+04  0.25500000920E-02 0. -1.
       -2    1    3    3    0  502 -0.12730300938E+04 -0.24690528965E+03  0.28210245379E+02  0.12970596208E+04  0.25500000920E-02 0.  1.
</event>
<event>
 5   0  0.2755061E-07  0.2599389E+04  0.7818609E-02  0.8368409E-01
       -1   -1    0    0    0  501  0.00000000000E+00  0.00000000000E+00  0.15298432839E+04  0.15298432839E+04  0.50400001928E-02 0.  1.
        1   -1    0    0  501    0  0.00000000000E+00  0.00000000000E+00 -0.11041689081E+04  0.11041689081E+04  0.50400001928E-02 0. -1.
    10030    2    1    2    0    0  0.00000000000E+00  0.00000000000E+00  0.42567437580E+03  0.26340121921E+04  0.25993886885E+04 0.  0.
        4    1    3    3  502    0 -0.31619087274E+03 -0.39083737836E+03  0.14273310598E+04  0.15132766078E+04  0.12699999809E+01 0.  1.
       -4    1    3    3    0  502  0.31619087274E+03  0.39083737836E+03 -0.10016566840E+04  0.11207355843E+04  0.12699999809E+01 0. -1.
</event>
<event>
 5   0  0.2623263E-07  0.2597190E+04  0.7818609E-02  0.8369156E-01
       -1   -1    0    0    0  501  0.00000000000E+00  0.00000000000E+00  0.73512891178E+03  0.73512891179E+03  0.50400001928E-02 0.  1.
        1   -1    0    0  501    0  0.00000000000E+00  0.00000000000E+00 -0.22939505914E+04  0.22939505914E+04  0.50400001928E-02 0. -1.
    10030    2    1    2    0    0  0.00000000000E+00  0.00000000000E+00 -0.15588216796E+04  0.30290795032E+04  0.25971903295E+04 0.  0.
        1    1    3    3  502    0 -0.41304872438E+03  0.40560245548E+03 -0.21351340163E+04  0.22122205741E+04  0.50400001928E-02 0. -1.
       -1    1    3    3    0  502  0.41304872438E+03 -0.40560245548E+03  0.57631233672E+03  0.81685892912E+03  0.50400001928E-02 0.  1.
</event>
<event>
 5   0  0.6599814E-07  0.2598713E+04  0.7818609E-02  0.8368639E-01
        2   -1    0    0  501    0  0.00000000000E+00  0.00000000000E+00  0.18115495357E+04  0.18115495357E+04  0.25500000920E-02 0. -1.
       -2   -1    0    0    0  501  0.00000000000E+00  0.00000000000E+00 -0.93197951619E+03  0.93197951620E+03  0.25500000920E-02 0.  1.
    10030    2    1    2    0    0  0.00000000000E+00  0.00000000000E+00  0.87957001950E+03  0.27435290519E+04  0.25987128043E+04 0.  0.
        5    1    3    3  502    0 -0.72846630332E+03  0.48163648369E+03  0.14555165278E+04  0.16974060534E+04  0.46999998093E+01 0. -1.
       -5    1    3    3    0  502  0.72846630332E+03 -0.48163648369E+03 -0.57594650831E+03  0.10461229985E+04  0.46999998093E+01 0.  1.
</event>
<event>
 5   0  0.2641626E-07  0.2595889E+04  0.7818609E-02  0.8369599E-01
       -1   -1    0    0    0  501  0.00000000000E+00  0.00000000000E+00  0.84681427303E+03  0.84681427304E+03  0.50400001928E-02 0. -1.
        1   -1    0    0  501    0  0.00000000000E+00  0.00000000000E+00 -0.19894095444E+04  0.19894095444E+04  0.50400001928E-02 0.  1.
    10030    2    1    2    0    0  0.00000000000E+00  0.00000000000E+00 -0.11425952713E+04  0.28362238174E+04  0.25958893637E+04 0.  0.
        3    1    3    3  502    0 -0.49565695591E+03  0.90956784613E+03  0.28320465515E+03  0.10738688801E+04  0.10100000352E+00 0. -1.
       -3    1    3    3    0  502  0.49565695591E+03 -0.90956784613E+03 -0.14257999265E+04  0.17623549374E+04  0.10100000352E+00 0.  1.
</event>
<event>
 5   0  0.2641626E-07  0.2599025E+04  0.7818609E-02  0.8368533E-01
       -1   -1    0    0    0  501  0.00000000000E+00  0.00000000000E+00  0.81788690678E+03  0.81788690679E+03  0.50400001928E-02 0.  1.
        1   -1    0    0  501    0  0.00000000000E+00  0.00000000000E+00 -0.20647502652E+04  0.20647502652E+04  0.50400001928E-02 0. -1.
    10030    2    1    2    0    0  0.00000000000E+00  0.00000000000E+00 -0.12468633584E+04  0.28826371720E+04  0.25990245922E+04 0.  0.
        3    1    3    3  502    0 -0.92973789352E+03  0.10534020078E+03 -0.16236261378E+04  0.18739452911E+04  0.10100000352E+00 0. -1.
       -3    1    3    3    0  502  0.92973789352E+03 -0.10534020078E+03  0.37676277933E+03  0.10086918809E+04  0.10100000352E+00 0.  1.
</event>
<event>
 5   0  0.6780984E-07  0.2599878E+04  0.7818609E-02  0.8368243E-01
        2   -1    0    0  501    0  0.00000000000E+00  0.00000000000E+00  0.12953063989E+04  0.12953063989E+04  0.25500000920E-02 0.  1.
       -2   -1    0    0    0  501  0.00000000000E+00  0.00000000000E+00 -0.13045878279E+04  0.13045878279E+04  0.25500000920E-02 0. -1.
    10030    2    1    2    0    0  0.00000000000E+00  0.00000000000E+00 -0.92814290470E+01  0.25998942268E+04  0.25998776598E+04 0.  0.
        2    1    3    3  502    0  0.82852371728E+03 -0.88581716813E+03  0.46303453971E+03  0.12982775475E+04  0.25500000920E-02 0.  1.
       -2    1    3    3    0  502 -0.82852371728E+03  0.88581716813E+03 -0.47231596876E+03  0.13016166793E+04  0.25500000920E-02 0. -1.
</event>
<event>
 5   0  0.6768478E-07  0.2598757E+04  0.7818609E-02  0.8368623E-01
        2   -1    0    0  501    0  0.00000000000E+00  0.00000000000E+00  0.20186230281E+04  0.20186230281E+04  0.25500000920E-02 0. -1.
       -2   -1    0    0    0  501  0.00000000000E+00  0.00000000000E+00 -0.83640418063E+03  0.83640418063E+03  0.25500000920E-02 0.  1.
    10030    2    1    2    0    0  0.00000000000E+00  0.00000000000E+00  0.11822188475E+04  0.28550272088E+04  0.25987571952E+04 0.  0.
        4    1    3    3  502    0 -0.41117282668E+03  0.10845791376E+03  0.19400145502E+04  0.19860725768E+04  0.12699999809E+01 0. -1.
       -4    1    3    3    0  502  0.41117282668E+03 -0.10845791376E+03 -0.75779570270E+03  0.86895463195E+03  0.12699999809E+01 0.  1.
</event>
<event>
 5   0  0.2641626E-07  0.2601719E+04  0.7818609E-02  0.8367618E-01
        1   -1    0    0  501    0  0.00000000000E+00  0.00000000000E+00  0.26206800545E+04  0.26206800545E+04  0.50400001928E-02 0.  1.
       -1   -1    0    0    0  501  0.00000000000E+00  0.00000000000E+00 -0.64572373170E+03  0.64572373172E+03  0.50400001928E-02 0. -1.
    10030    2    1    2    0    0  0.00000000000E+00  0.00000000000E+00  0.19749563228E+04  0.32664037862E+04  0.26017188968E+04 0.  0.
        3    1    3    3  502    0 -0.74105418549E+03 -0.24883580008E+03 -0.31795134856E+03  0.84390380464E+03  0.10100000352E+00 0. -1.
       -3    1    3    3    0  502  0.74105418549E+03  0.24883580008E+03  0.22929076714E+04  0.24224999816E+04  0.10100000352E+00 0.  1.
</event>
<event>
 5   0  0.6780984E-07  0.2599759E+04  0.7818609E-02  0.8368283E-01
        2   -1    0    0  501    0  0.00000000000E+00  0.00000000000E+00  0.14931473658E+04  0.14931473658E+04  0.25500000920E-02 0.  1.
       -2   -1    0    0    0  501  0.00000000000E+00  0.00000000000E+00 -0.11316279831E+04  0.11316279831E+04  0.25500000920E-02 0. -1.
    10030    2    1    2    0    0  0.00000000000E+00  0.00000000000E+00  0.36151938269E+03  0.26247753489E+04  0.25997594828E+04 0.  0.
        2    1    3    3  502    0  0.47643918430E+03  0.10962811489E+04  0.69641950289E+03  0.13834112829E+04  0.25500000920E-02 0.  1.
       -2    1    3    3    0  502 -0.47643918430E+03 -0.10962811489E+04 -0.33490012020E+03  0.12413640660E+04  0.25500000920E-02 0. -1.
</event>
<event>
 5   0  0.6768478E-07  0.2596520E+04  0.7818609E-02  0.8369384E-01
       -2   -1    0    0    0  501  0.00000000000E+00  0.00000000000E+00  0.12596076221E+04  0.12596076221E+04  0.25500000920E-02 0.  1.
        2   -1    0    0  501    0  0.00000000000E+00  0.00000000000E+00 -0.13380980540E+04  0.13380980540E+04  0.25500000920E-02 0. -1.
    10030    2    1    2    0    0  0.00000000000E+00  0.00000000000E+00 -0.78490431918E+02  0.25977056761E+04  0.25965195997E+04 0.  0.
        4    1    3    3  502    0 -0.32826587701E+03 -0.69848009018E+03 -0.10836780142E+04  0.13304106786E+04  0.12699999809E+01 0. -1.
       -4    1    3    3    0  502  0.32826587701E+03  0.69848009018E+03  0.10051875822E+04  0.12672949975E+04  0.12699999809E+01 0.  1.
</event>
<event>
 5   0  0.6526351E-07  0.2604223E+04  0.7818609E-02  0.8366768E-01
       -2   -1    0    0    0  501  0.00000000000E+00  0.00000000000E+00  0.87232170616E+03  0.87232170616E+03  0.25500000920E-02 0. -1.
        2   -1    0    0  501    0  0.00000000000E+00  0.00000000000E+00 -0.19436571382E+04  0.19436571382E+04  0.25500000920E-02 0.  1.
    10030    2    1    2    0    0  0.00000000000E+00  0.00000000000E+00 -0.10713354320E+04  0.28159788444E+04  0.26042229636E+04 0.  0.
        3    1    3    3  502    0  0.67842744889E+03 -0.48447209851E+03 -0.16172598526E+04  0.18194797220E+04  0.10100000352E+00 0.  1.
       -3    1    3    3    0  502 -0.67842744889E+03  0.48447209851E+03  0.54592442059E+03  0.99649912235E+03  0.10100000352E+00 0. -1.
</event>
<event>
 5   0  0.2641626E-07  0.2599186E+04  0.7818609E-02  0.8368478E-01
        1   -1    0    0  501    0  0.00000000000E+00  0.00000000000E+00  0.17030343423E+04  0.17030343423E+04  0.50400001928E-02 0. -1.
       -1   -1    0    0    0  501  0.00000000000E+00  0.00000000000E+00 -0.99172486405E+03  0.99172486407E+03  0.50400001928E-02 0.  1.
    10030    2    1    2    0    0  0.00000000000E+00  0.00000000000E+00  0.71130947822E+03  0.26947592063E+04  0.25991856429E+04 0.  0.
        3    1    3    3  502    0 -0.71879717399E+03  0.82450124430E+03  0.10832208665E+04  0.15394281844E+04  0.10100000352E+00 0. -1.
       -3    1    3    3    0  502  0.71879717399E+03 -0.82450124430E+03 -0.37191138831E+03  0.11553310219E+04  0.10100000352E+00 0.  1.
</event>
<event>
 5   0  0.6780984E-07  0.2598992E+04  0.7818609E-02  0.8368544E-01
       -2   -1    0    0    0  501  0.00000000000E+00  0.00000000000E+00  0.79850632431E+03  0.79850632431E+03  0.25500000920E-02 0.  1.
        2   -1    0    0  501    0  0.00000000000E+00  0.00000000000E+00 -0.21148108549E+04  0.21148108549E+04  0.25500000920E-02 0. -1.
    10030    2    1    2    0    0  0.00000000000E+00  0.00000000000E+00 -0.13163045305E+04  0.29133171792E+04  0.25989919910E+04 0.  0.
        2    1    3    3  502    0 -0.93716800113E+03  0.55398684712E+03 -0.14535503295E+04  0.18160379538E+04  0.25500000920E-02 0. -1.
       -2    1    3    3    0  502  0.93716800113E+03 -0.55398684712E+03  0.13724579897E+03  0.10972792254E+04  0.25500000920E-02 0.  1.
</event>
<event>
 5   0  0.2294625E-07  0.2600348E+04  0.7818609E-02  0.8368083E-01
        3   -1    0    0  501    0  0.00000000000E+00  0.00000000000E+00  0.23101327724E+04  0.23101327746E+04  0.10100000352E+00 0. -1.
       -3   -1    0    0    0  501  0.00000000000E+00  0.00000000000E+00 -0.73175548278E+03  0.73175548975E+03  0.10100000352E+00 0.  1.
    10030    2    1    2    0    0  0.00000000000E+00  0.00000000000E+00  0.15783772896E+04  0.30418882643E+04  0.26003479276E+04 0.  0.
        4    1    3    3  502    0 -0.49327335113E+02  0.80265014137E+03  0.19843162054E+04  0.21410728272E+04  0.12699999809E+01 0. -1.
       -4    1    3    3    0  502  0.49327335113E+02 -0.80265014137E+03 -0.40593891584E+03  0.90081543710E+03  0.12699999809E+01 0.  1.
</event>
<event>
 5   0  0.2755061E-07  0.2601108E+04  0.7818609E-02  0.8367825E-01
       -1   -1    0    0    0  501  0.00000000000E+00  0.00000000000E+00  0.89360872792E+03  0.89360872794E+03  0.50400001928E-02 0.  1.
        1   -1    0    0  501    0  0.00000000000E+00  0.00000000000E+00 -0.18928200758E+04  0.18928200758E+04  0.50400001928E-02 0. -1.
    10030    2    1    2    0    0  0.00000000000E+00  0.00000000000E+00 -0.99921134788E+03  0.27864288037E+04  0.26011078718E+04 0.  0.
        4    1    3    3  502    0  0.77437571329E+03  0.65254264512E+03  0.37460616795E+03  0.10797226695E+04  0.12699999809E+01 0.  1.
       -4    1    3    3    0  502 -0.77437571329E+03 -0.65254264512E+03 -0.13738175158E+04  0.17067061343E+04  0.12699999809E+01 0. -1.
</event>
<event>
 5   0  0.6780984E-07  0.2596000E+04  0.7818609E-02  0.8369561E-01
        2   -1    0    0  501    0  0.00000000000E+00  0.00000000000E+00  0.14185937011E+04  0.14185937011E+04  0.25500000920E-02 0.  1.
       -2   -1    0    0    0  501  0.00000000000E+00  0.00000000000E+00 -0.11876581521E+04  0.11876581521E+04  0.25500000920E-02 0. -1.
    10030    2    1    2    0    0  0.00000000000E+00  0.00000000000E+00  0.23093554901E+03  0.26062518533E+04  0.25960002879E+04 0.  0.
        2    1    3    3  502    0 -0.24989623725E+03  0.21998394109E+03 -0.11440634753E+04  0.11915210024E+04  0.25500000920E-02 0. -1.
       -2    1    3    3    0  502  0.24989623725E+03 -0.21998394109E+03  0.13749990243E+04  0.14147308509E+04  0.25500000920E-02 0.  1.
</event>
<event>
 5   0  0.2864801E-07  0.2601501E+04  0.7818609E-02  0.8367692E-01
        1   -1    0    0  501    0  0.00000000000E+00  0.00000000000E+00  0.10596235500E+04  0.10596235500E+04  0.50400001928E-02 0. -1.
       -1   -1    0    0    0  501  0.00000000000E+00  0.00000000000E+00 -0.15967477407E+04  0.15967477407E+04  0.50400001928E-02 0.  1.
    10030    2    1    2    0    0  0.00000000000E+00  0.00000000000E+00 -0.53712419068E+03  0.26563712907E+04  0.26015007280E+04 0.  0.
        5    1    3    3  502    0 -0.91699102324E+03 -0.88450590435E+03 -0.91486568973E+00  0.12740667795E+04  0.46999998093E+01 0. -1.
       -5    1    3    3    0  502  0.91699102324E+03  0.88450590435E+03 -0.53620932499E+03  0.13823045112E+04  0.46999998093E+01 0.  1.
</event>
<event>
 5   0  0.2864801E-07  0.2595188E+04  0.7818609E-02  0.8369838E-01
       -1   -1    0    0    0  501  0.00000000000E+00  0.00000000000E+00  0.98917960597E+03  0.98917960599E+03  0.50400001928E-02 0.  1.
        1   -1    0    0  501    0  0.00000000000E+00  0.00000000000E+00 -0.17021683057E+04  0.17021683057E+04  0.50400001928E-02 0. -1.
    10030    2    1    2    0    0  0.00000000000E+00  0.00000000000E+00 -0.71298869974E+03  0.26913479117E+04  0.25951879885E+04 0.  0.
        5    1    3    3  502    0  0.82245662996E+03  0.81307557316E+03 -0.96668473497E+03  0.15073248696E+04  0.46999998093E+01 0. -1.
       -5    1    3    3    0  502 -0.82245662996E+03 -0.81307557316E+03  0.25369603523E+03  0.11840230421E+04  0.46999998093E+01 0.  1.
</event>
<event>
 5   0  0.2641626E-07  0.2599945E+04  0.7818609E-02  0.8368220E-01
        1   -1    0    0  501    0  0.00000000000E+00  0.00000000000E+00  0.15766909438E+04  0.15766909438E+04  0.50400001928E-02 0. -1.
       -1   -1    0    0    0  501  0.00000000000E+00  0.00000000000E+00 -0.10718199102E+04  0.10718199102E+04  0.50400001928E-02 0.  1.
    10030    2    1    2    0    0  0.00000000000E+00  0.00000000000E+00  0.50487103362E+03  0.26485108540E+04  0.25999451885E+04 0.  0.
        3    1    3    3  502    0 -0.56380620325E+03 -0.31110129109E+03 -0.89793614416E+03  0.11049664146E+04  0.10100000352E+00 0.  1.
       -3    1    3    3    0  502  0.56380620325E+03  0.31110129109E+03  0.14028071778E+04  0.15435444394E+04  0.10100000352E+00 0. -1.
</event>
<event>
 5   0  0.2793576E-07  0.2600164E+04  0.7818609E-02  0.8368146E-01
        1   -1    0    0  501    0  0.00000000000E+00  0.00000000000E+00  0.19625986913E+04  0.19625986913E+04  0.50400001928E-02 0.  1.
       -1   -1    0    0    0  501  0.00000000000E+00  0.00000000000E+00 -0.86121165292E+03  0.86121165293E+03  0.50400001928E-02 0. -1.
    10030    2    1    2    0    0  0.00000000000E+00  0.00000000000E+00  0.11013870383E+04  0.28238103442E+04  0.26001637356E+04 0.  0.
        2    1    3    3  502    0 -0.38968839888E+03  0.11072019350E+04 -0.56366772991E+02  0.11751299444E+04  0.25500000920E-02 0. -1.
       -2    1    3    3    0  502  0.38968839888E+03 -0.11072019350E+04  0.11577538113E+04  0.16486803998E+04  0.25500000920E-02 0.  1.
</event>
<event>
 5   0  0.6599814E-07  0.2603883E+04  0.7818609E-02  0.8366884E-01
       -2   -1    0    0    0  501  0.00000000000E+00  0.00000000000E+00  0.10401623637E+04  0.10401623637E+04  0.25500000920E-02 0.  1.
        2   -1    0    0  501    0  0.00000000000E+00  0.00000000000E+00 -0.16296027060E+04  0.16296027060E+04  0.25500000920E-02 0. -1.
    10030    2    1    2    0    0  0.00000000000E+00  0.00000000000E+00 -0.58944034233E+03  0.26697650698E+04  0.26038827951E+04 0.  0.
        5    1    3    3  502    0 -0.19553493938E+03 -0.31469697227E+03 -0.15744021616E+04  0.16174153311E+04  0.46999998093E+01 0. -1.
       -5    1    3    3    0  502  0.19553493938E+03  0.31469697227E+03  0.98496181930E+03  0.10523497386E+04  0.46999998093E+01 0.  1.
</event>
<event>
 5   0  0.2755061E-07  0.2602191E+04  0.7818609E-02  0.8367457E-01
       -1   -1    0    0    0  501  0.00000000000E+00  0.00000000000E+00  0.89497369182E+03  0.89497369184E+03  0.50400001928E-02 0. -1.
        1   -1    0    0  501    0  0.00000000000E+00  0.00000000000E+00 -0.18915072884E+04  0.18915072884E+04  0.50400001928E-02 0.  1.
    10030    2    1    2    0    0  0.00000000000E+00  0.00000000000E+00 -0.99653359655E+03  0.27864809802E+04  0.26021908162E+04 0.  0.
        4    1    3    3  502    0 -0.36579334056E+03 -0.11477230849E+04  0.28262182576E+02  0.12049370986E+04  0.12699999809E+01 0. -1.
       -4    1    3    3    0  502  0.36579334056E+03  0.11477230849E+04 -0.10247957791E+04  0.15815438816E+04  0.12699999809E+01 0.  1.
</event>
<event>
 5   0  0.2864801E-07  0.2599026E+04  0.7818609E-02  0.8368532E-01
       -1   -1    0    0    0  501  0.00000000000E+00  0.00000000000E+00  0.17317950590E+04  0.17317950590E+04  0.50400001928E-02 0. -1.
        1   -1    0    0  501    0  0.00000000000E+00  0.00000000000E+00 -0.97513479875E+03  0.97513479876E+03  0.50400001928E-02 0.  1.
    10030    2    1    2    0    0  0.00000000000E+00  0.00000000000E+00  0.75666026024E+03  0.27069298578E+04  0.25990256839E+04 0.  0.
        5    1    3    3  502    0 -0.73609223274E+03  0.89725118152E+03  0.98725710872E+03  0.15236765229E+04  0.46999998093E+01 0. -1.
       -5    1    3    3    0  502  0.73609223274E+03 -0.89725118152E+03 -0.23059684848E+03  0.11832533348E+04  0.46999998093E+01 0.  1.
</event>
<event>
 5   0  0.6780984E-07  0.2602036E+04  0.7818609E-02  0.8367510E-01
       -2   -1    0    0    0  501  0.00000000000E+00  0.00000000000E+00  0.92717043136E+03  0.92717043136E+03  0.25500000920E-02 0.  1.
        2   -1    0    0  501    0  0.00000000000E+00  0.00000000000E+00 -0.18256064298E+04  0.18256064298E+04  0.25500000920E-02 0. -1.
    10030    2    1    2    0    0  0.00000000000E+00  0.00000000000E+00 -0.89843599840E+03  0.27527768611E+04  0.26020363571E+04 0.  0.
        2    1    3    3  502    0 -0.71580258328E+03  0.10393818065E+04 -0.11473681574E+03  0.12672223226E+04  0.25500000920E-02 0.  1.
       -2    1    3    3    0  502  0.71580258328E+03 -0.10393818065E+04 -0.78369918266E+03  0.14855545385E+04  0.25500000920E-02 0. -1.
</event>
<event>
 5   0  0.2793576E-07  0.2614449E+04  0.7818609E-02  0.8363310E-01
       -1   -1    0    0    0  501  0.00000000000E+00  0.00000000000E+00  0.10358588854E+04  0.10358588854E+04  0.50400001928E-02 0. -1.
        1   -1    0    0  501    0  0.00000000000E+00  0.00000000000E+00 -0.16496807225E+04  0.16496807225E+04  0.50400001928E-02 0.  1.
    10030    2    1    2    0    0  0.00000000000E+00  0.00000000000E+00 -0.61382183714E+03  0.26855396079E+04  0.26144494139E+04 0.  0.
        2    1    3    3  502    0  0.12132963561E+04 -0.37530417744E+03 -0.62500066146E+03  0.14154741609E+04  0.25500000920E-02 0.  1.
       -2    1    3    3    0  502 -0.12132963561E+04  0.37530417744E+03  0.11178824316E+02  0.12700654470E+04  0.25500000920E-02 0. -1.
</event>
<event>
 5   0  0.6599814E-07  0.2600755E+04  0.7818609E-02  0.8367945E-01
       -2   -1    0    0    0  501  0.00000000000E+00  0.00000000000E+00  0.78541496114E+03  0.78541496115E+03  0.25500000920E-02 0. -1.
        2   -1    0    0  501    0  0.00000000000E+00  0.00000000000E+00 -0.21529792062E+04  0.21529792062E+04  0.25500000920E-02 0.  1.
    10030    2    1    2    0    0  0.00000000000E+00  0.00000000000E+00 -0.13675642451E+04  0.29383941674E+04  0.26007553361E+04 0.  0.
        5    1    3    3  502    0  0.42870472462E+03  0.12269101538E+04 -0.73255756843E+03  0.14918977671E+04  0.46999998093E+01 0. -1.
       -5    1    3    3    0  502 -0.42870472462E+03 -0.12269101538E+04 -0.63500667664E+03  0.14464964002E+04  0.46999998093E+01 0.  1.
</event>
<event>
 5   0  0.2623263E-07  0.2600385E+04  0.7818609E-02  0.8368070E-01
       -1   -1    0    0    0  501  0.00000000000E+00  0.00000000000E+00  0.76436700100E+03  0.76436700102E+03  0.50400001928E-02 0.  1.
        1   -1    0    0  501    0  0.00000000000E+00  0.00000000000E+00 -0.22116344896E+04  0.22116344896E+04  0.50400001928E-02 0. -1.
    10030    2    1    2    0    0  0.00000000000E+00  0.00000000000E+00 -0.14472674886E+04  0.29760014906E+04  0.26003849116E+04 0.  0.
        1    1    3    3  502    0 -0.95165050037E+03  0.87277522261E+03 -0.89766925085E+03  0.15726364322E+04  0.50400001928E-02 0. -1.
       -1    1    3    3    0  502  0.95165050037E+03 -0.87277522261E+03 -0.54959823770E+03  0.14033650583E+04  0.50400001928E-02 0.  1.
</event>
<event>
 5   0  0.6526351E-07  0.2599942E+04  0.7818609E-02  0.8368221E-01
       -2   -1    0    0    0  501  0.00000000000E+00  0.00000000000E+00  0.15545214796E+04  0.15545214796E+04  0.25500000920E-02 0.  1.
        2   -1    0    0  501    0  0.00000000000E+00  0.00000000000E+00 -0.10871023636E+04  0.10871023636E+04  0.25500000920E-02 0. -1.
    10030    2    1    2    0    0  0.00000000000E+00  0.00000000000E+00  0.46741911608E+03  0.26416238432E+04  0.25999415184E+04 0.  0.
        3    1    3    3  502    0  0.43739319721E+03  0.80831294329E+03 -0.70039988366E+03  0.11555269925E+04  0.10100000352E+00 0. -1.
       -3    1    3    3    0  502 -0.43739319721E+03 -0.80831294329E+03  0.11678189997E+04  0.14860968507E+04  0.10100000352E+00 0.  1.
</event>
<event>
 5   0  0.6599814E-07  0.2604704E+04  0.7818609E-02  0.8366605E-01
       -2   -1    0    0    0  501  0.00000000000E+00  0.00000000000E+00  0.10568615063E+04  0.10568615063E+04  0.25500000920E-02 0. -1.
        2   -1    0    0  501    0  0.00000000000E+00  0.00000000000E+00 -0.16048658258E+04  0.16048658258E+04  0.25500000920E-02 0.  1.
    10030    2    1    2    0    0  0.00000000000E+00  0.00000000000E+00 -0.54800431953E+03  0.26617273321E+04  0.26047041398E+04 0.  0.
        5    1    3    3  502    0 -0.10605857947E+04  0.74612880857E+03 -0.39725948496E+03  0.13562402498E+04  0.46999998093E+01 0.  1.
       -5    1    3    3    0  502  0.10605857947E+04 -0.74612880857E+03 -0.15074483457E+03  0.13054870823E+04  0.46999998093E+01 0. -1.
</event>
<event>
 5   0  0.2623263E-07  0.2599371E+04  0.7818609E-02  0.8368415E-01
        1   -1    0    0  501    0  0.00000000000E+00  0.00000000000E+00  0.18480447491E+04  0.18480447491E+04  0.50400001928E-02 0. -1.
       -1   -1    0    0    0  501  0.00000000000E+00  0.00000000000E+00 -0.91403726428E+03  0.91403726429E+03  0.50400001928E-02 0.  1.
    10030    2    1    2    0    0  0.00000000000E+00  0.00000000000E+00  0.93400748480E+03  0.27620820134E+04  0.25993705136E+04 0.  0.
        1    1    3    3  502    0 -0.82951574399E+03  0.40846129386E+03  0.14375475156E+04  0.17092337049E+04  0.50400001928E-02 0. -1.
       -1    1    3    3    0  502  0.82951574399E+03 -0.40846129386E+03 -0.50354003082E+03  0.10528483085E+04  0.50400001928E-02 0.  1.
</event>
<event>
 5   0  0.6780984E-07  0.2615450E+04  0.7818609E-02  0.8362972E-01
        2   -1    0    0  501    0  0.00000000000E+00  0.00000000000E+00  0.14128487740E+04  0.14128487740E+04  0.25500000920E-02 0.  1.
       -2   -1    0    0    0  501  0.00000000000E+00  0.00000000000E+00 -0.12104231972E+04  0.12104231972E+04  0.25500000920E-02 0. -1.
    10030    2    1    2    0    0  0.00000000000E+00  0.00000000000E+00  0.20242557680E+03  0.26232719712E+04  0.26154501947E+04 0.  0.
        2    1    3    3  502    0 -0.12453150855E+04  0.37599056759E+03 -0.33226723057E+02  0.13012619199E+04  0.25500000920E-02 0. -1.
       -2    1    3    3    0  502  0.12453150855E+04 -0.37599056759E+03  0.23565229986E+03  0.13220100513E+04  0.25500000920E-02 0.  1.
</event>
<event>
 5   0  0.6599814E-07  0.2597679E+04  0.7818609E-02  0.8368990E-01
        2   -1    0    0  501    0  0.00000000000E+00  0.00000000000E+00  0.16410589252E+04  0.16410589252E+04  0.25500000920E-02 0. -1.
       -2   -1    0    0    0  501  0.00000000000E+00  0.00000000000E+00 -0.10279850413E+04  0.10279850413E+04  0.25500000920E-02 0.  1.
    10030    2    1    2    0    0  0.00000000000E+00  0.00000000000E+00  0.61307388391E+03  0.26690439665E+04  0.25976789848E+04 0.  0.
        5    1    3    3  502    0 -0.26628048191E+03 -0.50234240240E+02 -0.99860935317E+03  0.10347325762E+04  0.46999998093E+01 0.  1.
       -5    1    3    3    0  502  0.26628048191E+03  0.50234240240E+02  0.16116832371E+04  0.16343113903E+04  0.46999998093E+01 0. -1.
</event>
<event>
 5   0  0.2793576E-07  0.2599963E+04  0.7818609E-02  0.8368214E-01
       -1   -1    0    0    0  501  0.00000000000E+00  0.00000000000E+00  0.12339519923E+04  0.12339519923E+04  0.50400001928E-02 0.  1.
        1   -1    0    0  501    0  0.00000000000E+00  0.00000000000E+00 -0.13695438483E+04  0.13695438483E+04  0.50400001928E-02 0. -1.
    10030    2    1    2    0    0  0.00000000000E+00  0.00000000000E+00 -0.13559185606E+03  0.26034958406E+04  0.25999625844E+04 0.  0.
        2    1    3    3  502    0 -0.84047889803E+03  0.32450037986E+03  0.87062546853E+03  0.12528742878E+04  0.25500000920E-02 0.  1.
       -2    1    3    3    0  502  0.84047889803E+03 -0.32450037986E+03 -0.10062173246E+04  0.13506215528E+04  0.25500000920E-02 0. -1.
</event>
<event>
 5   0  0.6599814E-07  0.2598371E+04  0.7818609E-02  0.8368755E-01
        2   -1    0    0  501    0  0.00000000000E+00  0.00000000000E+00  0.13278148123E+04  0.13278148123E+04  0.25500000920E-02 0.  1.
       -2   -1    0    0    0  501  0.00000000000E+00  0.00000000000E+00 -0.12711730318E+04  0.12711730318E+04  0.25500000920E-02 0. -1.
    10030    2    1    2    0    0  0.00000000000E+00  0.00000000000E+00  0.56641780434E+02  0.25989878441E+04  0.25983705514E+04 0.  0.
        5    1    3    3  502    0 -0.11577023252E+04 -0.27352225742E+03 -0.49407820148E+03  0.12881088689E+04  0.46999998093E+01 0. -1.
       -5    1    3    3    0  502  0.11577023252E+04  0.27352225742E+03  0.55071998191E+03  0.13108789752E+04  0.46999998093E+01 0.  1.
</event>
<event>
 5   0  0.2755061E-07  0.2600785E+04  0.7818609E-02  0.8367935E-01
        1   -1    0    0  501    0  0.00000000000E+00  0.00000000000E+00  0.11477692583E+04  0.11477692583E+04  0.50400001928E-02 0. -1.
       -1   -1    0    0    0  501  0.00000000000E+00  0.00000000000E+00 -0.14733100895E+04  0.14733100895E+04  0.50400001928E-02 0.  1.
    10030    2    1    2    0    0  0.00000000000E+00  0.00000000000E+00 -0.32554083125E+03  0.26210793478E+04  0.26007845191E+04 0.  0.
        4    1    3    3  502    0  0.11610117806E+04 -0.30654424547E+03  0.34022411132E+03  0.12480672209E+04  0.12699999809E+01 0. -1.
       -4    1    3    3    0  502 -0.11610117806E+04  0.30654424547E+03 -0.66576494256E+03  0.13730121269E+04  0.12699999809E+01 0.  1.
</event>
<event>
 5   0  0.2864801E-07  0.2601188E+04  0.7818609E-02  0.8367798E-01
        1   -1    0    0  501    0  0.00000000000E+00  0.00000000000E+00  0.67320754418E+03  0.67320754420E+03  0.50400001928E-02 0. -1.
       -1   -1    0    0    0  501  0.00000000000E+00  0.00000000000E+00 -0.25126641064E+04  0.25126641064E+04  0.50400001928E-02 0.  1.
    10030    2    1    2    0    0  0.00000000000E+00  0.00000000000E+00 -0.18394565622E+04  0.31858716506E+04  0.26011877536E+04 0.  0.
        5    1    3    3  502    0  0.10080263582E+04 -0.60477384580E+03 -0.16012736656E+04  0.19864460691E+04  0.46999998093E+01 0.  1.
       -5    1    3    3    0  502 -0.10080263582E+04  0.60477384580E+03 -0.23818289661E+03  0.11994255815E+04  0.46999998093E+01 0. -1.
</event>
<event>
 5   0  0.2864801E-07  0.2599309E+04  0.7818609E-02  0.8368436E-01
        1   -1    0    0  501    0  0.00000000000E+00  0.00000000000E+00  0.11339542515E+04  0.11339542515E+04  0.50400001928E-02 0. -1.
       -1   -1    0    0    0  501  0.00000000000E+00  0.00000000000E+00 -0.14895677494E+04  0.14895677494E+04  0.50400001928E-02 0.  1.
    10030    2    1    2    0    0  0.00000000000E+00  0.00000000000E+00 -0.35561349792E+03  0.26235220010E+04  0.25993088946E+04 0.  0.
        5    1    3    3  502    0 -0.66060914149E+03 -0.11035877570E+04  0.10395268128E+02  0.12862505692E+04  0.46999998093E+01 0. -1.
       -5    1    3    3    0  502  0.66060914149E+03  0.11035877570E+04 -0.36600876605E+03  0.13372714317E+04  0.46999998093E+01 0.  1.
</event>
<event>
 5   0  0.2294625E-07  0.2599932E+04  0.7818609E-02  0.8368224E-01
        3   -1    0    0  501    0  0.00000000000E+00  0.00000000000E+00  0.92259369649E+03  0.92259370202E+03  0.10100000352E+00 0. -1.
       -3   -1    0    0    0  501  0.00000000000E+00  0.00000000000E+00 -0.18316969528E+04  0.18316969556E+04  0.10100000352E+00 0.  1.
    10030    2    1    2    0    0  0.00000000000E+00  0.00000000000E+00 -0.90910325629E+03  0.27542906576E+04  0.25999323637E+04 0.  0.
        1    1    3    3  502    0 -0.34188370028E+03 -0.11354966269E+04  0.10968108977E+03  0.11909101543E+04  0.50400001928E-02 0. -1.
       -1    1    3    3    0  502  0.34188370028E+03  0.11354966269E+04 -0.10187843461E+04  0.15633805033E+04  0.50400001928E-02 0.  1.
</event>
<event>
 5   0  0.6526351E-07  0.2600419E+04  0.7818609E-02  0.8368059E-01
        2   -1    0    0  501    0  0.00000000000E+00  0.00000000000E+00  0.21262978620E+04  0.21262978620E+04  0.25500000920E-02 0.  1.
       -2   -1    0    0    0  501  0.00000000000E+00  0.00000000000E+00 -0.79506499152E+03  0.79506499152E+03  0.25500000920E-02 0. -1.
    10030    2    1    2    0    0  0.00000000000E+00  0.00000000000E+00  0.13312328704E+04  0.29213628535E+04  0.26004191905E+04 0.  0.
        3    1    3    3  502    0 -0.54117063935E+03 -0.24297397288E+03 -0.63417754409E+03  0.86837962897E+03  0.10100000352E+00 0. -1.
       -3    1    3    3    0  502  0.54117063935E+03  0.24297397288E+03  0.19654104145E+04  0.20529832245E+04  0.10100000352E+00 0.  1.
</event>
<event>
 5   0  0.2864801E-07  0.2607557E+04  0.7818609E-02  0.8365639E-01
        1   -1    0    0  501    0  0.00000000000E+00  0.00000000000E+00  0.24777367024E+04  0.24777367024E+04  0.50400001928E-02 0. -1.
       -1   -1    0    0    0  501  0.00000000000E+00  0.00000000000E+00 -0.68604496948E+03  0.68604496950E+03  0.50400001928E-02 0.  1.
    10030    2    1    2    0    0  0.00000000000E+00  0.00000000000E+00  0.17916917329E+04  0.31637816719E+04  0.26075573247E+04 0.  0.
        5    1    3    3  502    0  0.48413030051E+03  0.59684726241E+03 -0.38200190418E+03  0.85822861017E+03  0.46999998093E+01 0.  1.
       -5    1    3    3    0  502 -0.48413030051E+03 -0.59684726241E+03  0.21736936371E+04  0.23055530617E+04  0.46999998093E+01 0. -1.
</event>
<event>
 5   0  0.2864801E-07  0.2599516E+04  0.7818609E-02  0.8368366E-01
        1   -1    0    0  501    0  0.00000000000E+00  0.00000000000E+00  0.17418422707E+04  0.17418422707E+04  0.50400001928E-02 0. -1.
       -1   -1    0    0    0  501  0.00000000000E+00  0.00000000000E+00 -0.96987574564E+03  0.96987574565E+03  0.50400001928E-02 0.  1.
    10030    2    1    2    0    0  0.00000000000E+00  0.00000000000E+00  0.77196652501E+03  0.27117180163E+04  0.25995157788E+04 0.  0.
        5    1    3    3  502    0 -0.12018256136E+04 -0.45369839524E+03  0.17965463239E+03  0.12971217816E+04  0.46999998093E+01 0. -1.
       -5    1    3    3    0  502  0.12018256136E+04  0.45369839524E+03  0.59231189263E+03  0.14145962348E+04  0.46999998093E+01 0.  1.
</event>
<event>
 5   0  0.6526351E-07  0.2609655E+04  0.7818609E-02  0.8364929E-01
        2   -1    0    0  501    0  0.00000000000E+00  0.00000000000E+00  0.20609280741E+04  0.20609280741E+04  0.25500000920E-02 0.  1.
       -2   -1    0    0    0  501  0.00000000000E+00  0.00000000000E+00 -0.82612059024E+03  0.82612059024E+03  0.25500000920E-02 0. -1.
    10030    2    1    2    0    0  0.00000000000E+00  0.00000000000E+00  0.12348074838E+04  0.28870486643E+04  0.26096552393E+04 0.  0.
        3    1    3    3  502    0 -0.18400827491E+03 -0.10842117396E+04 -0.15952811033E+03  0.11112260660E+04  0.10100000352E+00 0. -1.
       -3    1    3    3    0  502  0.18400827491E+03  0.10842117396E+04  0.13943355942E+04  0.17758225984E+04  0.10100000352E+00 0.  1.
</event>
<event>
 5   0  0.7160320E-07  0.2601015E+04  0.7818609E-02  0.8367856E-01
        2   -1    0    0  501    0  0.00000000000E+00  0.00000000000E+00  0.67939048773E+03  0.67939048774E+03  0.25500000920E-02 0. -1.
       -2   -1    0    0    0  501  0.00000000000E+00  0.00000000000E+00 -0.24894665663E+04  0.24894665663E+04  0.25500000920E-02 0.  1.
    10030    2    1    2    0    0  0.00000000000E+00  0.00000000000E+00 -0.18100760786E+04  0.31688570540E+04  0.26010151131E+04 0.  0.
        1    1    3    3  502    0  0.40419746998E+03  0.25465402686E+03 -0.23786940867E+04  0.24261924545E+04  0.50400001928E-02 0.  1.
       -1    1    3    3    0  502 -0.40419746998E+03 -0.25465402686E+03  0.56861800816E+03  0.74266459951E+03  0.50400001928E-02 0. -1.
</event>
<event>
 5   0  0.6768478E-07  0.2600337E+04  0.7818609E-02  0.8368087E-01
        2   -1    0    0  501    0  0.00000000000E+00  0.00000000000E+00  0.16967468194E+04  0.16967468194E+04  0.25500000920E-02 0.  1.
       -2   -1    0    0    0  501  0.00000000000E+00  0.00000000000E+00 -0.99628208808E+03  0.99628208808E+03  0.25500000920E-02 0. -1.
    10030    2    1    2    0    0  0.00000000000E+00  0.00000000000E+00  0.70046473134E+03  0.26930289075E+04  0.26003372583E+04 0.  0.
        4    1    3    3  502    0 -0.64865054622E+03  0.94383827546E+02  0.15131023653E+04  0.16489803573E+04  0.12699999809E+01 0.  1.
       -4    1    3    3    0  502  0.64865054622E+03 -0.94383827546E+02 -0.81263763399E+03  0.10440485502E+04  0.12699999809E+01 0. -1.
</event>
<event>
 5   0  0.2793576E-07  0.2599390E+04  0.7818609E-02  0.8368408E-01
        1   -1    0    0  501    0  0.00000000000E+00  0.00000000000E+00  0.17588263291E+04  0.17588263291E+04  0.50400001928E-02 0.  1.
       -1   -1    0    0    0  501  0.00000000000E+00  0.00000000000E+00 -0.96041712563E+03  0.96041712564E+03  0.50400001928E-02 0. -1.
    10030    2    1    2    0    0  0.00000000000E+00  0.00000000000E+00  0.79840920348E+03  0.27192434548E+04  0.25993898727E+04 0.  0.
        2    1    3    3  502    0  0.73175904554E+03 -0.67966304601E+03 -0.47088703208E+03  0.11041502406E+04  0.25500000920E-02 0. -1.
       -2    1    3    3    0  502 -0.73175904554E+03  0.67966304601E+03  0.12692962356E+04  0.16150932142E+04  0.25500000920E-02 0.  1.
</event>
<event>
 5   0  0.6599814E-07  0.2598828E+04  0.7818609E-02  0.8368599E-01
        2   -1    0    0  501    0  0.00000000000E+00  0.00000000000E+00  0.18976847753E+04  0.18976847753E+04  0.25500000920E-02 0. -1.
       -2   -1    0    0    0  501  0.00000000000E+00  0.00000000000E+00 -0.88975604258E+03  0.88975604258E+03  0.25500000920E-02 0.  1.
    10030    2    1    2    0    0  0.00000000000E+00  0.00000000000E+00  0.10079287327E+04  0.27874408179E+04  0.25988278094E+04 0.  0.
        5    1    3    3  502    0  0.20167558376E+03 -0.74717963761E+03  0.16235119457E+04  0.17985448506E+04  0.46999998093E+01 0. -1.
       -5    1    3    3    0  502 -0.20167558376E+03  0.74717963761E+03 -0.61558321298E+03  0.98889596725E+03  0.46999998093E+01 0.  1.
</event>
<event>
 5   0  0.2755061E-07  0.2600150E+04  0.7818609E-02  0.8368150E-01
       -1   -1    0    0    0  501  0.00000000000E+00  0.00000000000E+00  0.93882060201E+03  0.93882060202E+03  0.50400001928E-02 0. -1.
        1   -1    0    0  501    0  0.00000000000E+00  0.00000000000E+00 -0.18003382581E+04  0.18003382581E+04  0.50400001928E-02 0.  1.
    10030    2    1    2    0    0  0.00000000000E+00  0.00000000000E+00 -0.86151765608E+03  0.27391588601E+04  0.26001497244E+04 0.  0.
        4    1    3    3  502    0 -0.41321274691E+03  0.97985535075E+03  0.35710942409E+03  0.11217798520E+04  0.12699999809E+01 0. -1.
       -4    1    3    3    0  502  0.41321274691E+03 -0.97985535075E+03 -0.12186270802E+04  0.16173790082E+04  0.12699999809E+01 0.  1.
</event>
<event>
 5   0  0.7160320E-07  0.2602487E+04  0.7818609E-02  0.8367357E-01
       -2   -1    0    0    0  501  0.00000000000E+00  0.00000000000E+00  0.10343532008E+04  0.10343532008E+04  0.25500000920E-02 0.  1.
        2   -1    0    0  501    0  0.00000000000E+00  0.00000000000E+00 -0.16369983654E+04  0.16369983654E+04  0.25500000920E-02 0. -1.
    10030    2    1    2    0    0  0.00000000000E+00  0.00000000000E+00 -0.60264516461E+03  0.26713515662E+04  0.26024868867E+04 0.  0.
        1    1    3    3  502    0  0.11107327256E+04 -0.67750224409E+03 -0.27841569701E+03  0.13305080905E+04  0.50400001928E-02 0. -1.
       -1    1    3    3    0  502 -0.11107327256E+04  0.67750224409E+03 -0.32422946760E+03  0.13408434757E+04  0.50400001928E-02 0.  1.
</event>
<event>
 5   0  0.6599814E-07  0.2600881E+04  0.7818609E-02  0.8367902E-01
        2   -1    0    0  501    0  0.00000000000E+00  0.00000000000E+00  0.26212446322E+04  0.26212446322E+04  0.25500000920E-02 0. -1.
       -2   -1    0    0    0  501  0.00000000000E+00  0.00000000000E+00 -0.64516872301E+03  0.64516872301E+03  0.25500000920E-02 0.  1.
    10030    2    1    2    0    0  0.00000000000E+00  0.00000000000E+00  0.19760759091E+04  0.32664133552E+04  0.26008806601E+04 0.  0.
        5    1    3    3  502    0  0.81035373787E+03  0.21798766290E+03  0.22356919103E+04  0.23879975313E+04  0.46999998093E+01 0. -1.
       -5    1    3    3    0  502 -0.81035373787E+03 -0.21798766290E+03 -0.25961600113E+03  0.87841582391E+03  0.46999998093E+01 0.  1.
</event>
<event>
 5   0  0.6780984E-07  0.2600264E+04  0.7818609E-02  0.8368111E-01
        2   -1    0    0  501    0  0.00000000000E+00  0.00000000000E+00  0.47432861338E+03  0.47432861338E+03  0.25500000920E-02 0.  1.
       -2   -1    0    0    0  501  0.00000000000E+00  0.00000000000E+00 -0.35636549795E+04  0.35636549795E+04  0.25500000920E-02 0. -1.
    10030    2    1    2    0    0  0.00000000000E+00  0.00000000000E+00 -0.30893263661E+04  0.40379835929E+04  0.26002642366E+04 0.  0.
        2    1    3    3  502    0  0.12738977381E+04 -0.25986164413E+03 -0.15447576260E+04  0.20190640516E+04  0.25500000920E-02 0. -1.
       -2    1    3    3    0  502 -0.12738977381E+04  0.25986164413E+03 -0.15445687401E+04  0.20189195413E+04  0.25500000920E-02 0.  1.
</event>
<event>
 5   0  0.2623263E-07  0.2600277E+04  0.7818609E-02  0.8368107E-01
       -1   -1    0    0    0  501  0.00000000000E+00  0.00000000000E+00  0.12880908659E+04  0.12880908659E+04  0.50400001928E-02 0. -1.
        1   -1    0    0  501    0  0.00000000000E+00  0.00000000000E+00 -0.13122988074E+04  0.13122988074E+04  0.50400001928E-02 0.  1.
    10030    2    1    2    0    0  0.00000000000E+00  0.00000000000E+00 -0.24207941505E+02  0.26003896734E+04  0.26002769908E+04 0.  0.
        1    1    3    3  502    0 -0.40931044051E+03  0.54605366093E+03 -0.11187911950E+04  0.13104973770E+04  0.50400001928E-02 0.  1.
       -1    1    3    3    0  502  0.40931044051E+03 -0.54605366093E+03  0.10945832534E+04  0.12898922963E+04  0.50400001928E-02 0. -1.
</event>
<event>
 5   0  0.2755061E-07  0.2599610E+04  0.7818609E-02  0.8368334E-01
        1   -1    0    0  501    0  0.00000000000E+00  0.00000000000E+00  0.85742987648E+03  0.85742987650E+03  0.50400001928E-02 0.  1.
       -1   -1    0    0    0  501  0.00000000000E+00  0.00000000000E+00 -0.19704147132E+04  0.19704147132E+04  0.50400001928E-02 0. -1.
    10030    2    1    2    0    0  0.00000000000E+00  0.00000000000E+00 -0.11129848367E+04  0.28278445897E+04  0.25996095431E+04 0.  0.
        4    1    3    3  502    0  0.42924687353E+03 -0.10152114351E+04  0.19289055664E+03  0.11189796763E+04  0.12699999809E+01 0.  1.
       -4    1    3    3    0  502 -0.42924687353E+03  0.10152114351E+04 -0.13058753934E+04  0.17088649134E+04  0.12699999809E+01 0. -1.
</event>
<event>
 5   0  0.6780984E-07  0.2596807E+04  0.7818609E-02  0.8369287E-01
       -2   -1    0    0    0  501  0.00000000000E+00  0.00000000000E+00  0.10642681865E+04  0.10642681865E+04  0.25500000920E-02 0. -1.
        2   -1    0    0  501    0  0.00000000000E+00  0.00000000000E+00 -0.15840479989E+04  0.15840479989E+04  0.25500000920E-02 0.  1.
    10030    2    1    2    0    0  0.00000000000E+00  0.00000000000E+00 -0.51977981233E+03  0.26483161854E+04  0.25968071866E+04 0.  0.
        2    1    3    3  502    0 -0.89425699569E+03  0.33568770325E+03  0.63702633964E+03  0.11481221041E+04  0.25500000920E-02 0.  1.
       -2    1    3    3    0  502  0.89425699569E+03 -0.33568770325E+03 -0.11568061520E+04  0.15001940813E+04  0.25500000920E-02 0. -1.
</event>
<event>
 5   0  0.6599814E-07  0.2599968E+04  0.7818609E-02  0.8368212E-01
       -2   -1    0    0    0  501  0.00000000000E+00  0.00000000000E+00  0.97729456830E+03  0.97729456830E+03  0.25500000920E-02 0.  1.
        2   -1    0    0  501    0  0.00000000000E+00  0.00000000000E+00 -0.17292208941E+04  0.17292208941E+04  0.25500000920E-02 0. -1.
    10030    2    1    2    0    0  0.00000000000E+00  0.00000000000E+00 -0.75192632582E+03  0.27065154624E+04  0.25999678361E+04 0.  0.
        5    1    3    3  502    0  0.13729626024E+03  0.63280077189E+03  0.79746184501E+03  0.10272558417E+04  0.46999998093E+01 0.  1.
       -5    1    3    3    0  502 -0.13729626024E+03 -0.63280077189E+03 -0.15493881708E+04  0.16792596208E+04  0.46999998093E+01 0. -1.
</event>
<event>
 5   0  0.2755061E-07  0.2599927E+04  0.7818609E-02  0.8368226E-01
       -1   -1    0    0    0  501  0.00000000000E+00  0.00000000000E+00  0.17467373549E+04  0.17467373549E+04  0.50400001928E-02 0. -1.
        1   -1    0    0  501    0  0.00000000000E+00  0.00000000000E+00 -0.96746343214E+03  0.96746343216E+03  0.50400001928E-02 0.  1.
    10030    2    1    2    0    0  0.00000000000E+00  0.00000000000E+00  0.77927392275E+03  0.27142007871E+04  0.25999265501E+04 0.  0.
        4    1    3    3  502    0 -0.75376595021E+03  0.10456168696E+04  0.21362899083E+03  0.13065667623E+04  0.12699999809E+01 0. -1.
       -4    1    3    3    0  502  0.75376595021E+03 -0.10456168696E+04  0.56564493192E+03  0.14076340248E+04  0.12699999809E+01 0.  1.
</event>
<event>
 5   0  0.2793576E-07  0.2599132E+04  0.7818609E-02  0.8368496E-01
       -1   -1    0    0    0  501  0.00000000000E+00  0.00000000000E+00  0.85149076206E+03  0.85149076207E+03  0.50400001928E-02 0. -1.
        1   -1    0    0  501    0  0.00000000000E+00  0.00000000000E+00 -0.19834289554E+04  0.19834289554E+04  0.50400001928E-02 0.  1.
    10030    2    1    2    0    0  0.00000000000E+00  0.00000000000E+00 -0.11319381934E+04  0.28349197175E+04  0.25991317264E+04 0.  0.
        2    1    3    3  502    0 -0.26613169987E+03  0.11624435267E+04 -0.11293229803E+04  0.16423980725E+04  0.25500000920E-02 0.  1.
       -2    1    3    3    0  502  0.26613169987E+03 -0.11624435267E+04 -0.26152130279E+01  0.11925216450E+04  0.25500000920E-02 0. -1.
</event>
<event>
 5   0  0.6768478E-07  0.2600514E+04  0.7818609E-02  0.8368027E-01
       -2   -1    0    0    0  501  0.00000000000E+00  0.00000000000E+00  0.12597887629E+04  0.12597887629E+04  0.25500000920E-02 0. -1.
        2   -1    0    0  501    0  0.00000000000E+00  0.00000000000E+00 -0.13420251317E+04  0.13420251317E+04  0.25500000920E-02 0.  1.
    10030    2    1    2    0    0  0.00000000000E+00  0.00000000000E+00 -0.82236368783E+02  0.26018138947E+04  0.26005139342E+04 0.  0.
        4    1    3    3  502    0  0.75312596502E+03 -0.96277096580E+02  0.10149655206E+04  0.12675269699E+04  0.12699999809E+01 0. -1.
       -4    1    3    3    0  502 -0.75312596502E+03  0.96277096580E+02 -0.10972018894E+04  0.13342869247E+04  0.12699999809E+01 0.  1.
</event>
<event>
 5   0  0.2294625E-07  0.2610752E+04  0.7818609E-02  0.8364558E-01
        3   -1    0    0  501    0  0.00000000000E+00  0.00000000000E+00  0.16084351763E+04  0.16084351795E+04  0.10100000352E+00 0. -1.
       -3   -1    0    0    0  501  0.00000000000E+00  0.00000000000E+00 -0.10594187248E+04  0.10594187296E+04  0.10100000352E+00 0.  1.
    10030    2    1    2    0    0  0.00000000000E+00  0.00000000000E+00  0.54901645147E+03  0.26678539091E+04  0.26107518871E+04 0.  0.
        2    1    3    3  502    0 -0.10174094269E+03  0.43246743303E+03  0.15288021665E+04  0.15920475383E+04  0.25500000920E-02 0. -1.
       -2    1    3    3    0  502  0.10174094269E+03 -0.43246743303E+03 -0.97978571499E+03  0.10758063708E+04  0.25500000920E-02 0.  1.
</event>
<event>
 5   0  0.6768478E-07  0.2610376E+04  0.7818609E-02  0.8364685E-01
        2   -1    0    0  501    0  0.00000000000E+00  0.00000000000E+00  0.13860670463E+04  0.13860670463E+04  0.25500000920E-02 0.  1.
       -2   -1    0    0    0  501  0.00000000000E+00  0.00000000000E+00 -0.12290284744E+04  0.12290284744E+04  0.25500000920E-02 0. -1.
    10030    2    1    2    0    0  0.00000000000E+00  0.00000000000E+00  0.15703857191E+03  0.26150955207E+04  0.26103761165E+04 0.  0.
        4    1    3    3  502    0  0.12766157449E+03  0.46120530777E+03  0.12950072226E+04  0.13805988313E+04  0.12699999809E+01 0.  1.
       -4    1    3    3    0  502 -0.12766157449E+03 -0.46120530777E+03 -0.11379686507E+04  0.12344966895E+04  0.12699999809E+01 0. -1.
</event>
<event>
 5   0  0.6768478E-07  0.2599167E+04  0.7818609E-02  0.8368484E-01
        2   -1    0    0  501    0  0.00000000000E+00  0.00000000000E+00  0.97443635008E+03  0.97443635008E+03  0.25500000920E-02 0.  1.
       -2   -1    0    0    0  501  0.00000000000E+00  0.00000000000E+00 -0.17332249288E+04  0.17332249289E+04  0.25500000920E-02 0. -1.
    10030    2    1    2    0    0  0.00000000000E+00  0.00000000000E+00 -0.75878857877E+03  0.27076612789E+04  0.25991670770E+04 0.  0.
        4    1    3    3  502    0  0.67604869355E+03  0.45318741008E+03  0.67605792772E+03  0.10580532119E+04  0.12699999809E+01 0.  1.
       -4    1    3    3    0  502 -0.67604869355E+03 -0.45318741008E+03 -0.14348465065E+04  0.16496080670E+04  0.12699999809E+01 0. -1.
</event>
<event>
 5   0  0.6526351E-07  0.2599459E+04  0.7818609E-02  0.8368385E-01
       -2   -1    0    0    0  501  0.00000000000E+00  0.00000000000E+00  0.10987802412E+04  0.10987802412E+04  0.25500000920E-02 0.  1.
        2   -1    0    0  501    0  0.00000000000E+00  0.00000000000E+00 -0.15374291353E+04  0.15374291353E+04  0.25500000920E-02 0. -1.
    10030    2    1    2    0    0  0.00000000000E+00  0.00000000000E+00 -0.43864889411E+03  0.26362093765E+04  0.25994589868E+04 0.  0.
        3    1    3    3  502    0 -0.65827191233E+03  0.92980570224E+03 -0.85381830044E+03  0.14236805312E+04  0.10100000352E+00 0. -1.
       -3    1    3    3    0  502  0.65827191233E+03 -0.92980570224E+03  0.41516940633E+03  0.12125288453E+04  0.10100000352E+00 0.  1.
</event>
<event>
 5   0  0.2793576E-07  0.2600523E+04  0.7818609E-02  0.8368023E-01
       -1   -1    0    0    0  501  0.00000000000E+00  0.00000000000E+00  0.14099964481E+04  0.14099964481E+04  0.50400001928E-02 0.  1.
        1   -1    0    0  501    0  0.00000000000E+00  0.00000000000E+00 -0.11990672551E+04  0.11990672551E+04  0.50400001928E-02 0. -1.
    10030    2    1    2    0    0  0.00000000000E+00  0.00000000000E+00  0.21092919300E+03  0.26090637032E+04  0.26005234633E+04 0.  0.
        2    1    3    3  502    0 -0.12064819381E+03  0.91931876195E+03 -0.80910880035E+03  0.12305933624E+04  0.25500000920E-02 0. -1.
       -2    1    3    3    0  502  0.12064819381E+03 -0.91931876195E+03  0.10200379933E+04  0.13784703409E+04  0.25500000920E-02 0.  1.
</event>
<event>
 5   0  0.2623263E-07  0.2583477E+04  0.7818609E-02  0.8373835E-01
        1   -1    0    0  501    0  0.00000000000E+00  0.00000000000E+00  0.16243320505E+04  0.16243320506E+04  0.50400001928E-02 0.  1.
       -1   -1    0    0    0  501  0.00000000000E+00  0.00000000000E+00 -0.10272457697E+04  0.10272457697E+04  0.50400001928E-02 0. -1.
    10030    2    1    2    0    0  0.00000000000E+00  0.00000000000E+00  0.59708628083E+03  0.26515778203E+04  0.25834769034E+04 0.  0.
        1    1    3    3  502    0 -0.64641421268E+03 -0.92649085632E+03  0.94143436956E+03  0.14705561239E+04  0.50400001928E-02 0.  1.
       -1    1    3    3    0  502  0.64641421268E+03  0.92649085632E+03 -0.34434808873E+03  0.11810216964E+04  0.50400001928E-02 0. -1.
</event>
<event>
 5   0  0.2864801E-07  0.2599593E+04  0.7818609E-02  0.8368340E-01
       -1   -1    0    0    0  501  0.00000000000E+00  0.00000000000E+00  0.11027188548E+04  0.11027188548E+04  0.50400001928E-02 0.  1.
        1   -1    0    0  501    0  0.00000000000E+00  0.00000000000E+00 -0.15320955994E+04  0.15320955994E+04  0.50400001928E-02 0. -1.
    10030    2    1    2    0    0  0.00000000000E+00  0.00000000000E+00 -0.42937674466E+03  0.26348144542E+04  0.25995928180E+04 0.  0.
        5    1    3    3  502    0 -0.66331612440E+02 -0.19612359978E+03  0.10858904840E+04  0.11054612532E+04  0.46999998093E+01 0.  1.
       -5    1    3    3    0  502  0.66331612440E+02  0.19612359978E+03 -0.15152672286E+04  0.15293532010E+04  0.46999998093E+01 0. -1.
</event>
<event>
 5   0  0.7160320E-07  0.2600520E+04  0.7818609E-02  0.8368025E-01
       -2   -1    0    0    0  501  0.00000000000E+00  0.00000000000E+00  0.13964030908E+04  0.13964030908E+04  0.25500000920E-02 0. -1.
        2   -1    0    0  501    0  0.00000000000E+00  0.00000000000E+00 -0.12107364524E+04  0.12107364524E+04  0.25500000920E-02 0.  1.
    10030    2    1    2    0    0  0.00000000000E+00  0.00000000000E+00  0.18566663847E+03  0.26071395432E+04  0.26005200436E+04 0.  0.
        1    1    3    3  502    0  0.67995873609E+03 -0.82106951485E+03 -0.65349231117E+03  0.12504204220E+04  0.50400001928E-02 0.  1.
       -1    1    3    3    0  502 -0.67995873609E+03  0.82106951485E+03  0.83915894964E+03  0.13567191212E+04  0.50400001928E-02 0. -1.
</event>
<event>
 5   0  0.6599814E-07  0.2599601E+04  0.7818609E-02  0.8368337E-01
       -2   -1    0    0    0  501  0.00000000000E+00  0.00000000000E+00  0.76388926742E+03  0.76388926743E+03  0.25500000920E-02 0. -1.
        2   -1    0    0  501    0  0.00000000000E+00  0.00000000000E+00 -0.22116831232E+04  0.22116831232E+04  0.25500000920E-02 0.  1.
    10030    2    1    2    0    0  0.00000000000E+00  0.00000000000E+00 -0.14477938557E+04  0.29755723906E+04  0.25996007391E+04 0.  0.
        5    1    3    3  502    0  0.81168231329E+03 -0.87924245117E+03 -0.13048030872E+04  0.17704317699E+04  0.46999998093E+01 0.  1.
       -5    1    3    3    0  502 -0.81168231329E+03  0.87924245117E+03 -0.14299076854E+03  0.12051406206E+04  0.46999998093E+01 0. -1.
</event>
<event>
 5   0  0.6768478E-07  0.2600033E+04  0.7818609E-02  0.8368190E-01
        2   -1    0    0  501    0  0.00000000000E+00  0.00000000000E+00  0.22007722076E+04  0.22007722076E+04  0.25500000920E-02 0. -1.
       -2   -1    0    0    0  501  0.00000000000E+00  0.00000000000E+00 -0.76793160888E+03  0.76793160889E+03  0.25500000920E-02 0.  1.
    10030    2    1    2    0    0  0.00000000000E+00  0.00000000000E+00  0.14328405987E+04  0.29687038165E+04  0.26000327245E+04 0.  0.
        4    1    3    3  502    0 -0.62912783706E+03 -0.44463584887E+03 -0.47921825558E+03  0.90727869084E+03  0.12699999809E+01 0.  1.
       -4    1    3    3    0  502  0.62912783706E+03  0.44463584887E+03  0.19120588543E+04  0.20614251256E+04  0.12699999809E+01 0. -1.
</event>
<event>
 5   0  0.2864801E-07  0.2600412E+04  0.7818609E-02  0.8368061E-01
       -1   -1    0    0    0  501  0.00000000000E+00  0.00000000000E+00  0.10041346182E+04  0.10041346182E+04  0.50400001928E-02 0.  1.
        1   -1    0    0  501    0  0.00000000000E+00  0.00000000000E+00 -0.16835744302E+04  0.16835744302E+04  0.50400001928E-02 0. -1.
    10030    2    1    2    0    0  0.00000000000E+00  0.00000000000E+00 -0.67943981196E+03  0.26877090484E+04  0.26004117887E+04 0.  0.
        5    1    3    3  502    0 -0.85147428597E+03 -0.66587959249E+03  0.40710844201E+03  0.11550599400E+04  0.46999998093E+01 0.  1.
       -5    1    3    3    0  502  0.85147428597E+03  0.66587959249E+03 -0.10865482540E+04  0.15326491084E+04  0.46999998093E+01 0. -1.
</event>
<event>
 5   0  0.2623263E-07  0.2599645E+04  0.7818609E-02  0.8368322E-01
        1   -1    0    0  501    0  0.00000000000E+00  0.00000000000E+00  0.19867771815E+04  0.19867771815E+04  0.50400001928E-02 0. -1.
       -1   -1    0    0    0  501  0.00000000000E+00  0.00000000000E+00 -0.85039154423E+03  0.85039154425E+03  0.50400001928E-02 0.  1.
    10030    2    1    2    0    0  0.00000000000E+00  0.00000000000E+00  0.11363856373E+04  0.28371687258E+04  0.25996449876E+04 0.  0.
        1    1    3    3  502    0  0.32315349056E+03  0.48238376406E+03  0.18373818459E+04  0.19269391070E+04  0.50400001928E-02 0. -1.
       -1    1    3    3    0  502 -0.32315349056E+03 -0.48238376406E+03 -0.70099620866E+03  0.91022961876E+03  0.50400001928E-02 0.  1.
</event>
<event>
 5   0  0.2793576E-07  0.2599825E+04  0.7818609E-02  0.8368261E-01
       -1   -1    0    0    0  501  0.00000000000E+00  0.00000000000E+00  0.16269122709E+04  0.16269122710E+04  0.50400001928E-02 0. -1.
        1   -1    0    0  501    0  0.00000000000E+00  0.00000000000E+00 -0.10386377174E+04  0.10386377174E+04  0.50400001928E-02 0.  1.
    10030    2    1    2    0    0  0.00000000000E+00  0.00000000000E+00  0.58827455358E+03  0.26655499883E+04  0.25998249537E+04 0.  0.
        2    1    3    3  502    0 -0.83923412199E+03 -0.98613309375E+03  0.17723704881E+03  0.13069756545E+04  0.25500000920E-02 0. -1.
       -2    1    3    3    0  502  0.83923412199E+03  0.98613309375E+03  0.41103750477E+03  0.13585743338E+04  0.25500000920E-02 0.  1.
</event>
<event>
 5   0  0.2793576E-07  0.2600252E+04  0.7818609E-02  0.8368115E-01
       -1   -1    0    0    0  501  0.00000000000E+00  0.00000000000E+00  0.82069085922E+03  0.82069085923E+03  0.50400001928E-02 0.  1.
        1   -1    0    0  501    0  0.00000000000E+00  0.00000000000E+00 -0.20596406276E+04  0.20596406276E+04  0.50400001928E-02 0. -1.
    10030    2    1    2    0    0  0.00000000000E+00  0.00000000000E+00 -0.12389497683E+04  0.28803314868E+04  0.26002524772E+04 0.  0.
        2    1    3    3  502    0  0.29105287366E+03 -0.51989203100E+02 -0.20219075144E+04  0.20434100541E+04  0.25500000920E-02 0. -1.
       -2    1    3    3    0  502 -0.29105287366E+03  0.51989203100E+02  0.78295774601E+03  0.83692143272E+03  0.25500000920E-02 0.  1.
</event>
<event>
 5   0  0.2864801E-07  0.2599353E+04  0.7818609E-02  0.8368421E-01
       -1   -1    0    0    0  501  0.00000000000E+00  0.00000000000E+00  0.97132796385E+03  0.97132796386E+03  0.50400001928E-02 0.  1.
        1   -1    0    0  501    0  0.00000000000E+00  0.00000000000E+00 -0.17390208562E+04  0.17390208562E+04  0.50400001928E-02 0. -1.
    10030    2    1    2    0    0  0.00000000000E+00  0.00000000000E+00 -0.76769289239E+03  0.27103488201E+04  0.25993534484E+04 0.  0.
        5    1    3    3  502    0  0.87551522429E+03  0.95819348288E+03 -0.31408795639E+03  0.13354156630E+04  0.46999998093E+01 0.  1.
       -5    1    3    3    0  502 -0.87551522429E+03 -0.95819348288E+03 -0.45360493600E+03  0.13749331571E+04  0.46999998093E+01 0. -1.
</event>
<event>
 5   0  0.7160320E-07  0.2600203E+04  0.7818609E-02  0.8368132E-01
       -2   -1    0    0    0  501  0.00000000000E+00  0.00000000000E+00  0.10922876531E+04  0.10922876531E+04  0.25500000920E-02 0.  1.
        2   -1    0    0  501    0  0.00000000000E+00  0.00000000000E+00 -0.15474529128E+04  0.15474529128E+04  0.25500000920E-02 0. -1.
    10030    2    1    2    0    0  0.00000000000E+00  0.00000000000E+00 -0.45516525971E+03  0.26397405659E+04  0.26002028462E+04 0.  0.
        1    1    3    3  502    0  0.37446082156E+03 -0.58924558462E+03 -0.13409963896E+04  0.15118540217E+04  0.50400001928E-02 0. -1.
       -1    1    3    3    0  502 -0.37446082156E+03  0.58924558462E+03  0.88583112990E+03  0.11278865442E+04  0.50400001928E-02 0.  1.
</event>
<event>
 5   0  0.2755061E-07  0.2594360E+04  0.7818609E-02  0.8370120E-01
       -1   -1    0    0    0  501  0.00000000000E+00  0.00000000000E+00  0.10983084351E+04  0.10983084351E+04  0.50400001928E-02 0. -1.
        1   -1    0    0  501    0  0.00000000000E+00  0.00000000000E+00 -0.15320612847E+04  0.15320612847E+04  0.50400001928E-02 0.  1.
    10030    2    1    2    0    0  0.00000000000E+00  0.00000000000E+00 -0.43375284957E+03  0.26303697198E+04  0.25943599073E+04 0.  0.
        4    1    3    3  502    0 -0.16104989630E+03 -0.42396357380E+03  0.10153078140E+04  0.11119953916E+04  0.12699999809E+01 0. -1.
       -4    1    3    3    0  502  0.16104989630E+03  0.42396357380E+03 -0.14490606635E+04  0.15183743282E+04  0.12699999809E+01 0.  1.
</event>
<event>
 5   0  0.2623263E-07  0.2598563E+04  0.7818609E-02  0.8368689E-01
        1   -1    0    0  501    0  0.00000000000E+00  0.00000000000E+00  0.17681219709E+04  0.17681219709E+04  0.50400001928E-02 0.  1.
       -1   -1    0    0    0  501  0.00000000000E+00  0.00000000000E+00 -0.95476026288E+03  0.95476026289E+03  0.50400001928E-02 0. -1.
    10030    2    1    2    0    0  0.00000000000E+00  0.00000000000E+00  0.81336170800E+03  0.27228822338E+04  0.25985631397E+04 0.  0.
        1    1    3    3  502    0  0.64093368815E+03 -0.11258786746E+04  0.30330070948E+03  0.13305600711E+04  0.50400001928E-02 0. -1.
       -1    1    3    3    0  502 -0.64093368815E+03  0.11258786746E+04  0.51006099853E+03  0.13923221627E+04  0.50400001928E-02 0.  1.
</event>
<event>
 5   0  0.6768478E-07  0.2600402E+04  0.7818609E-02  0.8368065E-01
       -2   -1    0    0    0  501  0.00000000000E+00  0.00000000000E+00  0.78691723528E+03  0.78691723528E+03  0.25500000920E-02 0. -1.
        2   -1    0    0  501    0  0.00000000000E+00  0.00000000000E+00 -0.21482847120E+04  0.21482847120E+04  0.25500000920E-02 0.  1.
    10030    2    1    2    0    0  0.00000000000E+00  0.00000000000E+00 -0.13613674767E+04  0.29352019473E+04  0.26004017121E+04 0.  0.
        4    1    3    3  502    0  0.86140261112E+03 -0.16026103743E+02  0.41847096446E+03  0.95780522834E+03  0.12699999809E+01 0. -1.
       -4    1    3    3    0  502 -0.86140261112E+03  0.16026103743E+02 -0.17798384412E+04  0.19773967189E+04  0.12699999809E+01 0.  1.
</event>
<event>
 5   0  0.2864801E-07  0.2599493E+04  0.7818609E-02  0.8368374E-01
       -1   -1    0    0    0  501  0.00000000000E+00  0.00000000000E+00  0.92054563638E+03  0.92054563639E+03  0.50400001928E-02 0.  1.
        1   -1    0    0  501    0  0.00000000000E+00  0.00000000000E+00 -0.18351512999E+04  0.18351512999E+04  0.50400001928E-02 0. -1.
    10030    2    1    2    0    0  0.00000000000E+00  0.00000000000E+00 -0.91460566354E+03  0.27556969363E+04  0.25994926592E+04 0.  0.
        5    1    3    3  502    0  0.36650998995E+03 -0.25175777289E+03  0.83739984924E+03  0.94814141690E+03  0.46999998093E+01 0.  1.
       -5    1    3    3    0  502 -0.36650998995E+03  0.25175777289E+03 -0.17520055128E+04  0.18075555194E+04  0.46999998093E+01 0. -1.
</event>
<event>
 5   0  0.2864801E-07  0.2601554E+04  0.7818609E-02  0.8367674E-01
       -1   -1    0    0    0  501  0.00000000000E+00  0.00000000000E+00  0.10466655687E+04  0.10466655687E+04  0.50400001928E-02 0. -1.
        1   -1    0    0  501    0  0.00000000000E+00  0.00000000000E+00 -0.16165815153E+04  0.16165815153E+04  0.50400001928E-02 0.  1.
    10030    2    1    2    0    0  0.00000000000E+00  0.00000000000E+00 -0.56991594662E+03  0.26632470840E+04  0.26015535444E+04 0.  0.
        5    1    3    3  502    0  0.20238739609E+03 -0.36402932926E+03 -0.15464629416E+04  0.16015766389E+04  0.46999998093E+01 0.  1.
       -5    1    3    3    0  502 -0.20238739609E+03  0.36402932926E+03  0.97654699495E+03  0.10616704451E+04  0.46999998093E+01 0. -1.
</event>
<event>
 5   0  0.2793576E-07  0.2600607E+04  0.7818609E-02  0.8367995E-01
       -1   -1    0    0    0  501  0.00000000000E+00  0.00000000000E+00  0.77259287749E+03  0.77259287751E+03  0.50400001928E-02 0. -1.
        1   -1    0    0  501    0  0.00000000000E+00  0.00000000000E+00 -0.21884611794E+04  0.21884611794E+04  0.50400001928E-02 0.  1.
    10030    2    1    2    0    0  0.00000000000E+00  0.00000000000E+00 -0.14158683019E+04  0.29610540569E+04  0.26006072521E+04 0.  0.
        2    1    3    3  502    0  0.10531186968E+04 -0.52138864579E+03 -0.13417621659E+04  0.17836005212E+04  0.25500000920E-02 0.  1.
       -2    1    3    3    0  502 -0.10531186968E+04  0.52138864579E+03 -0.74106136063E+02  0.11774535357E+04  0.25500000920E-02 0. -1.
</event>
<event>
 5   0  0.7160320E-07  0.2600422E+04  0.7818609E-02  0.8368058E-01
        2   -1    0    0  501    0  0.00000000000E+00  0.00000000000E+00  0.13808510880E+04  0.13808510880E+04  0.25500000920E-02 0.  1.
       -2   -1    0    0    0  501  0.00000000000E+00  0.00000000000E+00 -0.12242801716E+04  0.12242801716E+04  0.25500000920E-02 0. -1.
    10030    2    1    2    0    0  0.00000000000E+00  0.00000000000E+00  0.15657091642E+03  0.26051312596E+04  0.26004219711E+04 0.  0.
        1    1    3    3  502    0  0.70322757204E+03  0.18817878549E+03  0.11575517811E+04  0.13674305830E+04  0.50400001928E-02 0.  1.
       -1    1    3    3    0  502 -0.70322757204E+03 -0.18817878549E+03 -0.10009808647E+04  0.12377006766E+04  0.50400001928E-02 0. -1.
</event>
<event>
 5   0  0.2755061E-07  0.2597965E+04  0.7818609E-02  0.8368893E-01
       -1   -1    0    0    0  501  0.00000000000E+00  0.00000000000E+00  0.13908071638E+04  0.13908071638E+04  0.50400001928E-02 0.  1.
        1   -1    0    0  501    0  0.00000000000E+00  0.00000000000E+00 -0.12132204943E+04  0.12132204943E+04  0.50400001928E-02 0. -1.
    10030    2    1    2    0    0  0.00000000000E+00  0.00000000000E+00  0.17758666948E+03  0.26040276581E+04  0.25979651690E+04 0.  0.
        4    1    3    3  502    0  0.10317786926E+04 -0.87052131573E+02  0.87497613307E+03  0.13556290756E+04  0.12699999809E+01 0.  1.
       -4    1    3    3    0  502 -0.10317786926E+04  0.87052131573E+02 -0.69738946359E+03  0.12483985826E+04  0.12699999809E+01 0. -1.
</event>
<event>
 5   0  0.7160320E-07  0.2600325E+04  0.7818609E-02  0.8368091E-01
       -2   -1    0    0    0  501  0.00000000000E+00  0.00000000000E+00  0.90966303220E+03  0.90966303221E+03  0.25500000920E-02 0. -1.
        2   -1    0    0  501    0  0.00000000000E+00  0.00000000000E+00 -0.18582950781E+04  0.18582950781E+04  0.25500000920E-02 0.  1.
    10030    2    1    2    0    0  0.00000000000E+00  0.00000000000E+00 -0.94863204590E+03  0.27679581103E+04  0.26003248532E+04 0.  0.
        1    1    3    3  502    0 -0.78394356852E+02  0.63230531083E+03 -0.16807215647E+04  0.17974372477E+04  0.50400001928E-02 0.  1.
       -1    1    3    3    0  502  0.78394356852E+02 -0.63230531083E+03  0.73208951878E+03  0.97052086264E+03  0.50400001928E-02 0. -1.
</event>
<event>
 5   0  0.6526351E-07  0.2599670E+04  0.7818609E-02  0.8368313E-01
        2   -1    0    0  501    0  0.00000000000E+00  0.00000000000E+00  0.10353466496E+04  0.10353466496E+04  0.25500000920E-02 0. -1.
       -2   -1    0    0    0  501  0.00000000000E+00  0.00000000000E+00 -0.16318891191E+04  0.16318891191E+04  0.25500000920E-02 0.  1.
    10030    2    1    2    0    0  0.00000000000E+00  0.00000000000E+00 -0.59654246947E+03  0.26672357688E+04  0.25996699268E+04 0.  0.
        3    1    3    3  502    0 -0.40812507433E+03 -0.12636717221E+03 -0.15577911422E+04  0.16153166846E+04  0.10100000352E+00 0.  1.
       -3    1    3    3    0  502  0.40812507433E+03  0.12636717221E+03  0.96124867277E+03  0.10519190842E+04  0.10100000352E+00 0. -1.
</event>
<event>
 5   0  0.6526351E-07  0.2600201E+04  0.7818609E-02  0.8368133E-01
        2   -1    0    0  501    0  0.00000000000E+00  0.00000000000E+00  0.12573670554E+04  0.12573670554E+04  0.25500000920E-02 0. -1.
       -2   -1    0    0    0  501  0.00000000000E+00  0.00000000000E+00 -0.13442865618E+04  0.13442865618E+04  0.25500000920E-02 0.  1.
    10030    2    1    2    0    0  0.00000000000E+00  0.00000000000E+00 -0.86919506399E+02  0.26016536171E+04  0.26002012505E+04 0.  0.
        3    1    3    3  502    0  0.98885913514E+03  0.10925862913E+03  0.79395563247E+03  0.12728493209E+04  0.10100000352E+00 0. -1.
       -3    1    3    3    0  502 -0.98885913514E+03 -0.10925862913E+03 -0.88087513887E+03  0.13288042962E+04  0.10100000352E+00 0.  1.
</event>
<event>
 5   0  0.2623263E-07  0.2599774E+04  0.7818609E-02  0.8368278E-01
        1   -1    0    0  501    0  0.00000000000E+00  0.00000000000E+00  0.10292911486E+04  0.10292911486E+04  0.50400001928E-02 0. -1.
       -1   -1    0    0    0  501  0.00000000000E+00  0.00000000000E+00 -0.16416212307E+04  0.16416212307E+04  0.50400001928E-02 0.  1.
    10030    2    1    2    0    0  0.00000000000E+00  0.00000000000E+00 -0.61233008209E+03  0.26709123793E+04  0.25997739918E+04 0.  0.
        1    1    3    3  502    0  0.12422414729E+04  0.38166218902E+03 -0.27575268402E+03  0.13284838901E+04  0.50400001928E-02 0.  1.
       -1    1    3    3    0  502 -0.12422414729E+04 -0.38166218902E+03 -0.33657739808E+03  0.13424284891E+04  0.50400001928E-02 0. -1.
</event>
<event>
 5   0  0.2864801E-07  0.2600041E+04  0.7818609E-02  0.8368187E-01
        1   -1    0    0  501    0  0.00000000000E+00  0.00000000000E+00  0.18950249330E+04  0.18950249330E+04  0.50400001928E-02 0. -1.
       -1   -1    0    0    0  501  0.00000000000E+00  0.00000000000E+00 -0.89183706068E+03  0.89183706069E+03  0.50400001928E-02 0.  1.
    10030    2    1    2    0    0  0.00000000000E+00  0.00000000000E+00  0.10031878724E+04  0.27868619937E+04  0.26000411275E+04 0.  0.
        5    1    3    3  502    0 -0.61730034025E+03 -0.65933387127E+03  0.15037911543E+04  0.17541923468E+04  0.46999998093E+01 0. -1.
       -5    1    3    3    0  502  0.61730034025E+03  0.65933387127E+03 -0.50060328190E+03  0.10326696470E+04  0.46999998093E+01 0.  1.
</event>
<event>
 5   0  0.6526351E-07  0.2600225E+04  0.7818609E-02  0.8368125E-01
        2   -1    0    0  501    0  0.00000000000E+00  0.00000000000E+00  0.18224982147E+04  0.18224982147E+04  0.25500000920E-02 0. -1.
       -2   -1    0    0    0  501  0.00000000000E+00  0.00000000000E+00 -0.92745913440E+03  0.92745913440E+03  0.25500000920E-02 0.  1.
    10030    2    1    2    0    0  0.00000000000E+00  0.00000000000E+00  0.89503908026E+03  0.27499573491E+04  0.26002250800E+04 0.  0.
        3    1    3    3  502    0 -0.46163424929E+03  0.69132549071E+03  0.15047101262E+04  0.17190665165E+04  0.10100000352E+00 0. -1.
       -3    1    3    3    0  502  0.46163424929E+03 -0.69132549071E+03 -0.60967104590E+03  0.10308908325E+04  0.10100000352E+00 0.  1.
</event>
<event>
 5   0  0.2864801E-07  0.2599573E+04  0.7818609E-02  0.8368346E-01
        1   -1    0    0  501    0  0.00000000000E+00  0.00000000000E+00  0.13955617497E+04  0.13955617497E+04  0.50400001928E-02 0. -1.
       -1   -1    0    0    0  501  0.00000000000E+00  0.00000000000E+00 -0.12105840453E+04  0.12105840453E+04  0.50400001928E-02 0.  1.
    10030    2    1    2    0    0  0.00000000000E+00  0.00000000000E+00  0.18497770442E+03  0.26061457949E+04  0.25995728790E+04 0.  0.
        5    1    3    3  502    0 -0.10565715264E+04  0.49860755617E+03 -0.47857393344E+03  0.12625402905E+04  0.46999998093E+01 0.  1.
       -5    1    3    3    0  502  0.10565715264E+04 -0.49860755617E+03  0.66355163787E+03  0.13436055044E+04  0.46999998093E+01 0. -1.
</event>
<event>
 5   0  0.6780984E-07  0.2604564E+04  0.7818609E-02  0.8366653E-01
       -2   -1    0    0    0  501  0.00000000000E+00  0.00000000000E+00  0.70276063581E+03  0.70276063581E+03  0.25500000920E-02 0.  1.
        2   -1    0    0  501    0  0.00000000000E+00  0.00000000000E+00 -0.24132518700E+04  0.24132518700E+04  0.25500000920E-02 0. -1.
    10030    2    1    2    0    0  0.00000000000E+00  0.00000000000E+00 -0.17104912342E+04  0.31160125058E+04  0.26045640085E+04 0.  0.
        2    1    3    3  502    0 -0.70919685537E+03  0.94987485411E+03 -0.21018782663E+03  0.12039108524E+04  0.25500000920E-02 0.  1.
       -2    1    3    3    0  502  0.70919685537E+03 -0.94987485411E+03 -0.15003034076E+04  0.19121016534E+04  0.25500000920E-02 0. -1.
</event>
<event>
 5   0  0.2641626E-07  0.2600351E+04  0.7818609E-02  0.8368082E-01
        1   -1    0    0  501    0  0.00000000000E+00  0.00000000000E+00  0.15687483588E+04  0.15687483588E+04  0.50400001928E-02 0.  1.
       -1   -1    0    0    0  501  0.00000000000E+00  0.00000000000E+00 -0.10775829230E+04  0.10775829231E+04  0.50400001928E-02 0. -1.
    10030    2    1    2    0    0  0.00000000000E+00  0.00000000000E+00  0.49116543577E+03  0.26463312819E+04  0.26003510855E+04 0.  0.
        3    1    3    3  502    0 -0.57733216950E+03  0.89380004929E+03  0.10059660803E+04  0.14642946175E+04  0.10100000352E+00 0.  1.
       -3    1    3    3    0  502  0.57733216950E+03 -0.89380004929E+03 -0.51480064450E+03  0.11820366643E+04  0.10100000352E+00 0. -1.
</event>
<event>
 5   0  0.2623263E-07  0.2600062E+04  0.7818609E-02  0.8368180E-01
       -1   -1    0    0    0  501  0.00000000000E+00  0.00000000000E+00  0.93857750324E+03  0.93857750325E+03  0.50400001928E-02 0. -1.
        1   -1    0    0  501    0  0.00000000000E+00  0.00000000000E+00 -0.18006834767E+04  0.18006834767E+04  0.50400001928E-02 0.  1.
    10030    2    1    2    0    0  0.00000000000E+00  0.00000000000E+00 -0.86210597345E+03  0.27392609799E+04  0.26000623082E+04 0.  0.
        1    1    3    3  502    0 -0.34553355781E+03 -0.12291152184E+04 -0.68903686697E+03  0.14508237190E+04  0.50400001928E-02 0.  1.
       -1    1    3    3    0  502  0.34553355781E+03  0.12291152184E+04 -0.17306910649E+03  0.12884372609E+04  0.50400001928E-02 0. -1.
</event>
<event>
 5   0  0.2755061E-07  0.2599418E+04  0.7818609E-02  0.8368399E-01
       -1   -1    0    0    0  501  0.00000000000E+00  0.00000000000E+00  0.84390099605E+03  0.84390099606E+03  0.50400001928E-02 0.  1.
        1   -1    0    0  501    0  0.00000000000E+00  0.00000000000E+00 -0.20017079498E+04  0.20017079498E+04  0.50400001928E-02 0. -1.
    10030    2    1    2    0    0  0.00000000000E+00  0.00000000000E+00 -0.11578069538E+04  0.28456089459E+04  0.25994178830E+04 0.  0.
        4    1    3    3  502    0 -0.89002409025E+03  0.94313905665E+03 -0.48354701309E+03  0.13840063180E+04  0.12699999809E+01 0. -1.
       -4    1    3    3    0  502  0.89002409025E+03 -0.94313905665E+03 -0.67425994068E+03  0.14616026279E+04  0.12699999809E+01 0.  1.
</event>
<event>
 5   0  0.6768478E-07  0.2592231E+04  0.7818609E-02  0.8370845E-01
        2   -1    0    0  501    0  0.00000000000E+00  0.00000000000E+00  0.20858927487E+04  0.20858927487E+04  0.25500000920E-02 0. -1.
       -2   -1    0    0    0  501  0.00000000000E+00  0.00000000000E+00 -0.80537001563E+03  0.80537001563E+03  0.25500000920E-02 0.  1.
    10030    2    1    2    0    0  0.00000000000E+00  0.00000000000E+00  0.12805227330E+04  0.28912627643E+04  0.25922310666E+04 0.  0.
        4    1    3    3  502    0  0.58545212222E+03  0.16820568312E+03  0.19162932676E+04  0.20107781677E+04  0.12699999809E+01 0. -1.
       -4    1    3    3    0  502 -0.58545212222E+03 -0.16820568312E+03 -0.63577053461E+03  0.88048459658E+03  0.12699999809E+01 0.  1.
</event>
<event>
 5   0  0.2641626E-07  0.2598987E+04  0.7818609E-02  0.8368545E-01
        1   -1    0    0  501    0  0.00000000000E+00  0.00000000000E+00  0.83393816136E+03  0.83393816138E+03  0.50400001928E-02 0. -1.
       -1   -1    0    0    0  501  0.00000000000E+00  0.00000000000E+00 -0.20249505434E+04  0.20249505434E+04  0.50400001928E-02 0.  1.
    10030    2    1    2    0    0  0.00000000000E+00  0.00000000000E+00 -0.11910123820E+04  0.28588887048E+04  0.25989871358E+04 0.  0.
        3    1    3    3  502    0  0.88982597344E+03  0.85619338243E+03 -0.15027586911E+03  0.12439615019E+04  0.10100000352E+00 0. -1.
       -3    1    3    3    0  502 -0.88982597344E+03 -0.85619338243E+03 -0.10407365129E+04  0.16149272029E+04  0.10100000352E+00 0.  1.
</event>
<event>
 5   0  0.2864801E-07  0.2600035E+04  0.7818609E-02  0.8368189E-01
        1   -1    0    0  501    0  0.00000000000E+00  0.00000000000E+00  0.18952249182E+04  0.18952249182E+04  0.50400001928E-02 0. -1.
       -1   -1    0    0    0  501  0.00000000000E+00  0.00000000000E+00 -0.89173869944E+03  0.89173869946E+03  0.50400001928E-02 0.  1.
    10030    2    1    2    0    0  0.00000000000E+00  0.00000000000E+00  0.10034862188E+04  0.27869636177E+04  0.26000349257E+04 0.  0.
        5    1    3    3  502    0  0.25003690299E+03  0.12710793561E+04  0.38499940217E+03  0.13514465628E+04  0.46999998093E+01 0.  1.
       -5    1    3    3    0  502 -0.25003690299E+03 -0.12710793561E+04  0.61848681658E+03  0.14355170548E+04  0.46999998093E+01 0. -1.
</event>
<event>
 5   0  0.2755061E-07  0.2600637E+04  0.7818609E-02  0.8367985E-01
       -1   -1    0    0    0  501  0.00000000000E+00  0.00000000000E+00  0.86651365314E+03  0.86651365315E+03  0.50400001928E-02 0.  1.
        1   -1    0    0  501    0  0.00000000000E+00  0.00000000000E+00 -0.19513007842E+04  0.19513007842E+04  0.50400001928E-02 0. -1.
    10030    2    1    2    0    0  0.00000000000E+00  0.00000000000E+00 -0.10847871310E+04  0.28178144373E+04  0.26006374379E+04 0.  0.
        4    1    3    3  502    0 -0.44509768857E+03 -0.56252739252E+03 -0.17175281084E+04  0.18613042298E+04  0.12699999809E+01 0. -1.
       -4    1    3    3    0  502  0.44509768857E+03  0.56252739252E+03  0.63274097741E+03  0.95651020752E+03  0.12699999809E+01 0.  1.
</event>
<event>
 5   0  0.6780984E-07  0.2599316E+04  0.7818609E-02  0.8368433E-01
        2   -1    0    0  501    0  0.00000000000E+00  0.00000000000E+00  0.30427938906E+04  0.30427938906E+04  0.25500000920E-02 0. -1.
       -2   -1    0    0    0  501  0.00000000000E+00  0.00000000000E+00 -0.55511861220E+03  0.55511861220E+03  0.25500000920E-02 0.  1.
    10030    2    1    2    0    0  0.00000000000E+00  0.00000000000E+00  0.24876752784E+04  0.35979125028E+04  0.25993164653E+04 0.  0.
        2    1    3    3  502    0 -0.10448879159E+04 -0.32798298517E+03  0.22125118613E+04  0.24687187632E+04  0.25500000920E-02 0. -1.
       -2    1    3    3    0  502  0.10448879159E+04  0.32798298517E+03  0.27516341709E+03  0.11291937396E+04  0.25500000920E-02 0.  1.
</event>
<event>
 5   0  0.6768478E-07  0.2600586E+04  0.7818609E-02  0.8368002E-01
        2   -1    0    0  501    0  0.00000000000E+00  0.00000000000E+00  0.22103271226E+04  0.22103271226E+04  0.25500000920E-02 0. -1.
       -2   -1    0    0    0  501  0.00000000000E+00  0.00000000000E+00 -0.76493743511E+03  0.76493743511E+03  0.25500000920E-02 0.  1.
    10030    2    1    2    0    0  0.00000000000E+00  0.00000000000E+00  0.14453896875E+04  0.29752645578E+04  0.26005860570E+04 0.  0.
        4    1    3    3  502    0  0.12570780302E+04 -0.12954540217E+03  0.10729632713E+04  0.16577934068E+04  0.12699999809E+01 0. -1.
       -4    1    3    3    0  502 -0.12570780302E+04  0.12954540217E+03  0.37242641626E+03  0.13174711510E+04  0.12699999809E+01 0.  1.
</event>
<event>
 5   0  0.6768478E-07  0.2600367E+04  0.7818609E-02  0.8368076E-01
       -2   -1    0    0    0  501  0.00000000000E+00  0.00000000000E+00  0.83610700999E+03  0.83610700999E+03  0.25500000920E-02 0. -1.
        2   -1    0    0  501    0  0.00000000000E+00  0.00000000000E+00 -0.20218437735E+04  0.20218437735E+04  0.25500000920E-02 0.  1.
    10030    2    1    2    0    0  0.00000000000E+00  0.00000000000E+00 -0.11857367635E+04  0.28579507835E+04  0.26003674756E+04 0.  0.
        4    1    3    3  502    0 -0.12778004507E+04  0.23799860318E+03 -0.62863101770E+03  0.14438129713E+04  0.12699999809E+01 0. -1.
       -4    1    3    3    0  502  0.12778004507E+04 -0.23799860318E+03 -0.55710574577E+03  0.14141378121E+04  0.12699999809E+01 0.  1.
</event>
<event>
 5   0  0.2755061E-07  0.2594732E+04  0.7818609E-02  0.8369993E-01
        1   -1    0    0  501    0  0.00000000000E+00  0.00000000000E+00  0.13043445079E+04  0.13043445079E+04  0.50400001928E-02 0. -1.
       -1   -1    0    0    0  501  0.00000000000E+00  0.00000000000E+00 -0.12904246172E+04  0.12904246172E+04  0.50400001928E-02 0.  1.
    10030    2    1    2    0    0  0.00000000000E+00  0.00000000000E+00  0.13919890656E+02  0.25947691251E+04  0.25947317875E+04 0.  0.
        4    1    3    3  502    0 -0.60031730896E+03 -0.10082516276E+04 -0.54640543650E+03  0.12944159803E+04  0.12699999809E+01 0.  1.
       -4    1    3    3    0  502  0.60031730896E+03  0.10082516276E+04  0.56032532715E+03  0.13003531448E+04  0.12699999809E+01 0. -1.
</event>
<event>
 5   0  0.6780984E-07  0.2600141E+04  0.7818609E-02  0.8368153E-01
       -2   -1    0    0    0  501  0.00000000000E+00  0.00000000000E+00  0.15984236537E+04  0.15984236537E+04  0.25500000920E-02 0.  1.
        2   -1    0    0  501    0  0.00000000000E+00  0.00000000000E+00 -0.10574067218E+04  0.10574067218E+04  0.25500000920E-02 0. -1.
    10030    2    1    2    0    0  0.00000000000E+00  0.00000000000E+00  0.54101693194E+03  0.26558303755E+04  0.26001414698E+04 0.  0.
        2    1    3    3  502    0 -0.31895383910E+03  0.95321137544E+03  0.11126922066E+04  0.14994757165E+04  0.25500000920E-02 0.  1.
       -2    1    3    3    0  502  0.31895383910E+03 -0.95321137544E+03 -0.57167527465E+03  0.11563546590E+04  0.25500000920E-02 0. -1.
</event>
<event>
 5   0  0.6768478E-07  0.2599529E+04  0.7818609E-02  0.8368361E-01
       -2   -1    0    0    0  501  0.00000000000E+00  0.00000000000E+00  0.74506746126E+03  0.74506746126E+03  0.25500000920E-02 0.  1.
        2   -1    0    0  501    0  0.00000000000E+00  0.00000000000E+00 -0.22674283964E+04  0.22674283964E+04  0.25500000920E-02 0. -1.
    10030    2    1    2    0    0  0.00000000000E+00  0.00000000000E+00 -0.15223609352E+04  0.30124958577E+04  0.25995285103E+04 0.  0.
        4    1    3    3  502    0 -0.12359567399E+04  0.19373983638E+03 -0.11696877971E+04  0.17126865862E+04  0.12699999809E+01 0.  1.
       -4    1    3    3    0  502  0.12359567399E+04 -0.19373983638E+03 -0.35267313809E+03  0.12998092715E+04  0.12699999809E+01 0. -1.
</event>
<event>
 5   0  0.6599814E-07  0.2599543E+04  0.7818609E-02  0.8368357E-01
       -2   -1    0    0    0  501  0.00000000000E+00  0.00000000000E+00  0.57508385124E+03  0.57508385125E+03  0.25500000920E-02 0.  1.
        2   -1    0    0  501    0  0.00000000000E+00  0.00000000000E+00 -0.29376681578E+04  0.29376681578E+04  0.25500000920E-02 0. -1.
    10030    2    1    2    0    0  0.00000000000E+00  0.00000000000E+00 -0.23625843065E+04  0.35127520090E+04  0.25995426658E+04 0.  0.
        5    1    3    3  502    0  0.16323625503E+03  0.55406104607E+03  0.39211435336E+03  0.69814430732E+03  0.46999998093E+01 0.  1.
       -5    1    3    3    0  502 -0.16323625503E+03 -0.55406104607E+03 -0.27546986599E+04  0.28146077017E+04  0.46999998093E+01 0. -1.
</event>
<event>
 5   0  0.2294625E-07  0.2599335E+04  0.7818609E-02  0.8368427E-01
        4   -1    0    0  501    0  0.00000000000E+00  0.00000000000E+00  0.14860203219E+04  0.14860208646E+04  0.12699999809E+01 0.  1.
       -4   -1    0    0    0  501  0.00000000000E+00  0.00000000000E+00 -0.11366825305E+04  0.11366832400E+04  0.12699999809E+01 0. -1.
    10030    2    1    2    0    0  0.00000000000E+00  0.00000000000E+00  0.34933779138E+03  0.26227041046E+04  0.25993345163E+04 0.  0.
        5    1    3    3  502    0 -0.68538187718E+03 -0.90440330959E+03  0.81394166849E+03  0.13965016268E+04  0.46999998093E+01 0.  1.
       -5    1    3    3    0  502  0.68538187718E+03  0.90440330959E+03 -0.46460387711E+03  0.12262024778E+04  0.46999998093E+01 0. -1.
</event>
<event>
 5   0  0.6599814E-07  0.2601016E+04  0.7818609E-02  0.8367856E-01
       -2   -1    0    0    0  501  0.00000000000E+00  0.00000000000E+00  0.11461208048E+04  0.11461208048E+04  0.25500000920E-02 0. -1.
        2   -1    0    0  501    0  0.00000000000E+00  0.00000000000E+00 -0.14756918961E+04  0.14756918961E+04  0.25500000920E-02 0.  1.
    10030    2    1    2    0    0  0.00000000000E+00  0.00000000000E+00 -0.32957109129E+03  0.26218127009E+04  0.26010160965E+04 0.  0.
        5    1    3    3  502    0 -0.96518804969E+03 -0.80563922183E+03 -0.50009609609E+03  0.13530560677E+04  0.46999998093E+01 0. -1.
       -5    1    3    3    0  502  0.96518804969E+03  0.80563922183E+03  0.17052500479E+03  0.12687566332E+04  0.46999998093E+01 0.  1.
</event>
<event>
 5   0  0.2864801E-07  0.2598841E+04  0.7818609E-02  0.8368595E-01
        1   -1    0    0  501    0  0.00000000000E+00  0.00000000000E+00  0.14855882426E+04  0.14855882426E+04  0.50400001928E-02 0.  1.
       -1   -1    0    0    0  501  0.00000000000E+00  0.00000000000E+00 -0.11365821563E+04  0.11365821563E+04  0.50400001928E-02 0. -1.
    10030    2    1    2    0    0  0.00000000000E+00  0.00000000000E+00  0.34900608635E+03  0.26221703989E+04  0.25988405785E+04 0.  0.
        5    1    3    3  502    0 -0.27150214705E+03  0.72658063610E+03 -0.87737093333E+03  0.11710826962E+04  0.46999998093E+01 0. -1.
       -5    1    3    3    0  502  0.27150214705E+03 -0.72658063610E+03  0.12263770197E+04  0.14510877027E+04  0.46999998093E+01 0.  1.
</event>
<event>
 5   0  0.2793576E-07  0.2599960E+04  0.7818609E-02  0.8368215E-01
        1   -1    0    0  501    0  0.00000000000E+00  0.00000000000E+00  0.14998702339E+04  0.14998702339E+04  0.50400001928E-02 0. -1.
       -1   -1    0    0    0  501  0.00000000000E+00  0.00000000000E+00 -0.11267298423E+04  0.11267298423E+04  0.50400001928E-02 0.  1.
    10030    2    1    2    0    0  0.00000000000E+00  0.00000000000E+00  0.37314039167E+03  0.26266000762E+04  0.25999604244E+04 0.  0.
        2    1    3    3  502    0 -0.68249381102E+03 -0.85231063624E+03 -0.52614923032E+03  0.12120496010E+04  0.25500000920E-02 0.  1.
       -2    1    3    3    0  502  0.68249381102E+03  0.85231063624E+03  0.89928962198E+03  0.14145504752E+04  0.25500000920E-02 0. -1.
</event>
<event>
 5   0  0.7160320E-07  0.2600492E+04  0.7818609E-02  0.8368034E-01
       -2   -1    0    0    0  501  0.00000000000E+00  0.00000000000E+00  0.10353229706E+04  0.10353229706E+04  0.25500000920E-02 0. -1.
        2   -1    0    0  501    0  0.00000000000E+00  0.00000000000E+00 -0.16329591946E+04  0.16329591946E+04  0.25500000920E-02 0.  1.
    10030    2    1    2    0    0  0.00000000000E+00  0.00000000000E+00 -0.59763622402E+03  0.26682821652E+04  0.26004923874E+04 0.  0.
        1    1    3    3  502    0  0.92828766188E+02 -0.46990817583E+03 -0.15391342061E+04  0.16119444711E+04  0.50400001928E-02 0.  1.
       -1    1    3    3    0  502 -0.92828766188E+02  0.46990817583E+03  0.94149798211E+03  0.10563376941E+04  0.50400001928E-02 0. -1.
</event>
<event>
 5   0  0.2755061E-07  0.2593707E+04  0.7818609E-02  0.8370342E-01
       -1   -1    0    0    0  501  0.00000000000E+00  0.00000000000E+00  0.99327491166E+03  0.99327491168E+03  0.50400001928E-02 0. -1.
        1   -1    0    0  501    0  0.00000000000E+00  0.00000000000E+00 -0.16932156373E+04  0.16932156373E+04  0.50400001928E-02 0.  1.
    10030    2    1    2    0    0  0.00000000000E+00  0.00000000000E+00 -0.69994072562E+03  0.26864905490E+04  0.25937067009E+04 0.  0.
        4    1    3    3  502    0 -0.80578206716E+03 -0.10145699355E+04 -0.40847186243E+03  0.13584873092E+04  0.12699999809E+01 0. -1.
       -4    1    3    3    0  502  0.80578206716E+03  0.10145699355E+04 -0.29146886319E+03  0.13280032398E+04  0.12699999809E+01 0.  1.
</event>
<event>
 5   0  0.6526351E-07  0.2600663E+04  0.7818609E-02  0.8367976E-01
       -2   -1    0    0    0  501  0.00000000000E+00  0.00000000000E+00  0.13677537915E+04  0.13677537915E+04  0.25500000920E-02 0. -1.
        2   -1    0    0  501    0  0.00000000000E+00  0.00000000000E+00 -0.12362331568E+04  0.12362331568E+04  0.25500000920E-02 0.  1.
    10030    2    1    2    0    0  0.00000000000E+00  0.00000000000E+00  0.13152063470E+03  0.26039869483E+04  0.26006634441E+04 0.  0.
        3    1    3    3  502    0 -0.12319110488E+03 -0.10305754179E+04  0.85008814101E+03  0.13416078406E+04  0.10100000352E+00 0. -1.
       -3    1    3    3    0  502  0.12319110488E+03  0.10305754179E+04 -0.71856750631E+03  0.12623791077E+04  0.10100000352E+00 0.  1.
</event>
<event>
 5   0  0.2864801E-07  0.2600271E+04  0.7818609E-02  0.8368109E-01
       -1   -1    0    0    0  501  0.00000000000E+00  0.00000000000E+00  0.12012747966E+04  0.12012747966E+04  0.50400001928E-02 0. -1.
        1   -1    0    0  501    0  0.00000000000E+00  0.00000000000E+00 -0.14071316196E+04  0.14071316196E+04  0.50400001928E-02 0.  1.
    10030    2    1    2    0    0  0.00000000000E+00  0.00000000000E+00 -0.20585682300E+03  0.26084064162E+04  0.26002705629E+04 0.  0.
        5    1    3    3  502    0 -0.34588939099E+03  0.11832852056E+04  0.31131195703E+03  0.12715111377E+04  0.46999998093E+01 0.  1.
       -5    1    3    3    0  502  0.34588939099E+03 -0.11832852056E+04 -0.51716878002E+03  0.13368952785E+04  0.46999998093E+01 0. -1.
</event>
<event>
 5   0  0.2641626E-07  0.2605667E+04  0.7818609E-02  0.8366279E-01
       -1   -1    0    0    0  501  0.00000000000E+00  0.00000000000E+00  0.12258142805E+04  0.12258142805E+04  0.50400001928E-02 0. -1.
        1   -1    0    0  501    0  0.00000000000E+00  0.00000000000E+00 -0.13846918221E+04  0.13846918222E+04  0.50400001928E-02 0.  1.
    10030    2    1    2    0    0  0.00000000000E+00  0.00000000000E+00 -0.15887754161E+03  0.26105061027E+04  0.26056669087E+04 0.  0.
        3    1    3    3  502    0 -0.69221639628E+03 -0.42742286539E+03  0.94005670521E+03  0.12432057209E+04  0.10100000352E+00 0. -1.
       -3    1    3    3    0  502  0.69221639628E+03  0.42742286539E+03 -0.10989342468E+04  0.13673003818E+04  0.10100000352E+00 0.  1.
</event>
<event>
 5   0  0.2294625E-07  0.2598984E+04  0.7818609E-02  0.8368546E-01
       -3   -1    0    0    0  501  0.00000000000E+00  0.00000000000E+00  0.10532605389E+04  0.10532605437E+04  0.10100000352E+00 0. -1.
        3   -1    0    0  501    0  0.00000000000E+00  0.00000000000E+00 -0.16032880063E+04  0.16032880095E+04  0.10100000352E+00 0.  1.
    10030    2    1    2    0    0  0.00000000000E+00  0.00000000000E+00 -0.55002746743E+03  0.26565485532E+04  0.25989844171E+04 0.  0.
        1    1    3    3  502    0  0.54648772562E+03  0.19322892871E+03 -0.14638274944E+04  0.15744132833E+04  0.50400001928E-02 0.  1.
       -1    1    3    3    0  502 -0.54648772562E+03 -0.19322892871E+03  0.91380002696E+03  0.10821352699E+04  0.50400001928E-02 0. -1.
</event>
<event>
 5   0  0.6780984E-07  0.2603427E+04  0.7818609E-02  0.8367038E-01
       -2   -1    0    0    0  501  0.00000000000E+00  0.00000000000E+00  0.74423365522E+03  0.74423365522E+03  0.25500000920E-02 0.  1.
        2   -1    0    0  501    0  0.00000000000E+00  0.00000000000E+00 -0.22767823968E+04  0.22767823968E+04  0.25500000920E-02 0. -1.
    10030    2    1    2    0    0  0.00000000000E+00  0.00000000000E+00 -0.15325487416E+04  0.30210160520E+04  0.26034270378E+04 0.  0.
        2    1    3    3  502    0  0.25685355267E+03 -0.10755487245E+04  0.30675530224E+02  0.11062186919E+04  0.25500000920E-02 0.  1.
       -2    1    3    3    0  502 -0.25685355267E+03  0.10755487245E+04 -0.15632242718E+04  0.19147973601E+04  0.25500000920E-02 0. -1.
</event>
<event>
 5   0  0.6599814E-07  0.2599884E+04  0.7818609E-02  0.8368241E-01
       -2   -1    0    0    0  501  0.00000000000E+00  0.00000000000E+00  0.14559377584E+04  0.14559377584E+04  0.25500000920E-02 0.  1.
        2   -1    0    0  501    0  0.00000000000E+00  0.00000000000E+00 -0.11606604302E+04  0.11606604302E+04  0.25500000920E-02 0. -1.
    10030    2    1    2    0    0  0.00000000000E+00  0.00000000000E+00  0.29527732813E+03  0.26165981886E+04  0.25998841090E+04 0.  0.
        5    1    3    3  502    0  0.28094862226E+03 -0.93092357277E+03  0.10158994346E+04  0.14062804051E+04  0.46999998093E+01 0.  1.
       -5    1    3    3    0  502 -0.28094862226E+03  0.93092357277E+03 -0.72062210645E+03  0.12103177835E+04  0.46999998093E+01 0. -1.
</event>
<event>
 5   0  0.2755061E-07  0.2599472E+04  0.7818609E-02  0.8368381E-01
       -1   -1    0    0    0  501  0.00000000000E+00  0.00000000000E+00  0.72184344918E+03  0.72184344920E+03  0.50400001928E-02 0.  1.
        1   -1    0    0  501    0  0.00000000000E+00  0.00000000000E+00 -0.23402766995E+04  0.23402766995E+04  0.50400001928E-02 0. -1.
    10030    2    1    2    0    0  0.00000000000E+00  0.00000000000E+00 -0.16184332503E+04  0.30621201487E+04  0.25994717962E+04 0.  0.
        4    1    3    3  502    0  0.10096357707E+04 -0.44700393930E+03 -0.15198398448E+01  0.11041652204E+04  0.12699999809E+01 0.  1.
       -4    1    3    3    0  502 -0.10096357707E+04  0.44700393930E+03 -0.16169134104E+04  0.19579549282E+04  0.12699999809E+01 0. -1.
</event>
<event>
 5   0  0.6768478E-07  0.2599817E+04  0.7818609E-02  0.8368263E-01
        2   -1    0    0  501    0  0.00000000000E+00  0.00000000000E+00  0.23780909932E+04  0.23780909932E+04  0.25500000920E-02 0. -1.
       -2   -1    0    0    0  501  0.00000000000E+00  0.00000000000E+00 -0.71055397432E+03  0.71055397432E+03  0.25500000920E-02 0.  1.
    10030    2    1    2    0    0  0.00000000000E+00  0.00000000000E+00  0.16675370188E+04  0.30886449675E+04  0.25998169216E+04 0.  0.
        4    1    3    3  502    0 -0.51025362931E+03 -0.10710053942E+04  0.20249377626E+03  0.12035018334E+04  0.12699999809E+01 0.  1.
       -4    1    3    3    0  502  0.51025362931E+03  0.10710053942E+04  0.14650432426E+04  0.18851431341E+04  0.12699999809E+01 0. -1.
</event>
<event>
 5   0  0.2864801E-07  0.2599144E+04  0.7818609E-02  0.8368492E-01
        1   -1    0    0  501    0  0.00000000000E+00  0.00000000000E+00  0.13394087772E+04  0.13394087772E+04  0.50400001928E-02 0.  1.
       -1   -1    0    0    0  501  0.00000000000E+00  0.00000000000E+00 -0.12609204378E+04  0.12609204378E+04  0.50400001928E-02 0. -1.
    10030    2    1    2    0    0  0.00000000000E+00  0.00000000000E+00  0.78488339401E+02  0.26003292150E+04  0.25991443991E+04 0.  0.
        5    1    3    3  502    0 -0.12586623234E+04  0.28325817688E+03  0.19551964101E+03  0.13048816265E+04  0.46999998093E+01 0.  1.
       -5    1    3    3    0  502  0.12586623234E+04 -0.28325817688E+03 -0.11703130161E+03  0.12954475886E+04  0.46999998093E+01 0. -1.
</event>
<event>
 5   0  0.6780984E-07  0.2600336E+04  0.7818609E-02  0.8368087E-01
       -2   -1    0    0    0  501  0.00000000000E+00  0.00000000000E+00  0.16776013002E+04  0.16776013002E+04  0.25500000920E-02 0.  1.
        2   -1    0    0  501    0  0.00000000000E+00  0.00000000000E+00 -0.10076507604E+04  0.10076507604E+04  0.25500000920E-02 0. -1.
    10030    2    1    2    0    0  0.00000000000E+00  0.00000000000E+00  0.66995053984E+03  0.26852520606E+04  0.26003355367E+04 0.  0.
        2    1    3    3  502    0 -0.12123492775E+04  0.46961347028E+03  0.32421165755E+03  0.13399405886E+04  0.25500000920E-02 0. -1.
       -2    1    3    3    0  502  0.12123492775E+04 -0.46961347028E+03  0.34573888230E+03  0.13453114720E+04  0.25500000920E-02 0.  1.
</event>
<event>
 5   0  0.6526351E-07  0.2599720E+04  0.7818609E-02  0.8368296E-01
        2   -1    0    0  501    0  0.00000000000E+00  0.00000000000E+00  0.28807529279E+04  0.28807529279E+04  0.25500000920E-02 0.  1.
       -2   -1    0    0    0  501  0.00000000000E+00  0.00000000000E+00 -0.58652600418E+03  0.58652600419E+03  0.25500000920E-02 0. -1.
    10030    2    1    2    0    0  0.00000000000E+00  0.00000000000E+00  0.22942269238E+04  0.34672789321E+04  0.25997203726E+04 0.  0.
        3    1    3    3  502    0  0.89614422196E+03  0.59117200703E+03  0.21245322829E+04  0.23803773313E+04  0.10100000352E+00 0.  1.
       -3    1    3    3    0  502 -0.89614422196E+03 -0.59117200703E+03  0.16969464090E+03  0.10869016008E+04  0.10100000352E+00 0. -1.
</event>
<event>
 5   0  0.2793576E-07  0.2599650E+04  0.7818609E-02  0.8368320E-01
       -1   -1    0    0    0  501  0.00000000000E+00  0.00000000000E+00  0.98639733031E+03  0.98639733032E+03  0.50400001928E-02 0.  1.
        1   -1    0    0  501    0  0.00000000000E+00  0.00000000000E+00 -0.17128448790E+04  0.17128448790E+04  0.50400001928E-02 0. -1.
    10030    2    1    2    0    0  0.00000000000E+00  0.00000000000E+00 -0.72644754865E+03  0.26992422093E+04  0.25996504502E+04 0.  0.
        2    1    3    3  502    0  0.11925149235E+04  0.10770782268E+03  0.16197292181E+03  0.12082748219E+04  0.25500000920E-02 0. -1.
       -2    1    3    3    0  502 -0.11925149235E+04 -0.10770782268E+03 -0.88842047046E+03  0.14909673874E+04  0.25500000920E-02 0.  1.
</event>
<event>
 5   0  0.2864801E-07  0.2600889E+04  0.7818609E-02  0.8367899E-01
        1   -1    0    0  501    0  0.00000000000E+00  0.00000000000E+00  0.14024757429E+04  0.14024757429E+04  0.50400001928E-02 0.  1.
       -1   -1    0    0    0  501  0.00000000000E+00  0.00000000000E+00 -0.12058359356E+04  0.12058359357E+04  0.50400001928E-02 0. -1.
    10030    2    1    2    0    0  0.00000000000E+00  0.00000000000E+00  0.19663980724E+03  0.26083116786E+04  0.26008888094E+04 0.  0.
        5    1    3    3  502    0  0.81810920993E+03  0.59909494074E+03 -0.71820041011E+03  0.12425986265E+04  0.46999998093E+01 0. -1.
       -5    1    3    3    0  502 -0.81810920993E+03 -0.59909494074E+03  0.91484021736E+03  0.13657130521E+04  0.46999998093E+01 0.  1.
</event>
<event>
 5   0  0.6526351E-07  0.2599305E+04  0.7818609E-02  0.8368437E-01
        2   -1    0    0  501    0  0.00000000000E+00  0.00000000000E+00  0.18774605082E+04  0.18774605082E+04  0.25500000920E-02 0. -1.
       -2   -1    0    0    0  501  0.00000000000E+00  0.00000000000E+00 -0.89967072848E+03  0.89967072848E+03  0.25500000920E-02 0.  1.
    10030    2    1    2    0    0  0.00000000000E+00  0.00000000000E+00  0.97778977968E+03  0.27771312366E+04  0.25993047248E+04 0.  0.
        3    1    3    3  502    0 -0.88987152456E+03 -0.28443677035E+03 -0.47642131662E+03  0.10486910354E+04  0.10100000352E+00 0.  1.
       -3    1    3    3    0  502  0.88987152456E+03  0.28443677035E+03  0.14542110963E+04  0.17284402013E+04  0.10100000352E+00 0. -1.
</event>
<event>
 5   0  0.6526351E-07  0.2600310E+04  0.7818609E-02  0.8368096E-01
       -2   -1    0    0    0  501  0.00000000000E+00  0.00000000000E+00  0.18501032006E+04  0.18501032006E+04  0.25500000920E-02 0. -1.
        2   -1    0    0  501    0  0.00000000000E+00  0.00000000000E+00 -0.91368044616E+03  0.91368044616E+03  0.25500000920E-02 0.  1.
    10030    2    1    2    0    0  0.00000000000E+00  0.00000000000E+00  0.93642275448E+03  0.27637836468E+04  0.26003100721E+04 0.  0.
        3    1    3    3  502    0  0.39724017805E+03 -0.50977576101E+03 -0.73086649935E+03  0.97562130750E+03  0.10100000352E+00 0.  1.
       -3    1    3    3    0  502 -0.39724017805E+03  0.50977576101E+03  0.16672892538E+04  0.17881623393E+04  0.10100000352E+00 0. -1.
</event>
<event>
 5   0  0.6780984E-07  0.2600733E+04  0.7818609E-02  0.8367952E-01
       -2   -1    0    0    0  501  0.00000000000E+00  0.00000000000E+00  0.14291095819E+04  0.14291095819E+04  0.25500000920E-02 0.  1.
        2   -1    0    0  501    0  0.00000000000E+00  0.00000000000E+00 -0.11832218423E+04  0.11832218423E+04  0.25500000920E-02 0. -1.
    10030    2    1    2    0    0  0.00000000000E+00  0.00000000000E+00  0.24588773960E+03  0.26123314242E+04  0.26007334907E+04 0.  0.
        2    1    3    3  502    0 -0.12228750749E+04  0.37082392027E+03  0.36489112629E+03  0.13289391870E+04  0.25500000920E-02 0.  1.
       -2    1    3    3    0  502  0.12228750749E+04 -0.37082392027E+03 -0.11900338669E+03  0.12833922373E+04  0.25500000920E-02 0. -1.
</event>
<event>
 5   0  0.2623263E-07  0.2599902E+04  0.7818609E-02  0.8368234E-01
       -1   -1    0    0    0  501  0.00000000000E+00  0.00000000000E+00  0.12494199319E+04  0.12494199319E+04  0.50400001928E-02 0.  1.
        1   -1    0    0  501    0  0.00000000000E+00  0.00000000000E+00 -0.13525257761E+04  0.13525257761E+04  0.50400001928E-02 0. -1.
    10030    2    1    2    0    0  0.00000000000E+00  0.00000000000E+00 -0.10310584420E+03  0.26019457081E+04  0.25999020468E+04 0.  0.
        1    1    3    3  502    0  0.10842771267E+04  0.40352818746E+03 -0.64479267359E+03  0.13244808332E+04  0.50400001928E-02 0. -1.
       -1    1    3    3    0  502 -0.10842771267E+04 -0.40352818746E+03  0.54168682939E+03  0.12774648749E+04  0.50400001928E-02 0.  1.
</event>
<event>
 5   0  0.6768478E-07  0.2599253E+04  0.7818609E-02  0.8368455E-01
        2   -1    0    0  501    0  0.00000000000E+00  0.00000000000E+00  0.21429112982E+04  0.21429112982E+04  0.25500000920E-02 0. -1.
       -2   -1    0    0    0  501  0.00000000000E+00  0.00000000000E+00 -0.78819367609E+03  0.78819367609E+03  0.25500000920E-02 0.  1.
    10030    2    1    2    0    0  0.00000000000E+00  0.00000000000E+00  0.13547176221E+04  0.29311049743E+04  0.25992530725E+04 0.  0.
        4    1    3    3  502    0  0.74211160806E+03 -0.10491198192E+04  0.89615475438E+03  0.15666770537E+04  0.12699999809E+01 0.  1.
       -4    1    3    3    0  502 -0.74211160806E+03  0.10491198192E+04  0.45856286776E+03  0.13644279206E+04  0.12699999809E+01 0. -1.
</event>
<event>
 5   0  0.6526351E-07  0.2596366E+04  0.7818609E-02  0.8369436E-01
       -2   -1    0    0    0  501  0.00000000000E+00  0.00000000000E+00  0.73012704943E+03  0.73012704943E+03  0.25500000920E-02 0. -1.
        2   -1    0    0  501    0  0.00000000000E+00  0.00000000000E+00 -0.23082005892E+04  0.23082005892E+04  0.25500000920E-02 0.  1.
    10030    2    1    2    0    0  0.00000000000E+00  0.00000000000E+00 -0.15780735398E+04  0.30383276387E+04  0.25963664500E+04 0.  0.
        3    1    3    3  502    0 -0.38294028176E+03 -0.98738510565E+03  0.89571640694E+02  0.10628243953E+04  0.10100000352E+00 0. -1.
       -3    1    3    3    0  502  0.38294028176E+03  0.98738510565E+03 -0.16676451805E+04  0.19755032434E+04  0.10100000352E+00 0.  1.
</event>
<event>
 5   0  0.2793576E-07  0.2598597E+04  0.7818609E-02  0.8368678E-01
        1   -1    0    0  501    0  0.00000000000E+00  0.00000000000E+00  0.66769453362E+03  0.66769453364E+03  0.50400001928E-02 0.  1.
       -1   -1    0    0    0  501  0.00000000000E+00  0.00000000000E+00 -0.25283674620E+04  0.25283674620E+04  0.50400001928E-02 0. -1.
    10030    2    1    2    0    0  0.00000000000E+00  0.00000000000E+00 -0.18606729283E+04  0.31960619956E+04  0.25985974166E+04 0.  0.
        2    1    3    3  502    0 -0.55857452441E+03  0.11116670811E+04 -0.13911339997E+04  0.18662966012E+04  0.25500000920E-02 0.  1.
       -2    1    3    3    0  502  0.55857452441E+03 -0.11116670811E+04 -0.46953892863E+03  0.13297653944E+04  0.25500000920E-02 0. -1.
</event>
<event>
 5   0  0.2623263E-07  0.2601609E+04  0.7818609E-02  0.8367655E-01
       -1   -1    0    0    0  501  0.00000000000E+00  0.00000000000E+00  0.10937928818E+04  0.10937928818E+04  0.50400001928E-02 0.  1.
        1   -1    0    0  501    0  0.00000000000E+00  0.00000000000E+00 -0.15469955875E+04  0.15469955875E+04  0.50400001928E-02 0. -1.
    10030    2    1    2    0    0  0.00000000000E+00  0.00000000000E+00 -0.45320270575E+03  0.26407884693E+04  0.26016093187E+04 0.  0.
        1    1    3    3  502    0 -0.52613692639E+03  0.21932959395E+03  0.96026646735E+03  0.11167082092E+04  0.50400001928E-02 0.  1.
       -1    1    3    3    0  502  0.52613692639E+03 -0.21932959395E+03 -0.14134691731E+04  0.15240802602E+04  0.50400001928E-02 0. -1.
</event>
<event>
 5   0  0.7160320E-07  0.2601219E+04  0.7818609E-02  0.8367787E-01
        2   -1    0    0  501    0  0.00000000000E+00  0.00000000000E+00  0.56759544044E+03  0.56759544045E+03  0.25500000920E-02 0.  1.
       -2   -1    0    0    0  501  0.00000000000E+00  0.00000000000E+00 -0.29802660394E+04  0.29802660394E+04  0.25500000920E-02 0. -1.
    10030    2    1    2    0    0  0.00000000000E+00  0.00000000000E+00 -0.24126705990E+04  0.35478614799E+04  0.26012192643E+04 0.  0.
        1    1    3    3  502    0 -0.49199317536E+02  0.12959195027E+04 -0.10716070586E+04  0.16823107972E+04  0.50400001928E-02 0. -1.
       -1    1    3    3    0  502  0.49199317536E+02 -0.12959195027E+04 -0.13410635404E+04  0.18655506827E+04  0.50400001928E-02 0.  1.
</event>
<event>
 5   0  0.2864801E-07  0.2602525E+04  0.7818609E-02  0.8367344E-01
        1   -1    0    0  501    0  0.00000000000E+00  0.00000000000E+00  0.14615991045E+04  0.14615991045E+04  0.50400001928E-02 0.  1.
       -1   -1    0    0    0  501  0.00000000000E+00  0.00000000000E+00 -0.11585151615E+04  0.11585151616E+04  0.50400001928E-02 0. -1.
    10030    2    1    2    0    0  0.00000000000E+00  0.00000000000E+00  0.30308394292E+03  0.26201142660E+04  0.26025254832E+04 0.  0.
        5    1    3    3  502    0  0.11772985493E+04  0.47251779739E+03 -0.14017082499E+03  0.12763130075E+04  0.46999998093E+01 0.  1.
       -5    1    3    3    0  502 -0.11772985493E+04 -0.47251779739E+03  0.44325476791E+03  0.13438012585E+04  0.46999998093E+01 0. -1.
</event>
<event>
 5   0  0.2623263E-07  0.2597487E+04  0.7818609E-02  0.8369055E-01
        1   -1    0    0  501    0  0.00000000000E+00  0.00000000000E+00  0.59565552400E+03  0.59565552402E+03  0.50400001928E-02 0.  1.
       -1   -1    0    0    0  501  0.00000000000E+00  0.00000000000E+00 -0.28317284409E+04  0.28317284409E+04  0.50400001928E-02 0. -1.
    10030    2    1    2    0    0  0.00000000000E+00  0.00000000000E+00 -0.22360729169E+04  0.34273839649E+04  0.25974870073E+04 0.  0.
        1    1    3    3  502    0 -0.78429360607E+03  0.12839507125E+03 -0.24734223666E+04  0.25979645799E+04  0.50400001928E-02 0. -1.
       -1    1    3    3    0  502  0.78429360607E+03 -0.12839507125E+03  0.23734944975E+03  0.82941938497E+03  0.50400001928E-02 0.  1.
</event>
<event>
 5   0  0.6526351E-07  0.2600488E+04  0.7818609E-02  0.8368035E-01
        2   -1    0    0  501    0  0.00000000000E+00  0.00000000000E+00  0.13848388982E+04  0.13848388982E+04  0.25500000920E-02 0. -1.
       -2   -1    0    0    0  501  0.00000000000E+00  0.00000000000E+00 -0.12208169864E+04  0.12208169864E+04  0.25500000920E-02 0.  1.
    10030    2    1    2    0    0  0.00000000000E+00  0.00000000000E+00  0.16402191180E+03  0.26056558847E+04  0.26004883006E+04 0.  0.
        3    1    3    3  502    0  0.41603990072E+03 -0.12265333788E+04  0.19696256321E+03  0.13100639640E+04  0.10100000352E+00 0. -1.
       -3    1    3    3    0  502 -0.41603990072E+03  0.12265333788E+04 -0.32940651414E+02  0.12955919207E+04  0.10100000352E+00 0.  1.
</event>
<event>
 5   0  0.2623263E-07  0.2599749E+04  0.7818609E-02  0.8368287E-01
       -1   -1    0    0    0  501  0.00000000000E+00  0.00000000000E+00  0.12378660858E+04  0.12378660858E+04  0.50400001928E-02 0.  1.
        1   -1    0    0  501    0  0.00000000000E+00  0.00000000000E+00 -0.13649886472E+04  0.13649886472E+04  0.50400001928E-02 0. -1.
    10030    2    1    2    0    0  0.00000000000E+00  0.00000000000E+00 -0.12712256138E+03  0.26028547330E+04  0.25997485678E+04 0.  0.
        1    1    3    3  502    0  0.37282933001E+03  0.62231464223E+03  0.10163357651E+04  0.12486855532E+04  0.50400001928E-02 0.  1.
       -1    1    3    3    0  502 -0.37282933001E+03 -0.62231464223E+03 -0.11434583265E+04  0.13541691799E+04  0.50400001928E-02 0. -1.
</event>
<event>
 5   0  0.2623263E-07  0.2598520E+04  0.7818609E-02  0.8368704E-01
        1   -1    0    0  501    0  0.00000000000E+00  0.00000000000E+00  0.13005359702E+04  0.13005359702E+04  0.50400001928E-02 0. -1.
       -1   -1    0    0    0  501  0.00000000000E+00  0.00000000000E+00 -0.12979850320E+04  0.12979850320E+04  0.50400001928E-02 0.  1.
    10030    2    1    2    0    0  0.00000000000E+00  0.00000000000E+00  0.25509382310E+01  0.25985210022E+04  0.25985197500E+04 0.  0.
        1    1    3    3  502    0  0.46772843770E+03 -0.40380307439E+03 -0.11416377679E+04  0.12981385163E+04  0.50400001928E-02 0.  1.
       -1    1    3    3    0  502 -0.46772843770E+03  0.40380307439E+03  0.11441887061E+04  0.13003824859E+04  0.50400001928E-02 0. -1.
</event>
<event>
 5   0  0.2793576E-07  0.2600226E+04  0.7818609E-02  0.8368124E-01
       -1   -1    0    0    0  501  0.00000000000E+00  0.00000000000E+00  0.10194930679E+04  0.10194930679E+04  0.50400001928E-02 0.  1.
        1   -1    0    0  501    0  0.00000000000E+00  0.00000000000E+00 -0.16579745797E+04  0.16579745798E+04  0.50400001928E-02 0. -1.
    10030    2    1    2    0    0  0.00000000000E+00  0.00000000000E+00 -0.63848151184E+03  0.26774676477E+04  0.26002258293E+04 0.  0.
        2    1    3    3  502    0 -0.49266942360E+03  0.10704713072E+04 -0.88479359425E+03  0.14735982102E+04  0.25500000920E-02 0. -1.
       -2    1    3    3    0  502  0.49266942360E+03 -0.10704713072E+04  0.24631208240E+03  0.12038694375E+04  0.25500000920E-02 0.  1.
</event>
<event>
 5   0  0.7160320E-07  0.2599913E+04  0.7818609E-02  0.8368231E-01
       -2   -1    0    0    0  501  0.00000000000E+00  0.00000000000E+00  0.56791422590E+03  0.56791422590E+03  0.25500000920E-02 0.  1.
        2   -1    0    0  501    0  0.00000000000E+00  0.00000000000E+00 -0.29756012074E+04  0.29756012074E+04  0.25500000920E-02 0. -1.
    10030    2    1    2    0    0  0.00000000000E+00  0.00000000000E+00 -0.24076869815E+04  0.35435154333E+04  0.25999125034E+04 0.  0.
        1    1    3    3  502    0 -0.26367987612E+03  0.10624969567E+04 -0.21593186870E+04  0.24209675859E+04  0.50400001928E-02 0. -1.
       -1    1    3    3    0  502  0.26367987612E+03 -0.10624969567E+04 -0.24836829455E+03  0.11225478474E+04  0.50400001928E-02 0.  1.
</event>
<event>
 5   0  0.2294625E-07  0.2601050E+04  0.7818609E-02  0.8367845E-01
        3   -1    0    0  501    0  0.00000000000E+00  0.00000000000E+00  0.12366685738E+04  0.12366685779E+04  0.10100000352E+00 0. -1.
       -3   -1    0    0    0  501  0.00000000000E+00  0.00000000000E+00 -0.13676789133E+04  0.13676789171E+04  0.10100000352E+00 0.  1.
    10030    2    1    2    0    0  0.00000000000E+00  0.00000000000E+00 -0.13101033953E+03  0.26043474950E+04  0.26010502043E+04 0.  0.
        1    1    3    3  502    0  0.85607271883E+03  0.91446090300E+03 -0.41561441424E+03  0.13197858100E+04  0.50400001928E-02 0.  1.
       -1    1    3    3    0  502 -0.85607271883E+03 -0.91446090300E+03  0.28460407472E+03  0.12845616849E+04  0.50400001928E-02 0. -1.
</event>
<event>
 5   0  0.6526351E-07  0.2605174E+04  0.7818609E-02  0.8366446E-01
       -2   -1    0    0    0  501  0.00000000000E+00  0.00000000000E+00  0.20985359845E+04  0.20985359845E+04  0.25500000920E-02 0.  1.
        2   -1    0    0  501    0  0.00000000000E+00  0.00000000000E+00 -0.80853168788E+03  0.80853168789E+03  0.25500000920E-02 0. -1.
    10030    2    1    2    0    0  0.00000000000E+00  0.00000000000E+00  0.12900042966E+04  0.29070676724E+04  0.26051739609E+04 0.  0.
        3    1    3    3  502    0 -0.48384645087E+03 -0.88627629439E+03 -0.27324074301E+03  0.10460657589E+04  0.10100000352E+00 0. -1.
       -3    1    3    3    0  502  0.48384645087E+03  0.88627629439E+03  0.15632450396E+04  0.18610019135E+04  0.10100000352E+00 0.  1.
</event>
<event>
 5   0  0.6780984E-07  0.2601149E+04  0.7818609E-02  0.8367811E-01
        2   -1    0    0  501    0  0.00000000000E+00  0.00000000000E+00  0.10092851328E+04  0.10092851328E+04  0.25500000920E-02 0. -1.
       -2   -1    0    0    0  501  0.00000000000E+00  0.00000000000E+00 -0.16759328321E+04  0.16759328321E+04  0.25500000920E-02 0.  1.
    10030    2    1    2    0    0  0.00000000000E+00  0.00000000000E+00 -0.66664769930E+03  0.26852179648E+04  0.26011490468E+04 0.  0.
        2    1    3    3  502    0  0.50242964550E+03 -0.61264791090E+03 -0.13980261411E+04  0.16069381141E+04  0.25500000920E-02 0.  1.
       -2    1    3    3    0  502 -0.50242964550E+03  0.61264791090E+03  0.73137844177E+03  0.10782798507E+04  0.25500000920E-02 0. -1.
</event>
<event>
 5   0  0.6768478E-07  0.2599879E+04  0.7818609E-02  0.8368242E-01
        2   -1    0    0  501    0  0.00000000000E+00  0.00000000000E+00  0.10835076425E+04  0.10835076425E+04  0.25500000920E-02 0. -1.
       -2   -1    0    0    0  501  0.00000000000E+00  0.00000000000E+00 -0.15596038285E+04  0.15596038285E+04  0.25500000920E-02 0.  1.
    10030    2    1    2    0    0  0.00000000000E+00  0.00000000000E+00 -0.47609618598E+03  0.26431114710E+04  0.25998789722E+04 0.  0.
        4    1    3    3  502    0 -0.10476915551E+04  0.73079007719E+03  0.70613147771E+01  0.12774048719E+04  0.12699999809E+01 0. -1.
       -4    1    3    3    0  502  0.10476915551E+04 -0.73079007719E+03 -0.48315750076E+03  0.13657065992E+04  0.12699999809E+01 0.  1.
</event>
<event>
 5   0  0.6526351E-07  0.2600565E+04  0.7818609E-02  0.8368009E-01
        2   -1    0    0  501    0  0.00000000000E+00  0.00000000000E+00  0.19759745836E+04  0.19759745836E+04  0.25500000920E-02 0.  1.
       -2   -1    0    0    0  501  0.00000000000E+00  0.00000000000E+00 -0.85564582842E+03  0.85564582843E+03  0.25500000920E-02 0. -1.
    10030    2    1    2    0    0  0.00000000000E+00  0.00000000000E+00  0.11203287551E+04  0.28316204120E+04  0.26005648690E+04 0.  0.
        3    1    3    3  502    0 -0.71678442465E+03 -0.12477975134E+03  0.17335894298E+04  0.18800750568E+04  0.10100000352E+00 0.  1.
       -3    1    3    3    0  502  0.71678442465E+03  0.12477975134E+03 -0.61326067466E+03  0.95154535522E+03  0.10100000352E+00 0. -1.
</event>
<event>
 5   0  0.2623263E-07  0.2600410E+04  0.7818609E-02  0.8368062E-01
        1   -1    0    0  501    0  0.00000000000E+00  0.00000000000E+00  0.11274032793E+04  0.11274032793E+04  0.50400001928E-02 0. -1.
       -1   -1    0    0    0  501  0.00000000000E+00  0.00000000000E+00 -0.14994926399E+04  0.14994926399E+04  0.50400001928E-02 0.  1.
    10030    2    1    2    0    0  0.00000000000E+00  0.00000000000E+00 -0.37208936063E+03  0.26268959192E+04  0.26004099058E+04 0.  0.
        1    1    3    3  502    0 -0.77557308743E+03  0.94097922308E+03  0.26974642281E+03  0.12488869624E+04  0.50400001928E-02 0. -1.
       -1    1    3    3    0  502  0.77557308743E+03 -0.94097922308E+03 -0.64183578344E+03  0.13780089568E+04  0.50400001928E-02 0.  1.
</event>
<event>
 5   0  0.2294625E-07  0.2597698E+04  0.7818609E-02  0.8368984E-01
       -3   -1    0    0    0  501  0.00000000000E+00  0.00000000000E+00  0.11305380189E+04  0.11305380234E+04  0.10100000352E+00 0.  1.
        3   -1    0    0  501    0  0.00000000000E+00  0.00000000000E+00 -0.14922174103E+04  0.14922174138E+04  0.10100000352E+00 0. -1.
    10030    2    1    2    0    0  0.00000000000E+00  0.00000000000E+00 -0.36167939142E+03  0.26227554372E+04  0.25976978464E+04 0.  0.
        4    1    3    3  502    0 -0.11390400852E+04  0.37115658957E+02 -0.80992052424E+03  0.13981283046E+04  0.12699999809E+01 0. -1.
       -4    1    3    3    0  502  0.11390400852E+04 -0.37115658957E+02  0.44824113282E+03  0.12246271326E+04  0.12699999809E+01 0.  1.
</event>
<event>
 5   0  0.6768478E-07  0.2601722E+04  0.7818609E-02  0.8367617E-01
        2   -1    0    0  501    0  0.00000000000E+00  0.00000000000E+00  0.18994900683E+04  0.18994900683E+04  0.25500000920E-02 0. -1.
       -2   -1    0    0    0  501  0.00000000000E+00  0.00000000000E+00 -0.89089139304E+03  0.89089139304E+03  0.25500000920E-02 0.  1.
    10030    2    1    2    0    0  0.00000000000E+00  0.00000000000E+00  0.10085986752E+04  0.27903814613E+04  0.26017220090E+04 0.  0.
        4    1    3    3  502    0 -0.98687700407E+03  0.45393282660E+03  0.12719195988E+04  0.16726512819E+04  0.12699999809E+01 0. -1.
       -4    1    3    3    0  502  0.98687700407E+03 -0.45393282660E+03 -0.26332092356E+03  0.11177301794E+04  0.12699999809E+01 0.  1.
</event>
<event>
 5   0  0.6780984E-07  0.2597405E+04  0.7818609E-02  0.8369083E-01
       -2   -1    0    0    0  501  0.00000000000E+00  0.00000000000E+00  0.15207586051E+04  0.15207586051E+04  0.25500000920E-02 0.  1.
        2   -1    0    0  501    0  0.00000000000E+00  0.00000000000E+00 -0.11090699520E+04  0.11090699520E+04  0.25500000920E-02 0. -1.
    10030    2    1    2    0    0  0.00000000000E+00  0.00000000000E+00  0.41168865302E+03  0.26298285571E+04  0.25974046071E+04 0.  0.
        2    1    3    3  502    0 -0.53538616308E+03  0.44863185188E+03 -0.90268321375E+03  0.11413789321E+04  0.25500000920E-02 0. -1.
       -2    1    3    3    0  502  0.53538616308E+03 -0.44863185188E+03  0.13143718668E+04  0.14884496250E+04  0.25500000920E-02 0.  1.
</event>
<event>
 5   0  0.2793576E-07  0.2600235E+04  0.7818609E-02  0.8368121E-01
       -1   -1    0    0    0  501  0.00000000000E+00  0.00000000000E+00  0.86873975922E+03  0.86873975923E+03  0.50400001928E-02 0. -1.
        1   -1    0    0  501    0  0.00000000000E+00  0.00000000000E+00 -0.19456979382E+04  0.19456979382E+04  0.50400001928E-02 0.  1.
    10030    2    1    2    0    0  0.00000000000E+00  0.00000000000E+00 -0.10769581790E+04  0.28144376975E+04  0.26002347266E+04 0.  0.
        2    1    3    3  502    0 -0.99887132155E+03  0.47246475374E+03  0.20303956672E+03  0.11234731533E+04  0.25500000920E-02 0. -1.
       -2    1    3    3    0  502  0.99887132155E+03 -0.47246475374E+03 -0.12799977457E+04  0.16909645441E+04  0.25500000920E-02 0.  1.
</event>
<event>
 5   0  0.2793576E-07  0.2600733E+04  0.7818609E-02  0.8367952E-01
       -1   -1    0    0    0  501  0.00000000000E+00  0.00000000000E+00  0.12809491423E+04  0.12809491423E+04  0.50400001928E-02 0.  1.
        1   -1    0    0  501    0  0.00000000000E+00  0.00000000000E+00 -0.13200786434E+04  0.13200786434E+04  0.50400001928E-02 0. -1.
    10030    2    1    2    0    0  0.00000000000E+00  0.00000000000E+00 -0.39129501083E+02  0.26010277857E+04  0.26007334396E+04 0.  0.
        2    1    3    3  502    0 -0.78672085217E+03  0.32126248660E+03 -0.10039598089E+04  0.13153229955E+04  0.25500000920E-02 0. -1.
       -2    1    3    3    0  502  0.78672085217E+03 -0.32126248660E+03  0.96483030784E+03  0.12857047902E+04  0.25500000920E-02 0.  1.
</event>
<event>
 5   0  0.7160320E-07  0.2600195E+04  0.7818609E-02  0.8368135E-01
       -2   -1    0    0    0  501  0.00000000000E+00  0.00000000000E+00  0.13603183152E+04  0.13603183152E+04  0.25500000920E-02 0. -1.
        2   -1    0    0  501    0  0.00000000000E+00  0.00000000000E+00 -0.12425426412E+04  0.12425426412E+04  0.25500000920E-02 0.  1.
    10030    2    1    2    0    0  0.00000000000E+00  0.00000000000E+00  0.11777567396E+03  0.26028609564E+04  0.26001950021E+04 0.  0.
        1    1    3    3  502    0 -0.95747931951E+03  0.87947886807E+03  0.56940179685E+02  0.13013423496E+04  0.50400001928E-02 0. -1.
       -1    1    3    3    0  502  0.95747931951E+03 -0.87947886807E+03  0.60835494276E+02  0.13015186069E+04  0.50400001928E-02 0.  1.
</event>
<event>
 5   0  0.2623263E-07  0.2605235E+04  0.7818609E-02  0.8366425E-01
       -1   -1    0    0    0  501  0.00000000000E+00  0.00000000000E+00  0.98409569494E+03  0.98409569495E+03  0.50400001928E-02 0.  1.
        1   -1    0    0  501    0  0.00000000000E+00  0.00000000000E+00 -0.17242347356E+04  0.17242347356E+04  0.50400001928E-02 0. -1.
    10030    2    1    2    0    0  0.00000000000E+00  0.00000000000E+00 -0.74013904064E+03  0.27083304305E+04  0.26052347152E+04 0.  0.
        1    1    3    3  502    0 -0.10241538115E+04 -0.50349197930E+03  0.28280915406E+03  0.11757449641E+04  0.50400001928E-02 0.  1.
       -1    1    3    3    0  502  0.10241538115E+04  0.50349197930E+03 -0.10229481947E+04  0.15325854665E+04  0.50400001928E-02 0. -1.
</event>
<event>
 5   0  0.2864801E-07  0.2599237E+04  0.7818609E-02  0.8368461E-01
       -1   -1    0    0    0  501  0.00000000000E+00  0.00000000000E+00  0.71832408087E+03  0.71832408089E+03  0.50400001928E-02 0. -1.
        1   -1    0    0  501    0  0.00000000000E+00  0.00000000000E+00 -0.23513171251E+04  0.23513171251E+04  0.50400001928E-02 0.  1.
    10030    2    1    2    0    0  0.00000000000E+00  0.00000000000E+00 -0.16329930442E+04  0.30696412060E+04  0.25992365900E+04 0.  0.
        5    1    3    3  502    0  0.34686554815E+03  0.15443486803E+03 -0.22843432722E+04  0.23156882588E+04  0.46999998093E+01 0.  1.
       -5    1    3    3    0  502 -0.34686554815E+03 -0.15443486803E+03  0.65135022799E+03  0.75395294711E+03  0.46999998093E+01 0. -1.
</event>
<event>
 5   0  0.2623263E-07  0.2599937E+04  0.7818609E-02  0.8368223E-01
       -1   -1    0    0    0  501  0.00000000000E+00  0.00000000000E+00  0.69995001980E+03  0.69995001982E+03  0.50400001928E-02 0.  1.
        1   -1    0    0  501    0  0.00000000000E+00  0.00000000000E+00 -0.24143413631E+04  0.24143413631E+04  0.50400001928E-02 0. -1.
    10030    2    1    2    0    0  0.00000000000E+00  0.00000000000E+00 -0.17143913433E+04  0.31142913830E+04  0.25999371415E+04 0.  0.
        1    1    3    3  502    0  0.75036381093E+03 -0.17720581025E+03  0.39651333743E+03  0.86698937405E+03  0.50400001928E-02 0.  1.
       -1    1    3    3    0  502 -0.75036381093E+03  0.17720581025E+03 -0.21109046808E+04  0.22473020089E+04  0.50400001928E-02 0. -1.
</event>
<event>
 5   0  0.2641626E-07  0.2598329E+04  0.7818609E-02  0.8368769E-01
       -1   -1    0    0    0  501  0.00000000000E+00  0.00000000000E+00  0.14668935931E+04  0.14668935932E+04  0.50400001928E-02 0.  1.
        1   -1    0    0  501    0  0.00000000000E+00  0.00000000000E+00 -0.11506140373E+04  0.11506140373E+04  0.50400001928E-02 0. -1.
    10030    2    1    2    0    0  0.00000000000E+00  0.00000000000E+00  0.31627955586E+03  0.26175076305E+04  0.25983289703E+04 0.  0.
        3    1    3    3  502    0  0.43594820974E+03 -0.92092895409E+03 -0.65382903353E+03  0.12106417287E+04  0.10100000352E+00 0. -1.
       -3    1    3    3    0  502 -0.43594820974E+03  0.92092895409E+03  0.97010858939E+03  0.14068659017E+04  0.10100000352E+00 0.  1.
</event>
<event>
 5   0  0.6526351E-07  0.2599661E+04  0.7818609E-02  0.8368316E-01
       -2   -1    0    0    0  501  0.00000000000E+00  0.00000000000E+00  0.16697906372E+04  0.16697906372E+04  0.25500000920E-02 0. -1.
        2   -1    0    0  501    0  0.00000000000E+00  0.00000000000E+00 -0.10118392236E+04  0.10118392236E+04  0.25500000920E-02 0.  1.
    10030    2    1    2    0    0  0.00000000000E+00  0.00000000000E+00  0.65795141363E+03  0.26816298607E+04  0.25996612563E+04 0.  0.
        3    1    3    3  502    0  0.37428136214E+03  0.12230253350E+04  0.89976205229E+02  0.12821751970E+04  0.10100000352E+00 0.  1.
       -3    1    3    3    0  502 -0.37428136214E+03 -0.12230253350E+04  0.56797520840E+03  0.13994546637E+04  0.10100000352E+00 0. -1.
</event>
<event>
 5   0  0.7160320E-07  0.2601537E+04  0.7818609E-02  0.8367679E-01
       -2   -1    0    0    0  501  0.00000000000E+00  0.00000000000E+00  0.14895548704E+04  0.14895548704E+04  0.25500000920E-02 0.  1.
        2   -1    0    0  501    0  0.00000000000E+00  0.00000000000E+00 -0.11359091563E+04  0.11359091563E+04  0.25500000920E-02 0. -1.
    10030    2    1    2    0    0  0.00000000000E+00  0.00000000000E+00  0.35364571412E+03  0.26254640266E+04  0.26015372502E+04 0.  0.
        1    1    3    3  502    0  0.23811815892E+03  0.18009543980E+03  0.14545096738E+04  0.14848343397E+04  0.50400001928E-02 0.  1.
       -1    1    3    3    0  502 -0.23811815892E+03 -0.18009543980E+03 -0.11008639597E+04  0.11406296870E+04  0.50400001928E-02 0. -1.
</event>
<event>
 5   0  0.2294625E-07  0.2595515E+04  0.7818609E-02  0.8369726E-01
        3   -1    0    0  501    0  0.00000000000E+00  0.00000000000E+00  0.15115651270E+04  0.15115651304E+04  0.10100000352E+00 0. -1.
       -3   -1    0    0    0  501  0.00000000000E+00  0.00000000000E+00 -0.11141920966E+04  0.11141921011E+04  0.10100000352E+00 0.  1.
    10030    2    1    2    0    0  0.00000000000E+00  0.00000000000E+00  0.39737303046E+03  0.26257572315E+04  0.25955145374E+04 0.  0.
        3    1    3    3  502    0 -0.97156746698E+03  0.21063519159E+03 -0.64521758938E+03  0.11851650833E+04  0.10100000352E+00 0.  1.
       -3    1    3    3    0  502  0.97156746698E+03 -0.21063519159E+03  0.10425906198E+04  0.14405921483E+04  0.10100000352E+00 0. -1.
</event>
<event>
 5   0  0.6768478E-07  0.2599769E+04  0.7818609E-02  0.8368280E-01
        2   -1    0    0  501    0  0.00000000000E+00  0.00000000000E+00  0.18029735237E+04  0.18029735237E+04  0.25500000920E-02 0.  1.
       -2   -1    0    0    0  501  0.00000000000E+00  0.00000000000E+00 -0.93717386715E+03  0.93717386715E+03  0.25500000920E-02 0. -1.
    10030    2    1    2    0    0  0.00000000000E+00  0.00000000000E+00  0.86579965652E+03  0.27401473908E+04  0.25997689663E+04 0.  0.
        4    1    3    3  502    0  0.61941681139E+03 -0.27166541108E+03 -0.73709267629E+03  0.10003931768E+04  0.12699999809E+01 0. -1.
       -4    1    3    3    0  502 -0.61941681139E+03  0.27166541108E+03  0.16028923328E+04  0.17397542140E+04  0.12699999809E+01 0.  1.
</event>
<event>
 5   0  0.2793576E-07  0.2610047E+04  0.7818609E-02  0.8364797E-01
       -1   -1    0    0    0  501  0.00000000000E+00  0.00000000000E+00  0.14893308913E+04  0.14893308913E+04  0.50400001928E-02 0. -1.
        1   -1    0    0  501    0  0.00000000000E+00  0.00000000000E+00 -0.11435243390E+04  0.11435243390E+04  0.50400001928E-02 0.  1.
    10030    2    1    2    0    0  0.00000000000E+00  0.00000000000E+00  0.34580655229E+03  0.26328552303E+04  0.26100468372E+04 0.  0.
        2    1    3    3  502    0 -0.41850127668E+03  0.56305331040E+03 -0.93712818653E+03  0.11706329856E+04  0.25500000920E-02 0.  1.
       -2    1    3    3    0  502  0.41850127668E+03 -0.56305331040E+03  0.12829347388E+04  0.14622222447E+04  0.25500000920E-02 0. -1.
</event>
<event>
 5   0  0.6599814E-07  0.2600186E+04  0.7818609E-02  0.8368138E-01
        2   -1    0    0  501    0  0.00000000000E+00  0.00000000000E+00  0.21023053308E+04  0.21023053308E+04  0.25500000920E-02 0. -1.
       -2   -1    0    0    0  501  0.00000000000E+00  0.00000000000E+00 -0.80399441323E+03  0.80399441323E+03  0.25500000920E-02 0.  1.
    10030    2    1    2    0    0  0.00000000000E+00  0.00000000000E+00  0.12983109176E+04  0.29062997441E+04  0.26001859479E+04 0.  0.
        5    1    3    3  502    0  0.10227692534E+04 -0.79073208868E+03  0.80283983735E+03  0.15218042175E+04  0.46999998093E+01 0.  1.
       -5    1    3    3    0  502 -0.10227692534E+04  0.79073208868E+03  0.49547108024E+03  0.13844955266E+04  0.46999998093E+01 0. -1.
</event>
<event>
 5   0  0.6599814E-07  0.2602912E+04  0.7818609E-02  0.8367213E-01
       -2   -1    0    0    0  501  0.00000000000E+00  0.00000000000E+00  0.76970781326E+03  0.76970781327E+03  0.25500000920E-02 0. -1.
        2   -1    0    0  501    0  0.00000000000E+00  0.00000000000E+00 -0.22005601089E+04  0.22005601089E+04  0.25500000920E-02 0.  1.
    10030    2    1    2    0    0  0.00000000000E+00  0.00000000000E+00 -0.14308522956E+04  0.29702679221E+04  0.26029124529E+04 0.  0.
        5    1    3    3  502    0 -0.55649117132E+03  0.24081901238E+03  0.59865614642E+03  0.85210767637E+03  0.46999998093E+01 0. -1.
       -5    1    3    3    0  502  0.55649117132E+03 -0.24081901238E+03 -0.20295084420E+04  0.21181602458E+04  0.46999998093E+01 0.  1.
</event>
<event>
 5   0  0.6526351E-07  0.2595458E+04  0.7818609E-02  0.8369746E-01
        2   -1    0    0  501    0  0.00000000000E+00  0.00000000000E+00  0.12029088914E+04  0.12029088914E+04  0.25500000920E-02 0.  1.
       -2   -1    0    0    0  501  0.00000000000E+00  0.00000000000E+00 -0.14000233784E+04  0.14000233784E+04  0.25500000920E-02 0. -1.
    10030    2    1    2    0    0  0.00000000000E+00  0.00000000000E+00 -0.19711448696E+03  0.26029322698E+04  0.25954580098E+04 0.  0.
        3    1    3    3  502    0 -0.31062965155E+03  0.67563877048E+03 -0.11651621845E+04  0.13822378431E+04  0.10100000352E+00 0. -1.
       -3    1    3    3    0  502  0.31062965155E+03 -0.67563877048E+03  0.96804769751E+03  0.12206944267E+04  0.10100000352E+00 0.  1.
</event>
<event>
 5   0  0.6599814E-07  0.2600063E+04  0.7818609E-02  0.8368180E-01
        2   -1    0    0  501    0  0.00000000000E+00  0.00000000000E+00  0.13167800393E+04  0.13167800393E+04  0.25500000920E-02 0.  1.
       -2   -1    0    0    0  501  0.00000000000E+00  0.00000000000E+00 -0.12834959575E+04  0.12834959575E+04  0.25500000920E-02 0. -1.
    10030    2    1    2    0    0  0.00000000000E+00  0.00000000000E+00  0.33284081730E+02  0.26002759968E+04  0.26000629665E+04 0.  0.
        5    1    3    3  502    0 -0.35691914412E+02  0.10408013582E+04  0.79485641688E+03  0.13100993067E+04  0.46999998093E+01 0.  1.
       -5    1    3    3    0  502  0.35691914412E+02 -0.10408013582E+04 -0.76157233515E+03  0.12901766901E+04  0.46999998093E+01 0. -1.
</event>
<event>
 5   0  0.6780984E-07  0.2599755E+04  0.7818609E-02  0.8368284E-01
       -2   -1    0    0    0  501  0.00000000000E+00  0.00000000000E+00  0.10594747881E+04  0.10594747881E+04  0.25500000920E-02 0. -1.
        2   -1    0    0  501    0  0.00000000000E+00  0.00000000000E+00 -0.15948291197E+04  0.15948291197E+04  0.25500000920E-02 0.  1.
    10030    2    1    2    0    0  0.00000000000E+00  0.00000000000E+00 -0.53535433163E+03  0.26543039078E+04  0.25997547913E+04 0.  0.
        2    1    3    3  502    0 -0.23315083051E+03  0.11893687914E+04 -0.74734749264E+03  0.14238980675E+04  0.25500000920E-02 0.  1.
       -2    1    3    3    0  502  0.23315083051E+03 -0.11893687914E+04  0.21199316101E+03  0.12304058404E+04  0.25500000920E-02 0. -1.
</event>
<event>
 5   0  0.6599814E-07  0.2599331E+04  0.7818609E-02  0.8368428E-01
       -2   -1    0    0    0  501  0.00000000000E+00  0.00000000000E+00  0.85801842585E+03  0.85801842585E+03  0.25500000920E-02 0. -1.
        2   -1    0    0  501    0  0.00000000000E+00  0.00000000000E+00 -0.19686414570E+04  0.19686414570E+04  0.25500000920E-02 0.  1.
    10030    2    1    2    0    0  0.00000000000E+00  0.00000000000E+00 -0.11106230311E+04  0.28266598828E+04  0.25993311786E+04 0.  0.
        5    1    3    3  502    0  0.47677522355E+03 -0.25180895631E+03  0.73064268757E+03  0.90806563153E+03  0.46999998093E+01 0. -1.
       -5    1    3    3    0  502 -0.47677522355E+03  0.25180895631E+03 -0.18412657187E+04  0.19185942513E+04  0.46999998093E+01 0.  1.
</event>
<event>
 5   0  0.6780984E-07  0.2599406E+04  0.7818609E-02  0.8368403E-01
        2   -1    0    0  501    0  0.00000000000E+00  0.00000000000E+00  0.15973490152E+04  0.15973490152E+04  0.25500000920E-02 0. -1.
       -2   -1    0    0    0  501  0.00000000000E+00  0.00000000000E+00 -0.10575196391E+04  0.10575196392E+04  0.25500000920E-02 0.  1.
    10030    2    1    2    0    0  0.00000000000E+00  0.00000000000E+00  0.53982937604E+03  0.26548686543E+04  0.25994060507E+04 0.  0.
        2    1    3    3  502    0  0.11024840870E+04  0.60175736634E+03  0.61117696899E+03  0.13968251062E+04  0.25500000920E-02 0. -1.
       -2    1    3    3    0  502 -0.11024840870E+04 -0.60175736634E+03 -0.71347592950E+02  0.12580435481E+04  0.25500000920E-02 0.  1.
</event>
<event>
 5   0  0.6768478E-07  0.2598680E+04  0.7818609E-02  0.8368650E-01
       -2   -1    0    0    0  501  0.00000000000E+00  0.00000000000E+00  0.13947254187E+04  0.13947254187E+04  0.25500000920E-02 0. -1.
        2   -1    0    0  501    0  0.00000000000E+00  0.00000000000E+00 -0.12104776074E+04  0.12104776074E+04  0.25500000920E-02 0.  1.
    10030    2    1    2    0    0  0.00000000000E+00  0.00000000000E+00  0.18424781131E+03  0.26052030261E+04  0.25986795784E+04 0.  0.
        4    1    3    3  502    0 -0.10532130834E+04  0.32337806383E+03  0.78265711710E+03  0.13514381033E+04  0.12699999809E+01 0. -1.
       -4    1    3    3    0  502  0.10532130834E+04 -0.32337806383E+03 -0.59840930579E+03  0.12537649227E+04  0.12699999809E+01 0.  1.
</event>
<event>
 5   0  0.7160320E-07  0.2599304E+04  0.7818609E-02  0.8368438E-01
        2   -1    0    0  501    0  0.00000000000E+00  0.00000000000E+00  0.11399534497E+04  0.11399534497E+04  0.25500000920E-02 0.  1.
       -2   -1    0    0    0  501  0.00000000000E+00  0.00000000000E+00 -0.14817233418E+04  0.14817233418E+04  0.25500000920E-02 0. -1.
    10030    2    1    2    0    0  0.00000000000E+00  0.00000000000E+00 -0.34176989204E+03  0.26216767915E+04  0.25993042415E+04 0.  0.
        1    1    3    3  502    0  0.13017777411E+01 -0.11219469875E+04 -0.83252576341E+03  0.13970919383E+04  0.50400001928E-02 0. -1.
       -1    1    3    3    0  502 -0.13017777411E+01  0.11219469875E+04  0.49075587137E+03  0.12245848532E+04  0.50400001928E-02 0.  1.
</event>
<event>
 5   0  0.2623263E-07  0.2599046E+04  0.7818609E-02  0.8368525E-01
        1   -1    0    0  501    0  0.00000000000E+00  0.00000000000E+00  0.19243879304E+04  0.19243879304E+04  0.50400001928E-02 0.  1.
       -1   -1    0    0    0  501  0.00000000000E+00  0.00000000000E+00 -0.87755699238E+03  0.87755699240E+03  0.50400001928E-02 0. -1.
    10030    2    1    2    0    0  0.00000000000E+00  0.00000000000E+00  0.10468309380E+04  0.28019449228E+04  0.25990460438E+04 0.  0.
        1    1    3    3  502    0  0.62870935398E+03 -0.58552273974E+03 -0.52771211720E+03  0.10082620737E+04  0.50400001928E-02 0. -1.
       -1    1    3    3    0  502 -0.62870935398E+03  0.58552273974E+03  0.15745430552E+04  0.17936828491E+04  0.50400001928E-02 0.  1.
</event>
<event>
 5   0  0.2864801E-07  0.2616010E+04  0.7818609E-02  0.8362783E-01
        1   -1    0    0  501    0  0.00000000000E+00  0.00000000000E+00  0.24944001036E+04  0.24944001036E+04  0.50400001928E-02 0. -1.
       -1   -1    0    0    0  501  0.00000000000E+00  0.00000000000E+00 -0.68588731931E+03  0.68588731933E+03  0.50400001928E-02 0.  1.
    10030    2    1    2    0    0  0.00000000000E+00  0.00000000000E+00  0.18085127843E+04  0.31802874229E+04  0.26160102449E+04 0.  0.
        5    1    3    3  502    0  0.62548228218E+03  0.91832694019E+03  0.17432690716E+04  0.20672594419E+04  0.46999998093E+01 0. -1.
       -5    1    3    3    0  502 -0.62548228218E+03 -0.91832694019E+03  0.65243712705E+02  0.11130279810E+04  0.46999998093E+01 0.  1.
</event>
<event>
 5   0  0.2793576E-07  0.2602026E+04  0.7818609E-02  0.8367513E-01
       -1   -1    0    0    0  501  0.00000000000E+00  0.00000000000E+00  0.70917931557E+03  0.70917931559E+03  0.50400001928E-02 0.  1.
        1   -1    0    0  501    0  0.00000000000E+00  0.00000000000E+00 -0.23867520537E+04  0.23867520537E+04  0.50400001928E-02 0. -1.
    10030    2    1    2    0    0  0.00000000000E+00  0.00000000000E+00 -0.16775727382E+04  0.30959313693E+04  0.26020262781E+04 0.  0.
        2    1    3    3  502    0 -0.99429209449E+03 -0.62085455174E+03 -0.15103295364E+04  0.19118505308E+04  0.25500000920E-02 0. -1.
       -2    1    3    3    0  502  0.99429209449E+03  0.62085455174E+03 -0.16724320172E+03  0.11840808385E+04  0.25500000920E-02 0.  1.
</event>
<event>
 5   0  0.2864801E-07  0.2599667E+04  0.7818609E-02  0.8368314E-01
        1   -1    0    0  501    0  0.00000000000E+00  0.00000000000E+00  0.23433714364E+04  0.23433714364E+04  0.50400001928E-02 0. -1.
       -1   -1    0    0    0  501  0.00000000000E+00  0.00000000000E+00 -0.72099827117E+03  0.72099827118E+03  0.50400001928E-02 0.  1.
    10030    2    1    2    0    0  0.00000000000E+00  0.00000000000E+00  0.16223731652E+04  0.30643697076E+04  0.25996667128E+04 0.  0.
        5    1    3    3  502    0  0.53522324490E+03  0.61911311077E+03 -0.37916887692E+03  0.90197344364E+03  0.46999998093E+01 0.  1.
       -5    1    3    3    0  502 -0.53522324490E+03 -0.61911311077E+03  0.20015420422E+04  0.21623962639E+04  0.46999998093E+01 0. -1.
</event>
<event>
 5   0  0.7160320E-07  0.2603525E+04  0.7818609E-02  0.8367005E-01
       -2   -1    0    0    0  501  0.00000000000E+00  0.00000000000E+00  0.16443349649E+04  0.16443349649E+04  0.25500000920E-02 0. -1.
        2   -1    0    0  501    0  0.00000000000E+00  0.00000000000E+00 -0.10305597337E+04  0.10305597337E+04  0.25500000920E-02 0.  1.
    10030    2    1    2    0    0  0.00000000000E+00  0.00000000000E+00  0.61377523120E+03  0.26748946987E+04  0.26035248443E+04 0.  0.
        1    1    3    3  502    0 -0.41807143288E+03 -0.10503580741E+04  0.96998653926E+03  0.14896005146E+04  0.50400001928E-02 0. -1.
       -1    1    3    3    0  502  0.41807143288E+03  0.10503580741E+04 -0.35621130806E+03  0.11852941841E+04  0.50400001928E-02 0.  1.
</event>
<event>
 5   0  0.6768478E-07  0.2594483E+04  0.7818609E-02  0.8370078E-01
       -2   -1    0    0    0  501  0.00000000000E+00  0.00000000000E+00  0.11665305676E+04  0.11665305676E+04  0.25500000920E-02 0.  1.
        2   -1    0    0  501    0  0.00000000000E+00  0.00000000000E+00 -0.14425990472E+04  0.14425990472E+04  0.25500000920E-02 0. -1.
    10030    2    1    2    0    0  0.00000000000E+00  0.00000000000E+00 -0.27606847958E+03  0.26091296148E+04  0.25944832899E+04 0.  0.
        4    1    3    3  502    0  0.71724696732E+03 -0.11467738394E+03 -0.12189227865E+04  0.14189321642E+04  0.12699999809E+01 0. -1.
       -4    1    3    3    0  502 -0.71724696732E+03  0.11467738394E+03  0.94285430687E+03  0.11901974506E+04  0.12699999809E+01 0.  1.
</event>
<event>
 5   0  0.2755061E-07  0.2596878E+04  0.7818609E-02  0.8369262E-01
       -1   -1    0    0    0  501  0.00000000000E+00  0.00000000000E+00  0.13067276460E+04  0.13067276460E+04  0.50400001928E-02 0.  1.
        1   -1    0    0  501    0  0.00000000000E+00  0.00000000000E+00 -0.12902031631E+04  0.12902031631E+04  0.50400001928E-02 0. -1.
    10030    2    1    2    0    0  0.00000000000E+00  0.00000000000E+00  0.16524482867E+02  0.25969308091E+04  0.25968782353E+04 0.  0.
        4    1    3    3  502    0 -0.10224244609E+04 -0.43500672542E+03  0.68010908095E+03  0.13027404209E+04  0.12699999809E+01 0.  1.
       -4    1    3    3    0  502  0.10224244609E+04  0.43500672542E+03 -0.66358459809E+03  0.12941903883E+04  0.12699999809E+01 0. -1.
</event>
<event>
 5   0  0.2793576E-07  0.2600257E+04  0.7818609E-02  0.8368114E-01
        1   -1    0    0  501    0  0.00000000000E+00  0.00000000000E+00  0.11900528277E+04  0.11900528278E+04  0.50400001928E-02 0.  1.
       -1   -1    0    0    0  501  0.00000000000E+00  0.00000000000E+00 -0.14203860767E+04  0.14203860767E+04  0.50400001928E-02 0. -1.
    10030    2    1    2    0    0  0.00000000000E+00  0.00000000000E+00 -0.23033324896E+03  0.26104389045E+04  0.26002572696E+04 0.  0.
        2    1    3    3  502    0 -0.10274246909E+04 -0.43449860447E+03 -0.78557177869E+03  0.13643729521E+04  0.25500000920E-02 0. -1.
       -2    1    3    3    0  502  0.10274246909E+04  0.43449860447E+03  0.55523852973E+03  0.12460659524E+04  0.25500000920E-02 0.  1.
</event>
<event>
 5   0  0.2793576E-07  0.2599819E+04  0.7818609E-02  0.8368263E-01
       -1   -1    0    0    0  501  0.00000000000E+00  0.00000000000E+00  0.89694611078E+03  0.89694611079E+03  0.50400001928E-02 0.  1.
        1   -1    0    0  501    0  0.00000000000E+00  0.00000000000E+00 -0.18839085537E+04  0.18839085537E+04  0.50400001928E-02 0. -1.
    10030    2    1    2    0    0  0.00000000000E+00  0.00000000000E+00 -0.98696244290E+03  0.27808546645E+04  0.25998188016E+04 0.  0.
        2    1    3    3  502    0 -0.34964466092E+03 -0.35436234262E+03  0.79094411988E+03  0.93456763241E+03  0.25500000920E-02 0.  1.
       -2    1    3    3    0  502  0.34964466092E+03  0.35436234262E+03 -0.17779065628E+04  0.18462870321E+04  0.25500000920E-02 0. -1.
</event>
<event>
 5   0  0.6780984E-07  0.2600853E+04  0.7818609E-02  0.8367912E-01
        2   -1    0    0  501    0  0.00000000000E+00  0.00000000000E+00  0.15526298141E+04  0.15526298141E+04  0.25500000920E-02 0. -1.
       -2   -1    0    0    0  501  0.00000000000E+00  0.00000000000E+00 -0.10891897345E+04  0.10891897345E+04  0.25500000920E-02 0.  1.
    10030    2    1    2    0    0  0.00000000000E+00  0.00000000000E+00  0.46344007968E+03  0.26418195486E+04  0.26008525179E+04 0.  0.
        2    1    3    3  502    0  0.10860490402E+04  0.71291045931E+03  0.17280108000E+03  0.13105739406E+04  0.25500000920E-02 0. -1.
       -2    1    3    3    0  502 -0.10860490402E+04 -0.71291045931E+03  0.29063899968E+03  0.13312456080E+04  0.25500000920E-02 0.  1.
</event>
<event>
 5   0  0.2623263E-07  0.2600266E+04  0.7818609E-02  0.8368111E-01
        1   -1    0    0  501    0  0.00000000000E+00  0.00000000000E+00  0.13732686077E+04  0.13732686078E+04  0.50400001928E-02 0. -1.
       -1   -1    0    0    0  501  0.00000000000E+00  0.00000000000E+00 -0.12308921022E+04  0.12308921022E+04  0.50400001928E-02 0.  1.
    10030    2    1    2    0    0  0.00000000000E+00  0.00000000000E+00  0.14237650552E+03  0.26041607100E+04  0.26002657430E+04 0.  0.
        1    1    3    3  502    0 -0.11344095097E+04 -0.61999158019E+03  0.20949285989E+03  0.13096418417E+04  0.50400001928E-02 0. -1.
       -1    1    3    3    0  502  0.11344095097E+04  0.61999158019E+03 -0.67116354368E+02  0.12945188683E+04  0.50400001928E-02 0.  1.
</event>
<event>
 5   0  0.2755061E-07  0.2600502E+04  0.7818609E-02  0.8368031E-01
       -1   -1    0    0    0  501  0.00000000000E+00  0.00000000000E+00  0.89700462042E+03  0.89700462044E+03  0.50400001928E-02 0. -1.
        1   -1    0    0  501    0  0.00000000000E+00  0.00000000000E+00 -0.18847755194E+04  0.18847755194E+04  0.50400001928E-02 0.  1.
    10030    2    1    2    0    0  0.00000000000E+00  0.00000000000E+00 -0.98777089896E+03  0.27817801398E+04  0.26005017588E+04 0.  0.
        4    1    3    3  502    0 -0.98816518072E+03  0.54755453532E+03 -0.11824693089E+04  0.16353964880E+04  0.12699999809E+01 0.  1.
       -4    1    3    3    0  502  0.98816518072E+03 -0.54755453532E+03  0.19469840990E+03  0.11463836519E+04  0.12699999809E+01 0. -1.
</event>
<event>
 5   0  0.2641626E-07  0.2599703E+04  0.7818609E-02  0.8368302E-01
        1   -1    0    0  501    0  0.00000000000E+00  0.00000000000E+00  0.25967282191E+04  0.25967282191E+04  0.50400001928E-02 0. -1.
       -1   -1    0    0    0  501  0.00000000000E+00  0.00000000000E+00 -0.65067040304E+03  0.65067040306E+03  0.50400001928E-02 0.  1.
    10030    2    1    2    0    0  0.00000000000E+00  0.00000000000E+00  0.19460578161E+04  0.32473986222E+04  0.25997032115E+04 0.  0.
        3    1    3    3  502    0 -0.10098932212E+04 -0.56181218641E+03  0.22971387598E+03  0.11782553739E+04  0.10100000352E+00 0.  1.
       -3    1    3    3    0  502  0.10098932212E+04  0.56181218641E+03  0.17163439401E+04  0.20691432483E+04  0.10100000352E+00 0. -1.
</event>
<event>
 5   0  0.2755061E-07  0.2595373E+04  0.7818609E-02  0.8369775E-01
       -1   -1    0    0    0  501  0.00000000000E+00  0.00000000000E+00  0.11705232519E+04  0.11705232519E+04  0.50400001928E-02 0. -1.
        1   -1    0    0  501    0  0.00000000000E+00  0.00000000000E+00 -0.14386644442E+04  0.14386644442E+04  0.50400001928E-02 0.  1.
    10030    2    1    2    0    0  0.00000000000E+00  0.00000000000E+00 -0.26814119230E+03  0.26091876961E+04  0.25953729471E+04 0.  0.
        4    1    3    3  502    0 -0.11555944295E+04 -0.56181010988E+03 -0.31658441856E+03  0.13233504419E+04  0.12699999809E+01 0. -1.
       -4    1    3    3    0  502  0.11555944295E+04  0.56181010988E+03  0.48443226261E+02  0.12858372542E+04  0.12699999809E+01 0.  1.
</event>
<event>
 5   0  0.6768478E-07  0.2600795E+04  0.7818609E-02  0.8367931E-01
       -2   -1    0    0    0  501  0.00000000000E+00  0.00000000000E+00  0.10306185303E+04  0.10306185303E+04  0.25500000920E-02 0.  1.
        2   -1    0    0  501    0  0.00000000000E+00  0.00000000000E+00 -0.16407944049E+04  0.16407944049E+04  0.25500000920E-02 0. -1.
    10030    2    1    2    0    0  0.00000000000E+00  0.00000000000E+00 -0.61017587465E+03  0.26714129352E+04  0.26007945848E+04 0.  0.
        4    1    3    3  502    0  0.94749214505E+03  0.89016415310E+03 -0.33586689919E+03  0.13427366724E+04  0.12699999809E+01 0.  1.
       -4    1    3    3    0  502 -0.94749214505E+03 -0.89016415310E+03 -0.27430897545E+03  0.13286762628E+04  0.12699999809E+01 0. -1.
</event>
<event>
 5   0  0.6780984E-07  0.2601856E+04  0.7818609E-02  0.8367571E-01
        2   -1    0    0  501    0  0.00000000000E+00  0.00000000000E+00  0.29186275515E+04  0.29186275515E+04  0.25500000920E-02 0.  1.
       -2   -1    0    0    0  501  0.00000000000E+00  0.00000000000E+00 -0.57986624770E+03  0.57986624771E+03  0.25500000920E-02 0. -1.
    10030    2    1    2    0    0  0.00000000000E+00  0.00000000000E+00  0.23387613038E+04  0.34984937992E+04  0.26018559581E+04 0.  0.
        2    1    3    3  502    0 -0.77650033178E+03  0.82266340026E+03  0.30559177679E+03  0.11717995432E+04  0.25500000920E-02 0. -1.
       -2    1    3    3    0  502  0.77650033178E+03 -0.82266340026E+03  0.20331695270E+04  0.23266942560E+04  0.25500000920E-02 0.  1.
</event>
<event>
 5   0  0.6599814E-07  0.2601182E+04  0.7818609E-02  0.8367800E-01
       -2   -1    0    0    0  501  0.00000000000E+00  0.00000000000E+00  0.79990377808E+03  0.79990377809E+03  0.25500000920E-02 0.  1.
        2   -1    0    0  501    0  0.00000000000E+00  0.00000000000E+00 -0.21146762734E+04  0.21146762734E+04  0.25500000920E-02 0. -1.
    10030    2    1    2    0    0  0.00000000000E+00  0.00000000000E+00 -0.13147724953E+04  0.29145800514E+04  0.26011824546E+04 0.  0.
        5    1    3    3  502    0 -0.26792518041E+03  0.45509701474E+03  0.67434803333E+03  0.85654220864E+03  0.46999998093E+01 0.  1.
       -5    1    3    3    0  502  0.26792518041E+03 -0.45509701474E+03 -0.19891205286E+04  0.20580378428E+04  0.46999998093E+01 0. -1.
</event>
<event>
 5   0  0.6526351E-07  0.2612622E+04  0.7818609E-02  0.8363926E-01
        2   -1    0    0  501    0  0.00000000000E+00  0.00000000000E+00  0.19689235200E+04  0.19689235200E+04  0.25500000920E-02 0. -1.
       -2   -1    0    0    0  501  0.00000000000E+00  0.00000000000E+00 -0.86669102207E+03  0.86669102208E+03  0.25500000920E-02 0.  1.
    10030    2    1    2    0    0  0.00000000000E+00  0.00000000000E+00  0.11022324979E+04  0.28356145421E+04  0.26126219305E+04 0.  0.
        3    1    3    3  502    0 -0.83003388615E+03 -0.65065107448E+03  0.13877144828E+04  0.17430015975E+04  0.10100000352E+00 0. -1.
       -3    1    3    3    0  502  0.83003388615E+03  0.65065107448E+03 -0.28548198483E+03  0.10926129446E+04  0.10100000352E+00 0.  1.
</event>
<event>
 5   0  0.7160320E-07  0.2588071E+04  0.7818609E-02  0.8372264E-01
       -2   -1    0    0    0  501  0.00000000000E+00  0.00000000000E+00  0.52445443413E+03  0.52445443414E+03  0.25500000920E-02 0.  1.
        2   -1    0    0  501    0  0.00000000000E+00  0.00000000000E+00 -0.31928956845E+04  0.31928956845E+04  0.25500000920E-02 0. -1.
    10030    2    1    2    0    0  0.00000000000E+00  0.00000000000E+00 -0.26684412504E+04  0.37173501187E+04  0.25880713278E+04 0.  0.
        1    1    3    3  502    0 -0.12826233019E+04  0.13700658929E+03 -0.14823445273E+04  0.19650034701E+04  0.50400001928E-02 0.  1.
       -1    1    3    3    0  502  0.12826233019E+04 -0.13700658929E+03 -0.11860967231E+04  0.17523466485E+04  0.50400001928E-02 0. -1.
</event>
<event>
 5   0  0.2641626E-07  0.2596948E+04  0.7818609E-02  0.8369239E-01
        1   -1    0    0  501    0  0.00000000000E+00  0.00000000000E+00  0.73911568197E+03  0.73911568199E+03  0.50400001928E-02 0. -1.
       -1   -1    0    0    0  501  0.00000000000E+00  0.00000000000E+00 -0.22811517533E+04  0.22811517533E+04  0.50400001928E-02 0.  1.
    10030    2    1    2    0    0  0.00000000000E+00  0.00000000000E+00 -0.15420360714E+04  0.30202674353E+04  0.25969482350E+04 0.  0.
        3    1    3    3  502    0  0.12553313317E+04  0.19817603636E+03 -0.46133380030E+03  0.13520204804E+04  0.10100000352E+00 0. -1.
       -3    1    3    3    0  502 -0.12553313317E+04 -0.19817603636E+03 -0.10807022711E+04  0.16682469550E+04  0.10100000352E+00 0.  1.
</event>
<event>
 5   0  0.2641626E-07  0.2599160E+04  0.7818609E-02  0.8368487E-01
       -1   -1    0    0    0  501  0.00000000000E+00  0.00000000000E+00  0.92089666113E+03  0.92089666114E+03  0.50400001928E-02 0. -1.
        1   -1    0    0  501    0  0.00000000000E+00  0.00000000000E+00 -0.18339816447E+04  0.18339816447E+04  0.50400001928E-02 0.  1.
    10030    2    1    2    0    0  0.00000000000E+00  0.00000000000E+00 -0.91308498357E+03  0.27548783058E+04  0.25991595358E+04 0.  0.
        3    1    3    3  502    0  0.71036042275E+02 -0.54533964845E+03 -0.17045698661E+04  0.17910890234E+04  0.10100000352E+00 0.  1.
       -3    1    3    3    0  502 -0.71036042275E+02  0.54533964845E+03  0.79148488248E+03  0.96378928240E+03  0.10100000352E+00 0. -1.
</event>
<event>
 5   0  0.6599814E-07  0.2600551E+04  0.7818609E-02  0.8368014E-01
        2   -1    0    0  501    0  0.00000000000E+00  0.00000000000E+00  0.10476008871E+04  0.10476008871E+04  0.25500000920E-02 0. -1.
       -2   -1    0    0    0  501  0.00000000000E+00  0.00000000000E+00 -0.16138937991E+04  0.16138937991E+04  0.25500000920E-02 0.  1.
    10030    2    1    2    0    0  0.00000000000E+00  0.00000000000E+00 -0.56629291199E+03  0.26614946862E+04  0.26005511536E+04 0.  0.
        5    1    3    3  502    0  0.25733823124E+03  0.12676180301E+04 -0.14731058505E+03  0.13018452035E+04  0.46999998093E+01 0. -1.
       -5    1    3    3    0  502 -0.25733823124E+03 -0.12676180301E+04 -0.41898232693E+03  0.13596494827E+04  0.46999998093E+01 0.  1.
</event>
<event>
 5   0  0.2755061E-07  0.2600286E+04  0.7818609E-02  0.8368104E-01
        1   -1    0    0  501    0  0.00000000000E+00  0.00000000000E+00  0.13010898697E+04  0.13010898697E+04  0.50400001928E-02 0.  1.
       -1   -1    0    0    0  501  0.00000000000E+00  0.00000000000E+00 -0.12991972304E+04  0.12991972304E+04  0.50400001928E-02 0. -1.
    10030    2    1    2    0    0  0.00000000000E+00  0.00000000000E+00  0.18926392911E+01  0.26002871001E+04  0.26002864113E+04 0.  0.
        4    1    3    3  502    0  0.14419047383E+03  0.91329672455E+03 -0.91309382451E+03  0.12994782588E+04  0.12699999809E+01 0. -1.
       -4    1    3    3    0  502 -0.14419047383E+03 -0.91329672455E+03  0.91498646380E+03  0.13008088413E+04  0.12699999809E+01 0.  1.
</event>
<event>
 5   0  0.7160320E-07  0.2600006E+04  0.7818609E-02  0.8368199E-01
        2   -1    0    0  501    0  0.00000000000E+00  0.00000000000E+00  0.15264394796E+04  0.15264394796E+04  0.25500000920E-02 0. -1.
       -2   -1    0    0    0  501  0.00000000000E+00  0.00000000000E+00 -0.11071571069E+04  0.11071571069E+04  0.25500000920E-02 0.  1.
    10030    2    1    2    0    0  0.00000000000E+00  0.00000000000E+00  0.41928237267E+03  0.26335965865E+04  0.26000063986E+04 0.  0.
        1    1    3    3  502    0 -0.65712980142E+03  0.92799217823E+03  0.84787619314E+03  0.14184086497E+04  0.50400001928E-02 0. -1.
       -1    1    3    3    0  502  0.65712980142E+03 -0.92799217823E+03 -0.42859382047E+03  0.12151879368E+04  0.50400001928E-02 0.  1.
</event>
<event>
 5   0  0.6526351E-07  0.2599774E+04  0.7818609E-02  0.8368278E-01
        2   -1    0    0  501    0  0.00000000000E+00  0.00000000000E+00  0.14118772814E+04  0.14118772814E+04  0.25500000920E-02 0. -1.
       -2   -1    0    0    0  501  0.00000000000E+00  0.00000000000E+00 -0.11967795377E+04  0.11967795377E+04  0.25500000920E-02 0.  1.
    10030    2    1    2    0    0  0.00000000000E+00  0.00000000000E+00  0.21509774378E+03  0.26086568191E+04  0.25997737133E+04 0.  0.
        3    1    3    3  502    0 -0.18313753556E+03 -0.48030150418E+03  0.13055617842E+04  0.14031109986E+04  0.10100000352E+00 0. -1.
       -3    1    3    3    0  502  0.18313753556E+03  0.48030150418E+03 -0.10904640404E+04  0.12055458205E+04  0.10100000352E+00 0.  1.
</event>
<event>
 5   0  0.2641626E-07  0.2597194E+04  0.7818609E-02  0.8369155E-01
        1   -1    0    0  501    0  0.00000000000E+00  0.00000000000E+00  0.17992008362E+04  0.17992008362E+04  0.50400001928E-02 0. -1.
       -1   -1    0    0    0  501  0.00000000000E+00  0.00000000000E+00 -0.93727950492E+03  0.93727950493E+03  0.50400001928E-02 0.  1.
    10030    2    1    2    0    0  0.00000000000E+00  0.00000000000E+00  0.86192133128E+03  0.27364803411E+04  0.25971939235E+04 0.  0.
        3    1    3    3  502    0  0.52678104501E+03 -0.64983045643E+03 -0.61557314660E+03  0.10386087813E+04  0.10100000352E+00 0.  1.
       -3    1    3    3    0  502 -0.52678104501E+03  0.64983045643E+03  0.14774944779E+04  0.16978715599E+04  0.10100000352E+00 0. -1.
</event>
<event>
 5   0  0.6526351E-07  0.2619916E+04  0.7818609E-02  0.8361468E-01
       -2   -1    0    0    0  501  0.00000000000E+00  0.00000000000E+00  0.75547321299E+03  0.75547321300E+03  0.25500000920E-02 0. -1.
        2   -1    0    0  501    0  0.00000000000E+00  0.00000000000E+00 -0.22714106765E+04  0.22714106765E+04  0.25500000920E-02 0.  1.
    10030    2    1    2    0    0  0.00000000000E+00  0.00000000000E+00 -0.15159374635E+04  0.30268838895E+04  0.26199159695E+04 0.  0.
        3    1    3    3  502    0 -0.38112821506E+03  0.41746840902E+03 -0.21232473873E+04  0.21972068784E+04  0.10100000352E+00 0.  1.
       -3    1    3    3    0  502  0.38112821506E+03 -0.41746840902E+03  0.60730992382E+03  0.82967701102E+03  0.10100000352E+00 0. -1.
</event>
<event>
 5   0  0.7160320E-07  0.2600740E+04  0.7818609E-02  0.8367950E-01
       -2   -1    0    0    0  501  0.00000000000E+00  0.00000000000E+00  0.12344070040E+04  0.12344070040E+04  0.25500000920E-02 0. -1.
        2   -1    0    0  501    0  0.00000000000E+00  0.00000000000E+00 -0.13698579978E+04  0.13698579978E+04  0.25500000920E-02 0.  1.
    10030    2    1    2    0    0  0.00000000000E+00  0.00000000000E+00 -0.13545099386E+03  0.26042650018E+04  0.26007401308E+04 0.  0.
        1    1    3    3  502    0 -0.10536703614E+04  0.57787454625E+03  0.42973961441E+03  0.12762587347E+04  0.50400001928E-02 0. -1.
       -1    1    3    3    0  502  0.10536703614E+04 -0.57787454625E+03 -0.56519060827E+03  0.13280062671E+04  0.50400001928E-02 0.  1.
</event>
<event>
 5   0  0.2793576E-07  0.2600163E+04  0.7818609E-02  0.8368146E-01
       -1   -1    0    0    0  501  0.00000000000E+00  0.00000000000E+00  0.16405193414E+04  0.16405193414E+04  0.50400001928E-02 0. -1.
        1   -1    0    0  501    0  0.00000000000E+00  0.00000000000E+00 -0.10302908289E+04  0.10302908289E+04  0.50400001928E-02 0.  1.
    10030    2    1    2    0    0  0.00000000000E+00  0.00000000000E+00  0.61022851248E+03  0.26708101703E+04  0.26001630965E+04 0.  0.
        2    1    3    3  502    0  0.32108645418E+03 -0.11516917944E+04 -0.21936809729E+03  0.12155710026E+04  0.25500000920E-02 0.  1.
       -2    1    3    3    0  502 -0.32108645418E+03  0.11516917944E+04  0.82959660977E+03  0.14552391677E+04  0.25500000920E-02 0. -1.
</event>
<event>
 5   0  0.6768478E-07  0.2599925E+04  0.7818609E-02  0.8368227E-01
       -2   -1    0    0    0  501  0.00000000000E+00  0.00000000000E+00  0.72295306125E+03  0.72295306126E+03  0.25500000920E-02 0.  1.
        2   -1    0    0  501    0  0.00000000000E+00  0.00000000000E+00 -0.23374994175E+04  0.23374994175E+04  0.25500000920E-02 0. -1.
    10030    2    1    2    0    0  0.00000000000E+00  0.00000000000E+00 -0.16145463563E+04  0.30604524788E+04  0.25999248909E+04 0.  0.
        4    1    3    3  502    0  0.41419003216E+02  0.38745565059E+03  0.65258930480E+03  0.76007356791E+03  0.12699999809E+01 0.  1.
       -4    1    3    3    0  502 -0.41419003216E+02 -0.38745565059E+03 -0.22671356611E+04  0.23003789109E+04  0.12699999809E+01 0. -1.
</event>
<event>
 5   0  0.6780984E-07  0.2593277E+04  0.7818609E-02  0.8370488E-01
       -2   -1    0    0    0  501  0.00000000000E+00  0.00000000000E+00  0.81590988882E+03  0.81590988882E+03  0.25500000920E-02 0. -1.
        2   -1    0    0  501    0  0.00000000000E+00  0.00000000000E+00 -0.20606090239E+04  0.20606090239E+04  0.25500000920E-02 0.  1.
    10030    2    1    2    0    0  0.00000000000E+00  0.00000000000E+00 -0.12446991351E+04  0.28765189128E+04  0.25932769074E+04 0.  0.
        2    1    3    3  502    0 -0.90052014698E+03 -0.15847046524E+03  0.39742388142E+03  0.99699306166E+03  0.25500000920E-02 0. -1.
       -2    1    3    3    0  502  0.90052014698E+03  0.15847046524E+03 -0.16421230165E+04  0.18795258511E+04  0.25500000920E-02 0.  1.
</event>
<event>
 5   0  0.2641626E-07  0.2601414E+04  0.7818609E-02  0.8367721E-01
        1   -1    0    0  501    0  0.00000000000E+00  0.00000000000E+00  0.14099672672E+04  0.14099672672E+04  0.50400001928E-02 0.  1.
       -1   -1    0    0    0  501  0.00000000000E+00  0.00000000000E+00 -0.11999135594E+04  0.11999135594E+04  0.50400001928E-02 0. -1.
    10030    2    1    2    0    0  0.00000000000E+00  0.00000000000E+00  0.21005370773E+03  0.26098808266E+04  0.26014141095E+04 0.  0.
        3    1    3    3  502    0 -0.92433920947E+03  0.52931461600E+03  0.85395621875E+03  0.13652172613E+04  0.10100000352E+00 0.  1.
       -3    1    3    3    0  502  0.92433920947E+03 -0.52931461600E+03 -0.64390251103E+03  0.12446635653E+04  0.10100000352E+00 0. -1.
</event>
<event>
 5   0  0.2755061E-07  0.2598745E+04  0.7818609E-02  0.8368627E-01
        1   -1    0    0  501    0  0.00000000000E+00  0.00000000000E+00  0.24358163870E+04  0.24358163870E+04  0.50400001928E-02 0. -1.
       -1   -1    0    0    0  501  0.00000000000E+00  0.00000000000E+00 -0.69314315547E+03  0.69314315549E+03  0.50400001928E-02 0.  1.
    10030    2    1    2    0    0  0.00000000000E+00  0.00000000000E+00  0.17426732315E+04  0.31289595425E+04  0.25987454332E+04 0.  0.
        4    1    3    3  502    0  0.59333312438E+03  0.34740938022E+03  0.21988441033E+04  0.23038347331E+04  0.12699999809E+01 0. -1.
       -4    1    3    3    0  502 -0.59333312438E+03 -0.34740938022E+03 -0.45617087176E+03  0.82512480941E+03  0.12699999809E+01 0.  1.
</event>
<event>
 5   0  0.2864801E-07  0.2598735E+04  0.7818609E-02  0.8368631E-01
        1   -1    0    0  501    0  0.00000000000E+00  0.00000000000E+00  0.24945749478E+04  0.24945749478E+04  0.50400001928E-02 0.  1.
       -1   -1    0    0    0  501  0.00000000000E+00  0.00000000000E+00 -0.67681124432E+03  0.67681124434E+03  0.50400001928E-02 0. -1.
    10030    2    1    2    0    0  0.00000000000E+00  0.00000000000E+00  0.18177637034E+04  0.31713861921E+04  0.25987353651E+04 0.  0.
        5    1    3    3  502    0  0.26325948242E+03  0.11157021172E+04  0.16554350061E+04  0.20135997415E+04  0.46999998093E+01 0.  1.
       -5    1    3    3    0  502 -0.26325948242E+03 -0.11157021172E+04  0.16232869732E+03  0.11577864506E+04  0.46999998093E+01 0. -1.
</event>
<event>
 5   0  0.2755061E-07  0.2599318E+04  0.7818609E-02  0.8368433E-01
       -1   -1    0    0    0  501  0.00000000000E+00  0.00000000000E+00  0.77992926512E+03  0.77992926513E+03  0.50400001928E-02 0.  1.
        1   -1    0    0  501    0  0.00000000000E+00  0.00000000000E+00 -0.21657265347E+04  0.21657265347E+04  0.50400001928E-02 0. -1.
    10030    2    1    2    0    0  0.00000000000E+00  0.00000000000E+00 -0.13857972695E+04  0.29456557998E+04  0.25993179910E+04 0.  0.
        4    1    3    3  502    0 -0.59334737901E+02  0.11433516362E+04  0.41494670591E+01  0.11448984262E+04  0.12699999809E+01 0.  1.
       -4    1    3    3    0  502  0.59334737901E+02 -0.11433516362E+04 -0.13899467366E+04  0.18007573736E+04  0.12699999809E+01 0. -1.
</event>
<event>
 5   0  0.2623263E-07  0.2611249E+04  0.7818609E-02  0.8364390E-01
       -1   -1    0    0    0  501  0.00000000000E+00  0.00000000000E+00  0.74123144540E+03  0.74123144542E+03  0.50400001928E-02 0.  1.
        1   -1    0    0  501    0  0.00000000000E+00  0.00000000000E+00 -0.22997608022E+04  0.22997608022E+04  0.50400001928E-02 0. -1.
    10030    2    1    2    0    0  0.00000000000E+00  0.00000000000E+00 -0.15585293568E+04  0.30409922477E+04  0.26112487615E+04 0.  0.
        1    1    3    3  502    0  0.25330481904E+03 -0.69121862510E+03 -0.20350126651E+04  0.21640755685E+04  0.50400001928E-02 0. -1.
       -1    1    3    3    0  502 -0.25330481904E+03  0.69121862510E+03  0.47648330829E+03  0.87691667913E+03  0.50400001928E-02 0.  1.
</event>
<event>
 5   0  0.6599814E-07  0.2599615E+04  0.7818609E-02  0.8368332E-01
       -2   -1    0    0    0  501  0.00000000000E+00  0.00000000000E+00  0.12062815804E+04  0.12062815804E+04  0.25500000920E-02 0. -1.
        2   -1    0    0  501    0  0.00000000000E+00  0.00000000000E+00 -0.14005845825E+04  0.14005845825E+04  0.25500000920E-02 0.  1.
    10030    2    1    2    0    0  0.00000000000E+00  0.00000000000E+00 -0.19430300206E+03  0.26068661629E+04  0.25996148820E+04 0.  0.
        5    1    3    3  502    0 -0.57561508807E+03  0.49034452547E+03  0.96301400334E+03  0.12244135510E+04  0.46999998093E+01 0. -1.
       -5    1    3    3    0  502  0.57561508807E+03 -0.49034452547E+03 -0.11573170054E+04  0.13824526119E+04  0.46999998093E+01 0.  1.
</event>
<event>
 5   0  0.2755061E-07  0.2598932E+04  0.7818609E-02  0.8368564E-01
        1   -1    0    0  501    0  0.00000000000E+00  0.00000000000E+00  0.17423767571E+04  0.17423767571E+04  0.50400001928E-02 0. -1.
       -1   -1    0    0    0  501  0.00000000000E+00  0.00000000000E+00 -0.96914311809E+03  0.96914311810E+03  0.50400001928E-02 0.  1.
    10030    2    1    2    0    0  0.00000000000E+00  0.00000000000E+00  0.77323363902E+03  0.27115198752E+04  0.25989324295E+04 0.  0.
        4    1    3    3  502    0 -0.16627418428E+03 -0.95418240744E+03 -0.51722629431E+03  0.10980144915E+04  0.12699999809E+01 0.  1.
       -4    1    3    3    0  502  0.16627418428E+03  0.95418240744E+03  0.12904599333E+04  0.16135053838E+04  0.12699999809E+01 0. -1.
</event>
<event>
 5   0  0.2294625E-07  0.2600432E+04  0.7818609E-02  0.8368055E-01
       -4   -1    0    0    0  501  0.00000000000E+00  0.00000000000E+00  0.12950162667E+04  0.12950168894E+04  0.12699999809E+01 0.  1.
        4   -1    0    0  501    0  0.00000000000E+00  0.00000000000E+00 -0.13054349508E+04  0.13054355686E+04  0.12699999809E+01 0. -1.
    10030    2    1    2    0    0  0.00000000000E+00  0.00000000000E+00 -0.10418684144E+02  0.26004524580E+04  0.26004315867E+04 0.  0.
        2    1    3    3  502    0 -0.27093609419E+03 -0.86126922269E+03  0.93041030279E+03  0.12964776792E+04  0.25500000920E-02 0.  1.
       -2    1    3    3    0  502  0.27093609419E+03  0.86126922269E+03 -0.94082898693E+03  0.13039747788E+04  0.25500000920E-02 0. -1.
</event>
<event>
 5   0  0.6526351E-07  0.2600862E+04  0.7818609E-02  0.8367908E-01
       -2   -1    0    0    0  501  0.00000000000E+00  0.00000000000E+00  0.84836690280E+03  0.84836690281E+03  0.25500000920E-02 0.  1.
        2   -1    0    0  501    0  0.00000000000E+00  0.00000000000E+00 -0.19933842792E+04  0.19933842792E+04  0.25500000920E-02 0. -1.
    10030    2    1    2    0    0  0.00000000000E+00  0.00000000000E+00 -0.11450173764E+04  0.28417511820E+04  0.26008623547E+04 0.  0.
        3    1    3    3  502    0  0.38125318882E+03  0.10470480862E+04 -0.13050177806E+04  0.17160230495E+04  0.10100000352E+00 0. -1.
       -3    1    3    3    0  502 -0.38125318882E+03 -0.10470480862E+04  0.16000040417E+03  0.11257281325E+04  0.10100000352E+00 0.  1.
</event>
<event>
 5   0  0.6526351E-07  0.2599772E+04  0.7818609E-02  0.8368279E-01
        2   -1    0    0  501    0  0.00000000000E+00  0.00000000000E+00  0.19709816049E+04  0.19709816049E+04  0.25500000920E-02 0.  1.
       -2   -1    0    0    0  501  0.00000000000E+00  0.00000000000E+00 -0.85729047819E+03  0.85729047819E+03  0.25500000920E-02 0. -1.
    10030    2    1    2    0    0  0.00000000000E+00  0.00000000000E+00  0.11136911267E+04  0.28282720831E+04  0.25997721151E+04 0.  0.
        3    1    3    3  502    0  0.88482242903E+03  0.87229263952E+03  0.97238421556E+03  0.15777630534E+04  0.10100000352E+00 0.  1.
       -3    1    3    3    0  502 -0.88482242903E+03 -0.87229263952E+03  0.14130691112E+03  0.12505090296E+04  0.10100000352E+00 0. -1.
</event>
<event>
 5   0  0.2864801E-07  0.2600252E+04  0.7818609E-02  0.8368116E-01
       -1   -1    0    0    0  501  0.00000000000E+00  0.00000000000E+00  0.64000406519E+03  0.64000406521E+03  0.50400001928E-02 0.  1.
        1   -1    0    0  501    0  0.00000000000E+00  0.00000000000E+00 -0.26411194761E+04  0.26411194761E+04  0.50400001928E-02 0. -1.
    10030    2    1    2    0    0  0.00000000000E+00  0.00000000000E+00 -0.20011154109E+04  0.32811235413E+04  0.26002516812E+04 0.  0.
        5    1    3    3  502    0  0.44722251793E+03 -0.55530262274E+03 -0.23724000400E+04  0.24772309184E+04  0.46999998093E+01 0. -1.
       -5    1    3    3    0  502 -0.44722251793E+03  0.55530262274E+03  0.37128462909E+03  0.80389262291E+03  0.46999998093E+01 0.  1.
</event>
<event>
 5   0  0.6599814E-07  0.2600517E+04  0.7818609E-02  0.8368026E-01
       -2   -1    0    0    0  501  0.00000000000E+00  0.00000000000E+00  0.79084139565E+03  0.79084139565E+03  0.25500000920E-02 0. -1.
        2   -1    0    0  501    0  0.00000000000E+00  0.00000000000E+00 -0.21378143314E+04  0.21378143314E+04  0.25500000920E-02 0.  1.
    10030    2    1    2    0    0  0.00000000000E+00  0.00000000000E+00 -0.13469729358E+04  0.29286557271E+04  0.26005169252E+04 0.  0.
        5    1    3    3  502    0  0.15454389684E+03 -0.19353560829E+03  0.76402234661E+03  0.80317624706E+03  0.46999998093E+01 0. -1.
       -5    1    3    3    0  502 -0.15454389684E+03  0.19353560829E+03 -0.21109952824E+04  0.21254794800E+04  0.46999998093E+01 0.  1.
</event>
<event>
 5   0  0.6526351E-07  0.2597636E+04  0.7818609E-02  0.8369005E-01
        2   -1    0    0  501    0  0.00000000000E+00  0.00000000000E+00  0.11976942687E+04  0.11976942687E+04  0.25500000920E-02 0.  1.
       -2   -1    0    0    0  501  0.00000000000E+00  0.00000000000E+00 -0.14084793523E+04  0.14084793523E+04  0.25500000920E-02 0. -1.
    10030    2    1    2    0    0  0.00000000000E+00  0.00000000000E+00 -0.21078508355E+03  0.26061736210E+04  0.25976355771E+04 0.  0.
        3    1    3    3  502    0  0.72138561755E+03  0.41819601059E+03  0.89369304158E+03  0.12222816268E+04  0.10100000352E+00 0.  1.
       -3    1    3    3    0  502 -0.72138561755E+03 -0.41819601059E+03 -0.11044781251E+04  0.13838919942E+04  0.10100000352E+00 0. -1.
</event>
<event>
 5   0  0.2641626E-07  0.2600511E+04  0.7818609E-02  0.8368028E-01
       -1   -1    0    0    0  501  0.00000000000E+00  0.00000000000E+00  0.87602599403E+03  0.87602599405E+03  0.50400001928E-02 0.  1.
        1   -1    0    0  501    0  0.00000000000E+00  0.00000000000E+00 -0.19299250829E+04  0.19299250829E+04  0.50400001928E-02 0. -1.
    10030    2    1    2    0    0  0.00000000000E+00  0.00000000000E+00 -0.10538990889E+04  0.28059510770E+04  0.26005111338E+04 0.  0.
        3    1    3    3  502    0 -0.61019391024E+03 -0.97611577138E+02 -0.17613554872E+04  0.18666113121E+04  0.10100000352E+00 0. -1.
       -3    1    3    3    0  502  0.61019391024E+03  0.97611577138E+02  0.70745639832E+03  0.93933976484E+03  0.10100000352E+00 0.  1.
</event>
<event>
 5   0  0.2641626E-07  0.2595222E+04  0.7818609E-02  0.8369826E-01
       -1   -1    0    0    0  501  0.00000000000E+00  0.00000000000E+00  0.73866879441E+03  0.73866879443E+03  0.50400001928E-02 0. -1.
        1   -1    0    0  501    0  0.00000000000E+00  0.00000000000E+00 -0.22794986927E+04  0.22794986927E+04  0.50400001928E-02 0.  1.
    10030    2    1    2    0    0  0.00000000000E+00  0.00000000000E+00 -0.15408298983E+04  0.30181674871E+04  0.25952221880E+04 0.  0.
        3    1    3    3  502    0 -0.62473303927E+03 -0.10225598521E+04 -0.13494231748E+04  0.18046780700E+04  0.10100000352E+00 0.  1.
       -3    1    3    3    0  502  0.62473303927E+03  0.10225598521E+04 -0.19140672350E+03  0.12134894171E+04  0.10100000352E+00 0. -1.
</event>
<event>
 5   0  0.2755061E-07  0.2600252E+04  0.7818609E-02  0.8368116E-01
        1   -1    0    0  501    0  0.00000000000E+00  0.00000000000E+00  0.19436803899E+04  0.19436803899E+04  0.50400001928E-02 0. -1.
       -1   -1    0    0    0  501  0.00000000000E+00  0.00000000000E+00 -0.86965287523E+03  0.86965287524E+03  0.50400001928E-02 0.  1.
    10030    2    1    2    0    0  0.00000000000E+00  0.00000000000E+00  0.10740275146E+04  0.28133332651E+04  0.26002517106E+04 0.  0.
        4    1    3    3  502    0  0.27031375836E+03  0.25127964294E+03  0.18858130092E+04  0.19215887451E+04  0.12699999809E+01 0. -1.
       -4    1    3    3    0  502 -0.27031375836E+03 -0.25127964294E+03 -0.81178549453E+03  0.89174452000E+03  0.12699999809E+01 0.  1.
</event>
<event>
 5   0  0.7160320E-07  0.2599552E+04  0.7818609E-02  0.8368353E-01
        2   -1    0    0  501    0  0.00000000000E+00  0.00000000000E+00  0.16502658263E+04  0.16502658263E+04  0.25500000920E-02 0. -1.
       -2   -1    0    0    0  501  0.00000000000E+00  0.00000000000E+00 -0.10237244863E+04  0.10237244863E+04  0.25500000920E-02 0.  1.
    10030    2    1    2    0    0  0.00000000000E+00  0.00000000000E+00  0.62654133997E+03  0.26739903126E+04  0.25995519117E+04 0.  0.
        1    1    3    3  502    0  0.75061065315E+03  0.64732232303E+03 -0.55162427967E+03  0.11343420509E+04  0.50400001928E-02 0.  1.
       -1    1    3    3    0  502 -0.75061065315E+03 -0.64732232303E+03  0.11781656196E+04  0.15396482617E+04  0.50400001928E-02 0. -1.
</event>
<event>
 5   0  0.6599814E-07  0.2602289E+04  0.7818609E-02  0.8367424E-01
        2   -1    0    0  501    0  0.00000000000E+00  0.00000000000E+00  0.16484443757E+04  0.16484443757E+04  0.25500000920E-02 0.  1.
       -2   -1    0    0    0  501  0.00000000000E+00  0.00000000000E+00 -0.10270151214E+04  0.10270151214E+04  0.25500000920E-02 0. -1.
    10030    2    1    2    0    0  0.00000000000E+00  0.00000000000E+00  0.62142925431E+03  0.26754594972E+04  0.26022892235E+04 0.  0.
        5    1    3    3  502    0 -0.49429764681E+03  0.88026486165E+03 -0.53319326686E+03  0.11417151747E+04  0.46999998093E+01 0. -1.
       -5    1    3    3    0  502  0.49429764681E+03 -0.88026486165E+03  0.11546225212E+04  0.15337443225E+04  0.46999998093E+01 0.  1.
</event>
<event>
 5   0  0.6780984E-07  0.2600080E+04  0.7818609E-02  0.8368174E-01
        2   -1    0    0  501    0  0.00000000000E+00  0.00000000000E+00  0.15287445370E+04  0.15287445370E+04  0.25500000920E-02 0. -1.
       -2   -1    0    0    0  501  0.00000000000E+00  0.00000000000E+00 -0.11055499599E+04  0.11055499599E+04  0.25500000920E-02 0.  1.
    10030    2    1    2    0    0  0.00000000000E+00  0.00000000000E+00  0.42319457709E+03  0.26342944968E+04  0.26000795846E+04 0.  0.
        2    1    3    3  502    0  0.43126401275E+03 -0.28706746981E+03  0.14196412714E+04  0.15112172976E+04  0.25500000920E-02 0. -1.
       -2    1    3    3    0  502 -0.43126401275E+03  0.28706746981E+03 -0.99644669433E+03  0.11230771993E+04  0.25500000920E-02 0.  1.
</event>
<event>
 5   0  0.6526351E-07  0.2601014E+04  0.7818609E-02  0.8367857E-01
        2   -1    0    0  501    0  0.00000000000E+00  0.00000000000E+00  0.10809825592E+04  0.10809825592E+04  0.25500000920E-02 0. -1.
       -2   -1    0    0    0  501  0.00000000000E+00  0.00000000000E+00 -0.15646127477E+04  0.15646127477E+04  0.25500000920E-02 0.  1.
    10030    2    1    2    0    0  0.00000000000E+00  0.00000000000E+00 -0.48363018852E+03  0.26455953069E+04  0.26010144883E+04 0.  0.
        3    1    3    3  502    0 -0.45849461011E+03  0.11585066001E+04  0.13735332305E+03  0.12534834644E+04  0.10100000352E+00 0. -1.
       -3    1    3    3    0  502  0.45849461011E+03 -0.11585066001E+04 -0.62098351157E+03  0.13921118425E+04  0.10100000352E+00 0.  1.
</event>
<event>
 5   0  0.2793576E-07  0.2601617E+04  0.7818609E-02  0.8367652E-01
       -1   -1    0    0    0  501  0.00000000000E+00  0.00000000000E+00  0.14895523889E+04  0.14895523889E+04  0.50400001928E-02 0.  1.
        1   -1    0    0  501    0  0.00000000000E+00  0.00000000000E+00 -0.11359808634E+04  0.11359808634E+04  0.50400001928E-02 0. -1.
    10030    2    1    2    0    0  0.00000000000E+00  0.00000000000E+00  0.35357152552E+03  0.26255332522E+04  0.26016171961E+04 0.  0.
        2    1    3    3  502    0  0.12433856189E+04  0.17686990596E+03  0.51874019593E+03  0.13588164526E+04  0.25500000920E-02 0.  1.
       -2    1    3    3    0  502 -0.12433856189E+04 -0.17686990596E+03 -0.16516867041E+03  0.12667167997E+04  0.25500000920E-02 0. -1.
</event>
<event>
 5   0  0.2623263E-07  0.2600097E+04  0.7818609E-02  0.8368168E-01
        1   -1    0    0  501    0  0.00000000000E+00  0.00000000000E+00  0.22302945889E+04  0.22302945889E+04  0.50400001928E-02 0. -1.
       -1   -1    0    0    0  501  0.00000000000E+00  0.00000000000E+00 -0.75780406125E+03  0.75780406127E+03  0.50400001928E-02 0.  1.
    10030    2    1    2    0    0  0.00000000000E+00  0.00000000000E+00  0.14724905277E+04  0.29880986502E+04  0.26000971500E+04 0.  0.
        1    1    3    3  502    0  0.67100655862E+02  0.12598388052E+04  0.10967982225E+04  0.16717244552E+04  0.50400001928E-02 0.  1.
       -1    1    3    3    0  502 -0.67100655862E+02 -0.12598388052E+04  0.37569230520E+03  0.13163741950E+04  0.50400001928E-02 0. -1.
</event>
<event>
 5   0  0.6526351E-07  0.2599288E+04  0.7818609E-02  0.8368443E-01
        2   -1    0    0  501    0  0.00000000000E+00  0.00000000000E+00  0.10375117656E+04  0.10375117656E+04  0.25500000920E-02 0. -1.
       -2   -1    0    0    0  501  0.00000000000E+00  0.00000000000E+00 -0.16280050284E+04  0.16280050284E+04  0.25500000920E-02 0.  1.
    10030    2    1    2    0    0  0.00000000000E+00  0.00000000000E+00 -0.59049326277E+03  0.26655167940E+04  0.25992878805E+04 0.  0.
        3    1    3    3  502    0  0.14803334043E+03 -0.96877185202E+03  0.58010797128E+03  0.11388406560E+04  0.10100000352E+00 0. -1.
       -3    1    3    3    0  502 -0.14803334043E+03  0.96877185202E+03 -0.11706012341E+04  0.15266761381E+04  0.10100000352E+00 0.  1.
</event>
<event>
 5   0  0.6599814E-07  0.2587073E+04  0.7818609E-02  0.8372606E-01
        2   -1    0    0  501    0  0.00000000000E+00  0.00000000000E+00  0.17441945327E+04  0.17441945327E+04  0.25500000920E-02 0.  1.
       -2   -1    0    0    0  501  0.00000000000E+00  0.00000000000E+00 -0.95931761204E+03  0.95931761205E+03  0.25500000920E-02 0. -1.
    10030    2    1    2    0    0  0.00000000000E+00  0.00000000000E+00  0.78487692069E+03  0.27035121448E+04  0.25870728896E+04 0.  0.
        5    1    3    3  502    0 -0.10246682281E+04 -0.78790774706E+03  0.34049358313E+03  0.13366755649E+04  0.46999998093E+01 0. -1.
       -5    1    3    3    0  502  0.10246682281E+04  0.78790774706E+03  0.44438333756E+03  0.13668365799E+04  0.46999998093E+01 0.  1.
</event>
<event>
 5   0  0.2641626E-07  0.2616850E+04  0.7818609E-02  0.8362500E-01
        1   -1    0    0  501    0  0.00000000000E+00  0.00000000000E+00  0.19861778199E+04  0.19861778199E+04  0.50400001928E-02 0. -1.
       -1   -1    0    0    0  501  0.00000000000E+00  0.00000000000E+00 -0.86194495254E+03  0.86194495256E+03  0.50400001928E-02 0.  1.
    10030    2    1    2    0    0  0.00000000000E+00  0.00000000000E+00  0.11242328673E+04  0.28481227724E+04  0.26168499741E+04 0.  0.
        3    1    3    3  502    0  0.17121157797E+03  0.11100677994E+04 -0.16832409789E+03  0.11357362967E+04  0.10100000352E+00 0.  1.
       -3    1    3    3    0  502 -0.17121157797E+03 -0.11100677994E+04  0.12925569652E+04  0.17123864757E+04  0.10100000352E+00 0. -1.
</event>
<event>
 5   0  0.2755061E-07  0.2600384E+04  0.7818609E-02  0.8368071E-01
        1   -1    0    0  501    0  0.00000000000E+00  0.00000000000E+00  0.28669096211E+04  0.28669096211E+04  0.50400001928E-02 0. -1.
       -1   -1    0    0    0  501  0.00000000000E+00  0.00000000000E+00 -0.58965889336E+03  0.58965889338E+03  0.50400001928E-02 0.  1.
    10030    2    1    2    0    0  0.00000000000E+00  0.00000000000E+00  0.22772507277E+04  0.34565685145E+04  0.26003836291E+04 0.  0.
        4    1    3    3  502    0  0.21255823343E+03 -0.83752805178E+03 -0.15277886644E+03  0.87748346711E+03  0.12699999809E+01 0.  1.
       -4    1    3    3    0  502 -0.21255823343E+03  0.83752805178E+03  0.24300295941E+04  0.25790850473E+04  0.12699999809E+01 0. -1.
</event>
<event>
 5   0  0.2793576E-07  0.2600999E+04  0.7818609E-02  0.8367862E-01
        1   -1    0    0  501    0  0.00000000000E+00  0.00000000000E+00  0.11222061550E+04  0.11222061550E+04  0.50400001928E-02 0. -1.
       -1   -1    0    0    0  501  0.00000000000E+00  0.00000000000E+00 -0.15071195033E+04  0.15071195033E+04  0.50400001928E-02 0.  1.
    10030    2    1    2    0    0  0.00000000000E+00  0.00000000000E+00 -0.38491334827E+03  0.26293256583E+04  0.26009988719E+04 0.  0.
        2    1    3    3  502    0 -0.55009842568E+02 -0.10671561063E+04 -0.94177873666E+03  0.14243578998E+04  0.25500000920E-02 0.  1.
       -2    1    3    3    0  502  0.55009842568E+02  0.10671561063E+04  0.55686538838E+03  0.12049677584E+04  0.25500000920E-02 0. -1.
</event>
<event>
 5   0  0.6768478E-07  0.2589465E+04  0.7818609E-02  0.8371789E-01
       -2   -1    0    0    0  501  0.00000000000E+00  0.00000000000E+00  0.13087085720E+04  0.13087085720E+04  0.25500000920E-02 0. -1.
        2   -1    0    0  501    0  0.00000000000E+00  0.00000000000E+00 -0.12809053548E+04  0.12809053548E+04  0.25500000920E-02 0.  1.
    10030    2    1    2    0    0  0.00000000000E+00  0.00000000000E+00  0.27803217241E+02  0.25896139268E+04  0.25894646688E+04 0.  0.
        4    1    3    3  502    0 -0.47622232005E+03 -0.43477732088E+03 -0.11088879999E+04  0.12827522076E+04  0.12699999809E+01 0.  1.
       -4    1    3    3    0  502  0.47622232005E+03  0.43477732088E+03  0.11366912172E+04  0.13068617191E+04  0.12699999809E+01 0. -1.
</event>
<event>
 5   0  0.2864801E-07  0.2599429E+04  0.7818609E-02  0.8368395E-01
        1   -1    0    0  501    0  0.00000000000E+00  0.00000000000E+00  0.18561484298E+04  0.18561484298E+04  0.50400001928E-02 0. -1.
       -1   -1    0    0    0  501  0.00000000000E+00  0.00000000000E+00 -0.91008773513E+03  0.91008773515E+03  0.50400001928E-02 0.  1.
    10030    2    1    2    0    0  0.00000000000E+00  0.00000000000E+00  0.94606069467E+03  0.27662361649E+04  0.25994291070E+04 0.  0.
        5    1    3    3  502    0 -0.41414458157E+03 -0.26565463480E+03 -0.80713983752E+03  0.94529621111E+03  0.46999998093E+01 0.  1.
       -5    1    3    3    0  502  0.41414458157E+03  0.26565463480E+03  0.17532005322E+04  0.18209399538E+04  0.46999998093E+01 0. -1.
</event>
<event>
 5   0  0.6599814E-07  0.2599833E+04  0.7818609E-02  0.8368258E-01
       -2   -1    0    0    0  501  0.00000000000E+00  0.00000000000E+00  0.14039972656E+04  0.14039972656E+04  0.25500000920E-02 0. -1.
        2   -1    0    0  501    0  0.00000000000E+00  0.00000000000E+00 -0.12035511928E+04  0.12035511928E+04  0.25500000920E-02 0.  1.
    10030    2    1    2    0    0  0.00000000000E+00  0.00000000000E+00  0.20044607283E+03  0.26075484584E+04  0.25998327513E+04 0.  0.
        5    1    3    3  502    0 -0.35424676216E+03  0.83643506641E+03  0.10328461451E+04  0.13754663348E+04  0.46999998093E+01 0. -1.
       -5    1    3    3    0  502  0.35424676216E+03 -0.83643506641E+03 -0.83240007226E+03  0.12320821235E+04  0.46999998093E+01 0.  1.
</event>
<event>
 5   0  0.2793576E-07  0.2599474E+04  0.7818609E-02  0.8368380E-01
       -1   -1    0    0    0  501  0.00000000000E+00  0.00000000000E+00  0.13784274419E+04  0.13784274419E+04  0.50400001928E-02 0.  1.
        1   -1    0    0  501    0  0.00000000000E+00  0.00000000000E+00 -0.12255391927E+04  0.12255391928E+04  0.50400001928E-02 0. -1.
    10030    2    1    2    0    0  0.00000000000E+00  0.00000000000E+00  0.15288824913E+03  0.26039666346E+04  0.25994744503E+04 0.  0.
        2    1    3    3  502    0 -0.10768027330E+04 -0.72140257115E+03 -0.20630818052E+02  0.12962836982E+04  0.25500000920E-02 0. -1.
       -2    1    3    3    0  502  0.10768027330E+04  0.72140257115E+03  0.17351906718E+03  0.13076829364E+04  0.25500000920E-02 0.  1.
</event>
<event>
 5   0  0.7160320E-07  0.2595424E+04  0.7818609E-02  0.8369757E-01
        2   -1    0    0  501    0  0.00000000000E+00  0.00000000000E+00  0.14272515592E+04  0.14272515592E+04  0.25500000920E-02 0.  1.
       -2   -1    0    0    0  501  0.00000000000E+00  0.00000000000E+00 -0.11799292681E+04  0.11799292681E+04  0.25500000920E-02 0. -1.
    10030    2    1    2    0    0  0.00000000000E+00  0.00000000000E+00  0.24732229106E+03  0.26071808273E+04  0.25954235783E+04 0.  0.
        1    1    3    3  502    0 -0.55290819899E+03  0.66006487441E+03  0.10989675729E+04  0.13961098958E+04  0.50400001928E-02 0.  1.
       -1    1    3    3    0  502  0.55290819899E+03 -0.66006487441E+03 -0.85164528183E+03  0.12110709315E+04  0.50400001928E-02 0. -1.
</event>
<event>
 5   0  0.2864801E-07  0.2595858E+04  0.7818609E-02  0.8369610E-01
       -1   -1    0    0    0  501  0.00000000000E+00  0.00000000000E+00  0.12643523570E+04  0.12643523570E+04  0.50400001928E-02 0.  1.
        1   -1    0    0  501    0  0.00000000000E+00  0.00000000000E+00 -0.13323968136E+04  0.13323968136E+04  0.50400001928E-02 0. -1.
    10030    2    1    2    0    0  0.00000000000E+00  0.00000000000E+00 -0.68044456617E+02  0.25967491706E+04  0.25958575090E+04 0.  0.
        5    1    3    3  502    0 -0.12015723113E+04  0.18990175778E+03  0.41863542998E+03  0.12865132763E+04  0.46999998093E+01 0.  1.
       -5    1    3    3    0  502  0.12015723113E+04 -0.18990175778E+03 -0.48667988660E+03  0.13102358943E+04  0.46999998093E+01 0. -1.
</event>
<event>
 5   0  0.2793576E-07  0.2598530E+04  0.7818609E-02  0.8368701E-01
        1   -1    0    0  501    0  0.00000000000E+00  0.00000000000E+00  0.11718400969E+04  0.11718400969E+04  0.50400001928E-02 0. -1.
       -1   -1    0    0    0  501  0.00000000000E+00  0.00000000000E+00 -0.14405458613E+04  0.14405458613E+04  0.50400001928E-02 0.  1.
    10030    2    1    2    0    0  0.00000000000E+00  0.00000000000E+00 -0.26870576443E+03  0.26123859582E+04  0.25985298934E+04 0.  0.
        2    1    3    3  502    0  0.20233673915E+03 -0.85816601801E+03 -0.10937477054E+04  0.14048747679E+04  0.25500000920E-02 0.  1.
       -2    1    3    3    0  502 -0.20233673915E+03  0.85816601801E+03  0.82504194094E+03  0.12075111903E+04  0.25500000920E-02 0. -1.
</event>
<event>
 5   0  0.6780984E-07  0.2599556E+04  0.7818609E-02  0.8368352E-01
        2   -1    0    0  501    0  0.00000000000E+00  0.00000000000E+00  0.93497709597E+03  0.93497709598E+03  0.25500000920E-02 0.  1.
       -2   -1    0    0    0  501  0.00000000000E+00  0.00000000000E+00 -0.18069131481E+04  0.18069131481E+04  0.25500000920E-02 0. -1.
    10030    2    1    2    0    0  0.00000000000E+00  0.00000000000E+00 -0.87193605212E+03  0.27418902441E+04  0.25995556604E+04 0.  0.
        2    1    3    3  502    0  0.11932686082E+04  0.39770067498E+02  0.10592357399E+03  0.11986206377E+04  0.25500000920E-02 0.  1.
       -2    1    3    3    0  502 -0.11932686082E+04 -0.39770067498E+02 -0.97785962611E+03  0.15432696064E+04  0.25500000920E-02 0. -1.
</event>
<event>
 5   0  0.6780984E-07  0.2600143E+04  0.7818609E-02  0.8368153E-01
        2   -1    0    0  501    0  0.00000000000E+00  0.00000000000E+00  0.14315958011E+04  0.14315958011E+04  0.25500000920E-02 0.  1.
       -2   -1    0    0    0  501  0.00000000000E+00  0.00000000000E+00 -0.11806305305E+04  0.11806305305E+04  0.25500000920E-02 0. -1.
    10030    2    1    2    0    0  0.00000000000E+00  0.00000000000E+00  0.25096527069E+03  0.26122263316E+04  0.26001428500E+04 0.  0.
        2    1    3    3  502    0  0.66536474091E+03 -0.53091026916E+03 -0.86173843806E+03  0.12112675543E+04  0.25500000920E-02 0. -1.
       -2    1    3    3    0  502 -0.66536474091E+03  0.53091026916E+03  0.11127037088E+04  0.14009587773E+04  0.25500000920E-02 0.  1.
</event>
<event>
 5   0  0.6768478E-07  0.2594726E+04  0.7818609E-02  0.8369995E-01
       -2   -1    0    0    0  501  0.00000000000E+00  0.00000000000E+00  0.81554427869E+03  0.81554427870E+03  0.25500000920E-02 0.  1.
        2   -1    0    0  501    0  0.00000000000E+00  0.00000000000E+00 -0.20638368974E+04  0.20638368974E+04  0.25500000920E-02 0. -1.
    10030    2    1    2    0    0  0.00000000000E+00  0.00000000000E+00 -0.12482926187E+04  0.28793811761E+04  0.25947257071E+04 0.  0.
        4    1    3    3  502    0 -0.34243268666E+03 -0.46372200019E+02  0.76353498510E+03  0.83809176836E+03  0.12699999809E+01 0.  1.
       -4    1    3    3    0  502  0.34243268666E+03  0.46372200019E+02 -0.20118276038E+04  0.20412894077E+04  0.12699999809E+01 0. -1.
</event>
<event>
 5   0  0.6780984E-07  0.2600383E+04  0.7818609E-02  0.8368071E-01
        2   -1    0    0  501    0  0.00000000000E+00  0.00000000000E+00  0.21114557813E+04  0.21114557813E+04  0.25500000920E-02 0. -1.
       -2   -1    0    0    0  501  0.00000000000E+00  0.00000000000E+00 -0.80063143759E+03  0.80063143759E+03  0.25500000920E-02 0.  1.
    10030    2    1    2    0    0  0.00000000000E+00  0.00000000000E+00  0.13108243438E+04  0.29120872189E+04  0.26003829546E+04 0.  0.
        2    1    3    3  502    0  0.64283674584E+03  0.91533426630E+03  0.13977608754E+04  0.17901986944E+04  0.25500000920E-02 0. -1.
       -2    1    3    3    0  502 -0.64283674584E+03 -0.91533426630E+03 -0.86936531608E+02  0.11218885245E+04  0.25500000920E-02 0.  1.
</event>
<event>
 5   0  0.6780984E-07  0.2602358E+04  0.7818609E-02  0.8367401E-01
       -2   -1    0    0    0  501  0.00000000000E+00  0.00000000000E+00  0.96466168020E+03  0.96466168020E+03  0.25500000920E-02 0. -1.
        2   -1    0    0  501    0  0.00000000000E+00  0.00000000000E+00 -0.17550880477E+04  0.17550880477E+04  0.25500000920E-02 0.  1.
    10030    2    1    2    0    0  0.00000000000E+00  0.00000000000E+00 -0.79042636751E+03  0.27197497279E+04  0.26023575350E+04 0.  0.
        2    1    3    3  502    0 -0.59137898124E+03 -0.57307283626E+03 -0.14480931692E+04  0.16658677624E+04  0.25500000920E-02 0.  1.
       -2    1    3    3    0  502  0.59137898124E+03  0.57307283626E+03  0.65766680172E+03  0.10538819655E+04  0.25500000920E-02 0. -1.
</event>
<event>
 5   0  0.6526351E-07  0.2592855E+04  0.7818609E-02  0.8370632E-01
       -2   -1    0    0    0  501  0.00000000000E+00  0.00000000000E+00  0.14469645399E+04  0.14469645399E+04  0.25500000920E-02 0. -1.
        2   -1    0    0  501    0  0.00000000000E+00  0.00000000000E+00 -0.11615521073E+04  0.11615521073E+04  0.25500000920E-02 0.  1.
    10030    2    1    2    0    0  0.00000000000E+00  0.00000000000E+00  0.28541243260E+03  0.26085166472E+04  0.25928553454E+04 0.  0.
        3    1    3    3  502    0  0.29239132216E+03 -0.94372210589E+03 -0.70178083132E+03  0.12118582606E+04  0.10100000352E+00 0.  1.
       -3    1    3    3    0  502 -0.29239132216E+03  0.94372210589E+03  0.98719326391E+03  0.13966583866E+04  0.10100000352E+00 0. -1.
</event>
<event>
 5   0  0.2755061E-07  0.2599780E+04  0.7818609E-02  0.8368276E-01
        1   -1    0    0  501    0  0.00000000000E+00  0.00000000000E+00  0.10180704997E+04  0.10180704997E+04  0.50400001928E-02 0. -1.
       -1   -1    0    0    0  501  0.00000000000E+00  0.00000000000E+00 -0.16597215914E+04  0.16597215914E+04  0.50400001928E-02 0.  1.
    10030    2    1    2    0    0  0.00000000000E+00  0.00000000000E+00 -0.64165109166E+03  0.26777920911E+04  0.25997796753E+04 0.  0.
        4    1    3    3  502    0  0.69999968641E+03 -0.39673721565E+03  0.73074685389E+03  0.10869188363E+04  0.12699999809E+01 0.  1.
       -4    1    3    3    0  502 -0.69999968641E+03  0.39673721565E+03 -0.13723979455E+04  0.15908732549E+04  0.12699999809E+01 0. -1.
</event>
<event>
 5   0  0.2623263E-07  0.2600769E+04  0.7818609E-02  0.8367940E-01
        1   -1    0    0  501    0  0.00000000000E+00  0.00000000000E+00  0.14277914291E+04  0.14277914292E+04  0.50400001928E-02 0. -1.
       -1   -1    0    0    0  501  0.00000000000E+00  0.00000000000E+00 -0.11843465565E+04  0.11843465565E+04  0.50400001928E-02 0.  1.
    10030    2    1    2    0    0  0.00000000000E+00  0.00000000000E+00  0.24344487265E+03  0.26121379857E+04  0.26007690113E+04 0.  0.
        1    1    3    3  502    0 -0.25407204060E+03  0.40009626952E+03  0.13379536675E+04  0.14194187695E+04  0.50400001928E-02 0. -1.
       -1    1    3    3    0  502  0.25407204060E+03 -0.40009626952E+03 -0.10945087948E+04  0.11927192162E+04  0.50400001928E-02 0.  1.
</event>
<event>
 5   0  0.2641626E-07  0.2599313E+04  0.7818609E-02  0.8368435E-01
        1   -1    0    0  501    0  0.00000000000E+00  0.00000000000E+00  0.18380915062E+04  0.18380915062E+04  0.50400001928E-02 0. -1.
       -1   -1    0    0    0  501  0.00000000000E+00  0.00000000000E+00 -0.91894590107E+03  0.91894590108E+03  0.50400001928E-02 0.  1.
    10030    2    1    2    0    0  0.00000000000E+00  0.00000000000E+00  0.91914560513E+03  0.27570374073E+04  0.25993127210E+04 0.  0.
        3    1    3    3  502    0 -0.11500498379E+04  0.44714530821E+03  0.26699828396E+02  0.12342068090E+04  0.10100000352E+00 0.  1.
       -3    1    3    3    0  502  0.11500498379E+04 -0.44714530821E+03  0.89244577673E+03  0.15228305983E+04  0.10100000352E+00 0. -1.
</event>
<event>
 5   0  0.2793576E-07  0.2602474E+04  0.7818609E-02  0.8367361E-01
        1   -1    0    0  501    0  0.00000000000E+00  0.00000000000E+00  0.16624296844E+04  0.16624296844E+04  0.50400001928E-02 0. -1.
       -1   -1    0    0    0  501  0.00000000000E+00  0.00000000000E+00 -0.10185196802E+04  0.10185196802E+04  0.50400001928E-02 0.  1.
    10030    2    1    2    0    0  0.00000000000E+00  0.00000000000E+00  0.64391000420E+03  0.26809493645E+04  0.26024737082E+04 0.  0.
        2    1    3    3  502    0  0.58377895773E+03 -0.11440149657E+04  0.10673105610E+03  0.12887822282E+04  0.25500000920E-02 0.  1.
       -2    1    3    3    0  502 -0.58377895773E+03  0.11440149657E+04  0.53717894810E+03  0.13921671364E+04  0.25500000920E-02 0. -1.
</event>
<event>
 5   0  0.2641626E-07  0.2598831E+04  0.7818609E-02  0.8368598E-01
        1   -1    0    0  501    0  0.00000000000E+00  0.00000000000E+00  0.20093798103E+04  0.20093798103E+04  0.50400001928E-02 0. -1.
       -1   -1    0    0    0  501  0.00000000000E+00  0.00000000000E+00 -0.84029966085E+03  0.84029966086E+03  0.50400001928E-02 0.  1.
    10030    2    1    2    0    0  0.00000000000E+00  0.00000000000E+00  0.11690801494E+04  0.28496794711E+04  0.25988314090E+04 0.  0.
        3    1    3    3  502    0 -0.65769946726E+03 -0.84783785142E+03  0.13881380481E+04  0.17545155634E+04  0.10100000352E+00 0. -1.
       -3    1    3    3    0  502  0.65769946726E+03  0.84783785142E+03 -0.21905789870E+03  0.10951639077E+04  0.10100000352E+00 0.  1.
</event>
<event>
 5   0  0.6768478E-07  0.2599562E+04  0.7818609E-02  0.8368350E-01
       -2   -1    0    0    0  501  0.00000000000E+00  0.00000000000E+00  0.82088691829E+03  0.82088691829E+03  0.25500000920E-02 0.  1.
        2   -1    0    0  501    0  0.00000000000E+00  0.00000000000E+00 -0.20580552215E+04  0.20580552215E+04  0.25500000920E-02 0. -1.
    10030    2    1    2    0    0  0.00000000000E+00  0.00000000000E+00 -0.12371683032E+04  0.28789421398E+04  0.25995619696E+04 0.  0.
        4    1    3    3  502    0 -0.11150124984E+04  0.88066619403E+02 -0.13518781594E+04  0.17545896306E+04  0.12699999809E+01 0. -1.
       -4    1    3    3    0  502  0.11150124984E+04 -0.88066619403E+02  0.11470985615E+03  0.11243525092E+04  0.12699999809E+01 0.  1.
</event>
<event>
 5   0  0.6768478E-07  0.2600482E+04  0.7818609E-02  0.8368037E-01
       -2   -1    0    0    0  501  0.00000000000E+00  0.00000000000E+00  0.10282279838E+04  0.10282279838E+04  0.25500000920E-02 0. -1.
        2   -1    0    0  501    0  0.00000000000E+00  0.00000000000E+00 -0.16442141299E+04  0.16442141299E+04  0.25500000920E-02 0.  1.
    10030    2    1    2    0    0  0.00000000000E+00  0.00000000000E+00 -0.61598614610E+03  0.26724421138E+04  0.26004822474E+04 0.  0.
        4    1    3    3  502    0  0.63785292808E+02  0.88844150615E+03  0.66543965163E+03  0.11118490978E+04  0.12699999809E+01 0. -1.
       -4    1    3    3    0  502 -0.63785292808E+02 -0.88844150615E+03 -0.12814257977E+04  0.15605930159E+04  0.12699999809E+01 0.  1.
</event>
<event>
 5   0  0.6780984E-07  0.2599723E+04  0.7818609E-02  0.8368295E-01
        2   -1    0    0  501    0  0.00000000000E+00  0.00000000000E+00  0.22066179128E+04  0.22066179128E+04  0.25500000920E-02 0.  1.
       -2   -1    0    0    0  501  0.00000000000E+00  0.00000000000E+00 -0.76571499990E+03  0.76571499990E+03  0.25500000920E-02 0. -1.
    10030    2    1    2    0    0  0.00000000000E+00  0.00000000000E+00  0.14409029129E+04  0.29723329127E+04  0.25997233967E+04 0.  0.
        2    1    3    3  502    0 -0.57612802073E+03 -0.11224988857E+04  0.10778451658E+04  0.16594208165E+04  0.25500000920E-02 0.  1.
       -2    1    3    3    0  502  0.57612802073E+03  0.11224988857E+04  0.36305774709E+03  0.13129120962E+04  0.25500000920E-02 0. -1.
</event>
<event>
 5   0  0.2294625E-07  0.2599992E+04  0.7818609E-02  0.8368204E-01
        3   -1    0    0  501    0  0.00000000000E+00  0.00000000000E+00  0.10461932734E+04  0.10461932782E+04  0.10100000352E+00 0. -1.
       -3   -1    0    0    0  501  0.00000000000E+00  0.00000000000E+00 -0.16153708696E+04  0.16153708728E+04  0.10100000352E+00 0.  1.
    10030    2    1    2    0    0  0.00000000000E+00  0.00000000000E+00 -0.56917759626E+03  0.26615641510E+04  0.25999924219E+04 0.  0.
        4    1    3    3  502    0 -0.33371171716E+03 -0.10451393444E+04  0.42928412510E+03  0.11781197869E+04  0.12699999809E+01 0. -1.
       -4    1    3    3    0  502  0.33371171716E+03  0.10451393444E+04 -0.99846172136E+03  0.14834443641E+04  0.12699999809E+01 0.  1.
</event>
<event>
 5   0  0.2755061E-07  0.2603923E+04  0.7818609E-02  0.8366870E-01
       -1   -1    0    0    0  501  0.00000000000E+00  0.00000000000E+00  0.11797580568E+04  0.11797580568E+04  0.50400001928E-02 0. -1.
        1   -1    0    0  501    0  0.00000000000E+00  0.00000000000E+00 -0.14368231864E+04  0.14368231864E+04  0.50400001928E-02 0.  1.
    10030    2    1    2    0    0  0.00000000000E+00  0.00000000000E+00 -0.25706512956E+03  0.26165812432E+04  0.26039229869E+04 0.  0.
        4    1    3    3  502    0  0.89689313112E+03 -0.19395168296E+03 -0.10566390458E+04  0.13994721255E+04  0.12699999809E+01 0.  1.
       -4    1    3    3    0  502 -0.89689313112E+03  0.19395168296E+03  0.79957391627E+03  0.12171091177E+04  0.12699999809E+01 0. -1.
</event>
<event>
 5   0  0.2641626E-07  0.2600269E+04  0.7818609E-02  0.8368110E-01
       -1   -1    0    0    0  501  0.00000000000E+00  0.00000000000E+00  0.81290219010E+03  0.81290219012E+03  0.50400001928E-02 0.  1.
        1   -1    0    0  501    0  0.00000000000E+00  0.00000000000E+00 -0.20794013932E+04  0.20794013932E+04  0.50400001928E-02 0. -1.
    10030    2    1    2    0    0  0.00000000000E+00  0.00000000000E+00 -0.12664992031E+04  0.28923035833E+04  0.26002691758E+04 0.  0.
        3    1    3    3  502    0 -0.10975199266E+04  0.28521139464E+03 -0.13406419438E+04  0.17559089841E+04  0.10100000352E+00 0. -1.
       -3    1    3    3    0  502  0.10975199266E+04 -0.28521139464E+03  0.74142740739E+02  0.11363945992E+04  0.10100000352E+00 0.  1.
</event>
<event>
 5   0  0.2755061E-07  0.2611406E+04  0.7818609E-02  0.8364337E-01
        1   -1    0    0  501    0  0.00000000000E+00  0.00000000000E+00  0.18498666759E+04  0.18498666759E+04  0.50400001928E-02 0. -1.
       -1   -1    0    0    0  501  0.00000000000E+00  0.00000000000E+00 -0.92161229191E+03  0.92161229193E+03  0.50400001928E-02 0.  1.
    10030    2    1    2    0    0  0.00000000000E+00  0.00000000000E+00  0.92825438397E+03  0.27714789678E+04  0.26114056498E+04 0.  0.
        4    1    3    3  502    0 -0.38847742111E+03  0.47532344432E+03 -0.75890562915E+03  0.97610780669E+03  0.12699999809E+01 0.  1.
       -4    1    3    3    0  502  0.38847742111E+03 -0.47532344432E+03  0.16871600131E+04  0.17953711611E+04  0.12699999809E+01 0. -1.
</event>
<event>
 5   0  0.2755061E-07  0.2600136E+04  0.7818609E-02  0.8368155E-01
        1   -1    0    0  501    0  0.00000000000E+00  0.00000000000E+00  0.12578793956E+04  0.12578793956E+04  0.50400001928E-02 0.  1.
       -1   -1    0    0    0  501  0.00000000000E+00  0.00000000000E+00 -0.13436716186E+04  0.13436716187E+04  0.50400001928E-02 0. -1.
    10030    2    1    2    0    0  0.00000000000E+00  0.00000000000E+00 -0.85792223014E+02  0.26015510143E+04  0.26001360300E+04 0.  0.
        4    1    3    3  502    0 -0.12159761906E+04 -0.10839580303E+03 -0.49016005415E+03  0.13155250807E+04  0.12699999809E+01 0. -1.
       -4    1    3    3    0  502  0.12159761906E+04  0.10839580303E+03  0.40436783114E+03  0.12860259336E+04  0.12699999809E+01 0.  1.
</event>
<event>
 5   0  0.7160320E-07  0.2599563E+04  0.7818609E-02  0.8368350E-01
       -2   -1    0    0    0  501  0.00000000000E+00  0.00000000000E+00  0.99888447765E+03  0.99888447765E+03  0.25500000920E-02 0.  1.
        2   -1    0    0  501    0  0.00000000000E+00  0.00000000000E+00 -0.16913181870E+04  0.16913181870E+04  0.25500000920E-02 0. -1.
    10030    2    1    2    0    0  0.00000000000E+00  0.00000000000E+00 -0.69243370937E+03  0.26902026647E+04  0.25995626431E+04 0.  0.
        1    1    3    3  502    0 -0.73876258382E+03  0.84824080054E+03 -0.10201919826E+04  0.15185764032E+04  0.50400001928E-02 0. -1.
       -1    1    3    3    0  502  0.73876258382E+03 -0.84824080054E+03  0.32775827321E+03  0.11716262615E+04  0.50400001928E-02 0.  1.
</event>
<event>
 5   0  0.6780984E-07  0.2605342E+04  0.7818609E-02  0.8366389E-01
       -2   -1    0    0    0  501  0.00000000000E+00  0.00000000000E+00  0.95532255407E+03  0.95532255407E+03  0.25500000920E-02 0. -1.
        2   -1    0    0  501    0  0.00000000000E+00  0.00000000000E+00 -0.17763122229E+04  0.17763122229E+04  0.25500000920E-02 0.  1.
    10030    2    1    2    0    0  0.00000000000E+00  0.00000000000E+00 -0.82098966888E+03  0.27316347770E+04  0.26053415359E+04 0.  0.
        2    1    3    3  502    0 -0.12916967973E+04  0.74062953957E+01 -0.23375402207E+03  0.13126981420E+04  0.25500000920E-02 0. -1.
       -2    1    3    3    0  502  0.12916967973E+04 -0.74062953957E+01 -0.58723564681E+03  0.14189366350E+04  0.25500000920E-02 0.  1.
</event>
<event>
 5   0  0.6526351E-07  0.2600190E+04  0.7818609E-02  0.8368137E-01
       -2   -1    0    0    0  501  0.00000000000E+00  0.00000000000E+00  0.19309344323E+04  0.19309344323E+04  0.25500000920E-02 0.  1.
        2   -1    0    0  501    0  0.00000000000E+00  0.00000000000E+00 -0.87535170853E+03  0.87535170853E+03  0.25500000920E-02 0. -1.
    10030    2    1    2    0    0  0.00000000000E+00  0.00000000000E+00  0.10555827238E+04  0.28062861408E+04  0.26001898041E+04 0.  0.
        3    1    3    3  502    0  0.76622777928E+03  0.44760608725E+02  0.16603164187E+04  0.18291416408E+04  0.10100000352E+00 0.  1.
       -3    1    3    3    0  502 -0.76622777928E+03 -0.44760608725E+02 -0.60473369495E+03  0.97714449998E+03  0.10100000352E+00 0. -1.
</event>
<event>
 5   0  0.6599814E-07  0.2599120E+04  0.7818609E-02  0.8368500E-01
        2   -1    0    0  501    0  0.00000000000E+00  0.00000000000E+00  0.66587939936E+03  0.66587939937E+03  0.25500000920E-02 0. -1.
       -2   -1    0    0    0  501  0.00000000000E+00  0.00000000000E+00 -0.25362800185E+04  0.25362800185E+04  0.25500000920E-02 0.  1.
    10030    2    1    2    0    0  0.00000000000E+00  0.00000000000E+00 -0.18704006192E+04  0.32021594179E+04  0.25991203245E+04 0.  0.
        5    1    3    3  502    0 -0.85345174811E+02 -0.26802565415E+03  0.62791417065E+03  0.68805511832E+03  0.46999998093E+01 0. -1.
       -5    1    3    3    0  502  0.85345174811E+02  0.26802565415E+03 -0.24983147898E+04  0.25141042996E+04  0.46999998093E+01 0.  1.
</event>
<event>
 5   0  0.2864801E-07  0.2603821E+04  0.7818609E-02  0.8366905E-01
        1   -1    0    0  501    0  0.00000000000E+00  0.00000000000E+00  0.22536377277E+04  0.22536377277E+04  0.50400001928E-02 0.  1.
       -1   -1    0    0    0  501  0.00000000000E+00  0.00000000000E+00 -0.75210432028E+03  0.75210432029E+03  0.50400001928E-02 0. -1.
    10030    2    1    2    0    0  0.00000000000E+00  0.00000000000E+00  0.15015334074E+04  0.30057420480E+04  0.26038207860E+04 0.  0.
        5    1    3    3  502    0 -0.12486591360E+03  0.12208375543E+04  0.12524980713E+04  0.17535134271E+04  0.46999998093E+01 0. -1.
       -5    1    3    3    0  502  0.12486591360E+03 -0.12208375543E+04  0.24903533612E+03  0.12522286209E+04  0.46999998093E+01 0.  1.
</event>
<event>
 5   0  0.2793576E-07  0.2585015E+04  0.7818609E-02  0.8373309E-01
       -1   -1    0    0    0  501  0.00000000000E+00  0.00000000000E+00  0.11599985958E+04  0.11599985959E+04  0.50400001928E-02 0.  1.
        1   -1    0    0  501    0  0.00000000000E+00  0.00000000000E+00 -0.14401529339E+04  0.14401529339E+04  0.50400001928E-02 0. -1.
    10030    2    1    2    0    0  0.00000000000E+00  0.00000000000E+00 -0.28015433808E+03  0.26001515298E+04  0.25850148017E+04 0.  0.
        2    1    3    3  502    0  0.25487243619E+03  0.70546909476E+03 -0.11988225918E+04  0.14141507023E+04  0.25500000920E-02 0. -1.
       -2    1    3    3    0  502 -0.25487243619E+03 -0.70546909476E+03  0.91866825369E+03  0.11860008275E+04  0.25500000920E-02 0.  1.
</event>
<event>
 5   0  0.2864801E-07  0.2604562E+04  0.7818609E-02  0.8366653E-01
        1   -1    0    0  501    0  0.00000000000E+00  0.00000000000E+00  0.15032602245E+04  0.15032602245E+04  0.50400001928E-02 0.  1.
       -1   -1    0    0    0  501  0.00000000000E+00  0.00000000000E+00 -0.11281714590E+04  0.11281714590E+04  0.50400001928E-02 0. -1.
    10030    2    1    2    0    0  0.00000000000E+00  0.00000000000E+00  0.37508876556E+03  0.26314316835E+04  0.26045615990E+04 0.  0.
        5    1    3    3  502    0 -0.71815377712E+03  0.80367140997E+02  0.12820998382E+04  0.14717356454E+04  0.46999998093E+01 0.  1.
       -5    1    3    3    0  502  0.71815377712E+03 -0.80367140997E+02 -0.90701107259E+03  0.11596960381E+04  0.46999998093E+01 0. -1.
</event>
<event>
 5   0  0.6780984E-07  0.2603723E+04  0.7818609E-02  0.8366938E-01
       -2   -1    0    0    0  501  0.00000000000E+00  0.00000000000E+00  0.10539096002E+04  0.10539096003E+04  0.25500000920E-02 0. -1.
        2   -1    0    0  501    0  0.00000000000E+00  0.00000000000E+00 -0.16081484854E+04  0.16081484854E+04  0.25500000920E-02 0.  1.
    10030    2    1    2    0    0  0.00000000000E+00  0.00000000000E+00 -0.55423888516E+03  0.26620580857E+04  0.26037228174E+04 0.  0.
        2    1    3    3  502    0 -0.16458111592E+03 -0.55945206001E+03 -0.14671428286E+04  0.15787911928E+04  0.25500000920E-02 0.  1.
       -2    1    3    3    0  502  0.16458111592E+03  0.55945206001E+03  0.91290394341E+03  0.10832668928E+04  0.25500000920E-02 0. -1.
</event>
<event>
 5   0  0.7160320E-07  0.2600415E+04  0.7818609E-02  0.8368060E-01
       -2   -1    0    0    0  501  0.00000000000E+00  0.00000000000E+00  0.18680001901E+04  0.18680001901E+04  0.25500000920E-02 0.  1.
        2   -1    0    0  501    0  0.00000000000E+00  0.00000000000E+00 -0.90499947214E+03  0.90499947215E+03  0.25500000920E-02 0. -1.
    10030    2    1    2    0    0  0.00000000000E+00  0.00000000000E+00  0.96300071799E+03  0.27729996623E+04  0.26004147254E+04 0.  0.
        1    1    3    3  502    0  0.62188915191E+03  0.68828993034E+03  0.14530373426E+04  0.17238928808E+04  0.50400001928E-02 0. -1.
       -1    1    3    3    0  502 -0.62188915191E+03 -0.68828993034E+03 -0.49003662461E+03  0.10491067815E+04  0.50400001928E-02 0.  1.
</event>
<event>
 5   0  0.7160320E-07  0.2599538E+04  0.7818609E-02  0.8368358E-01
       -2   -1    0    0    0  501  0.00000000000E+00  0.00000000000E+00  0.99076073410E+03  0.99076073410E+03  0.25500000920E-02 0. -1.
        2   -1    0    0  501    0  0.00000000000E+00  0.00000000000E+00 -0.17051535229E+04  0.17051535229E+04  0.25500000920E-02 0.  1.
    10030    2    1    2    0    0  0.00000000000E+00  0.00000000000E+00 -0.71439278877E+03  0.26959142570E+04  0.25995377713E+04 0.  0.
        1    1    3    3  502    0  0.56382579007E+03  0.45002706809E+03 -0.14784725985E+04  0.16450851371E+04  0.50400001928E-02 0.  1.
       -1    1    3    3    0  502 -0.56382579007E+03 -0.45002706809E+03  0.76407980975E+03  0.10508291199E+04  0.50400001928E-02 0. -1.
</event>
<event>
 5   0  0.6526351E-07  0.2599990E+04  0.7818609E-02  0.8368205E-01
       -2   -1    0    0    0  501  0.00000000000E+00  0.00000000000E+00  0.98294402552E+03  0.98294402552E+03  0.25500000920E-02 0.  1.
        2   -1    0    0  501    0  0.00000000000E+00  0.00000000000E+00 -0.17193110325E+04  0.17193110325E+04  0.25500000920E-02 0. -1.
    10030    2    1    2    0    0  0.00000000000E+00  0.00000000000E+00 -0.73636700695E+03  0.27022550580E+04  0.25999896210E+04 0.  0.
        3    1    3    3  502    0  0.11152006474E+04 -0.42794840530E+03  0.16499957720E+03  0.12058346455E+04  0.10100000352E+00 0.  1.
       -3    1    3    3    0  502 -0.11152006474E+04  0.42794840530E+03 -0.90136658415E+03  0.14964204125E+04  0.10100000352E+00 0. -1.
</event>
<event>
 5   0  0.2755061E-07  0.2599732E+04  0.7818609E-02  0.8368292E-01
        1   -1    0    0  501    0  0.00000000000E+00  0.00000000000E+00  0.15223394419E+04  0.15223394419E+04  0.50400001928E-02 0.  1.
       -1   -1    0    0    0  501  0.00000000000E+00  0.00000000000E+00 -0.11099048842E+04  0.11099048842E+04  0.50400001928E-02 0. -1.
    10030    2    1    2    0    0  0.00000000000E+00  0.00000000000E+00  0.41243455764E+03  0.26322443261E+04  0.25997322800E+04 0.  0.
        4    1    3    3  502    0  0.85910600791E+03  0.49891552350E+02  0.11926173989E+04  0.14706767738E+04  0.12699999809E+01 0.  1.
       -4    1    3    3    0  502 -0.85910600791E+03 -0.49891552350E+02 -0.78018284129E+03  0.11615675523E+04  0.12699999809E+01 0. -1.
</event>
<event>
 5   0  0.6526351E-07  0.2598603E+04  0.7818609E-02  0.8368676E-01
        2   -1    0    0  501    0  0.00000000000E+00  0.00000000000E+00  0.16946895196E+04  0.16946895196E+04  0.25500000920E-02 0.  1.
       -2   -1    0    0    0  501  0.00000000000E+00  0.00000000000E+00 -0.99616160089E+03  0.99616160089E+03  0.25500000920E-02 0. -1.
    10030    2    1    2    0    0  0.00000000000E+00  0.00000000000E+00  0.69852791869E+03  0.26908511205E+04  0.25986031824E+04 0.  0.
        3    1    3    3  502    0  0.70187134515E+03  0.10658226467E+04  0.60202610625E+03  0.14110410137E+04  0.10100000352E+00 0.  1.
       -3    1    3    3    0  502 -0.70187134515E+03 -0.10658226467E+04  0.96501812439E+02  0.12798101068E+04  0.10100000352E+00 0. -1.
</event>
<event>
 5   0  0.2793576E-07  0.2601021E+04  0.7818609E-02  0.8367855E-01
       -1   -1    0    0    0  501  0.00000000000E+00  0.00000000000E+00  0.10967877748E+04  0.10967877748E+04  0.50400001928E-02 0. -1.
        1   -1    0    0  501    0  0.00000000000E+00  0.00000000000E+00 -0.15420731310E+04  0.15420731310E+04  0.50400001928E-02 0.  1.
    10030    2    1    2    0    0  0.00000000000E+00  0.00000000000E+00 -0.44528535621E+03  0.26388609059E+04  0.26010205367E+04 0.  0.
        2    1    3    3  502    0  0.89111413254E+03 -0.87035810204E+03 -0.60187118222E+03  0.13834220408E+04  0.25500000920E-02 0.  1.
       -2    1    3    3    0  502 -0.89111413254E+03  0.87035810204E+03  0.15658582602E+03  0.12554388651E+04  0.25500000920E-02 0. -1.
</event>
<event>
 5   0  0.6599814E-07  0.2600362E+04  0.7818609E-02  0.8368078E-01
       -2   -1    0    0    0  501  0.00000000000E+00  0.00000000000E+00  0.94792045621E+03  0.94792045621E+03  0.25500000920E-02 0. -1.
        2   -1    0    0  501    0  0.00000000000E+00  0.00000000000E+00 -0.17833463144E+04  0.17833463144E+04  0.25500000920E-02 0.  1.
    10030    2    1    2    0    0  0.00000000000E+00  0.00000000000E+00 -0.83542585820E+03  0.27312667706E+04  0.26003618609E+04 0.  0.
        5    1    3    3  502    0 -0.63040426590E+03  0.11285016699E+04 -0.56447081174E+03  0.14105229330E+04  0.46999998093E+01 0. -1.
       -5    1    3    3    0  502  0.63040426590E+03 -0.11285016699E+04 -0.27095504646E+03  0.13207438376E+04  0.46999998093E+01 0.  1.
</event>
<event>
 5   0  0.6526351E-07  0.2598401E+04  0.7818609E-02  0.8368745E-01
        2   -1    0    0  501    0  0.00000000000E+00  0.00000000000E+00  0.15044795281E+04  0.15044795281E+04  0.25500000920E-02 0. -1.
       -2   -1    0    0    0  501  0.00000000000E+00  0.00000000000E+00 -0.11219307151E+04  0.11219307152E+04  0.25500000920E-02 0.  1.
    10030    2    1    2    0    0  0.00000000000E+00  0.00000000000E+00  0.38254881293E+03  0.26264102432E+04  0.25984008874E+04 0.  0.
        3    1    3    3  502    0  0.38081166069E+03  0.95305703725E+03 -0.61392201783E+03  0.11959245341E+04  0.10100000352E+00 0.  1.
       -3    1    3    3    0  502 -0.38081166069E+03 -0.95305703725E+03  0.99647083077E+03  0.14304857091E+04  0.10100000352E+00 0. -1.
</event>
<event>
 5   0  0.2793576E-07  0.2598974E+04  0.7818609E-02  0.8368550E-01
       -1   -1    0    0    0  501  0.00000000000E+00  0.00000000000E+00  0.11724377291E+04  0.11724377291E+04  0.50400001928E-02 0.  1.
        1   -1    0    0  501    0  0.00000000000E+00  0.00000000000E+00 -0.14403038011E+04  0.14403038011E+04  0.50400001928E-02 0. -1.
    10030    2    1    2    0    0  0.00000000000E+00  0.00000000000E+00 -0.26786607197E+03  0.26127415302E+04  0.25989740420E+04 0.  0.
        2    1    3    3  502    0  0.93154042263E+03  0.69356793747E+03  0.45213240737E+03  0.12462855839E+04  0.25500000920E-02 0.  1.
       -2    1    3    3    0  502 -0.93154042263E+03 -0.69356793747E+03 -0.71999847933E+03  0.13664559463E+04  0.25500000920E-02 0. -1.
</event>
<event>
 5   0  0.2793576E-07  0.2600129E+04  0.7818609E-02  0.8368158E-01
       -1   -1    0    0    0  501  0.00000000000E+00  0.00000000000E+00  0.14774411345E+04  0.14774411345E+04  0.50400001928E-02 0. -1.
        1   -1    0    0  501    0  0.00000000000E+00  0.00000000000E+00 -0.11439827999E+04  0.11439827999E+04  0.50400001928E-02 0.  1.
    10030    2    1    2    0    0  0.00000000000E+00  0.00000000000E+00  0.33345833463E+03  0.26214239343E+04  0.26001286473E+04 0.  0.
        2    1    3    3  502    0  0.85081440236E+03 -0.19462997132E+03 -0.80469809557E+03  0.11871415240E+04  0.25500000920E-02 0.  1.
       -2    1    3    3    0  502 -0.85081440236E+03  0.19462997132E+03  0.11381564302E+04  0.14342824103E+04  0.25500000920E-02 0. -1.
</event>
<event>
 5   0  0.2864801E-07  0.2599398E+04  0.7818609E-02  0.8368406E-01
       -1   -1    0    0    0  501  0.00000000000E+00  0.00000000000E+00  0.20290328502E+04  0.20290328502E+04  0.50400001928E-02 0. -1.
        1   -1    0    0  501    0  0.00000000000E+00  0.00000000000E+00 -0.83252329592E+03  0.83252329593E+03  0.50400001928E-02 0.  1.
    10030    2    1    2    0    0  0.00000000000E+00  0.00000000000E+00  0.11965095542E+04  0.28615561461E+04  0.25993977118E+04 0.  0.
        5    1    3    3  502    0 -0.56625905945E+03 -0.10669721937E+04  0.70170805027E+02  0.12099690147E+04  0.46999998093E+01 0.  1.
       -5    1    3    3    0  502  0.56625905945E+03  0.10669721937E+04  0.11263387492E+04  0.16515871314E+04  0.46999998093E+01 0. -1.
</event>
<event>
 5   0  0.6780984E-07  0.2599396E+04  0.7818609E-02  0.8368406E-01
        2   -1    0    0  501    0  0.00000000000E+00  0.00000000000E+00  0.10377448668E+04  0.10377448668E+04  0.25500000920E-02 0.  1.
       -2   -1    0    0    0  501  0.00000000000E+00  0.00000000000E+00 -0.16277751722E+04  0.16277751722E+04  0.25500000920E-02 0. -1.
    10030    2    1    2    0    0  0.00000000000E+00  0.00000000000E+00 -0.59003030544E+03  0.26655200390E+04  0.25993963370E+04 0.  0.
        2    1    3    3  502    0  0.11115287544E+04  0.36782294850E+03 -0.87366164566E+03  0.14608472077E+04  0.25500000920E-02 0. -1.
       -2    1    3    3    0  502 -0.11115287544E+04 -0.36782294850E+03  0.28363134022E+03  0.12046728313E+04  0.25500000920E-02 0.  1.
</event>
<event>
 5   0  0.6780984E-07  0.2602290E+04  0.7818609E-02  0.8367424E-01
       -2   -1    0    0    0  501  0.00000000000E+00  0.00000000000E+00  0.12403032900E+04  0.12403032900E+04  0.25500000920E-02 0. -1.
        2   -1    0    0  501    0  0.00000000000E+00  0.00000000000E+00 -0.13649713062E+04  0.13649713062E+04  0.25500000920E-02 0.  1.
    10030    2    1    2    0    0  0.00000000000E+00  0.00000000000E+00 -0.12466801614E+03  0.26052745962E+04  0.26022900698E+04 0.  0.
        2    1    3    3  502    0 -0.11704874137E+04 -0.22028386021E+03 -0.58677889311E+03  0.13277331185E+04  0.25500000920E-02 0.  1.
       -2    1    3    3    0  502  0.11704874137E+04  0.22028386021E+03  0.46211087697E+03  0.12775414777E+04  0.25500000920E-02 0. -1.
</event>
<event>
 5   0  0.2641626E-07  0.2599645E+04  0.7818609E-02  0.8368322E-01
        1   -1    0    0  501    0  0.00000000000E+00  0.00000000000E+00  0.11056489957E+04  0.11056489958E+04  0.50400001928E-02 0. -1.
       -1   -1    0    0    0  501  0.00000000000E+00  0.00000000000E+00 -0.15280969048E+04  0.15280969048E+04  0.50400001928E-02 0.  1.
    10030    2    1    2    0    0  0.00000000000E+00  0.00000000000E+00 -0.42244790907E+03  0.26337459006E+04  0.25996452129E+04 0.  0.
        3    1    3    3  502    0 -0.12358351692E+04 -0.99659350256E+02  0.18417521856E+03  0.12534516636E+04  0.10100000352E+00 0. -1.
       -3    1    3    3    0  502  0.12358351692E+04  0.99659350256E+02 -0.60662312763E+03  0.13802942370E+04  0.10100000352E+00 0.  1.
</event>
<event>
 5   0  0.6768478E-07  0.2599671E+04  0.7818609E-02  0.8368313E-01
       -2   -1    0    0    0  501  0.00000000000E+00  0.00000000000E+00  0.95222958355E+03  0.95222958355E+03  0.25500000920E-02 0. -1.
        2   -1    0    0  501    0  0.00000000000E+00  0.00000000000E+00 -0.17743329969E+04  0.17743329969E+04  0.25500000920E-02 0.  1.
    10030    2    1    2    0    0  0.00000000000E+00  0.00000000000E+00 -0.82210341340E+03  0.27265625805E+04  0.25996710336E+04 0.  0.
        4    1    3    3  502    0  0.58331984595E+03  0.35811946756E+03 -0.15700036507E+04  0.17127243421E+04  0.12699999809E+01 0.  1.
       -4    1    3    3    0  502 -0.58331984595E+03 -0.35811946756E+03  0.74790023735E+03  0.10138382384E+04  0.12699999809E+01 0. -1.
</event>
<event>
 5   0  0.2623263E-07  0.2600091E+04  0.7818609E-02  0.8368170E-01
        1   -1    0    0  501    0  0.00000000000E+00  0.00000000000E+00  0.19290905398E+04  0.19290905398E+04  0.50400001928E-02 0.  1.
       -1   -1    0    0    0  501  0.00000000000E+00  0.00000000000E+00 -0.87612148214E+03  0.87612148216E+03  0.50400001928E-02 0. -1.
    10030    2    1    2    0    0  0.00000000000E+00  0.00000000000E+00  0.10529690577E+04  0.28052120220E+04  0.26000905084E+04 0.  0.
        1    1    3    3  502    0 -0.29482363029E+03 -0.10720444498E+04 -0.20040035100E+03  0.11297612916E+04  0.50400001928E-02 0. -1.
       -1    1    3    3    0  502  0.29482363029E+03  0.10720444498E+04  0.12533694087E+04  0.16754507304E+04  0.50400001928E-02 0.  1.
</event>
<event>
 5   0  0.6780984E-07  0.2600698E+04  0.7818609E-02  0.8367964E-01
        2   -1    0    0  501    0  0.00000000000E+00  0.00000000000E+00  0.18207512429E+04  0.18207512429E+04  0.25500000920E-02 0. -1.
       -2   -1    0    0    0  501  0.00000000000E+00  0.00000000000E+00 -0.92868681748E+03  0.92868681749E+03  0.25500000920E-02 0.  1.
    10030    2    1    2    0    0  0.00000000000E+00  0.00000000000E+00  0.89206442542E+03  0.27494380604E+04  0.26006981195E+04 0.  0.
        2    1    3    3  502    0 -0.31430336356E+03 -0.82886949131E+03 -0.55974415000E+03  0.10483915068E+04  0.25500000920E-02 0.  1.
       -2    1    3    3    0  502  0.31430336356E+03  0.82886949131E+03  0.14518085754E+04  0.17010465536E+04  0.25500000920E-02 0. -1.
</event>
<event>
 5   0  0.2641626E-07  0.2616556E+04  0.7818609E-02  0.8362599E-01
       -1   -1    0    0    0  501  0.00000000000E+00  0.00000000000E+00  0.15445319358E+04  0.15445319358E+04  0.50400001928E-02 0. -1.
        1   -1    0    0  501    0  0.00000000000E+00  0.00000000000E+00 -0.11081615987E+04  0.11081615987E+04  0.50400001928E-02 0.  1.
    10030    2    1    2    0    0  0.00000000000E+00  0.00000000000E+00  0.43637033711E+03  0.26526935345E+04  0.26165557355E+04 0.  0.
        3    1    3    3  502    0 -0.78144093527E+03  0.33970695350E+03  0.12246399442E+04  0.14919094318E+04  0.10100000352E+00 0. -1.
       -3    1    3    3    0  502  0.78144093527E+03 -0.33970695350E+03 -0.78826960705E+03  0.11607841027E+04  0.10100000352E+00 0.  1.
</event>
<event>
 5   0  0.7160320E-07  0.2600459E+04  0.7818609E-02  0.8368045E-01
       -2   -1    0    0    0  501  0.00000000000E+00  0.00000000000E+00  0.73203138004E+03  0.73203138004E+03  0.25500000920E-02 0.  1.
        2   -1    0    0  501    0  0.00000000000E+00  0.00000000000E+00 -0.23094600161E+04  0.23094600161E+04  0.25500000920E-02 0. -1.
    10030    2    1    2    0    0  0.00000000000E+00  0.00000000000E+00 -0.15774286360E+04  0.30414913961E+04  0.26004593461E+04 0.  0.
        1    1    3    3  502    0  0.12246879575E+04 -0.71054142722E+02 -0.12927117775E+04  0.17821372069E+04  0.50400001928E-02 0. -1.
       -1    1    3    3    0  502 -0.12246879575E+04  0.71054142722E+02 -0.28471685852E+03  0.12593541892E+04  0.50400001928E-02 0.  1.
</event>
<event>
 5   0  0.6599814E-07  0.2608220E+04  0.7818609E-02  0.8365414E-01
        2   -1    0    0  501    0  0.00000000000E+00  0.00000000000E+00  0.16443659550E+04  0.16443659550E+04  0.25500000920E-02 0. -1.
       -2   -1    0    0    0  501  0.00000000000E+00  0.00000000000E+00 -0.10342604059E+04  0.10342604059E+04  0.25500000920E-02 0.  1.
    10030    2    1    2    0    0  0.00000000000E+00  0.00000000000E+00  0.61010554903E+03  0.26786263609E+04  0.26082197761E+04 0.  0.
        5    1    3    3  502    0 -0.56965380883E+03 -0.42470169962E+03 -0.81799405919E+03  0.10835189737E+04  0.46999998093E+01 0.  1.
       -5    1    3    3    0  502  0.56965380883E+03  0.42470169962E+03  0.14280996082E+04  0.15951073872E+04  0.46999998093E+01 0. -1.
</event>
<event>
 5   0  0.2623263E-07  0.2600128E+04  0.7818609E-02  0.8368158E-01
       -1   -1    0    0    0  501  0.00000000000E+00  0.00000000000E+00  0.10469782730E+04  0.10469782730E+04  0.50400001928E-02 0. -1.
        1   -1    0    0  501    0  0.00000000000E+00  0.00000000000E+00 -0.16143283900E+04  0.16143283901E+04  0.50400001928E-02 0.  1.
    10030    2    1    2    0    0  0.00000000000E+00  0.00000000000E+00 -0.56735011702E+03  0.26613066631E+04  0.26001282660E+04 0.  0.
        1    1    3    3  502    0  0.56135250938E+03 -0.10553184095E+04  0.23958071671E+03  0.12191031561E+04  0.50400001928E-02 0. -1.
       -1    1    3    3    0  502 -0.56135250938E+03  0.10553184095E+04 -0.80693083373E+03  0.14422035070E+04  0.50400001928E-02 0.  1.
</event>
<event>
 5   0  0.2755061E-07  0.2605613E+04  0.7818609E-02  0.8366297E-01
        1   -1    0    0  501    0  0.00000000000E+00  0.00000000000E+00  0.20366390822E+04  0.20366390822E+04  0.50400001928E-02 0.  1.
       -1   -1    0    0    0  501  0.00000000000E+00  0.00000000000E+00 -0.83338506701E+03  0.83338506703E+03  0.50400001928E-02 0. -1.
    10030    2    1    2    0    0  0.00000000000E+00  0.00000000000E+00  0.12032540152E+04  0.28700241493E+04  0.26056128631E+04 0.  0.
        4    1    3    3  502    0  0.73592638463E+03 -0.44873893863E+03 -0.47441495051E+03  0.98388283693E+03  0.12699999809E+01 0. -1.
       -4    1    3    3    0  502 -0.73592638463E+03  0.44873893863E+03  0.16776689657E+04  0.18861413123E+04  0.12699999809E+01 0.  1.
</event>
<event>
 5   0  0.2755061E-07  0.2600776E+04  0.7818609E-02  0.8367938E-01
       -1   -1    0    0    0  501  0.00000000000E+00  0.00000000000E+00  0.17915355137E+04  0.17915355137E+04  0.50400001928E-02 0. -1.
        1   -1    0    0  501    0  0.00000000000E+00  0.00000000000E+00 -0.94388810368E+03  0.94388810370E+03  0.50400001928E-02 0.  1.
    10030    2    1    2    0    0  0.00000000000E+00  0.00000000000E+00  0.84764741005E+03  0.27354236174E+04  0.26007760832E+04 0.  0.
        4    1    3    3  502    0 -0.74364035757E+03  0.43406662516E+03 -0.60109707173E+03  0.10501114793E+04  0.12699999809E+01 0.  1.
       -4    1    3    3    0  502  0.74364035757E+03 -0.43406662516E+03  0.14487444818E+04  0.16853121381E+04  0.12699999809E+01 0. -1.
</event>
<event>
 5   0  0.6780984E-07  0.2591687E+04  0.7818609E-02  0.8371030E-01
       -2   -1    0    0    0  501  0.00000000000E+00  0.00000000000E+00  0.24597494940E+04  0.24597494940E+04  0.25500000920E-02 0.  1.
        2   -1    0    0  501    0  0.00000000000E+00  0.00000000000E+00 -0.68267536840E+03  0.68267536841E+03  0.25500000920E-02 0. -1.
    10030    2    1    2    0    0  0.00000000000E+00  0.00000000000E+00  0.17770741256E+04  0.31424248624E+04  0.25916870120E+04 0.  0.
        2    1    3    3  502    0  0.12941245920E+04  0.63517828786E+02  0.91330944466E+03  0.15852214722E+04  0.25500000920E-02 0.  1.
       -2    1    3    3    0  502 -0.12941245920E+04 -0.63517828786E+02  0.86376468091E+03  0.15572033902E+04  0.25500000920E-02 0. -1.
</event>
<event>
 5   0  0.6780984E-07  0.2603139E+04  0.7818609E-02  0.8367136E-01
       -2   -1    0    0    0  501  0.00000000000E+00  0.00000000000E+00  0.10679438898E+04  0.10679438898E+04  0.25500000920E-02 0. -1.
        2   -1    0    0  501    0  0.00000000000E+00  0.00000000000E+00 -0.15863030643E+04  0.15863030643E+04  0.25500000920E-02 0.  1.
    10030    2    1    2    0    0  0.00000000000E+00  0.00000000000E+00 -0.51835917450E+03  0.26542469541E+04  0.26031386170E+04 0.  0.
        2    1    3    3  502    0 -0.62565867317E+03 -0.56039208287E+03 -0.12729816029E+04  0.15251131837E+04  0.25500000920E-02 0.  1.
       -2    1    3    3    0  502  0.62565867317E+03  0.56039208287E+03  0.75462242842E+03  0.11291337703E+04  0.25500000920E-02 0. -1.
</event>
<event>
 5   0  0.6768478E-07  0.2600378E+04  0.7818609E-02  0.8368073E-01
       -2   -1    0    0    0  501  0.00000000000E+00  0.00000000000E+00  0.73001136102E+03  0.73001136102E+03  0.25500000920E-02 0.  1.
        2   -1    0    0  501    0  0.00000000000E+00  0.00000000000E+00 -0.23157064758E+04  0.23157064758E+04  0.25500000920E-02 0. -1.
    10030    2    1    2    0    0  0.00000000000E+00  0.00000000000E+00 -0.15856951147E+04  0.30457178368E+04  0.26003784618E+04 0.  0.
        4    1    3    3  502    0  0.13137292785E+03  0.12850325514E+04 -0.61942631408E+03  0.14325704436E+04  0.12699999809E+01 0.  1.
       -4    1    3    3    0  502 -0.13137292785E+03 -0.12850325514E+04 -0.96626880067E+03  0.16131473932E+04  0.12699999809E+01 0. -1.
</event>
<event>
 5   0  0.6599814E-07  0.2599744E+04  0.7818609E-02  0.8368288E-01
        2   -1    0    0  501    0  0.00000000000E+00  0.00000000000E+00  0.23225338520E+04  0.23225338520E+04  0.25500000920E-02 0. -1.
       -2   -1    0    0    0  501  0.00000000000E+00  0.00000000000E+00 -0.72751029430E+03  0.72751029430E+03  0.25500000920E-02 0.  1.
    10030    2    1    2    0    0  0.00000000000E+00  0.00000000000E+00  0.15950235577E+04  0.30500441463E+04  0.25997440537E+04 0.  0.
        5    1    3    3  502    0 -0.91118459684E+03 -0.83836108913E+03  0.12616914654E+04  0.17677652924E+04  0.46999998093E+01 0. -1.
       -5    1    3    3    0  502  0.91118459684E+03  0.83836108913E+03  0.33333209230E+03  0.12822788539E+04  0.46999998093E+01 0.  1.
</event>
<event>
 5   0  0.6780984E-07  0.2598924E+04  0.7818609E-02  0.8368567E-01
        2   -1    0    0  501    0  0.00000000000E+00  0.00000000000E+00  0.80242392156E+03  0.80242392156E+03  0.25500000920E-02 0.  1.
       -2   -1    0    0    0  501  0.00000000000E+00  0.00000000000E+00 -0.21043759258E+04  0.21043759258E+04  0.25500000920E-02 0. -1.
    10030    2    1    2    0    0  0.00000000000E+00  0.00000000000E+00 -0.13019520042E+04  0.29067998474E+04  0.25989240719E+04 0.  0.
        2    1    3    3  502    0  0.10673862278E+04  0.57211132312E+03 -0.11779332551E+04  0.16894234161E+04  0.25500000920E-02 0.  1.
       -2    1    3    3    0  502 -0.10673862278E+04 -0.57211132312E+03 -0.12401874910E+03  0.12173764313E+04  0.25500000920E-02 0. -1.
</event>
<event>
 5   0  0.7160320E-07  0.2599948E+04  0.7818609E-02  0.8368219E-01
        2   -1    0    0  501    0  0.00000000000E+00  0.00000000000E+00  0.17300362870E+04  0.17300362870E+04  0.25500000920E-02 0.  1.
       -2   -1    0    0    0  501  0.00000000000E+00  0.00000000000E+00 -0.97681929372E+03  0.97681929373E+03  0.25500000920E-02 0. -1.
    10030    2    1    2    0    0  0.00000000000E+00  0.00000000000E+00  0.75321699332E+03  0.27068555808E+04  0.25999483257E+04 0.  0.
        1    1    3    3  502    0 -0.10841562808E+04 -0.64379283522E+03  0.47264580225E+02  0.12617836568E+04  0.50400001928E-02 0. -1.
       -1    1    3    3    0  502  0.10841562808E+04  0.64379283522E+03  0.70595241310E+03  0.14450719240E+04  0.50400001928E-02 0.  1.
</event>
<event>
 5   0  0.6768478E-07  0.2604344E+04  0.7818609E-02  0.8366727E-01
        2   -1    0    0  501    0  0.00000000000E+00  0.00000000000E+00  0.16111214947E+04  0.16111214947E+04  0.25500000920E-02 0. -1.
       -2   -1    0    0    0  501  0.00000000000E+00  0.00000000000E+00 -0.10524666815E+04  0.10524666815E+04  0.25500000920E-02 0.  1.
    10030    2    1    2    0    0  0.00000000000E+00  0.00000000000E+00  0.55865481325E+03  0.26635881762E+04  0.26043438275E+04 0.  0.
        4    1    3    3  502    0  0.75424900702E+03 -0.10501422513E+04  0.43763802966E+03  0.13649977914E+04  0.12699999809E+01 0.  1.
       -4    1    3    3    0  502 -0.75424900702E+03  0.10501422513E+04  0.12101678359E+03  0.12985903848E+04  0.12699999809E+01 0. -1.
</event>
<event>
 5   0  0.6768478E-07  0.2598884E+04  0.7818609E-02  0.8368581E-01
       -2   -1    0    0    0  501  0.00000000000E+00  0.00000000000E+00  0.54557571549E+03  0.54557571550E+03  0.25500000920E-02 0. -1.
        2   -1    0    0  501    0  0.00000000000E+00  0.00000000000E+00 -0.30949853979E+04  0.30949853979E+04  0.25500000920E-02 0.  1.
    10030    2    1    2    0    0  0.00000000000E+00  0.00000000000E+00 -0.25494096824E+04  0.36405611134E+04  0.25988835087E+04 0.  0.
        4    1    3    3  502    0  0.72985113903E+03 -0.57699099035E+03 -0.39341947685E+01  0.93038614503E+03  0.12699999809E+01 0. -1.
       -4    1    3    3    0  502 -0.72985113903E+03  0.57699099035E+03 -0.25454754876E+04  0.27101749684E+04  0.12699999809E+01 0.  1.
</event>
<event>
 5   0  0.6599814E-07  0.2600357E+04  0.7818609E-02  0.8368080E-01
       -2   -1    0    0    0  501  0.00000000000E+00  0.00000000000E+00  0.12974866190E+04  0.12974866190E+04  0.25500000920E-02 0.  1.
        2   -1    0    0  501    0  0.00000000000E+00  0.00000000000E+00 -0.13028763363E+04  0.13028763363E+04  0.25500000920E-02 0. -1.
    10030    2    1    2    0    0  0.00000000000E+00  0.00000000000E+00 -0.53897173126E+01  0.26003629553E+04  0.26003573697E+04 0.  0.
        5    1    3    3  502    0 -0.29792273633E+03 -0.40024681504E+03  0.11979271657E+04  0.12976929738E+04  0.46999998093E+01 0.  1.
       -5    1    3    3    0  502  0.29792273633E+03  0.40024681504E+03 -0.12033168831E+04  0.13026699815E+04  0.46999998093E+01 0. -1.
</event>
<event>
 5   0  0.2755061E-07  0.2599761E+04  0.7818609E-02  0.8368282E-01
       -1   -1    0    0    0  501  0.00000000000E+00  0.00000000000E+00  0.19221391878E+04  0.19221391878E+04  0.50400001928E-02 0.  1.
        1   -1    0    0  501    0  0.00000000000E+00  0.00000000000E+00 -0.87906707131E+03  0.87906707132E+03  0.50400001928E-02 0. -1.
    10030    2    1    2    0    0  0.00000000000E+00  0.00000000000E+00  0.10430721165E+04  0.28012062592E+04  0.25997609633E+04 0.  0.
        4    1    3    3  502    0 -0.41088451199E+03  0.10450600791E+04  0.12270311303E+04  0.16633050408E+04  0.12699999809E+01 0.  1.
       -4    1    3    3    0  502  0.41088451199E+03 -0.10450600791E+04 -0.18395901374E+03  0.11379012184E+04  0.12699999809E+01 0. -1.
</event>
<event>
 5   0  0.6599814E-07  0.2599237E+04  0.7818609E-02  0.8368460E-01
       -2   -1    0    0    0  501  0.00000000000E+00  0.00000000000E+00  0.59544027114E+03  0.59544027114E+03  0.25500000920E-02 0.  1.
        2   -1    0    0  501    0  0.00000000000E+00  0.00000000000E+00 -0.28365703329E+04  0.28365703329E+04  0.25500000920E-02 0. -1.
    10030    2    1    2    0    0  0.00000000000E+00  0.00000000000E+00 -0.22411300618E+04  0.34320106041E+04  0.25992369712E+04 0.  0.
        5    1    3    3  502    0  0.12754977214E+04  0.16638297904E+03 -0.87563903048E+03  0.15560666871E+04  0.46999998093E+01 0.  1.
       -5    1    3    3    0  502 -0.12754977214E+04 -0.16638297904E+03 -0.13654910313E+04  0.18759439169E+04  0.46999998093E+01 0. -1.
</event>
<event>
 5   0  0.6526351E-07  0.2599746E+04  0.7818609E-02  0.8368287E-01
        2   -1    0    0  501    0  0.00000000000E+00  0.00000000000E+00  0.15991922756E+04  0.15991922756E+04  0.25500000920E-02 0. -1.
       -2   -1    0    0    0  501  0.00000000000E+00  0.00000000000E+00 -0.10565771013E+04  0.10565771013E+04  0.25500000920E-02 0.  1.
    10030    2    1    2    0    0  0.00000000000E+00  0.00000000000E+00  0.54261517427E+03  0.26557693769E+04  0.25997460945E+04 0.  0.
        3    1    3    3  502    0 -0.32699305976E+03 -0.32972692103E+03 -0.96895013911E+03  0.10744806587E+04  0.10100000352E+00 0.  1.
       -3    1    3    3    0  502  0.32699305976E+03  0.32972692103E+03  0.15115653134E+04  0.15812887182E+04  0.10100000352E+00 0. -1.
</event>
<event>
 5   0  0.2294625E-07  0.2602335E+04  0.7818609E-02  0.8367408E-01
        4   -1    0    0  501    0  0.00000000000E+00  0.00000000000E+00  0.14952783090E+04  0.14952788484E+04  0.12699999809E+01 0.  1.
       -4   -1    0    0    0  501  0.00000000000E+00  0.00000000000E+00 -0.11322542853E+04  0.11322549975E+04  0.12699999809E+01 0. -1.
    10030    2    1    2    0    0  0.00000000000E+00  0.00000000000E+00  0.36302402377E+03  0.26275338459E+04  0.26023350418E+04 0.  0.
        4    1    3    3  502    0  0.14919332798E+02 -0.27384925031E+03 -0.11027395900E+04  0.11363327922E+04  0.12699999809E+01 0. -1.
       -4    1    3    3    0  502 -0.14919332798E+02  0.27384925031E+03  0.14657636137E+04  0.14912010537E+04  0.12699999809E+01 0.  1.
</event>
<event>
 5   0  0.2623263E-07  0.2598563E+04  0.7818609E-02  0.8368689E-01
        1   -1    0    0  501    0  0.00000000000E+00  0.00000000000E+00  0.14775790207E+04  0.14775790207E+04  0.50400001928E-02 0. -1.
       -1   -1    0    0    0  501  0.00000000000E+00  0.00000000000E+00 -0.11424989682E+04  0.11424989682E+04  0.50400001928E-02 0.  1.
    10030    2    1    2    0    0  0.00000000000E+00  0.00000000000E+00  0.33508005247E+03  0.26200779889E+04  0.25985630696E+04 0.  0.
        1    1    3    3  502    0  0.76205237483E+03  0.64554659404E+02  0.12265894498E+04  0.14454801294E+04  0.50400001928E-02 0. -1.
       -1    1    3    3    0  502 -0.76205237483E+03 -0.64554659404E+02 -0.89150939735E+03  0.11745978595E+04  0.50400001928E-02 0.  1.
</event>
<event>
 5   0  0.2864801E-07  0.2599702E+04  0.7818609E-02  0.8368302E-01
        1   -1    0    0  501    0  0.00000000000E+00  0.00000000000E+00  0.20539170135E+04  0.20539170135E+04  0.50400001928E-02 0.  1.
       -1   -1    0    0    0  501  0.00000000000E+00  0.00000000000E+00 -0.82262934753E+03  0.82262934754E+03  0.50400001928E-02 0. -1.
    10030    2    1    2    0    0  0.00000000000E+00  0.00000000000E+00  0.12312876660E+04  0.28765463610E+04  0.25997018388E+04 0.  0.
        5    1    3    3  502    0  0.30101860113E+03  0.80599138220E+03 -0.46246446822E+03  0.97679566991E+03  0.46999998093E+01 0. -1.
       -5    1    3    3    0  502 -0.30101860113E+03 -0.80599138220E+03  0.16937521342E+04  0.18997506911E+04  0.46999998093E+01 0.  1.
</event>
<event>
 5   0  0.2864801E-07  0.2600620E+04  0.7818609E-02  0.8367991E-01
       -1   -1    0    0    0  501  0.00000000000E+00  0.00000000000E+00  0.89936801178E+03  0.89936801180E+03  0.50400001928E-02 0.  1.
        1   -1    0    0  501    0  0.00000000000E+00  0.00000000000E+00 -0.18799937738E+04  0.18799937738E+04  0.50400001928E-02 0. -1.
    10030    2    1    2    0    0  0.00000000000E+00  0.00000000000E+00 -0.98062576204E+03  0.27793617856E+04  0.26006201280E+04 0.  0.
        5    1    3    3  502    0 -0.83911386352E+03  0.52687020743E+02  0.56977726702E+03  0.10156555627E+04  0.46999998093E+01 0.  1.
       -5    1    3    3    0  502  0.83911386352E+03 -0.52687020743E+02 -0.15504030291E+04  0.17637062229E+04  0.46999998093E+01 0. -1.
</event>
<event>
 5   0  0.7160320E-07  0.2598622E+04  0.7818609E-02  0.8368669E-01
       -2   -1    0    0    0  501  0.00000000000E+00  0.00000000000E+00  0.69274228985E+03  0.69274228985E+03  0.25500000920E-02 0. -1.
        2   -1    0    0  501    0  0.00000000000E+00  0.00000000000E+00 -0.24369951695E+04  0.24369951695E+04  0.25500000920E-02 0.  1.
    10030    2    1    2    0    0  0.00000000000E+00  0.00000000000E+00 -0.17442528797E+04  0.31297374594E+04  0.25986224151E+04 0.  0.
        1    1    3    3  502    0 -0.17784034440E+03 -0.18722345994E+03  0.66152686620E+03  0.71013914607E+03  0.50400001928E-02 0. -1.
       -1    1    3    3    0  502  0.17784034440E+03  0.18722345994E+03 -0.24057797459E+04  0.24195983133E+04  0.50400001928E-02 0.  1.
</event>
<event>
 5   0  0.7160320E-07  0.2599428E+04  0.7818609E-02  0.8368396E-01
        2   -1    0    0  501    0  0.00000000000E+00  0.00000000000E+00  0.12714463877E+04  0.12714463877E+04  0.25500000920E-02 0.  1.
       -2   -1    0    0    0  501  0.00000000000E+00  0.00000000000E+00 -0.13286099641E+04  0.13286099641E+04  0.25500000920E-02 0. -1.
    10030    2    1    2    0    0  0.00000000000E+00  0.00000000000E+00 -0.57163576436E+02  0.26000563518E+04  0.25994278905E+04 0.  0.
        1    1    3    3  502    0  0.55036624511E+03  0.11258951410E+04 -0.37321329686E+03  0.13076050769E+04  0.50400001928E-02 0. -1.
       -1    1    3    3    0  502 -0.55036624511E+03 -0.11258951410E+04  0.31604972042E+03  0.12924512749E+04  0.50400001928E-02 0.  1.
</event>
<event>
 5   0  0.2755061E-07  0.2599224E+04  0.7818609E-02  0.8368465E-01
       -1   -1    0    0    0  501  0.00000000000E+00  0.00000000000E+00  0.11464640867E+04  0.11464640867E+04  0.50400001928E-02 0. -1.
        1   -1    0    0  501    0  0.00000000000E+00  0.00000000000E+00 -0.14732179385E+04  0.14732179385E+04  0.50400001928E-02 0.  1.
    10030    2    1    2    0    0  0.00000000000E+00  0.00000000000E+00 -0.32675385186E+03  0.26196820252E+04  0.25992240830E+04 0.  0.
        4    1    3    3  502    0 -0.12762709804E+03  0.10345361659E+04  0.61889969074E+03  0.12122673776E+04  0.12699999809E+01 0. -1.
       -4    1    3    3    0  502  0.12762709804E+03 -0.10345361659E+04 -0.94565354260E+03  0.14074146476E+04  0.12699999809E+01 0.  1.
</event>
<event>
 5   0  0.6780984E-07  0.2602561E+04  0.7818609E-02  0.8367332E-01
       -2   -1    0    0    0  501  0.00000000000E+00  0.00000000000E+00  0.16657447756E+04  0.16657447756E+04  0.25500000920E-02 0. -1.
        2   -1    0    0  501    0  0.00000000000E+00  0.00000000000E+00 -0.10165605451E+04  0.10165605451E+04  0.25500000920E-02 0.  1.
    10030    2    1    2    0    0  0.00000000000E+00  0.00000000000E+00  0.64918423048E+03  0.26823053206E+04  0.26025605983E+04 0.  0.
        2    1    3    3  502    0 -0.64577606941E+03  0.89774174790E+03  0.10314370321E+04  0.15122266130E+04  0.25500000920E-02 0. -1.
       -2    1    3    3    0  502  0.64577606941E+03 -0.89774174790E+03 -0.38225280165E+03  0.11700787077E+04  0.25500000920E-02 0.  1.
</event>
<event>
 5   0  0.2294625E-07  0.2594147E+04  0.7818609E-02  0.8370192E-01
        3   -1    0    0  501    0  0.00000000000E+00  0.00000000000E+00  0.17391038989E+04  0.17391039018E+04  0.10100000352E+00 0.  1.
       -3   -1    0    0    0  501  0.00000000000E+00  0.00000000000E+00 -0.96739468029E+03  0.96739468556E+03  0.10100000352E+00 0. -1.
    10030    2    1    2    0    0  0.00000000000E+00  0.00000000000E+00  0.77170921860E+03  0.27064985874E+04  0.25941471596E+04 0.  0.
        5    1    3    3  502    0  0.17991039827E+03  0.11641860076E+04 -0.18050104525E+03  0.11917632018E+04  0.46999998093E+01 0. -1.
       -5    1    3    3    0  502 -0.17991039827E+03 -0.11641860076E+04  0.95221026385E+03  0.15147353856E+04  0.46999998093E+01 0.  1.
</event>
<event>
 5   0  0.6599814E-07  0.2599418E+04  0.7818609E-02  0.8368399E-01
       -2   -1    0    0    0  501  0.00000000000E+00  0.00000000000E+00  0.12113884142E+04  0.12113884142E+04  0.25500000920E-02 0.  1.
        2   -1    0    0  501    0  0.00000000000E+00  0.00000000000E+00 -0.13944685874E+04  0.13944685874E+04  0.25500000920E-02 0. -1.
    10030    2    1    2    0    0  0.00000000000E+00  0.00000000000E+00 -0.18308017321E+03  0.26058570016E+04  0.25994176969E+04 0.  0.
        5    1    3    3  502    0  0.61167540544E+03 -0.52824599473E+02 -0.12399273992E+04  0.13836109588E+04  0.46999998093E+01 0. -1.
       -5    1    3    3    0  502 -0.61167540544E+03  0.52824599473E+02  0.10568472260E+04  0.12222460428E+04  0.46999998093E+01 0.  1.
</event>
<event>
 5   0  0.6599814E-07  0.2600261E+04  0.7818609E-02  0.8368113E-01
       -2   -1    0    0    0  501  0.00000000000E+00  0.00000000000E+00  0.99165220245E+03  0.99165220245E+03  0.25500000920E-02 0.  1.
        2   -1    0    0  501    0  0.00000000000E+00  0.00000000000E+00 -0.17045688603E+04  0.17045688603E+04  0.25500000920E-02 0. -1.
    10030    2    1    2    0    0  0.00000000000E+00  0.00000000000E+00 -0.71291665785E+03  0.26962210628E+04  0.26002611135E+04 0.  0.
        5    1    3    3  502    0 -0.10099223321E+04  0.49297753149E+03  0.32138460709E+03  0.11688798566E+04  0.46999998093E+01 0.  1.
       -5    1    3    3    0  502  0.10099223321E+04 -0.49297753149E+03 -0.10343012649E+04  0.15273412062E+04  0.46999998093E+01 0. -1.
</event>
<event>
 5   0  0.2623263E-07  0.2598466E+04  0.7818609E-02  0.8368723E-01
       -1   -1    0    0    0  501  0.00000000000E+00  0.00000000000E+00  0.18282836252E+04  0.18282836252E+04  0.50400001928E-02 0.  1.
        1   -1    0    0  501    0  0.00000000000E+00  0.00000000000E+00 -0.92327357899E+03  0.92327357900E+03  0.50400001928E-02 0. -1.
    10030    2    1    2    0    0  0.00000000000E+00  0.00000000000E+00  0.90501004622E+03  0.27515572042E+04  0.25984656750E+04 0.  0.
        1    1    3    3  502    0  0.98173686444E+01  0.70763705030E+03 -0.70125656997E+03  0.99629681954E+03  0.50400001928E-02 0. -1.
       -1    1    3    3    0  502 -0.98173686444E+01 -0.70763705030E+03  0.16062666162E+04  0.17552603847E+04  0.50400001928E-02 0.  1.
</event>
<event>
 5   0  0.2755061E-07  0.2600923E+04  0.7818609E-02  0.8367888E-01
       -1   -1    0    0    0  501  0.00000000000E+00  0.00000000000E+00  0.19453407712E+04  0.19453407712E+04  0.50400001928E-02 0. -1.
        1   -1    0    0  501    0  0.00000000000E+00  0.00000000000E+00 -0.86935946380E+03  0.86935946381E+03  0.50400001928E-02 0.  1.
    10030    2    1    2    0    0  0.00000000000E+00  0.00000000000E+00  0.10759813074E+04  0.28147002350E+04  0.26009232282E+04 0.  0.
        4    1    3    3  502    0 -0.76783204567E+03  0.20194885082E+03 -0.57664129051E+03  0.98125744814E+03  0.12699999809E+01 0.  1.
       -4    1    3    3    0  502  0.76783204567E+03 -0.20194885082E+03  0.16526225979E+04  0.18334427869E+04  0.12699999809E+01 0. -1.
</event>
<event>
 5   0  0.6526351E-07  0.2599616E+04  0.7818609E-02  0.8368331E-01
        2   -1    0    0  501    0  0.00000000000E+00  0.00000000000E+00  0.17009247148E+04  0.17009247148E+04  0.25500000920E-02 0.  1.
       -2   -1    0    0    0  501  0.00000000000E+00  0.00000000000E+00 -0.99328410070E+03  0.99328410070E+03  0.25500000920E-02 0. -1.
    10030    2    1    2    0    0  0.00000000000E+00  0.00000000000E+00  0.70764061407E+03  0.26942088155E+04  0.25996164915E+04 0.  0.
        3    1    3    3  502    0  0.47851573495E+03 -0.55296828734E+02 -0.89736388235E+03  0.10184777835E+04  0.10100000352E+00 0. -1.
       -3    1    3    3    0  502 -0.47851573495E+03  0.55296828734E+02  0.16050044964E+04  0.16757310320E+04  0.10100000352E+00 0.  1.
</event>
<event>
 5   0  0.7160320E-07  0.2600173E+04  0.7818609E-02  0.8368142E-01
       -2   -1    0    0    0  501  0.00000000000E+00  0.00000000000E+00  0.79483937271E+03  0.79483937271E+03  0.25500000920E-02 0.  1.
        2   -1    0    0  501    0  0.00000000000E+00  0.00000000000E+00 -0.21264994168E+04  0.21264994168E+04  0.25500000920E-02 0. -1.
    10030    2    1    2    0    0  0.00000000000E+00  0.00000000000E+00 -0.13316600441E+04  0.29213387895E+04  0.26001734269E+04 0.  0.
        1    1    3    3  502    0 -0.57614388316E+03 -0.15092773754E+03 -0.19642114318E+04  0.20525222300E+04  0.50400001928E-02 0. -1.
       -1    1    3    3    0  502  0.57614388316E+03  0.15092773754E+03  0.63255138764E+03  0.86881655952E+03  0.50400001928E-02 0.  1.
</event>
<event>
 5   0  0.6599814E-07  0.2600015E+04  0.7818609E-02  0.8368196E-01
       -2   -1    0    0    0  501  0.00000000000E+00  0.00000000000E+00  0.10398794364E+04  0.10398794364E+04  0.25500000920E-02 0. -1.
        2   -1    0    0  501    0  0.00000000000E+00  0.00000000000E+00 -0.16252072889E+04  0.16252072890E+04  0.25500000920E-02 0.  1.
    10030    2    1    2    0    0  0.00000000000E+00  0.00000000000E+00 -0.58532785257E+03  0.26650867253E+04  0.26000151074E+04 0.  0.
        5    1    3    3  502    0  0.68227312808E+03 -0.14209879933E+03  0.83221146343E+03  0.10854891524E+04  0.46999998093E+01 0. -1.
       -5    1    3    3    0  502 -0.68227312808E+03  0.14209879933E+03 -0.14175393160E+04  0.15795975730E+04  0.46999998093E+01 0.  1.
</event>
<event>
 5   0  0.2294625E-07  0.2600282E+04  0.7818609E-02  0.8368105E-01
        4   -1    0    0  501    0  0.00000000000E+00  0.00000000000E+00  0.10560337630E+04  0.10560345266E+04  0.12699999809E+01 0. -1.
       -4   -1    0    0    0  501  0.00000000000E+00  0.00000000000E+00 -0.16006736804E+04  0.16006741842E+04  0.12699999809E+01 0.  1.
    10030    2    1    2    0    0  0.00000000000E+00  0.00000000000E+00 -0.54463991743E+03  0.26567087109E+04  0.26002823952E+04 0.  0.
        3    1    3    3  502    0 -0.81909554041E+03 -0.10012872374E+04 -0.13960317443E+03  0.13011466837E+04  0.10100000352E+00 0.  1.
       -3    1    3    3    0  502  0.81909554041E+03  0.10012872374E+04 -0.40503674300E+03  0.13555620272E+04  0.10100000352E+00 0. -1.
</event>
<event>
 5   0  0.6526351E-07  0.2600745E+04  0.7818609E-02  0.8367948E-01
       -2   -1    0    0    0  501  0.00000000000E+00  0.00000000000E+00  0.83821709623E+03  0.83821709623E+03  0.25500000920E-02 0. -1.
        2   -1    0    0  501    0  0.00000000000E+00  0.00000000000E+00 -0.20173398228E+04  0.20173398228E+04  0.25500000920E-02 0.  1.
    10030    2    1    2    0    0  0.00000000000E+00  0.00000000000E+00 -0.11791227266E+04  0.28555569190E+04  0.26007450689E+04 0.  0.
        3    1    3    3  502    0 -0.80068701823E+03  0.74038729626E+03  0.18814063218E+03  0.11066480729E+04  0.10100000352E+00 0. -1.
       -3    1    3    3    0  502  0.80068701823E+03 -0.74038729626E+03 -0.13672633587E+04  0.17489088461E+04  0.10100000352E+00 0.  1.
</event>
<event>
 5   0  0.6768478E-07  0.2599802E+04  0.7818609E-02  0.8368268E-01
        2   -1    0    0  501    0  0.00000000000E+00  0.00000000000E+00  0.27607955855E+04  0.27607955855E+04  0.25500000920E-02 0. -1.
       -2   -1    0    0    0  501  0.00000000000E+00  0.00000000000E+00 -0.61204912483E+03  0.61204912484E+03  0.25500000920E-02 0.  1.
    10030    2    1    2    0    0  0.00000000000E+00  0.00000000000E+00  0.21487464607E+04  0.33728447104E+04  0.25998019324E+04 0.  0.
        4    1    3    3  502    0  0.56416347414E+03 -0.10983399010E+04  0.54721292497E+03  0.13505830451E+04  0.12699999809E+01 0.  1.
       -4    1    3    3    0  502 -0.56416347414E+03  0.10983399010E+04  0.16015335357E+04  0.20222616652E+04  0.12699999809E+01 0. -1.
</event>
<event>
 5   0  0.2294625E-07  0.2601542E+04  0.7818609E-02  0.8367678E-01
       -3   -1    0    0    0  501  0.00000000000E+00  0.00000000000E+00  0.62464492199E+03  0.62464493015E+03  0.10100000352E+00 0. -1.
        3   -1    0    0  501    0  0.00000000000E+00  0.00000000000E+00 -0.27087476590E+04  0.27087476609E+04  0.10100000352E+00 0.  1.
    10030    2    1    2    0    0  0.00000000000E+00  0.00000000000E+00 -0.20841027370E+04  0.33333925910E+04  0.26015422248E+04 0.  0.
        4    1    3    3  502    0  0.12499695911E+04  0.12039578289E+02 -0.58107214034E+03  0.13784829978E+04  0.12699999809E+01 0. -1.
       -4    1    3    3    0  502 -0.12499695911E+04 -0.12039578289E+02 -0.15030305967E+04  0.19549095932E+04  0.12699999809E+01 0.  1.
</event>
<event>
 5   0  0.6526351E-07  0.2599724E+04  0.7818609E-02  0.8368295E-01
       -2   -1    0    0    0  501  0.00000000000E+00  0.00000000000E+00  0.72240895593E+03  0.72240895593E+03  0.25500000920E-02 0. -1.
        2   -1    0    0  501    0  0.00000000000E+00  0.00000000000E+00 -0.23388986098E+04  0.23388986098E+04  0.25500000920E-02 0.  1.
    10030    2    1    2    0    0  0.00000000000E+00  0.00000000000E+00 -0.16164896538E+04  0.30613075657E+04  0.25997240644E+04 0.  0.
        3    1    3    3  502    0 -0.35780270581E+03 -0.36716711238E+03  0.59832824890E+03  0.78792840305E+03  0.10100000352E+00 0. -1.
       -3    1    3    3    0  502  0.35780270581E+03  0.36716711238E+03 -0.22148179027E+04  0.22733791627E+04  0.10100000352E+00 0.  1.
</event>
<event>
 5   0  0.6768478E-07  0.2600316E+04  0.7818609E-02  0.8368094E-01
       -2   -1    0    0    0  501  0.00000000000E+00  0.00000000000E+00  0.22397273217E+04  0.22397273217E+04  0.25500000920E-02 0.  1.
        2   -1    0    0  501    0  0.00000000000E+00  0.00000000000E+00 -0.75473953330E+03  0.75473953330E+03  0.25500000920E-02 0. -1.
    10030    2    1    2    0    0  0.00000000000E+00  0.00000000000E+00  0.14849877884E+04  0.29944668550E+04  0.26003159450E+04 0.  0.
        4    1    3    3  502    0 -0.94372490994E+03 -0.50849339868E+03 -0.10470050800E+03  0.10771007620E+04  0.12699999809E+01 0. -1.
       -4    1    3    3    0  502  0.94372490994E+03  0.50849339868E+03  0.15896882964E+04  0.19173660931E+04  0.12699999809E+01 0.  1.
</event>
<event>
 5   0  0.7160320E-07  0.2600052E+04  0.7818609E-02  0.8368183E-01
        2   -1    0    0  501    0  0.00000000000E+00  0.00000000000E+00  0.15636709870E+04  0.15636709870E+04  0.25500000920E-02 0.  1.
       -2   -1    0    0    0  501  0.00000000000E+00  0.00000000000E+00 -0.10808335551E+04  0.10808335551E+04  0.25500000920E-02 0. -1.
    10030    2    1    2    0    0  0.00000000000E+00  0.00000000000E+00  0.48283743196E+03  0.26445045421E+04  0.26000523624E+04 0.  0.
        1    1    3    3  502    0  0.96534543258E+03  0.34490129810E+03  0.10545996428E+04  0.14707240109E+04  0.50400001928E-02 0.  1.
       -1    1    3    3    0  502 -0.96534543258E+03 -0.34490129810E+03 -0.57176221082E+03  0.11737805312E+04  0.50400001928E-02 0. -1.
</event>
<event>
 5   0  0.2755061E-07  0.2600221E+04  0.7818609E-02  0.8368126E-01
       -1   -1    0    0    0  501  0.00000000000E+00  0.00000000000E+00  0.24802605892E+04  0.24802605892E+04  0.50400001928E-02 0.  1.
        1   -1    0    0  501    0  0.00000000000E+00  0.00000000000E+00 -0.68149585752E+03  0.68149585754E+03  0.50400001928E-02 0. -1.
    10030    2    1    2    0    0  0.00000000000E+00  0.00000000000E+00  0.17987647317E+04  0.31617564467E+04  0.26002210038E+04 0.  0.
        4    1    3    3  502    0  0.48268914607E+03 -0.62077880966E+03 -0.35954732848E+03  0.86465660037E+03  0.12699999809E+01 0. -1.
       -4    1    3    3    0  502 -0.48268914607E+03  0.62077880966E+03  0.21583120601E+04  0.22970998463E+04  0.12699999809E+01 0.  1.
</event>
<event>
 5   0  0.6526351E-07  0.2600788E+04  0.7818609E-02  0.8367934E-01
        2   -1    0    0  501    0  0.00000000000E+00  0.00000000000E+00  0.52213248517E+03  0.52213248517E+03  0.25500000920E-02 0. -1.
       -2   -1    0    0    0  501  0.00000000000E+00  0.00000000000E+00 -0.32386875103E+04  0.32386875103E+04  0.25500000920E-02 0.  1.
    10030    2    1    2    0    0  0.00000000000E+00  0.00000000000E+00 -0.27165550252E+04  0.37608199955E+04  0.26007875411E+04 0.  0.
        3    1    3    3  502    0 -0.58267329379E+03  0.30368874179E+03  0.26443043741E+03  0.70827853674E+03  0.10100000352E+00 0. -1.
       -3    1    3    3    0  502  0.58267329379E+03 -0.30368874179E+03 -0.29809854626E+04  0.30525414588E+04  0.10100000352E+00 0.  1.
</event>
<event>
 5   0  0.6599814E-07  0.2598586E+04  0.7818609E-02  0.8368682E-01
       -2   -1    0    0    0  501  0.00000000000E+00  0.00000000000E+00  0.14902807974E+04  0.14902807974E+04  0.25500000920E-02 0.  1.
        2   -1    0    0  501    0  0.00000000000E+00  0.00000000000E+00 -0.11327809551E+04  0.11327809551E+04  0.25500000920E-02 0. -1.
    10030    2    1    2    0    0  0.00000000000E+00  0.00000000000E+00  0.35749984233E+03  0.26230617525E+04  0.25985855422E+04 0.  0.
        5    1    3    3  502    0  0.59399705387E+03  0.29314685859E+03  0.13070312137E+04  0.14653055191E+04  0.46999998093E+01 0.  1.
       -5    1    3    3    0  502 -0.59399705387E+03 -0.29314685859E+03 -0.94953137140E+03  0.11577562334E+04  0.46999998093E+01 0. -1.
</event>
<event>
 5   0  0.2641626E-07  0.2599649E+04  0.7818609E-02  0.8368320E-01
        1   -1    0    0  501    0  0.00000000000E+00  0.00000000000E+00  0.12171183557E+04  0.12171183557E+04  0.50400001928E-02 0. -1.
       -1   -1    0    0    0  501  0.00000000000E+00  0.00000000000E+00 -0.13881509464E+04  0.13881509464E+04  0.50400001928E-02 0.  1.
    10030    2    1    2    0    0  0.00000000000E+00  0.00000000000E+00 -0.17103259069E+03  0.26052693021E+04  0.25996492051E+04 0.  0.
        3    1    3    3  502    0  0.59505870009E+03  0.46376645984E+03  0.97524721253E+03  0.12329968863E+04  0.10100000352E+00 0. -1.
       -3    1    3    3    0  502 -0.59505870009E+03 -0.46376645984E+03 -0.11462798032E+04  0.13722724158E+04  0.10100000352E+00 0.  1.
</event>
<event>
 5   0  0.2755061E-07  0.2600214E+04  0.7818609E-02  0.8368129E-01
        1   -1    0    0  501    0  0.00000000000E+00  0.00000000000E+00  0.13176789249E+04  0.13176789249E+04  0.50400001928E-02 0. -1.
       -1   -1    0    0    0  501  0.00000000000E+00  0.00000000000E+00 -0.12827690164E+04  0.12827690164E+04  0.50400001928E-02 0.  1.
    10030    2    1    2    0    0  0.00000000000E+00  0.00000000000E+00  0.34909908511E+02  0.26004479413E+04  0.26002136054E+04 0.  0.
        4    1    3    3  502    0 -0.51345499267E+02 -0.10200109126E+04  0.82202572521E+03  0.13110249913E+04  0.12699999809E+01 0. -1.
       -4    1    3    3    0  502  0.51345499267E+02  0.10200109126E+04 -0.78711581669E+03  0.12894229499E+04  0.12699999809E+01 0.  1.
</event>
<event>
 5   0  0.6768478E-07  0.2599068E+04  0.7818609E-02  0.8368518E-01
        2   -1    0    0  501    0  0.00000000000E+00  0.00000000000E+00  0.10486817170E+04  0.10486817170E+04  0.25500000920E-02 0. -1.
       -2   -1    0    0    0  501  0.00000000000E+00  0.00000000000E+00 -0.16103915492E+04  0.16103915492E+04  0.25500000920E-02 0.  1.
    10030    2    1    2    0    0  0.00000000000E+00  0.00000000000E+00 -0.56170983217E+03  0.26590732662E+04  0.25990676596E+04 0.  0.
        4    1    3    3  502    0 -0.62770389511E+03 -0.11206448979E+04 -0.48271550904E+03  0.13721782110E+04  0.12699999809E+01 0.  1.
       -4    1    3    3    0  502  0.62770389511E+03  0.11206448979E+04 -0.78994323137E+02  0.12868950552E+04  0.12699999809E+01 0. -1.
</event>
<event>
 5   0  0.2641626E-07  0.2599989E+04  0.7818609E-02  0.8368205E-01
       -1   -1    0    0    0  501  0.00000000000E+00  0.00000000000E+00  0.82864104660E+03  0.82864104662E+03  0.50400001928E-02 0.  1.
        1   -1    0    0  501    0  0.00000000000E+00  0.00000000000E+00 -0.20394671368E+04  0.20394671368E+04  0.50400001928E-02 0. -1.
    10030    2    1    2    0    0  0.00000000000E+00  0.00000000000E+00 -0.12108260902E+04  0.28681081835E+04  0.25999893714E+04 0.  0.
        3    1    3    3  502    0  0.43345661971E+01 -0.82360274873E+03 -0.17149409215E+04  0.19024622600E+04  0.10100000352E+00 0. -1.
       -3    1    3    3    0  502 -0.43345661971E+01  0.82360274873E+03  0.50411483129E+03  0.96564592347E+03  0.10100000352E+00 0.  1.
</event>
<event>
 5   0  0.6599814E-07  0.2603031E+04  0.7818609E-02  0.8367172E-01
       -2   -1    0    0    0  501  0.00000000000E+00  0.00000000000E+00  0.12500418722E+04  0.12500418722E+04  0.25500000920E-02 0.  1.
        2   -1    0    0  501    0  0.00000000000E+00  0.00000000000E+00 -0.13551085231E+04  0.13551085231E+04  0.25500000920E-02 0. -1.
    10030    2    1    2    0    0  0.00000000000E+00  0.00000000000E+00 -0.10506665092E+03  0.26051503954E+04  0.26030308453E+04 0.  0.
        5    1    3    3  502    0 -0.82069418791E+03  0.19242231886E+03 -0.10449833627E+04  0.13426010641E+04  0.46999998093E+01 0. -1.
       -5    1    3    3    0  502  0.82069418791E+03 -0.19242231886E+03  0.93991671180E+03  0.12625493313E+04  0.46999998093E+01 0.  1.
</event>
<event>
 5   0  0.6780984E-07  0.2599967E+04  0.7818609E-02  0.8368213E-01
       -2   -1    0    0    0  501  0.00000000000E+00  0.00000000000E+00  0.10068146766E+04  0.10068146766E+04  0.25500000920E-02 0. -1.
        2   -1    0    0  501    0  0.00000000000E+00  0.00000000000E+00 -0.16785181732E+04  0.16785181732E+04  0.25500000920E-02 0.  1.
    10030    2    1    2    0    0  0.00000000000E+00  0.00000000000E+00 -0.67170349666E+03  0.26853328498E+04  0.25999667165E+04 0.  0.
        2    1    3    3  502    0 -0.12007342578E+04  0.96383995124E+02 -0.84067823991E+03  0.14689426590E+04  0.25500000920E-02 0.  1.
       -2    1    3    3    0  502  0.12007342578E+04 -0.96383995124E+02  0.16897474326E+03  0.12163901908E+04  0.25500000920E-02 0. -1.
</event>
<event>
 5   0  0.6599814E-07  0.2598840E+04  0.7818609E-02  0.8368595E-01
       -2   -1    0    0    0  501  0.00000000000E+00  0.00000000000E+00  0.73321700376E+03  0.73321700376E+03  0.25500000920E-02 0. -1.
        2   -1    0    0  501    0  0.00000000000E+00  0.00000000000E+00 -0.23028552504E+04  0.23028552504E+04  0.25500000920E-02 0.  1.
    10030    2    1    2    0    0  0.00000000000E+00  0.00000000000E+00 -0.15696382467E+04  0.30360722542E+04  0.25988402235E+04 0.  0.
        5    1    3    3  502    0 -0.82633203215E+03  0.86479432326E+03 -0.19168304330E+03  0.12113869440E+04  0.46999998093E+01 0. -1.
       -5    1    3    3    0  502  0.82633203215E+03 -0.86479432326E+03 -0.13779552034E+04  0.18246853102E+04  0.46999998093E+01 0.  1.
</event>
<event>
 5   0  0.2864801E-07  0.2600901E+04  0.7818609E-02  0.8367895E-01
       -1   -1    0    0    0  501  0.00000000000E+00  0.00000000000E+00  0.10513509736E+04  0.10513509736E+04  0.50400001928E-02 0.  1.
        1   -1    0    0  501    0  0.00000000000E+00  0.00000000000E+00 -0.16085699202E+04  0.16085699202E+04  0.50400001928E-02 0. -1.
    10030    2    1    2    0    0  0.00000000000E+00  0.00000000000E+00 -0.55721894661E+03  0.26599208938E+04  0.26009010375E+04 0.  0.
        5    1    3    3  502    0 -0.11134979807E+04  0.64215983565E+03 -0.76896703415E+02  0.12877042364E+04  0.46999998093E+01 0.  1.
       -5    1    3    3    0  502  0.11134979807E+04 -0.64215983565E+03 -0.48032224319E+03  0.13722166574E+04  0.46999998093E+01 0. -1.
</event>
<event>
 5   0  0.2755061E-07  0.2610810E+04  0.7818609E-02  0.8364538E-01
        1   -1    0    0  501    0  0.00000000000E+00  0.00000000000E+00  0.94368659402E+03  0.94368659404E+03  0.50400001928E-02 0.  1.
       -1   -1    0    0    0  501  0.00000000000E+00  0.00000000000E+00 -0.18057717662E+04  0.18057717662E+04  0.50400001928E-02 0. -1.
    10030    2    1    2    0    0  0.00000000000E+00  0.00000000000E+00 -0.86208517220E+03  0.27494583603E+04  0.26108103016E+04 0.  0.
        4    1    3    3  502    0 -0.12153222903E+04 -0.24341837417E+03 -0.86245632625E+03  0.15099977821E+04  0.12699999809E+01 0.  1.
       -4    1    3    3    0  502  0.12153222903E+04  0.24341837417E+03  0.37115404640E+00  0.12394605782E+04  0.12699999809E+01 0. -1.
</event>
<event>
 5   0  0.6526351E-07  0.2600041E+04  0.7818609E-02  0.8368187E-01
       -2   -1    0    0    0  501  0.00000000000E+00  0.00000000000E+00  0.15328567933E+04  0.15328567933E+04  0.25500000920E-02 0. -1.
        2   -1    0    0  501    0  0.00000000000E+00  0.00000000000E+00 -0.11025511354E+04  0.11025511354E+04  0.25500000920E-02 0.  1.
    10030    2    1    2    0    0  0.00000000000E+00  0.00000000000E+00  0.43030565796E+03  0.26354079287E+04  0.26000407672E+04 0.  0.
        3    1    3    3  502    0  0.50560745333E+03 -0.93710346411E+03 -0.54081474327E+03  0.11942706544E+04  0.10100000352E+00 0.  1.
       -3    1    3    3    0  502 -0.50560745333E+03  0.93710346411E+03  0.97112040123E+03  0.14411372742E+04  0.10100000352E+00 0. -1.
</event>
<event>
 5   0  0.2793576E-07  0.2599551E+04  0.7818609E-02  0.8368354E-01
       -1   -1    0    0    0  501  0.00000000000E+00  0.00000000000E+00  0.79870607730E+03  0.79870607731E+03  0.50400001928E-02 0.  1.
        1   -1    0    0  501    0  0.00000000000E+00  0.00000000000E+00 -0.21151911692E+04  0.21151911692E+04  0.50400001928E-02 0. -1.
    10030    2    1    2    0    0  0.00000000000E+00  0.00000000000E+00 -0.13164850919E+04  0.29138972465E+04  0.25995507623E+04 0.  0.
        2    1    3    3  502    0 -0.61145092591E+03  0.43897667326E+03 -0.18460211668E+04  0.19935814262E+04  0.25500000920E-02 0. -1.
       -2    1    3    3    0  502  0.61145092591E+03 -0.43897667326E+03  0.52953607494E+03  0.92031582032E+03  0.25500000920E-02 0.  1.
</event>
<event>
 5   0  0.6768478E-07  0.2600262E+04  0.7818609E-02  0.8368112E-01
       -2   -1    0    0    0  501  0.00000000000E+00  0.00000000000E+00  0.98025909241E+03  0.98025909241E+03  0.25500000920E-02 0. -1.
        2   -1    0    0  501    0  0.00000000000E+00  0.00000000000E+00 -0.17243817842E+04  0.17243817842E+04  0.25500000920E-02 0.  1.
    10030    2    1    2    0    0  0.00000000000E+00  0.00000000000E+00 -0.74412269176E+03  0.27046408766E+04  0.26002622350E+04 0.  0.
        4    1    3    3  502    0  0.34719539151E+03  0.11967292055E+04  0.13821198469E+02  0.12461533090E+04  0.12699999809E+01 0.  1.
       -4    1    3    3    0  502 -0.34719539151E+03 -0.11967292055E+04 -0.75794389023E+03  0.14584875676E+04  0.12699999809E+01 0. -1.
</event>
<event>
 5   0  0.2755061E-07  0.2600789E+04  0.7818609E-02  0.8367933E-01
       -1   -1    0    0    0  501  0.00000000000E+00  0.00000000000E+00  0.14486600725E+04  0.14486600725E+04  0.50400001928E-02 0. -1.
        1   -1    0    0  501    0  0.00000000000E+00  0.00000000000E+00 -0.11673033972E+04  0.11673033972E+04  0.50400001928E-02 0.  1.
    10030    2    1    2    0    0  0.00000000000E+00  0.00000000000E+00  0.28135667532E+03  0.26159634697E+04  0.26007889757E+04 0.  0.
        4    1    3    3  502    0 -0.73429817725E+03  0.46194268668E+03  0.11150612630E+04  0.14127802703E+04  0.12699999809E+01 0. -1.
       -4    1    3    3    0  502  0.73429817725E+03 -0.46194268668E+03 -0.83370458770E+03  0.12031831994E+04  0.12699999809E+01 0.  1.
</event>
<event>
 5   0  0.2623263E-07  0.2600463E+04  0.7818609E-02  0.8368044E-01
        1   -1    0    0  501    0  0.00000000000E+00  0.00000000000E+00  0.14776140632E+04  0.14776140632E+04  0.50400001928E-02 0.  1.
       -1   -1    0    0    0  501  0.00000000000E+00  0.00000000000E+00 -0.11441431530E+04  0.11441431530E+04  0.50400001928E-02 0. -1.
    10030    2    1    2    0    0  0.00000000000E+00  0.00000000000E+00  0.33347091016E+03  0.26217572162E+04  0.26004630458E+04 0.  0.
        1    1    3    3  502    0 -0.12357303622E+04 -0.10044499604E+03  0.56171293317E+03  0.13611172413E+04  0.50400001928E-02 0.  1.
       -1    1    3    3    0  502  0.12357303622E+04  0.10044499604E+03 -0.22824202301E+03  0.12606399749E+04  0.50400001928E-02 0. -1.
</event>
<event>
 5   0  0.2864801E-07  0.2598923E+04  0.7818609E-02  0.8368567E-01
        1   -1    0    0  501    0  0.00000000000E+00  0.00000000000E+00  0.10421219386E+04  0.10421219386E+04  0.50400001928E-02 0. -1.
       -1   -1    0    0    0  501  0.00000000000E+00  0.00000000000E+00 -0.16203476092E+04  0.16203476093E+04  0.50400001928E-02 0.  1.
    10030    2    1    2    0    0  0.00000000000E+00  0.00000000000E+00 -0.57822567063E+03  0.26624695479E+04  0.25989226936E+04 0.  0.
        5    1    3    3  502    0  0.94583919206E+03 -0.89097769031E+03 -0.27767379526E+03  0.13287504839E+04  0.46999998093E+01 0. -1.
       -5    1    3    3    0  502 -0.94583919206E+03  0.89097769031E+03 -0.30055187537E+03  0.13337190640E+04  0.46999998093E+01 0.  1.
</event>
<event>
 5   0  0.2641626E-07  0.2598520E+04  0.7818609E-02  0.8368704E-01
        1   -1    0    0  501    0  0.00000000000E+00  0.00000000000E+00  0.11178518658E+04  0.11178518658E+04  0.50400001928E-02 0.  1.
       -1   -1    0    0    0  501  0.00000000000E+00  0.00000000000E+00 -0.15101077570E+04  0.15101077570E+04  0.50400001928E-02 0. -1.
    10030    2    1    2    0    0  0.00000000000E+00  0.00000000000E+00 -0.39225589117E+03  0.26279596228E+04  0.25985201741E+04 0.  0.
        3    1    3    3  502    0  0.69940779279E+02 -0.21535828517E+03 -0.14899995473E+04  0.15071063548E+04  0.10100000352E+00 0. -1.
       -3    1    3    3    0  502 -0.69940779279E+02  0.21535828517E+03  0.10977436561E+04  0.11208532680E+04  0.10100000352E+00 0.  1.
</event>
<event>
 5   0  0.6780984E-07  0.2599195E+04  0.7818609E-02  0.8368475E-01
       -2   -1    0    0    0  501  0.00000000000E+00  0.00000000000E+00  0.97105921643E+03  0.97105921644E+03  0.25500000920E-02 0. -1.
        2   -1    0    0  501    0  0.00000000000E+00  0.00000000000E+00 -0.17392904441E+04  0.17392904441E+04  0.25500000920E-02 0.  1.
    10030    2    1    2    0    0  0.00000000000E+00  0.00000000000E+00 -0.76823122768E+03  0.27103496606E+04  0.25991952722E+04 0.  0.
        2    1    3    3  502    0 -0.46931882269E+02  0.85659860559E+03 -0.14020754457E+04  0.16437090156E+04  0.25500000920E-02 0.  1.
       -2    1    3    3    0  502  0.46931882269E+02 -0.85659860559E+03  0.63384421801E+03  0.10666406449E+04  0.25500000920E-02 0. -1.
</event>
<event>
 5   0  0.2755061E-07  0.2608091E+04  0.7818609E-02  0.8365458E-01
       -1   -1    0    0    0  501  0.00000000000E+00  0.00000000000E+00  0.12268041681E+04  0.12268041681E+04  0.50400001928E-02 0. -1.
        1   -1    0    0  501    0  0.00000000000E+00  0.00000000000E+00 -0.13861498321E+04  0.13861498321E+04  0.50400001928E-02 0.  1.
    10030    2    1    2    0    0  0.00000000000E+00  0.00000000000E+00 -0.15934566393E+03  0.26129540002E+04  0.26080907896E+04 0.  0.
        4    1    3    3  502    0  0.95873974786E+03  0.22868664104E+03 -0.93511114492E+03  0.13586441588E+04  0.12699999809E+01 0.  1.
       -4    1    3    3    0  502 -0.95873974786E+03 -0.22868664104E+03  0.77576548098E+03  0.12543098414E+04  0.12699999809E+01 0. -1.
</event>
<event>
 5   0  0.6599814E-07  0.2601253E+04  0.7818609E-02  0.8367776E-01
       -2   -1    0    0    0  501  0.00000000000E+00  0.00000000000E+00  0.13300685351E+04  0.13300685351E+04  0.25500000920E-02 0.  1.
        2   -1    0    0  501    0  0.00000000000E+00  0.00000000000E+00 -0.12718362995E+04  0.12718362995E+04  0.25500000920E-02 0. -1.
    10030    2    1    2    0    0  0.00000000000E+00  0.00000000000E+00  0.58232235659E+02  0.26019048346E+04  0.26012531163E+04 0.  0.
        5    1    3    3  502    0 -0.96894606487E+03  0.79585920808E+03 -0.31645415569E+03  0.12932183413E+04  0.46999998093E+01 0. -1.
       -5    1    3    3    0  502  0.96894606487E+03 -0.79585920808E+03  0.37468639135E+03  0.13086864932E+04  0.46999998093E+01 0.  1.
</event>
<event>
 5   0  0.6768478E-07  0.2597956E+04  0.7818609E-02  0.8368896E-01
       -2   -1    0    0    0  501  0.00000000000E+00  0.00000000000E+00  0.62262273114E+03  0.62262273114E+03  0.25500000920E-02 0. -1.
        2   -1    0    0  501    0  0.00000000000E+00  0.00000000000E+00 -0.27100579434E+04  0.27100579434E+04  0.25500000920E-02 0.  1.
    10030    2    1    2    0    0  0.00000000000E+00  0.00000000000E+00 -0.20874352123E+04  0.33326806746E+04  0.25979558721E+04 0.  0.
        4    1    3    3  502    0 -0.69277587263E+03 -0.92691824411E+03 -0.18007120121E+04  0.21404862075E+04  0.12699999809E+01 0.  1.
       -4    1    3    3    0  502  0.69277587263E+03  0.92691824411E+03 -0.28672320021E+03  0.11921944671E+04  0.12699999809E+01 0. -1.
</event>
<event>
 5   0  0.2623263E-07  0.2599990E+04  0.7818609E-02  0.8368205E-01
        1   -1    0    0  501    0  0.00000000000E+00  0.00000000000E+00  0.17377627586E+04  0.17377627586E+04  0.50400001928E-02 0. -1.
       -1   -1    0    0    0  501  0.00000000000E+00  0.00000000000E+00 -0.97250737858E+03  0.97250737859E+03  0.50400001928E-02 0.  1.
    10030    2    1    2    0    0  0.00000000000E+00  0.00000000000E+00  0.76525537998E+03  0.27102701372E+04  0.25999900807E+04 0.  0.
        1    1    3    3  502    0  0.45433140677E+03  0.98585303079E+03 -0.36301929900E+03  0.11445987231E+04  0.50400001928E-02 0.  1.
       -1    1    3    3    0  502 -0.45433140677E+03 -0.98585303079E+03  0.11282746790E+04  0.15656714140E+04  0.50400001928E-02 0. -1.
</event>
<event>
 5   0  0.6599814E-07  0.2600086E+04  0.7818609E-02  0.8368172E-01
       -2   -1    0    0    0  501  0.00000000000E+00  0.00000000000E+00  0.19244946194E+04  0.19244946194E+04  0.25500000920E-02 0. -1.
        2   -1    0    0  501    0  0.00000000000E+00  0.00000000000E+00 -0.87821039832E+03  0.87821039833E+03  0.25500000920E-02 0.  1.
    10030    2    1    2    0    0  0.00000000000E+00  0.00000000000E+00  0.10462842211E+04  0.28027050177E+04  0.26000855265E+04 0.  0.
        5    1    3    3  502    0 -0.73845799006E+03 -0.57258584479E+03 -0.45112494670E+03  0.10376466452E+04  0.46999998093E+01 0.  1.
       -5    1    3    3    0  502  0.73845799006E+03  0.57258584479E+03  0.14974091678E+04  0.17650583726E+04  0.46999998093E+01 0. -1.
</event>
<event>
 5   0  0.7160320E-07  0.2600268E+04  0.7818609E-02  0.8368110E-01
       -2   -1    0    0    0  501  0.00000000000E+00  0.00000000000E+00  0.11412755728E+04  0.11412755728E+04  0.25500000920E-02 0.  1.
        2   -1    0    0  501    0  0.00000000000E+00  0.00000000000E+00 -0.14811041075E+04  0.14811041076E+04  0.25500000920E-02 0. -1.
    10030    2    1    2    0    0  0.00000000000E+00  0.00000000000E+00 -0.33982853478E+03  0.26223796803E+04  0.26002676314E+04 0.  0.
        1    1    3    3  502    0 -0.87352261306E+03  0.24177653991E+03  0.77013365933E+03  0.11893710540E+04  0.50400001928E-02 0.  1.
       -1    1    3    3    0  502  0.87352261306E+03 -0.24177653991E+03 -0.11099621941E+04  0.14330086263E+04  0.50400001928E-02 0. -1.
</event>
<event>
 5   0  0.6526351E-07  0.2600907E+04  0.7818609E-02  0.8367893E-01
        2   -1    0    0  501    0  0.00000000000E+00  0.00000000000E+00  0.20405359984E+04  0.20405359984E+04  0.25500000920E-02 0. -1.
       -2   -1    0    0    0  501  0.00000000000E+00  0.00000000000E+00 -0.82879198670E+03  0.82879198671E+03  0.25500000920E-02 0.  1.
    10030    2    1    2    0    0  0.00000000000E+00  0.00000000000E+00  0.12117440117E+04  0.28693279851E+04  0.26009074448E+04 0.  0.
        3    1    3    3  502    0  0.55010430731E+03  0.64210790353E+03 -0.48415840524E+03  0.97433396752E+03  0.10100000352E+00 0.  1.
       -3    1    3    3    0  502 -0.55010430731E+03 -0.64210790353E+03  0.16959024169E+04  0.18949940176E+04  0.10100000352E+00 0. -1.
</event>
<event>
 5   0  0.2623263E-07  0.2600262E+04  0.7818609E-02  0.8368112E-01
        1   -1    0    0  501    0  0.00000000000E+00  0.00000000000E+00  0.11774584691E+04  0.11774584691E+04  0.50400001928E-02 0. -1.
       -1   -1    0    0    0  501  0.00000000000E+00  0.00000000000E+00 -0.14355835749E+04  0.14355835749E+04  0.50400001928E-02 0.  1.
    10030    2    1    2    0    0  0.00000000000E+00  0.00000000000E+00 -0.25812510581E+03  0.26130420440E+04  0.26002615548E+04 0.  0.
        1    1    3    3  502    0 -0.48418897003E+03 -0.71751983027E+03 -0.11039163557E+04  0.14028203684E+04  0.50400001928E-02 0.  1.
       -1    1    3    3    0  502  0.48418897003E+03  0.71751983027E+03  0.84579124991E+03  0.12102216756E+04  0.50400001928E-02 0. -1.
</event>
<event>
 5   0  0.2793576E-07  0.2609739E+04  0.7818609E-02  0.8364901E-01
       -1   -1    0    0    0  501  0.00000000000E+00  0.00000000000E+00  0.11737862237E+04  0.11737862237E+04  0.50400001928E-02 0. -1.
        1   -1    0    0  501    0  0.00000000000E+00  0.00000000000E+00 -0.14505911894E+04  0.14505911895E+04  0.50400001928E-02 0.  1.
    10030    2    1    2    0    0  0.00000000000E+00  0.00000000000E+00 -0.27680496573E+03  0.26243774132E+04  0.26097386493E+04 0.  0.
        2    1    3    3  502    0 -0.70689488359E+03 -0.15200409016E+03 -0.12307174569E+04  0.14274001116E+04  0.25500000920E-02 0.  1.
       -2    1    3    3    0  502  0.70689488359E+03  0.15200409016E+03  0.95391249113E+03  0.11969773016E+04  0.25500000920E-02 0. -1.
</event>
<event>
 5   0  0.7160320E-07  0.2600373E+04  0.7818609E-02  0.8368074E-01
        2   -1    0    0  501    0  0.00000000000E+00  0.00000000000E+00  0.96739786324E+03  0.96739786324E+03  0.25500000920E-02 0. -1.
       -2   -1    0    0    0  501  0.00000000000E+00  0.00000000000E+00 -0.17474562368E+04  0.17474562368E+04  0.25500000920E-02 0.  1.
    10030    2    1    2    0    0  0.00000000000E+00  0.00000000000E+00 -0.78005837358E+03  0.27148541001E+04  0.26003733806E+04 0.  0.
        1    1    3    3  502    0 -0.88772026499E+03 -0.30073145232E+03 -0.13308100287E+04  0.16277413824E+04  0.50400001928E-02 0.  1.
       -1    1    3    3    0  502  0.88772026499E+03  0.30073145232E+03  0.55075165516E+03  0.10871127177E+04  0.50400001928E-02 0. -1.
</event>
<event>
 5   0  0.6526351E-07  0.2599931E+04  0.7818609E-02  0.8368225E-01
       -2   -1    0    0    0  501  0.00000000000E+00  0.00000000000E+00  0.26086138962E+04  0.26086138962E+04  0.25500000920E-02 0. -1.
        2   -1    0    0  501    0  0.00000000000E+00  0.00000000000E+00 -0.64781924356E+03  0.64781924357E+03  0.25500000920E-02 0.  1.
    10030    2    1    2    0    0  0.00000000000E+00  0.00000000000E+00  0.19607946526E+04  0.32564331398E+04  0.25999309845E+04 0.  0.
        3    1    3    3  502    0 -0.18012248702E+03  0.64118223035E+03 -0.41790351128E+03  0.78625830221E+03  0.10100000352E+00 0.  1.
       -3    1    3    3    0  502  0.18012248702E+03 -0.64118223035E+03  0.23786981639E+04  0.24701748375E+04  0.10100000352E+00 0. -1.
</event>
<event>
 5   0  0.2864801E-07  0.2600671E+04  0.7818609E-02  0.8367973E-01
       -1   -1    0    0    0  501  0.00000000000E+00  0.00000000000E+00  0.57960166822E+03  0.57960166824E+03  0.50400001928E-02 0. -1.
        1   -1    0    0  501    0  0.00000000000E+00  0.00000000000E+00 -0.29173006396E+04  0.29173006396E+04  0.50400001928E-02 0.  1.
    10030    2    1    2    0    0  0.00000000000E+00  0.00000000000E+00 -0.23376989713E+04  0.34969023078E+04  0.26006709268E+04 0.  0.
        5    1    3    3  502    0  0.92403111722E+03 -0.81632181041E+03 -0.61341518677E+03  0.13771401835E+04  0.46999998093E+01 0.  1.
       -5    1    3    3    0  502 -0.92403111722E+03  0.81632181041E+03 -0.17242837846E+04  0.21197621243E+04  0.46999998093E+01 0. -1.
</event>
<event>
 5   0  0.6526351E-07  0.2601085E+04  0.7818609E-02  0.8367833E-01
       -2   -1    0    0    0  501  0.00000000000E+00  0.00000000000E+00  0.14977754656E+04  0.14977754656E+04  0.25500000920E-02 0.  1.
        2   -1    0    0  501    0  0.00000000000E+00  0.00000000000E+00 -0.11292817479E+04  0.11292817479E+04  0.25500000920E-02 0. -1.
    10030    2    1    2    0    0  0.00000000000E+00  0.00000000000E+00  0.36849371770E+03  0.26270572135E+04  0.26010847704E+04 0.  0.
        3    1    3    3  502    0  0.55187757428E+03 -0.18065074374E+03 -0.99107697218E+03  0.11486675425E+04  0.10100000352E+00 0. -1.
       -3    1    3    3    0  502 -0.55187757428E+03  0.18065074374E+03  0.13595706899E+04  0.14783896710E+04  0.10100000352E+00 0.  1.
</event>
<event>
 5   0  0.2755061E-07  0.2599847E+04  0.7818609E-02  0.8368253E-01
        1   -1    0    0  501    0  0.00000000000E+00  0.00000000000E+00  0.19759009049E+04  0.19759009049E+04  0.50400001928E-02 0. -1.
       -1   -1    0    0    0  501  0.00000000000E+00  0.00000000000E+00 -0.85520529592E+03  0.85520529593E+03  0.50400001928E-02 0.  1.
    10030    2    1    2    0    0  0.00000000000E+00  0.00000000000E+00  0.11206956089E+04  0.28311062008E+04  0.25998468555E+04 0.  0.
        4    1    3    3  502    0 -0.29752216247E+03 -0.49790666225E+02  0.19372578459E+04  0.19606040197E+04  0.12699999809E+01 0. -1.
       -4    1    3    3    0  502  0.29752216247E+03  0.49790666225E+02 -0.81656223696E+03  0.87050218112E+03  0.12699999809E+01 0.  1.
</event>
<event>
 5   0  0.2755061E-07  0.2600206E+04  0.7818609E-02  0.8368131E-01
       -1   -1    0    0    0  501  0.00000000000E+00  0.00000000000E+00  0.12019791558E+04  0.12019791558E+04  0.50400001928E-02 0. -1.
        1   -1    0    0  501    0  0.00000000000E+00  0.00000000000E+00 -0.14062369595E+04  0.14062369595E+04  0.50400001928E-02 0.  1.
    10030    2    1    2    0    0  0.00000000000E+00  0.00000000000E+00 -0.20425780367E+03  0.26082161153E+04  0.26002057714E+04 0.  0.
        4    1    3    3  502    0  0.10955986777E+04 -0.12033801035E+03  0.58952281667E+03  0.12499425841E+04  0.12699999809E+01 0. -1.
       -4    1    3    3    0  502 -0.10955986777E+04  0.12033801035E+03 -0.79378062034E+03  0.13582735312E+04  0.12699999809E+01 0.  1.
</event>
<event>
 5   0  0.6526351E-07  0.2600207E+04  0.7818609E-02  0.8368131E-01
        2   -1    0    0  501    0  0.00000000000E+00  0.00000000000E+00  0.85095355129E+03  0.85095355130E+03  0.25500000920E-02 0. -1.
       -2   -1    0    0    0  501  0.00000000000E+00  0.00000000000E+00 -0.19863238543E+04  0.19863238543E+04  0.25500000920E-02 0.  1.
    10030    2    1    2    0    0  0.00000000000E+00  0.00000000000E+00 -0.11353703030E+04  0.28372774056E+04  0.26002071747E+04 0.  0.
        3    1    3    3  502    0 -0.78959966366E+03 -0.10149997946E+04 -0.35899662345E+03  0.13351295060E+04  0.10100000352E+00 0. -1.
       -3    1    3    3    0  502  0.78959966366E+03  0.10149997946E+04 -0.77637367954E+03  0.15021478996E+04  0.10100000352E+00 0.  1.
</event>
<event>
 5   0  0.2641626E-07  0.2600519E+04  0.7818609E-02  0.8368025E-01
        1   -1    0    0  501    0  0.00000000000E+00  0.00000000000E+00  0.17556767893E+04  0.17556767894E+04  0.50400001928E-02 0. -1.
       -1   -1    0    0    0  501  0.00000000000E+00  0.00000000000E+00 -0.96297599594E+03  0.96297599596E+03  0.50400001928E-02 0.  1.
    10030    2    1    2    0    0  0.00000000000E+00  0.00000000000E+00  0.79270079340E+03  0.27186527853E+04  0.26005188750E+04 0.  0.
        3    1    3    3  502    0 -0.12570395019E+04  0.18403771001E+03  0.68579667031E+03  0.14437227128E+04  0.10100000352E+00 0. -1.
       -3    1    3    3    0  502  0.12570395019E+04 -0.18403771001E+03  0.10690412309E+03  0.12749300725E+04  0.10100000352E+00 0.  1.
</event>
<event>
 5   0  0.2623263E-07  0.2599007E+04  0.7818609E-02  0.8368539E-01
        1   -1    0    0  501    0  0.00000000000E+00  0.00000000000E+00  0.18740075345E+04  0.18740075345E+04  0.50400001928E-02 0.  1.
       -1   -1    0    0    0  501  0.00000000000E+00  0.00000000000E+00 -0.90112204252E+03  0.90112204254E+03  0.50400001928E-02 0. -1.
    10030    2    1    2    0    0  0.00000000000E+00  0.00000000000E+00  0.97288549199E+03  0.27751295771E+04  0.25990071160E+04 0.  0.
        1    1    3    3  502    0  0.12913402464E+04 -0.12087317060E+03  0.57279018410E+03  0.14178358687E+04  0.50400001928E-02 0. -1.
       -1    1    3    3    0  502 -0.12913402464E+04  0.12087317060E+03  0.40009530790E+03  0.13572937084E+04  0.50400001928E-02 0.  1.
</event>
<event>
 5   0  0.2755061E-07  0.2599296E+04  0.7818609E-02  0.8368441E-01
       -1   -1    0    0    0  501  0.00000000000E+00  0.00000000000E+00  0.15352227201E+04  0.15352227201E+04  0.50400001928E-02 0. -1.
        1   -1    0    0  501    0  0.00000000000E+00  0.00000000000E+00 -0.11002210169E+04  0.11002210169E+04  0.50400001928E-02 0.  1.
    10030    2    1    2    0    0  0.00000000000E+00  0.00000000000E+00  0.43500170312E+03  0.26354437370E+04  0.25992955217E+04 0.  0.
        4    1    3    3  502    0 -0.79159715423E+02  0.12104772516E+04  0.69042214136E+03  0.13957814239E+04  0.12699999809E+01 0. -1.
       -4    1    3    3    0  502  0.79159715423E+02 -0.12104772516E+04 -0.25542043824E+03  0.12396623131E+04  0.12699999809E+01 0.  1.
</event>
<event>
 5   0  0.6780984E-07  0.2598167E+04  0.7818609E-02  0.8368824E-01
       -2   -1    0    0    0  501  0.00000000000E+00  0.00000000000E+00  0.10068823265E+04  0.10068823265E+04  0.25500000920E-02 0. -1.
        2   -1    0    0  501    0  0.00000000000E+00  0.00000000000E+00 -0.16760826228E+04  0.16760826228E+04  0.25500000920E-02 0.  1.
    10030    2    1    2    0    0  0.00000000000E+00  0.00000000000E+00 -0.66920029630E+03  0.26829649493E+04  0.25981670236E+04 0.  0.
        2    1    3    3  502    0  0.34686617662E+03 -0.52523753548E+03 -0.15080996884E+04  0.16341833690E+04  0.25500000920E-02 0.  1.
       -2    1    3    3    0  502 -0.34686617662E+03  0.52523753548E+03  0.83889939211E+03  0.10487815803E+04  0.25500000920E-02 0. -1.
</event>
<event>
 5   0  0.6780984E-07  0.2599975E+04  0.7818609E-02  0.8368210E-01
       -2   -1    0    0    0  501  0.00000000000E+00  0.00000000000E+00  0.92767177290E+03  0.92767177290E+03  0.25500000920E-02 0. -1.
        2   -1    0    0  501    0  0.00000000000E+00  0.00000000000E+00 -0.18217293951E+04  0.18217293951E+04  0.25500000920E-02 0.  1.
    10030    2    1    2    0    0  0.00000000000E+00  0.00000000000E+00 -0.89405762223E+03  0.27494011680E+04  0.25999745674E+04 0.  0.
        2    1    3    3  502    0 -0.92132826203E+03  0.10159468636E+03 -0.14108959547E+04  0.16881334786E+04  0.25500000920E-02 0.  1.
       -2    1    3    3    0  502  0.92132826203E+03 -0.10159468636E+03  0.51683833244E+03  0.10612676894E+04  0.25500000920E-02 0. -1.
</event>
<event>
 5   0  0.6780984E-07  0.2599693E+04  0.7818609E-02  0.8368305E-01
       -2   -1    0    0    0  501  0.00000000000E+00  0.00000000000E+00  0.68414229157E+03  0.68414229157E+03  0.25500000920E-02 0.  1.
        2   -1    0    0  501    0  0.00000000000E+00  0.00000000000E+00 -0.24696630244E+04  0.24696630244E+04  0.25500000920E-02 0. -1.
    10030    2    1    2    0    0  0.00000000000E+00  0.00000000000E+00 -0.17855207328E+04  0.31538053159E+04  0.25996929979E+04 0.  0.
        2    1    3    3  502    0 -0.52163934705E+03  0.68375064105E+03 -0.20751746726E+04  0.22463242129E+04  0.25500000920E-02 0. -1.
       -2    1    3    3    0  502  0.52163934705E+03 -0.68375064105E+03  0.28965393982E+03  0.90748110305E+03  0.25500000920E-02 0.  1.
</event>
<event>
 5   0  0.2793576E-07  0.2600607E+04  0.7818609E-02  0.8367995E-01
       -1   -1    0    0    0  501  0.00000000000E+00  0.00000000000E+00  0.84500045104E+03  0.84500045105E+03  0.50400001928E-02 0. -1.
        1   -1    0    0  501    0  0.00000000000E+00  0.00000000000E+00 -0.20009329040E+04  0.20009329040E+04  0.50400001928E-02 0.  1.
    10030    2    1    2    0    0  0.00000000000E+00  0.00000000000E+00 -0.11559324530E+04  0.28459333551E+04  0.26006070110E+04 0.  0.
        2    1    3    3  502    0  0.60130014476E+03 -0.39622296194E+03 -0.17627996161E+04  0.19042103314E+04  0.25500000920E-02 0.  1.
       -2    1    3    3    0  502 -0.60130014476E+03  0.39622296194E+03  0.60686716312E+03  0.94172302368E+03  0.25500000920E-02 0. -1.
</event>
<event>
 5   0  0.2755061E-07  0.2599367E+04  0.7818609E-02  0.8368416E-01
       -1   -1    0    0    0  501  0.00000000000E+00  0.00000000000E+00  0.17255822074E+04  0.17255822074E+04  0.50400001928E-02 0.  1.
        1   -1    0    0  501    0  0.00000000000E+00  0.00000000000E+00 -0.97890274647E+03  0.97890274648E+03  0.50400001928E-02 0. -1.
    10030    2    1    2    0    0  0.00000000000E+00  0.00000000000E+00  0.74667946089E+03  0.27044849538E+04  0.25993669707E+04 0.  0.
        4    1    3    3  502    0  0.12198192907E+04 -0.38202997893E+03  0.61794167629E+03  0.14197744663E+04  0.12699999809E+01 0.  1.
       -4    1    3    3    0  502 -0.12198192907E+04  0.38202997893E+03  0.12873778459E+03  0.12847104876E+04  0.12699999809E+01 0. -1.
</event>
<event>
 5   0  0.2641626E-07  0.2599748E+04  0.7818609E-02  0.8368287E-01
        1   -1    0    0  501    0  0.00000000000E+00  0.00000000000E+00  0.10807598206E+04  0.10807598206E+04  0.50400001928E-02 0. -1.
       -1   -1    0    0    0  501  0.00000000000E+00  0.00000000000E+00 -0.15634119353E+04  0.15634119353E+04  0.50400001928E-02 0.  1.
    10030    2    1    2    0    0  0.00000000000E+00  0.00000000000E+00 -0.48265211465E+03  0.26441717559E+04  0.25997482976E+04 0.  0.
        3    1    3    3  502    0  0.42784134757E+03 -0.63674686981E+02  0.10054134787E+04  0.10945131145E+04  0.10100000352E+00 0. -1.
       -3    1    3    3    0  502 -0.42784134757E+03  0.63674686981E+02 -0.14880655934E+04  0.15496586414E+04  0.10100000352E+00 0.  1.
</event>
<event>
 5   0  0.6599814E-07  0.2597184E+04  0.7818609E-02  0.8369158E-01
       -2   -1    0    0    0  501  0.00000000000E+00  0.00000000000E+00  0.12415788229E+04  0.12415788229E+04  0.25500000920E-02 0. -1.
        2   -1    0    0  501    0  0.00000000000E+00  0.00000000000E+00 -0.13582236944E+04  0.13582236944E+04  0.25500000920E-02 0.  1.
    10030    2    1    2    0    0  0.00000000000E+00  0.00000000000E+00 -0.11664487148E+03  0.25998025173E+04  0.25971844569E+04 0.  0.
        5    1    3    3  502    0  0.96350415855E+03 -0.10513199161E+03 -0.92344283567E+03  0.13387164599E+04  0.46999998093E+01 0.  1.
       -5    1    3    3    0  502 -0.96350415855E+03  0.10513199161E+03  0.80679796419E+03  0.12610860574E+04  0.46999998093E+01 0. -1.
</event>
<event>
 5   0  0.2755061E-07  0.2600272E+04  0.7818609E-02  0.8368109E-01
        1   -1    0    0  501    0  0.00000000000E+00  0.00000000000E+00  0.24074514060E+04  0.24074514060E+04  0.50400001928E-02 0.  1.
       -1   -1    0    0    0  501  0.00000000000E+00  0.00000000000E+00 -0.70213402885E+03  0.70213402886E+03  0.50400001928E-02 0. -1.
    10030    2    1    2    0    0  0.00000000000E+00  0.00000000000E+00  0.17053173771E+04  0.31095854349E+04  0.26002719511E+04 0.  0.
        4    1    3    3  502    0  0.12305922169E+04  0.40026681922E+03  0.70242965009E+03  0.14724061115E+04  0.12699999809E+01 0.  1.
       -4    1    3    3    0  502 -0.12305922169E+04 -0.40026681922E+03  0.10028877271E+04  0.16371793234E+04  0.12699999809E+01 0. -1.
</event>
<event>
 5   0  0.6599814E-07  0.2597596E+04  0.7818609E-02  0.8369018E-01
       -2   -1    0    0    0  501  0.00000000000E+00  0.00000000000E+00  0.13769123485E+04  0.13769123485E+04  0.25500000920E-02 0.  1.
        2   -1    0    0  501    0  0.00000000000E+00  0.00000000000E+00 -0.12251150056E+04  0.12251150056E+04  0.25500000920E-02 0. -1.
    10030    2    1    2    0    0  0.00000000000E+00  0.00000000000E+00  0.15179734296E+03  0.26020273541E+04  0.25975957957E+04 0.  0.
        5    1    3    3  502    0 -0.40364318448E+03  0.22439809772E+03  0.12918771852E+04  0.13719515583E+04  0.46999998093E+01 0.  1.
       -5    1    3    3    0  502  0.40364318448E+03 -0.22439809772E+03 -0.11400798423E+04  0.12300757958E+04  0.46999998093E+01 0. -1.
</event>
<event>
 5   0  0.2755061E-07  0.2599920E+04  0.7818609E-02  0.8368228E-01
        1   -1    0    0  501    0  0.00000000000E+00  0.00000000000E+00  0.11927007270E+04  0.11927007270E+04  0.50400001928E-02 0.  1.
       -1   -1    0    0    0  501  0.00000000000E+00  0.00000000000E+00 -0.14168649222E+04  0.14168649222E+04  0.50400001928E-02 0. -1.
    10030    2    1    2    0    0  0.00000000000E+00  0.00000000000E+00 -0.22416419525E+03  0.26095656492E+04  0.25999198625E+04 0.  0.
        4    1    3    3  502    0  0.48817647114E+02  0.11689214700E+04 -0.68087107146E+03  0.13536423437E+04  0.12699999809E+01 0.  1.
       -4    1    3    3    0  502 -0.48817647114E+02 -0.11689214700E+04  0.45670687620E+03  0.12559233055E+04  0.12699999809E+01 0. -1.
</event>
<event>
 5   0  0.2864801E-07  0.2600071E+04  0.7818609E-02  0.8368177E-01
        1   -1    0    0  501    0  0.00000000000E+00  0.00000000000E+00  0.10812513514E+04  0.10812513514E+04  0.50400001928E-02 0.  1.
       -1   -1    0    0    0  501  0.00000000000E+00  0.00000000000E+00 -0.15630897521E+04  0.15630897521E+04  0.50400001928E-02 0. -1.
    10030    2    1    2    0    0  0.00000000000E+00  0.00000000000E+00 -0.48183840072E+03  0.26443411035E+04  0.26000714658E+04 0.  0.
        5    1    3    3  502    0 -0.48068452850E+03 -0.68919429688E+03 -0.12497890172E+04  0.15060016840E+04  0.46999998093E+01 0. -1.
       -5    1    3    3    0  502  0.48068452850E+03  0.68919429688E+03  0.76795061643E+03  0.11383394195E+04  0.46999998093E+01 0.  1.
</event>
<event>
 5   0  0.2641626E-07  0.2600122E+04  0.7818609E-02  0.8368160E-01
        1   -1    0    0  501    0  0.00000000000E+00  0.00000000000E+00  0.14373228283E+04  0.14373228283E+04  0.50400001928E-02 0. -1.
       -1   -1    0    0    0  501  0.00000000000E+00  0.00000000000E+00 -0.11759077640E+04  0.11759077640E+04  0.50400001928E-02 0.  1.
    10030    2    1    2    0    0  0.00000000000E+00  0.00000000000E+00  0.26141506431E+03  0.26132305924E+04  0.26001223612E+04 0.  0.
        3    1    3    3  502    0 -0.72564362164E+03 -0.50539168032E+03  0.10884964988E+04  0.14024279141E+04  0.10100000352E+00 0. -1.
       -3    1    3    3    0  502  0.72564362164E+03  0.50539168032E+03 -0.82708143449E+03  0.12108026783E+04  0.10100000352E+00 0.  1.
</event>
<event>
 5   0  0.2641626E-07  0.2599715E+04  0.7818609E-02  0.8368298E-01
        1   -1    0    0  501    0  0.00000000000E+00  0.00000000000E+00  0.19178548327E+04  0.19178548327E+04  0.50400001928E-02 0. -1.
       -1   -1    0    0    0  501  0.00000000000E+00  0.00000000000E+00 -0.88099992215E+03  0.88099992216E+03  0.50400001928E-02 0.  1.
    10030    2    1    2    0    0  0.00000000000E+00  0.00000000000E+00  0.10368549106E+04  0.27988547549E+04  0.25997153370E+04 0.  0.
        3    1    3    3  502    0 -0.64647169417E+03  0.97935084398E+03 -0.83483895847E+02  0.11764451955E+04  0.10100000352E+00 0.  1.
       -3    1    3    3    0  502  0.64647169417E+03 -0.97935084398E+03  0.11203388064E+04  0.16224095594E+04  0.10100000352E+00 0. -1.
</event>
<event>
 5   0  0.6768478E-07  0.2600462E+04  0.7818609E-02  0.8368044E-01
        2   -1    0    0  501    0  0.00000000000E+00  0.00000000000E+00  0.19886302556E+04  0.19886302556E+04  0.25500000920E-02 0. -1.
       -2   -1    0    0    0  501  0.00000000000E+00  0.00000000000E+00 -0.85013308237E+03  0.85013308238E+03  0.25500000920E-02 0.  1.
    10030    2    1    2    0    0  0.00000000000E+00  0.00000000000E+00  0.11384971732E+04  0.28387633380E+04  0.26004617812E+04 0.  0.
        4    1    3    3  502    0 -0.51396540545E+03  0.97990597310E+03 -0.17612736064E+03  0.11204457212E+04  0.12699999809E+01 0.  1.
       -4    1    3    3    0  502  0.51396540545E+03 -0.97990597310E+03  0.13146245338E+04  0.17183176167E+04  0.12699999809E+01 0. -1.
</event>
<event>
 5   0  0.6780984E-07  0.2601153E+04  0.7818609E-02  0.8367810E-01
        2   -1    0    0  501    0  0.00000000000E+00  0.00000000000E+00  0.19173537672E+04  0.19173537672E+04  0.25500000920E-02 0.  1.
       -2   -1    0    0    0  501  0.00000000000E+00  0.00000000000E+00 -0.88220483942E+03  0.88220483942E+03  0.25500000920E-02 0. -1.
    10030    2    1    2    0    0  0.00000000000E+00  0.00000000000E+00  0.10351489278E+04  0.27995586066E+04  0.26011526463E+04 0.  0.
        2    1    3    3  502    0  0.54361749855E+03  0.11786363900E+04  0.42885478094E+03  0.13669748160E+04  0.25500000920E-02 0.  1.
       -2    1    3    3    0  502 -0.54361749855E+03 -0.11786363900E+04  0.60629414684E+03  0.14325837906E+04  0.25500000920E-02 0. -1.
</event>
<event>
 5   0  0.2641626E-07  0.2600272E+04  0.7818609E-02  0.8368109E-01
       -1   -1    0    0    0  501  0.00000000000E+00  0.00000000000E+00  0.13545732389E+04  0.13545732389E+04  0.50400001928E-02 0.  1.
        1   -1    0    0  501    0  0.00000000000E+00  0.00000000000E+00 -0.12478867776E+04  0.12478867776E+04  0.50400001928E-02 0. -1.
    10030    2    1    2    0    0  0.00000000000E+00  0.00000000000E+00  0.10668646138E+03  0.26024600165E+04  0.26002723197E+04 0.  0.
        3    1    3    3  502    0 -0.27078032557E+03  0.31192758824E+03  0.12871550074E+04  0.13518094645E+04  0.10100000352E+00 0.  1.
       -3    1    3    3    0  502  0.27078032557E+03 -0.31192758824E+03 -0.11804685460E+04  0.12506505520E+04  0.10100000352E+00 0. -1.
</event>
<event>
 5   0  0.6526351E-07  0.2600210E+04  0.7818609E-02  0.8368130E-01
       -2   -1    0    0    0  501  0.00000000000E+00  0.00000000000E+00  0.15043573156E+04  0.15043573156E+04  0.25500000920E-02 0. -1.
        2   -1    0    0  501    0  0.00000000000E+00  0.00000000000E+00 -0.11235844084E+04  0.11235844084E+04  0.25500000920E-02 0.  1.
    10030    2    1    2    0    0  0.00000000000E+00  0.00000000000E+00  0.38077290722E+03  0.26279417240E+04  0.26002095488E+04 0.  0.
        3    1    3    3  502    0  0.72670647777E+03  0.10735534477E+04  0.91088367297E+02  0.12995831681E+04  0.10100000352E+00 0.  1.
       -3    1    3    3    0  502 -0.72670647777E+03 -0.10735534477E+04  0.28968453993E+03  0.13283585558E+04  0.10100000352E+00 0. -1.
</event>
<event>
 5   0  0.2623263E-07  0.2602253E+04  0.7818609E-02  0.8367436E-01
       -1   -1    0    0    0  501  0.00000000000E+00  0.00000000000E+00  0.10237392871E+04  0.10237392871E+04  0.50400001928E-02 0. -1.
        1   -1    0    0  501    0  0.00000000000E+00  0.00000000000E+00 -0.16536730360E+04  0.16536730360E+04  0.50400001928E-02 0.  1.
    10030    2    1    2    0    0  0.00000000000E+00  0.00000000000E+00 -0.62993374890E+03  0.26774123231E+04  0.26022529124E+04 0.  0.
        1    1    3    3  502    0 -0.40699525382E+03 -0.95268012554E+03 -0.11249042130E+04  0.15292658522E+04  0.50400001928E-02 0.  1.
       -1    1    3    3    0  502  0.40699525382E+03  0.95268012554E+03  0.49497046413E+03  0.11481464709E+04  0.50400001928E-02 0. -1.
</event>
<event>
 5   0  0.2755061E-07  0.2600350E+04  0.7818609E-02  0.8368082E-01
        1   -1    0    0  501    0  0.00000000000E+00  0.00000000000E+00  0.15013900787E+04  0.15013900787E+04  0.50400001928E-02 0.  1.
       -1   -1    0    0    0  501  0.00000000000E+00  0.00000000000E+00 -0.11259268817E+04  0.11259268817E+04  0.50400001928E-02 0. -1.
    10030    2    1    2    0    0  0.00000000000E+00  0.00000000000E+00  0.37546319702E+03  0.26273169603E+04  0.26003503221E+04 0.  0.
        4    1    3    3  502    0 -0.12123338093E+04 -0.35734308220E+03  0.49586391110E+03  0.13576928867E+04  0.12699999809E+01 0.  1.
       -4    1    3    3    0  502  0.12123338093E+04  0.35734308220E+03 -0.12040071408E+03  0.12696240736E+04  0.12699999809E+01 0. -1.
</event>
<event>
 5   0  0.2864801E-07  0.2599582E+04  0.7818609E-02  0.8368343E-01
        1   -1    0    0  501    0  0.00000000000E+00  0.00000000000E+00  0.21538523442E+04  0.21538523442E+04  0.50400001928E-02 0. -1.
       -1   -1    0    0    0  501  0.00000000000E+00  0.00000000000E+00 -0.78438857703E+03  0.78438857704E+03  0.50400001928E-02 0.  1.
    10030    2    1    2    0    0  0.00000000000E+00  0.00000000000E+00  0.13694637672E+04  0.29382409212E+04  0.25995824091E+04 0.  0.
        5    1    3    3  502    0  0.11994498041E+04 -0.48484789744E+03  0.54320923496E+03  0.14031591781E+04  0.46999998093E+01 0.  1.
       -5    1    3    3    0  502 -0.11994498041E+04  0.48484789744E+03  0.82625453221E+03  0.15350817431E+04  0.46999998093E+01 0. -1.
</event>
<event>
 5   0  0.6526351E-07  0.2599556E+04  0.7818609E-02  0.8368352E-01
       -2   -1    0    0    0  501  0.00000000000E+00  0.00000000000E+00  0.14108950804E+04  0.14108950804E+04  0.25500000920E-02 0. -1.
        2   -1    0    0  501    0  0.00000000000E+00  0.00000000000E+00 -0.11974117088E+04  0.11974117088E+04  0.25500000920E-02 0.  1.
    10030    2    1    2    0    0  0.00000000000E+00  0.00000000000E+00  0.21348337158E+03  0.26083067892E+04  0.25995555691E+04 0.  0.
        3    1    3    3  502    0 -0.35931590356E+02 -0.36312354385E+03 -0.11449644664E+04  0.12017043841E+04  0.10100000352E+00 0.  1.
       -3    1    3    3    0  502  0.35931590356E+02  0.36312354385E+03  0.13584478380E+04  0.14066024051E+04  0.10100000352E+00 0. -1.
</event>
<event>
 5   0  0.2623263E-07  0.2599558E+04  0.7818609E-02  0.8368351E-01
       -1   -1    0    0    0  501  0.00000000000E+00  0.00000000000E+00  0.11672689780E+04  0.11672689780E+04  0.50400001928E-02 0.  1.
        1   -1    0    0  501    0  0.00000000000E+00  0.00000000000E+00 -0.14473314818E+04  0.14473314818E+04  0.50400001928E-02 0. -1.
    10030    2    1    2    0    0  0.00000000000E+00  0.00000000000E+00 -0.28006250379E+03  0.26146004597E+04  0.25995577620E+04 0.  0.
        1    1    3    3  502    0 -0.86717197911E+03 -0.96058093114E+03 -0.26206833467E+03  0.13203722122E+04  0.50400001928E-02 0.  1.
       -1    1    3    3    0  502  0.86717197911E+03  0.96058093114E+03 -0.17994169123E+02  0.12942282476E+04  0.50400001928E-02 0. -1.
</event>
<event>
 5   0  0.7160320E-07  0.2599654E+04  0.7818609E-02  0.8368319E-01
       -2   -1    0    0    0  501  0.00000000000E+00  0.00000000000E+00  0.93774528808E+03  0.93774528809E+03  0.25500000920E-02 0.  1.
        2   -1    0    0  501    0  0.00000000000E+00  0.00000000000E+00 -0.18017149826E+04  0.18017149826E+04  0.25500000920E-02 0. -1.
    10030    2    1    2    0    0  0.00000000000E+00  0.00000000000E+00 -0.86396969452E+03  0.27394602707E+04  0.25996536196E+04 0.  0.
        1    1    3    3  502    0 -0.56145735272E+03  0.11072109124E+04 -0.26041384650E+02  0.12417038766E+04  0.50400001928E-02 0.  1.
       -1    1    3    3    0  502  0.56145735272E+03 -0.11072109124E+04 -0.83792830987E+03  0.14977563941E+04  0.50400001928E-02 0. -1.
</event>
<event>
 5   0  0.2755061E-07  0.2600271E+04  0.7818609E-02  0.8368109E-01
        1   -1    0    0  501    0  0.00000000000E+00  0.00000000000E+00  0.80085247567E+03  0.80085247569E+03  0.50400001928E-02 0.  1.
       -1   -1    0    0    0  501  0.00000000000E+00  0.00000000000E+00 -0.21106910192E+04  0.21106910193E+04  0.50400001928E-02 0. -1.
    10030    2    1    2    0    0  0.00000000000E+00  0.00000000000E+00 -0.13098385436E+04  0.29115434949E+04  0.26002708537E+04 0.  0.
        4    1    3    3  502    0  0.48706725920E+03 -0.57133507116E+03  0.53360305704E+03  0.92108203430E+03  0.12699999809E+01 0.  1.
       -4    1    3    3    0  502 -0.48706725920E+03  0.57133507116E+03 -0.18434416006E+04  0.19904614606E+04  0.12699999809E+01 0. -1.
</event>
<event>
 5   0  0.2864801E-07  0.2599736E+04  0.7818609E-02  0.8368291E-01
       -1   -1    0    0    0  501  0.00000000000E+00  0.00000000000E+00  0.84762667565E+03  0.84762667567E+03  0.50400001928E-02 0.  1.
        1   -1    0    0  501    0  0.00000000000E+00  0.00000000000E+00 -0.19933972361E+04  0.19933972361E+04  0.50400001928E-02 0. -1.
    10030    2    1    2    0    0  0.00000000000E+00  0.00000000000E+00 -0.11457705604E+04  0.28410239117E+04  0.25997358885E+04 0.  0.
        5    1    3    3  502    0  0.94088815874E+03 -0.50485411288E+03  0.23718766069E+03  0.10938136399E+04  0.46999998093E+01 0.  1.
       -5    1    3    3    0  502 -0.94088815874E+03  0.50485411288E+03 -0.13829582211E+04  0.17472102718E+04  0.46999998093E+01 0. -1.
</event>
<event>
 5   0  0.2793576E-07  0.2598887E+04  0.7818609E-02  0.8368579E-01
       -1   -1    0    0    0  501  0.00000000000E+00  0.00000000000E+00  0.10947401015E+04  0.10947401015E+04  0.50400001928E-02 0. -1.
        1   -1    0    0  501    0  0.00000000000E+00  0.00000000000E+00 -0.15424245752E+04  0.15424245752E+04  0.50400001928E-02 0.  1.
    10030    2    1    2    0    0  0.00000000000E+00  0.00000000000E+00 -0.44768447373E+03  0.26371646767E+04  0.25988874820E+04 0.  0.
        2    1    3    3  502    0  0.42864512244E+03 -0.25998298888E+03  0.99265840283E+03  0.11120694674E+04  0.25500000920E-02 0. -1.
       -2    1    3    3    0  502 -0.42864512244E+03  0.25998298888E+03 -0.14403428766E+04  0.15250952093E+04  0.25500000920E-02 0.  1.
</event>
<event>
 5   0  0.2755061E-07  0.2599861E+04  0.7818609E-02  0.8368249E-01
       -1   -1    0    0    0  501  0.00000000000E+00  0.00000000000E+00  0.14994551238E+04  0.14994551238E+04  0.50400001928E-02 0.  1.
        1   -1    0    0  501    0  0.00000000000E+00  0.00000000000E+00 -0.11269551449E+04  0.11269551449E+04  0.50400001928E-02 0. -1.
    10030    2    1    2    0    0  0.00000000000E+00  0.00000000000E+00  0.37249997886E+03  0.26264102687E+04  0.25998605088E+04 0.  0.
        4    1    3    3  502    0 -0.38040939315E+03  0.56602313780E+03 -0.93172362999E+03  0.11546445490E+04  0.12699999809E+01 0. -1.
       -4    1    3    3    0  502  0.38040939315E+03 -0.56602313780E+03  0.13042236089E+04  0.14717657197E+04  0.12699999809E+01 0.  1.
</event>
<event>
 5   0  0.2864801E-07  0.2598798E+04  0.7818609E-02  0.8368609E-01
        1   -1    0    0  501    0  0.00000000000E+00  0.00000000000E+00  0.10051838589E+04  0.10051838589E+04  0.50400001928E-02 0. -1.
       -1   -1    0    0    0  501  0.00000000000E+00  0.00000000000E+00 -0.16797307546E+04  0.16797307547E+04  0.50400001928E-02 0.  1.
    10030    2    1    2    0    0  0.00000000000E+00  0.00000000000E+00 -0.67454689579E+03  0.26849146135E+04  0.25987983699E+04 0.  0.
        5    1    3    3  502    0  0.10465115057E+04  0.35048246560E+03  0.37130476163E+03  0.11644370341E+04  0.46999998093E+01 0. -1.
       -5    1    3    3    0  502 -0.10465115057E+04 -0.35048246560E+03 -0.10458516574E+04  0.15204775795E+04  0.46999998093E+01 0.  1.
</event>
<event>
 5   0  0.6780984E-07  0.2599553E+04  0.7818609E-02  0.8368353E-01
        2   -1    0    0  501    0  0.00000000000E+00  0.00000000000E+00  0.15377075835E+04  0.15377075835E+04  0.25500000920E-02 0.  1.
       -2   -1    0    0    0  501  0.00000000000E+00  0.00000000000E+00 -0.10986609148E+04  0.10986609148E+04  0.25500000920E-02 0. -1.
    10030    2    1    2    0    0  0.00000000000E+00  0.00000000000E+00  0.43904666875E+03  0.26363684983E+04  0.25995532080E+04 0.  0.
        2    1    3    3  502    0  0.12526429472E+03  0.12935540534E+04  0.24094083503E+03  0.13217510048E+04  0.25500000920E-02 0.  1.
       -2    1    3    3    0  502 -0.12526429472E+03 -0.12935540534E+04  0.19810583373E+03  0.13146174935E+04  0.25500000920E-02 0. -1.
</event>
<event>
 5   0  0.2623263E-07  0.2601096E+04  0.7818609E-02  0.8367829E-01
        1   -1    0    0  501    0  0.00000000000E+00  0.00000000000E+00  0.10468864839E+04  0.10468864839E+04  0.50400001928E-02 0. -1.
       -1   -1    0    0    0  501  0.00000000000E+00  0.00000000000E+00 -0.16156723839E+04  0.16156723839E+04  0.50400001928E-02 0.  1.
    10030    2    1    2    0    0  0.00000000000E+00  0.00000000000E+00 -0.56878589999E+03  0.26625588678E+04  0.26010963697E+04 0.  0.
        1    1    3    3  502    0 -0.83661560816E+03 -0.54595037952E+02  0.73334354762E+03  0.11138667123E+04  0.50400001928E-02 0. -1.
       -1    1    3    3    0  502  0.83661560816E+03  0.54595037952E+02 -0.13021294476E+04  0.15486921554E+04  0.50400001928E-02 0.  1.
</event>
<event>
 5   0  0.2623263E-07  0.2599030E+04  0.7818609E-02  0.8368531E-01
        1   -1    0    0  501    0  0.00000000000E+00  0.00000000000E+00  0.13484308855E+04  0.13484308855E+04  0.50400001928E-02 0.  1.
       -1   -1    0    0    0  501  0.00000000000E+00  0.00000000000E+00 -0.12523738470E+04  0.12523738470E+04  0.50400001928E-02 0. -1.
    10030    2    1    2    0    0  0.00000000000E+00  0.00000000000E+00  0.96057038466E+02  0.26008047325E+04  0.25990302619E+04 0.  0.
        1    1    3    3  502    0 -0.77590535427E+03 -0.56513659399E+03  0.92460094918E+03  0.13327773272E+04  0.50400001928E-02 0.  1.
       -1    1    3    3    0  502  0.77590535427E+03  0.56513659399E+03 -0.82854391072E+03  0.12680274053E+04  0.50400001928E-02 0. -1.
</event>
<event>
 5   0  0.2623263E-07  0.2594065E+04  0.7818609E-02  0.8370220E-01
       -1   -1    0    0    0  501  0.00000000000E+00  0.00000000000E+00  0.68155148159E+03  0.68155148161E+03  0.50400001928E-02 0.  1.
        1   -1    0    0  501    0  0.00000000000E+00  0.00000000000E+00 -0.24683285322E+04  0.24683285322E+04  0.50400001928E-02 0. -1.
    10030    2    1    2    0    0  0.00000000000E+00  0.00000000000E+00 -0.17867770506E+04  0.31498800138E+04  0.25940647395E+04 0.  0.
        1    1    3    3  502    0  0.17345129634E+03 -0.44042589941E+03  0.57292421584E+03  0.74317056064E+03  0.50400001928E-02 0.  1.
       -1    1    3    3    0  502 -0.17345129634E+03  0.44042589941E+03 -0.23597012665E+04  0.24067094532E+04  0.50400001928E-02 0. -1.
</event>
<event>
 5   0  0.6768478E-07  0.2599440E+04  0.7818609E-02  0.8368392E-01
       -2   -1    0    0    0  501  0.00000000000E+00  0.00000000000E+00  0.16749825040E+04  0.16749825040E+04  0.25500000920E-02 0. -1.
        2   -1    0    0  501    0  0.00000000000E+00  0.00000000000E+00 -0.10085308918E+04  0.10085308918E+04  0.25500000920E-02 0.  1.
    10030    2    1    2    0    0  0.00000000000E+00  0.00000000000E+00  0.66645161218E+03  0.26835133957E+04  0.25994396307E+04 0.  0.
        4    1    3    3  502    0 -0.88603280244E+03  0.77566445006E+03 -0.23461965702E+03  0.12007320527E+04  0.12699999809E+01 0.  1.
       -4    1    3    3    0  502  0.88603280244E+03 -0.77566445006E+03  0.90107126920E+03  0.14827813430E+04  0.12699999809E+01 0. -1.
</event>
<event>
 5   0  0.2641626E-07  0.2583438E+04  0.7818609E-02  0.8373849E-01
       -1   -1    0    0    0  501  0.00000000000E+00  0.00000000000E+00  0.16228774626E+04  0.16228774626E+04  0.50400001928E-02 0.  1.
        1   -1    0    0  501    0  0.00000000000E+00  0.00000000000E+00 -0.10281357567E+04  0.10281357567E+04  0.50400001928E-02 0. -1.
    10030    2    1    2    0    0  0.00000000000E+00  0.00000000000E+00  0.59474170593E+03  0.26510132194E+04  0.25834382889E+04 0.  0.
        3    1    3    3  502    0 -0.11630574476E+04 -0.51596165139E+01 -0.27929749484E+03  0.11961339176E+04  0.10100000352E+00 0. -1.
       -3    1    3    3    0  502  0.11630574476E+04  0.51596165139E+01  0.87403920077E+03  0.14548793018E+04  0.10100000352E+00 0.  1.
</event>
<event>
 5   0  0.6768478E-07  0.2599225E+04  0.7818609E-02  0.8368465E-01
        2   -1    0    0  501    0  0.00000000000E+00  0.00000000000E+00  0.11055382717E+04  0.11055382717E+04  0.25500000920E-02 0. -1.
       -2   -1    0    0    0  501  0.00000000000E+00  0.00000000000E+00 -0.15277554179E+04  0.15277554179E+04  0.25500000920E-02 0.  1.
    10030    2    1    2    0    0  0.00000000000E+00  0.00000000000E+00 -0.42221714622E+03  0.26332936897E+04  0.25992245647E+04 0.  0.
        4    1    3    3  502    0  0.48219309953E+03 -0.66717840779E+03  0.80773364966E+03  0.11532876808E+04  0.12699999809E+01 0. -1.
       -4    1    3    3    0  502 -0.48219309953E+03  0.66717840779E+03 -0.12299507959E+04  0.14800060088E+04  0.12699999809E+01 0.  1.
</event>
<event>
 5   0  0.6526351E-07  0.2600824E+04  0.7818609E-02  0.8367922E-01
       -2   -1    0    0    0  501  0.00000000000E+00  0.00000000000E+00  0.14366264571E+04  0.14366264571E+04  0.25500000920E-02 0. -1.
        2   -1    0    0  501    0  0.00000000000E+00  0.00000000000E+00 -0.11771123924E+04  0.11771123924E+04  0.25500000920E-02 0.  1.
    10030    2    1    2    0    0  0.00000000000E+00  0.00000000000E+00  0.25951406467E+03  0.26137388495E+04  0.26008235664E+04 0.  0.
        3    1    3    3  502    0 -0.37188728305E+03 -0.85667958421E+03 -0.77965139923E+03  0.12165756762E+04  0.10100000352E+00 0.  1.
       -3    1    3    3    0  502  0.37188728305E+03  0.85667958421E+03  0.10391654639E+04  0.13971631733E+04  0.10100000352E+00 0. -1.
</event>
<event>
 5   0  0.7160320E-07  0.2599737E+04  0.7818609E-02  0.8368291E-01
        2   -1    0    0  501    0  0.00000000000E+00  0.00000000000E+00  0.18570970561E+04  0.18570970561E+04  0.25500000920E-02 0.  1.
       -2   -1    0    0    0  501  0.00000000000E+00  0.00000000000E+00 -0.90983833373E+03  0.90983833373E+03  0.25500000920E-02 0. -1.
    10030    2    1    2    0    0  0.00000000000E+00  0.00000000000E+00  0.94725872237E+03  0.27669353898E+04  0.25997369799E+04 0.  0.
        1    1    3    3  502    0 -0.93248208164E+03 -0.38639198410E+03  0.13453512401E+04  0.16819011735E+04  0.50400001928E-02 0. -1.
       -1    1    3    3    0  502  0.93248208164E+03  0.38639198410E+03 -0.39809251776E+03  0.10850342164E+04  0.50400001928E-02 0.  1.
</event>
<event>
 5   0  0.6768478E-07  0.2600626E+04  0.7818609E-02  0.8367988E-01
       -2   -1    0    0    0  501  0.00000000000E+00  0.00000000000E+00  0.13115783118E+04  0.13115783118E+04  0.25500000920E-02 0.  1.
        2   -1    0    0  501    0  0.00000000000E+00  0.00000000000E+00 -0.12891448295E+04  0.12891448295E+04  0.25500000920E-02 0. -1.
    10030    2    1    2    0    0  0.00000000000E+00  0.00000000000E+00  0.22433482229E+02  0.26007231413E+04  0.26006263854E+04 0.  0.
        4    1    3    3  502    0 -0.47784141291E+03 -0.19333795210E+03 -0.11826035343E+04  0.12900638402E+04  0.12699999809E+01 0. -1.
       -4    1    3    3    0  502  0.47784141291E+03  0.19333795210E+03  0.12050370165E+04  0.13106593011E+04  0.12699999809E+01 0.  1.
</event>
<event>
 5   0  0.2641626E-07  0.2599529E+04  0.7818609E-02  0.8368361E-01
       -1   -1    0    0    0  501  0.00000000000E+00  0.00000000000E+00  0.13752004209E+04  0.13752004210E+04  0.50400001928E-02 0. -1.
        1   -1    0    0  501    0  0.00000000000E+00  0.00000000000E+00 -0.12284667625E+04  0.12284667625E+04  0.50400001928E-02 0.  1.
    10030    2    1    2    0    0  0.00000000000E+00  0.00000000000E+00  0.14673365843E+03  0.26036671835E+04  0.25995291950E+04 0.  0.
        3    1    3    3  502    0  0.36060017191E+03 -0.10589664739E+04  0.73619478161E+03  0.13391882778E+04  0.10100000352E+00 0. -1.
       -3    1    3    3    0  502 -0.36060017191E+03  0.10589664739E+04 -0.58946112319E+03  0.12644789056E+04  0.10100000352E+00 0.  1.
</event>
<event>
 5   0  0.6526351E-07  0.2600733E+04  0.7818609E-02  0.8367952E-01
       -2   -1    0    0    0  501  0.00000000000E+00  0.00000000000E+00  0.12562820980E+04  0.12562820980E+04  0.25500000920E-02 0.  1.
        2   -1    0    0  501    0  0.00000000000E+00  0.00000000000E+00 -0.13459973634E+04  0.13459973634E+04  0.25500000920E-02 0. -1.
    10030    2    1    2    0    0  0.00000000000E+00  0.00000000000E+00 -0.89715265411E+02  0.26022794614E+04  0.26007325057E+04 0.  0.
        3    1    3    3  502    0  0.40202603798E+03 -0.86969977908E+03 -0.92455618261E+03  0.13314679065E+04  0.10100000352E+00 0. -1.
       -3    1    3    3    0  502 -0.40202603798E+03  0.86969977908E+03  0.83484091720E+03  0.12708115549E+04  0.10100000352E+00 0.  1.
</event>
<event>
 5   0  0.2641626E-07  0.2596216E+04  0.7818609E-02  0.8369488E-01
       -1   -1    0    0    0  501  0.00000000000E+00  0.00000000000E+00  0.11172216022E+04  0.11172216022E+04  0.50400001928E-02 0.  1.
        1   -1    0    0  501    0  0.00000000000E+00  0.00000000000E+00 -0.15082812645E+04  0.15082812645E+04  0.50400001928E-02 0. -1.
    10030    2    1    2    0    0  0.00000000000E+00  0.00000000000E+00 -0.39105966228E+03  0.26255028667E+04  0.25962160241E+04 0.  0.
        3    1    3    3  502    0 -0.10463230985E+04  0.73357723031E+03  0.35425094518E+02  0.12783514880E+04  0.10100000352E+00 0. -1.
       -3    1    3    3    0  502  0.10463230985E+04 -0.73357723031E+03 -0.42648475679E+03  0.13471513788E+04  0.10100000352E+00 0.  1.
</event>
<event>
 5   0  0.6768478E-07  0.2600369E+04  0.7818609E-02  0.8368076E-01
        2   -1    0    0  501    0  0.00000000000E+00  0.00000000000E+00  0.17069355230E+04  0.17069355230E+04  0.25500000920E-02 0.  1.
       -2   -1    0    0    0  501  0.00000000000E+00  0.00000000000E+00 -0.99035974810E+03  0.99035974810E+03  0.25500000920E-02 0. -1.
    10030    2    1    2    0    0  0.00000000000E+00  0.00000000000E+00  0.71657577487E+03  0.26972952711E+04  0.26003693850E+04 0.  0.
        4    1    3    3  502    0 -0.79409213996E+03  0.56665661765E+03 -0.53328300761E+03  0.11117888415E+04  0.12699999809E+01 0. -1.
       -4    1    3    3    0  502  0.79409213996E+03 -0.56665661765E+03  0.12498587825E+04  0.15855064295E+04  0.12699999809E+01 0.  1.
</event>
<event>
 5   0  0.6780984E-07  0.2600791E+04  0.7818609E-02  0.8367932E-01
       -2   -1    0    0    0  501  0.00000000000E+00  0.00000000000E+00  0.78139195882E+03  0.78139195883E+03  0.25500000920E-02 0. -1.
        2   -1    0    0  501    0  0.00000000000E+00  0.00000000000E+00 -0.21641238629E+04  0.21641238629E+04  0.25500000920E-02 0.  1.
    10030    2    1    2    0    0  0.00000000000E+00  0.00000000000E+00 -0.13827319041E+04  0.29455158217E+04  0.26007914060E+04 0.  0.
        2    1    3    3  502    0  0.54097967786E+02  0.11763549313E+04 -0.13161079865E+04  0.17660344693E+04  0.25500000920E-02 0.  1.
       -2    1    3    3    0  502 -0.54097967786E+02 -0.11763549313E+04 -0.66623917556E+02  0.11794813525E+04  0.25500000920E-02 0. -1.
</event>
<event>
 5   0  0.7160320E-07  0.2600383E+04  0.7818609E-02  0.8368071E-01
        2   -1    0    0  501    0  0.00000000000E+00  0.00000000000E+00  0.14911281624E+04  0.14911281624E+04  0.25500000920E-02 0. -1.
       -2   -1    0    0    0  501  0.00000000000E+00  0.00000000000E+00 -0.11337039423E+04  0.11337039423E+04  0.25500000920E-02 0.  1.
    10030    2    1    2    0    0  0.00000000000E+00  0.00000000000E+00  0.35742422007E+03  0.26248321046E+04  0.26003829534E+04 0.  0.
        1    1    3    3  502    0  0.24727128727E+03 -0.10518736907E+04  0.90864074680E+03  0.14118106663E+04  0.50400001928E-02 0. -1.
       -1    1    3    3    0  502 -0.24727128727E+03  0.10518736907E+04 -0.55121652673E+03  0.12130214384E+04  0.50400001928E-02 0.  1.
</event>
<event>
 5   0  0.6526351E-07  0.2603118E+04  0.7818609E-02  0.8367143E-01
       -2   -1    0    0    0  501  0.00000000000E+00  0.00000000000E+00  0.87296788831E+03  0.87296788831E+03  0.25500000920E-02 0. -1.
        2   -1    0    0  501    0  0.00000000000E+00  0.00000000000E+00 -0.19405711648E+04  0.19405711648E+04  0.25500000920E-02 0.  1.
    10030    2    1    2    0    0  0.00000000000E+00  0.00000000000E+00 -0.10676032765E+04  0.28135390531E+04  0.26031183698E+04 0.  0.
        3    1    3    3  502    0  0.11235471408E+03  0.10217887581E+04 -0.13966975299E+04  0.17341971768E+04  0.10100000352E+00 0.  1.
       -3    1    3    3    0  502 -0.11235471408E+03 -0.10217887581E+04  0.32909425339E+03  0.10793418763E+04  0.10100000352E+00 0. -1.
</event>
<event>
 5   0  0.6780984E-07  0.2602711E+04  0.7818609E-02  0.8367281E-01
       -2   -1    0    0    0  501  0.00000000000E+00  0.00000000000E+00  0.13988185407E+04  0.13988185407E+04  0.25500000920E-02 0.  1.
        2   -1    0    0  501    0  0.00000000000E+00  0.00000000000E+00 -0.12106828431E+04  0.12106828431E+04  0.25500000920E-02 0. -1.
    10030    2    1    2    0    0  0.00000000000E+00  0.00000000000E+00  0.18813569764E+03  0.26095013838E+04  0.26027105930E+04 0.  0.
        2    1    3    3  502    0  0.66262493573E+03 -0.19829995886E+03  0.11992737353E+04  0.13844320754E+04  0.25500000920E-02 0.  1.
       -2    1    3    3    0  502 -0.66262493573E+03  0.19829995886E+03 -0.10111380377E+04  0.12250693084E+04  0.25500000920E-02 0. -1.
</event>
<event>
 5   0  0.2793576E-07  0.2598714E+04  0.7818609E-02  0.8368638E-01
        1   -1    0    0  501    0  0.00000000000E+00  0.00000000000E+00  0.88567378657E+03  0.88567378658E+03  0.50400001928E-02 0.  1.
       -1   -1    0    0    0  501  0.00000000000E+00  0.00000000000E+00 -0.19062646310E+04  0.19062646310E+04  0.50400001928E-02 0. -1.
    10030    2    1    2    0    0  0.00000000000E+00  0.00000000000E+00 -0.10205908444E+04  0.27919384176E+04  0.25987140004E+04 0.  0.
        2    1    3    3  502    0 -0.22416564080E+03 -0.27779058503E+03  0.83196377113E+03  0.90530743956E+03  0.25500000920E-02 0.  1.
       -2    1    3    3    0  502  0.22416564080E+03  0.27779058503E+03 -0.18525546155E+04  0.18866309780E+04  0.25500000920E-02 0. -1.
</event>
<event>
 5   0  0.2793576E-07  0.2599317E+04  0.7818609E-02  0.8368433E-01
        1   -1    0    0  501    0  0.00000000000E+00  0.00000000000E+00  0.27660892856E+04  0.27660892856E+04  0.50400001928E-02 0. -1.
       -1   -1    0    0    0  501  0.00000000000E+00  0.00000000000E+00 -0.61064988324E+03  0.61064988326E+03  0.50400001928E-02 0.  1.
    10030    2    1    2    0    0  0.00000000000E+00  0.00000000000E+00  0.21554394023E+04  0.33767391688E+04  0.25993169097E+04 0.  0.
        2    1    3    3  502    0 -0.86133687609E+03 -0.76403471470E+03  0.29452869099E+03  0.11884432713E+04  0.25500000920E-02 0.  1.
       -2    1    3    3    0  502  0.86133687609E+03  0.76403471470E+03  0.18609107113E+04  0.21882958975E+04  0.25500000920E-02 0. -1.
</event>
<event>
 5   0  0.2755061E-07  0.2600376E+04  0.7818609E-02  0.8368073E-01
       -1   -1    0    0    0  501  0.00000000000E+00  0.00000000000E+00  0.95250957832E+03  0.95250957833E+03  0.50400001928E-02 0.  1.
        1   -1    0    0  501    0  0.00000000000E+00  0.00000000000E+00 -0.17747737259E+04  0.17747737259E+04  0.50400001928E-02 0. -1.
    10030    2    1    2    0    0  0.00000000000E+00  0.00000000000E+00 -0.82226414760E+03  0.27272833043E+04  0.26003761061E+04 0.  0.
        4    1    3    3  502    0 -0.75696167957E+03  0.10335726844E+04 -0.17843977061E+03  0.12934859268E+04  0.12699999809E+01 0. -1.
       -4    1    3    3    0  502  0.75696167957E+03 -0.10335726844E+04 -0.64382437699E+03  0.14337973774E+04  0.12699999809E+01 0.  1.
</event>
<event>
 5   0  0.2864801E-07  0.2600835E+04  0.7818609E-02  0.8367918E-01
       -1   -1    0    0    0  501  0.00000000000E+00  0.00000000000E+00  0.80241670625E+03  0.80241670626E+03  0.50400001928E-02 0. -1.
        1   -1    0    0  501    0  0.00000000000E+00  0.00000000000E+00 -0.21074901288E+04  0.21074901288E+04  0.50400001928E-02 0.  1.
    10030    2    1    2    0    0  0.00000000000E+00  0.00000000000E+00 -0.13050734226E+04  0.29099068351E+04  0.26008347027E+04 0.  0.
        5    1    3    3  502    0 -0.10904286469E+04  0.66782278779E+03 -0.38767426460E+03  0.13361644118E+04  0.46999998093E+01 0.  1.
       -5    1    3    3    0  502  0.10904286469E+04 -0.66782278779E+03 -0.91739915798E+03  0.15737424233E+04  0.46999998093E+01 0. -1.
</event>
<event>
 5   0  0.2864801E-07  0.2599888E+04  0.7818609E-02  0.8368239E-01
        1   -1    0    0  501    0  0.00000000000E+00  0.00000000000E+00  0.12674943215E+04  0.12674943215E+04  0.50400001928E-02 0. -1.
       -1   -1    0    0    0  501  0.00000000000E+00  0.00000000000E+00 -0.13332243339E+04  0.13332243339E+04  0.50400001928E-02 0.  1.
    10030    2    1    2    0    0  0.00000000000E+00  0.00000000000E+00 -0.65730012361E+02  0.26007186554E+04  0.25998878995E+04 0.  0.
        5    1    3    3  502    0 -0.38522355835E+03 -0.12410934806E+04  0.64144260060E+00  0.12995124928E+04  0.46999998093E+01 0. -1.
       -5    1    3    3    0  502  0.38522355835E+03  0.12410934806E+04 -0.66371454961E+02  0.13012061626E+04  0.46999998093E+01 0.  1.
</event>
<event>
 5   0  0.6526351E-07  0.2605465E+04  0.7818609E-02  0.8366347E-01
        2   -1    0    0  501    0  0.00000000000E+00  0.00000000000E+00  0.19863266521E+04  0.19863266521E+04  0.25500000920E-02 0.  1.
       -2   -1    0    0    0  501  0.00000000000E+00  0.00000000000E+00 -0.85439696624E+03  0.85439696624E+03  0.25500000920E-02 0. -1.
    10030    2    1    2    0    0  0.00000000000E+00  0.00000000000E+00  0.11319296859E+04  0.28407236184E+04  0.26054646154E+04 0.  0.
        3    1    3    3  502    0  0.99016320998E+03  0.71924873360E+03  0.10527902073E+04  0.16143448064E+04  0.10100000352E+00 0.  1.
       -3    1    3    3    0  502 -0.99016320998E+03 -0.71924873360E+03  0.79139478602E+02  0.12263788120E+04  0.10100000352E+00 0. -1.
</event>
<event>
 5   0  0.6526351E-07  0.2600643E+04  0.7818609E-02  0.8367983E-01
       -2   -1    0    0    0  501  0.00000000000E+00  0.00000000000E+00  0.12263073676E+04  0.12263073676E+04  0.25500000920E-02 0.  1.
        2   -1    0    0  501    0  0.00000000000E+00  0.00000000000E+00 -0.13788032582E+04  0.13788032582E+04  0.25500000920E-02 0. -1.
    10030    2    1    2    0    0  0.00000000000E+00  0.00000000000E+00 -0.15249589061E+03  0.26051106259E+04  0.26006434543E+04 0.  0.
        3    1    3    3  502    0 -0.18491453436E+03 -0.52565322268E+03  0.11006454239E+04  0.12336632664E+04  0.10100000352E+00 0.  1.
       -3    1    3    3    0  502  0.18491453436E+03  0.52565322268E+03 -0.12531413145E+04  0.13714473595E+04  0.10100000352E+00 0. -1.
</event>
<event>
 5   0  0.2864801E-07  0.2598465E+04  0.7818609E-02  0.8368723E-01
        1   -1    0    0  501    0  0.00000000000E+00  0.00000000000E+00  0.17321418675E+04  0.17321418675E+04  0.50400001928E-02 0. -1.
       -1   -1    0    0    0  501  0.00000000000E+00  0.00000000000E+00 -0.97451894660E+03  0.97451894662E+03  0.50400001928E-02 0.  1.
    10030    2    1    2    0    0  0.00000000000E+00  0.00000000000E+00  0.75762292086E+03  0.27066608141E+04  0.25984649838E+04 0.  0.
        5    1    3    3  502    0  0.10846386934E+04 -0.47269131239E+03 -0.18029204896E+03  0.11968314355E+04  0.46999998093E+01 0.  1.
       -5    1    3    3    0  502 -0.10846386934E+04  0.47269131239E+03  0.93791496982E+03  0.15098293786E+04  0.46999998093E+01 0. -1.
</event>
<event>
 5   0  0.7160320E-07  0.2593636E+04  0.7818609E-02  0.8370366E-01
        2   -1    0    0  501    0  0.00000000000E+00  0.00000000000E+00  0.17599998799E+04  0.17599998799E+04  0.25500000920E-02 0. -1.
       -2   -1    0    0    0  501  0.00000000000E+00  0.00000000000E+00 -0.95553220505E+03  0.95553220505E+03  0.25500000920E-02 0.  1.
    10030    2    1    2    0    0  0.00000000000E+00  0.00000000000E+00  0.80446767485E+03  0.27155320850E+04  0.25936357232E+04 0.  0.
        1    1    3    3  502    0 -0.58517378575E+03 -0.11144482986E+04  0.72884560512E+03  0.14545237316E+04  0.50400001928E-02 0. -1.
       -1    1    3    3    0  502  0.58517378575E+03  0.11144482986E+04  0.75622069733E+02  0.12610083533E+04  0.50400001928E-02 0.  1.
</event>
<event>
 5   0  0.2793576E-07  0.2599232E+04  0.7818609E-02  0.8368462E-01
       -1   -1    0    0    0  501  0.00000000000E+00  0.00000000000E+00  0.99529506572E+03  0.99529506573E+03  0.50400001928E-02 0.  1.
        1   -1    0    0  501    0  0.00000000000E+00  0.00000000000E+00 -0.16969861477E+04  0.16969861477E+04  0.50400001928E-02 0. -1.
    10030    2    1    2    0    0  0.00000000000E+00  0.00000000000E+00 -0.70169108195E+03  0.26922812134E+04  0.25992321477E+04 0.  0.
        2    1    3    3  502    0  0.12941538650E+04  0.73214147212E+02 -0.44805292409E+03  0.13714758330E+04  0.25500000920E-02 0. -1.
       -2    1    3    3    0  502 -0.12941538650E+04 -0.73214147212E+02 -0.25363815786E+03  0.13208053804E+04  0.25500000920E-02 0.  1.
</event>
<event>
 5   0  0.6526351E-07  0.2601516E+04  0.7818609E-02  0.8367686E-01
       -2   -1    0    0    0  501  0.00000000000E+00  0.00000000000E+00  0.56974275636E+03  0.56974275637E+03  0.25500000920E-02 0.  1.
        2   -1    0    0  501    0  0.00000000000E+00  0.00000000000E+00 -0.29697109032E+04  0.29697109032E+04  0.25500000920E-02 0. -1.
    10030    2    1    2    0    0  0.00000000000E+00  0.00000000000E+00 -0.23999681468E+04  0.35394536595E+04  0.26015159239E+04 0.  0.
        3    1    3    3  502    0  0.73121739861E+02 -0.12022805286E+04 -0.18680968541E+04  0.22227485519E+04  0.10100000352E+00 0. -1.
       -3    1    3    3    0  502 -0.73121739861E+02  0.12022805286E+04 -0.53187129268E+03  0.13167051077E+04  0.10100000352E+00 0.  1.
</event>
<event>
 5   0  0.6768478E-07  0.2601031E+04  0.7818609E-02  0.8367851E-01
       -2   -1    0    0    0  501  0.00000000000E+00  0.00000000000E+00  0.14516791452E+04  0.14516791452E+04  0.25500000920E-02 0.  1.
        2   -1    0    0  501    0  0.00000000000E+00  0.00000000000E+00 -0.11650927320E+04  0.11650927320E+04  0.25500000920E-02 0. -1.
    10030    2    1    2    0    0  0.00000000000E+00  0.00000000000E+00  0.28658641326E+03  0.26167718772E+04  0.26010311965E+04 0.  0.
        4    1    3    3  502    0  0.35312815289E+02 -0.16972647719E+03  0.14400018101E+04  0.14504002544E+04  0.12699999809E+01 0.  1.
       -4    1    3    3    0  502 -0.35312815289E+02  0.16972647719E+03 -0.11534153968E+04  0.11663716228E+04  0.12699999809E+01 0. -1.
</event>
<event>
 5   0  0.6599814E-07  0.2600187E+04  0.7818609E-02  0.8368138E-01
        2   -1    0    0  501    0  0.00000000000E+00  0.00000000000E+00  0.16115784115E+04  0.16115784115E+04  0.25500000920E-02 0. -1.
       -2   -1    0    0    0  501  0.00000000000E+00  0.00000000000E+00 -0.10488122117E+04  0.10488122117E+04  0.25500000920E-02 0.  1.
    10030    2    1    2    0    0  0.00000000000E+00  0.00000000000E+00  0.56276619983E+03  0.26603906232E+04  0.26001870072E+04 0.  0.
        5    1    3    3  502    0 -0.82326789504E+03 -0.45804535846E+03  0.11980313187E+04  0.15240986543E+04  0.46999998093E+01 0. -1.
       -5    1    3    3    0  502  0.82326789504E+03  0.45804535846E+03 -0.63526511889E+03  0.11362919689E+04  0.46999998093E+01 0.  1.
</event>
<event>
 5   0  0.2623263E-07  0.2600614E+04  0.7818609E-02  0.8367993E-01
       -1   -1    0    0    0  501  0.00000000000E+00  0.00000000000E+00  0.20299655407E+04  0.20299655407E+04  0.50400001928E-02 0. -1.
        1   -1    0    0  501    0  0.00000000000E+00  0.00000000000E+00 -0.83291943116E+03  0.83291943118E+03  0.50400001928E-02 0.  1.
    10030    2    1    2    0    0  0.00000000000E+00  0.00000000000E+00  0.11970461096E+04  0.28628849719E+04  0.26006135764E+04 0.  0.
        1    1    3    3  502    0  0.12938818670E+03  0.11626993467E+04  0.12233818072E+04  0.16927120605E+04  0.50400001928E-02 0. -1.
       -1    1    3    3    0  502 -0.12938818670E+03 -0.11626993467E+04 -0.26335697640E+02  0.11701729114E+04  0.50400001928E-02 0.  1.
</event>
<event>
 5   0  0.2641626E-07  0.2589078E+04  0.7818609E-02  0.8371921E-01
       -1   -1    0    0    0  501  0.00000000000E+00  0.00000000000E+00  0.12621630204E+04  0.12621630204E+04  0.50400001928E-02 0.  1.
        1   -1    0    0  501    0  0.00000000000E+00  0.00000000000E+00 -0.13277456035E+04  0.13277456035E+04  0.50400001928E-02 0. -1.
    10030    2    1    2    0    0  0.00000000000E+00  0.00000000000E+00 -0.65582583079E+02  0.25899086239E+04  0.25890781381E+04 0.  0.
        3    1    3    3  502    0 -0.79938649250E+03  0.82256949703E+03  0.56756123855E+03  0.12797519727E+04  0.10100000352E+00 0.  1.
       -3    1    3    3    0  502  0.79938649250E+03 -0.82256949703E+03 -0.63314382163E+03  0.13101566513E+04  0.10100000352E+00 0. -1.
</event>
<event>
 5   0  0.2755061E-07  0.2599689E+04  0.7818609E-02  0.8368307E-01
        1   -1    0    0  501    0  0.00000000000E+00  0.00000000000E+00  0.19047052623E+04  0.19047052623E+04  0.50400001928E-02 0. -1.
       -1   -1    0    0    0  501  0.00000000000E+00  0.00000000000E+00 -0.88706442397E+03  0.88706442399E+03  0.50400001928E-02 0.  1.
    10030    2    1    2    0    0  0.00000000000E+00  0.00000000000E+00  0.10176408383E+04  0.27917696863E+04  0.25996894248E+04 0.  0.
        4    1    3    3  502    0  0.81198666779E+02  0.10622738870E+04  0.13085414368E+04  0.16873948380E+04  0.12699999809E+01 0. -1.
       -4    1    3    3    0  502 -0.81198666779E+02 -0.10622738870E+04 -0.29090059846E+03  0.11043748483E+04  0.12699999809E+01 0.  1.
</event>
<event>
 5   0  0.2864801E-07  0.2597577E+04  0.7818609E-02  0.8369025E-01
        1   -1    0    0  501    0  0.00000000000E+00  0.00000000000E+00  0.14122946461E+04  0.14122946461E+04  0.50400001928E-02 0. -1.
       -1   -1    0    0    0  501  0.00000000000E+00  0.00000000000E+00 -0.11944052177E+04  0.11944052177E+04  0.50400001928E-02 0.  1.
    10030    2    1    2    0    0  0.00000000000E+00  0.00000000000E+00  0.21788942834E+03  0.26066998638E+04  0.25975774054E+04 0.  0.
        5    1    3    3  502    0 -0.88316037372E+03  0.82221212813E+03 -0.37318503489E+03  0.12630495594E+04  0.46999998093E+01 0.  1.
       -5    1    3    3    0  502  0.88316037372E+03 -0.82221212813E+03  0.59107446323E+03  0.13436503044E+04  0.46999998093E+01 0. -1.
</event>
<event>
 5   0  0.6526351E-07  0.2605184E+04  0.7818609E-02  0.8366442E-01
       -2   -1    0    0    0  501  0.00000000000E+00  0.00000000000E+00  0.10088876993E+04  0.10088876993E+04  0.25500000920E-02 0.  1.
        2   -1    0    0  501    0  0.00000000000E+00  0.00000000000E+00 -0.16817989255E+04  0.16817989255E+04  0.25500000920E-02 0. -1.
    10030    2    1    2    0    0  0.00000000000E+00  0.00000000000E+00 -0.67291122620E+03  0.26906866247E+04  0.26051842534E+04 0.  0.
        3    1    3    3  502    0 -0.10551193791E+04 -0.35952552949E+03 -0.10325263385E+04  0.15194229696E+04  0.10100000352E+00 0. -1.
       -3    1    3    3    0  502  0.10551193791E+04  0.35952552949E+03  0.35961511234E+03  0.11712636551E+04  0.10100000352E+00 0.  1.
</event>
<event>
 5   0  0.2793576E-07  0.2592392E+04  0.7818609E-02  0.8370790E-01
        1   -1    0    0  501    0  0.00000000000E+00  0.00000000000E+00  0.15327618223E+04  0.15327618223E+04  0.50400001928E-02 0. -1.
       -1   -1    0    0    0  501  0.00000000000E+00  0.00000000000E+00 -0.10961415911E+04  0.10961415912E+04  0.50400001928E-02 0.  1.
    10030    2    1    2    0    0  0.00000000000E+00  0.00000000000E+00  0.43662023112E+03  0.26289034134E+04  0.25923919324E+04 0.  0.
        2    1    3    3  502    0  0.10823820158E+04  0.69994433131E+03  0.35680255007E+03  0.13374531599E+04  0.25500000920E-02 0.  1.
       -2    1    3    3    0  502 -0.10823820158E+04 -0.69994433131E+03  0.79817681046E+02  0.12914502535E+04  0.25500000920E-02 0. -1.
</event>
<event>
 5   0  0.2755061E-07  0.2598879E+04  0.7818609E-02  0.8368582E-01
       -1   -1    0    0    0  501  0.00000000000E+00  0.00000000000E+00  0.15215133768E+04  0.15215133768E+04  0.50400001928E-02 0.  1.
        1   -1    0    0  501    0  0.00000000000E+00  0.00000000000E+00 -0.11097785184E+04  0.11097785184E+04  0.50400001928E-02 0. -1.
    10030    2    1    2    0    0  0.00000000000E+00  0.00000000000E+00  0.41173485840E+03  0.26312918951E+04  0.25988788821E+04 0.  0.
        4    1    3    3  502    0  0.90493667246E+03  0.21260911722E+03 -0.71343713247E+03  0.11717965578E+04  0.12699999809E+01 0. -1.
       -4    1    3    3    0  502 -0.90493667246E+03 -0.21260911722E+03  0.11251719909E+04  0.14594953374E+04  0.12699999809E+01 0.  1.
</event>
<event>
 5   0  0.2641626E-07  0.2598555E+04  0.7818609E-02  0.8368692E-01
        1   -1    0    0  501    0  0.00000000000E+00  0.00000000000E+00  0.18738386384E+04  0.18738386384E+04  0.50400001928E-02 0. -1.
       -1   -1    0    0    0  501  0.00000000000E+00  0.00000000000E+00 -0.90088950524E+03  0.90088950526E+03  0.50400001928E-02 0.  1.
    10030    2    1    2    0    0  0.00000000000E+00  0.00000000000E+00  0.97294913311E+03  0.27747281436E+04  0.25985546474E+04 0.  0.
        3    1    3    3  502    0 -0.27437922754E+03  0.59582931511E+03 -0.71108934308E+03  0.96744229662E+03  0.10100000352E+00 0.  1.
       -3    1    3    3    0  502  0.27437922754E+03 -0.59582931511E+03  0.16840384762E+04  0.18072858470E+04  0.10100000352E+00 0. -1.
</event>
<event>
 5   0  0.2755061E-07  0.2604740E+04  0.7818609E-02  0.8366593E-01
        1   -1    0    0  501    0  0.00000000000E+00  0.00000000000E+00  0.10295458946E+04  0.10295458946E+04  0.50400001928E-02 0.  1.
       -1   -1    0    0    0  501  0.00000000000E+00  0.00000000000E+00 -0.16474911583E+04  0.16474911583E+04  0.50400001928E-02 0. -1.
    10030    2    1    2    0    0  0.00000000000E+00  0.00000000000E+00 -0.61794526375E+03  0.26770370529E+04  0.26047401086E+04 0.  0.
        4    1    3    3  502    0  0.12135219625E+04  0.32832762758E+03 -0.65860842826E+03  0.14192255843E+04  0.12699999809E+01 0. -1.
       -4    1    3    3    0  502 -0.12135219625E+04 -0.32832762758E+03  0.40663164512E+02  0.12578114685E+04  0.12699999809E+01 0.  1.
</event>
<event>
 5   0  0.6780984E-07  0.2601269E+04  0.7818609E-02  0.8367770E-01
       -2   -1    0    0    0  501  0.00000000000E+00  0.00000000000E+00  0.11519311501E+04  0.11519311501E+04  0.25500000920E-02 0. -1.
        2   -1    0    0  501    0  0.00000000000E+00  0.00000000000E+00 -0.14685338603E+04  0.14685338603E+04  0.25500000920E-02 0.  1.
    10030    2    1    2    0    0  0.00000000000E+00  0.00000000000E+00 -0.31660271011E+03  0.26204650104E+04  0.26012688432E+04 0.  0.
        2    1    3    3  502    0 -0.11321731120E+04 -0.22480152479E+03 -0.76213965720E+03  0.13831878174E+04  0.25500000920E-02 0.  1.
       -2    1    3    3    0  502  0.11321731120E+04  0.22480152479E+03  0.44553694709E+03  0.12372771930E+04  0.25500000920E-02 0. -1.
</event>
<event>
 5   0  0.6599814E-07  0.2600497E+04  0.7818609E-02  0.8368032E-01
        2   -1    0    0  501    0  0.00000000000E+00  0.00000000000E+00  0.18229936936E+04  0.18229936936E+04  0.25500000920E-02 0.  1.
       -2   -1    0    0    0  501  0.00000000000E+00  0.00000000000E+00 -0.92740121599E+03  0.92740121600E+03  0.25500000920E-02 0. -1.
    10030    2    1    2    0    0  0.00000000000E+00  0.00000000000E+00  0.89559247765E+03  0.27503949096E+04  0.26004973126E+04 0.  0.
        5    1    3    3  502    0 -0.41736870497E+02  0.12992495125E+04  0.47832558586E+03  0.13851385194E+04  0.46999998093E+01 0. -1.
       -5    1    3    3    0  502  0.41736870497E+02 -0.12992495125E+04  0.41726689179E+03  0.13652563902E+04  0.46999998093E+01 0.  1.
</event>
<event>
 5   0  0.6526351E-07  0.2601157E+04  0.7818609E-02  0.8367808E-01
       -2   -1    0    0    0  501  0.00000000000E+00  0.00000000000E+00  0.12937542326E+04  0.12937542326E+04  0.25500000920E-02 0.  1.
        2   -1    0    0  501    0  0.00000000000E+00  0.00000000000E+00 -0.13074382940E+04  0.13074382940E+04  0.25500000920E-02 0. -1.
    10030    2    1    2    0    0  0.00000000000E+00  0.00000000000E+00 -0.13684061336E+02  0.26011925266E+04  0.26011565326E+04 0.  0.
        3    1    3    3  502    0  0.44259009244E+02  0.98938906205E+03  0.83617274282E+03  0.12961614259E+04  0.10100000352E+00 0.  1.
       -3    1    3    3    0  502 -0.44259009244E+02 -0.98938906205E+03 -0.84985680416E+03  0.13050311007E+04  0.10100000352E+00 0. -1.
</event>
<event>
 5   0  0.6599814E-07  0.2600813E+04  0.7818609E-02  0.8367925E-01
        2   -1    0    0  501    0  0.00000000000E+00  0.00000000000E+00  0.18423519883E+04  0.18423519883E+04  0.25500000920E-02 0. -1.
       -2   -1    0    0    0  501  0.00000000000E+00  0.00000000000E+00 -0.91787940375E+03  0.91787940376E+03  0.25500000920E-02 0.  1.
    10030    2    1    2    0    0  0.00000000000E+00  0.00000000000E+00  0.92447258455E+03  0.27602313921E+04  0.26008129072E+04 0.  0.
        5    1    3    3  502    0 -0.77526889105E+03  0.13740900821E+03 -0.63614663524E+03  0.10122389641E+04  0.46999998093E+01 0. -1.
       -5    1    3    3    0  502  0.77526889105E+03 -0.13740900821E+03  0.15606192198E+04  0.17479924279E+04  0.46999998093E+01 0.  1.
</event>
<event>
 5   0  0.2755061E-07  0.2599546E+04  0.7818609E-02  0.8368356E-01
        1   -1    0    0  501    0  0.00000000000E+00  0.00000000000E+00  0.10627288917E+04  0.10627288917E+04  0.50400001928E-02 0. -1.
       -1   -1    0    0    0  501  0.00000000000E+00  0.00000000000E+00 -0.15896898476E+04  0.15896898477E+04  0.50400001928E-02 0.  1.
    10030    2    1    2    0    0  0.00000000000E+00  0.00000000000E+00 -0.52696095600E+03  0.26524187393E+04  0.25995455987E+04 0.  0.
        4    1    3    3  502    0 -0.70169027302E+03 -0.64076822281E+03  0.64137967932E+03  0.11464391220E+04  0.12699999809E+01 0. -1.
       -4    1    3    3    0  502  0.70169027302E+03  0.64076822281E+03 -0.11683406353E+04  0.15059796173E+04  0.12699999809E+01 0.  1.
</event>
<event>
 5   0  0.2641626E-07  0.2596696E+04  0.7818609E-02  0.8369324E-01
        1   -1    0    0  501    0  0.00000000000E+00  0.00000000000E+00  0.12417107984E+04  0.12417107984E+04  0.50400001928E-02 0. -1.
       -1   -1    0    0    0  501  0.00000000000E+00  0.00000000000E+00 -0.13575689106E+04  0.13575689106E+04  0.50400001928E-02 0.  1.
    10030    2    1    2    0    0  0.00000000000E+00  0.00000000000E+00 -0.11585811222E+03  0.25992797090E+04  0.25966963441E+04 0.  0.
        3    1    3    3  502    0 -0.28744398096E+03 -0.23273243683E+03 -0.13037231820E+04  0.13551688363E+04  0.10100000352E+00 0.  1.
       -3    1    3    3    0  502  0.28744398096E+03  0.23273243683E+03  0.11878650698E+04  0.12441108727E+04  0.10100000352E+00 0. -1.
</event>
<event>
 5   0  0.2641626E-07  0.2599307E+04  0.7818609E-02  0.8368437E-01
       -1   -1    0    0    0  501  0.00000000000E+00  0.00000000000E+00  0.64611473298E+03  0.64611473300E+03  0.50400001928E-02 0. -1.
        1   -1    0    0  501    0  0.00000000000E+00  0.00000000000E+00 -0.26142401981E+04  0.26142401981E+04  0.50400001928E-02 0.  1.
    10030    2    1    2    0    0  0.00000000000E+00  0.00000000000E+00 -0.19681254651E+04  0.32603549311E+04  0.25993069134E+04 0.  0.
        3    1    3    3  502    0 -0.95094994576E+03 -0.62992673223E+03 -0.17653578826E+04  0.21018092090E+04  0.10100000352E+00 0.  1.
       -3    1    3    3    0  502  0.95094994576E+03  0.62992673223E+03 -0.20276758249E+03  0.11585457220E+04  0.10100000352E+00 0. -1.
</event>
<event>
 5   0  0.2864801E-07  0.2598015E+04  0.7818609E-02  0.8368876E-01
        1   -1    0    0  501    0  0.00000000000E+00  0.00000000000E+00  0.69986873479E+03  0.69986873480E+03  0.50400001928E-02 0. -1.
       -1   -1    0    0    0  501  0.00000000000E+00  0.00000000000E+00 -0.24110532086E+04  0.24110532086E+04  0.50400001928E-02 0.  1.
    10030    2    1    2    0    0  0.00000000000E+00  0.00000000000E+00 -0.17111844738E+04  0.31109219434E+04  0.25980152106E+04 0.  0.
        5    1    3    3  502    0  0.69572657863E+03  0.41725065904E+03  0.35922527863E+03  0.88724206139E+03  0.46999998093E+01 0. -1.
       -5    1    3    3    0  502 -0.69572657863E+03 -0.41725065904E+03 -0.20704097524E+04  0.22236798820E+04  0.46999998093E+01 0.  1.
</event>
<event>
 5   0  0.6780984E-07  0.2602555E+04  0.7818609E-02  0.8367334E-01
       -2   -1    0    0    0  501  0.00000000000E+00  0.00000000000E+00  0.14766295874E+04  0.14766295874E+04  0.25500000920E-02 0.  1.
        2   -1    0    0  501    0  0.00000000000E+00  0.00000000000E+00 -0.11467483244E+04  0.11467483244E+04  0.25500000920E-02 0. -1.
    10030    2    1    2    0    0  0.00000000000E+00  0.00000000000E+00  0.32988126300E+03  0.26233779118E+04  0.26025545182E+04 0.  0.
        2    1    3    3  502    0 -0.86469961901E+03  0.88027058058E+03 -0.25157341379E+03  0.12593136657E+04  0.25500000920E-02 0. -1.
       -2    1    3    3    0  502  0.86469961901E+03 -0.88027058058E+03  0.58145467678E+03  0.13640642460E+04  0.25500000920E-02 0.  1.
</event>
<event>
 5   0  0.6526351E-07  0.2599702E+04  0.7818609E-02  0.8368303E-01
        2   -1    0    0  501    0  0.00000000000E+00  0.00000000000E+00  0.24795908350E+04  0.24795908350E+04  0.25500000920E-02 0. -1.
       -2   -1    0    0    0  501  0.00000000000E+00  0.00000000000E+00 -0.68140763630E+03  0.68140763630E+03  0.25500000920E-02 0.  1.
    10030    2    1    2    0    0  0.00000000000E+00  0.00000000000E+00  0.17981831987E+04  0.31609984713E+04  0.25997016212E+04 0.  0.
        3    1    3    3  502    0  0.14721583004E+03  0.94758096426E+03  0.19660674384E+04  0.21874650550E+04  0.10100000352E+00 0. -1.
       -3    1    3    3    0  502 -0.14721583004E+03 -0.94758096426E+03 -0.16788423970E+03  0.97353341626E+03  0.10100000352E+00 0.  1.
</event>
<event>
 5   0  0.6526351E-07  0.2600068E+04  0.7818609E-02  0.8368178E-01
        2   -1    0    0  501    0  0.00000000000E+00  0.00000000000E+00  0.24921462616E+04  0.24921462616E+04  0.25500000920E-02 0.  1.
       -2   -1    0    0    0  501  0.00000000000E+00  0.00000000000E+00 -0.67816593843E+03  0.67816593844E+03  0.25500000920E-02 0. -1.
    10030    2    1    2    0    0  0.00000000000E+00  0.00000000000E+00  0.18139803232E+04  0.31703122000E+04  0.26000682362E+04 0.  0.
        3    1    3    3  502    0  0.25815854698E+03  0.21685397523E+03  0.24379114802E+04  0.24611143568E+04  0.10100000352E+00 0.  1.
       -3    1    3    3    0  502 -0.25815854698E+03 -0.21685397523E+03 -0.62393115701E+03  0.70919784323E+03  0.10100000352E+00 0. -1.
</event>
<event>
 5   0  0.2793576E-07  0.2600467E+04  0.7818609E-02  0.8368043E-01
        1   -1    0    0  501    0  0.00000000000E+00  0.00000000000E+00  0.22459755912E+04  0.22459755912E+04  0.50400001928E-02 0. -1.
       -1   -1    0    0    0  501  0.00000000000E+00  0.00000000000E+00 -0.75272726437E+03  0.75272726439E+03  0.50400001928E-02 0.  1.
    10030    2    1    2    0    0  0.00000000000E+00  0.00000000000E+00  0.14932483268E+04  0.29987028556E+04  0.26004669293E+04 0.  0.
        2    1    3    3  502    0 -0.12913653216E+04  0.14402620057E+03  0.80119002363E+03  0.15265233029E+04  0.25500000920E-02 0.  1.
       -2    1    3    3    0  502  0.12913653216E+04 -0.14402620057E+03  0.69205830319E+03  0.14721795527E+04  0.25500000920E-02 0. -1.
</event>
<event>
 5   0  0.6768478E-07  0.2606003E+04  0.7818609E-02  0.8366165E-01
       -2   -1    0    0    0  501  0.00000000000E+00  0.00000000000E+00  0.10771399227E+04  0.10771399227E+04  0.25500000920E-02 0. -1.
        2   -1    0    0  501    0  0.00000000000E+00  0.00000000000E+00 -0.15762227473E+04  0.15762227473E+04  0.25500000920E-02 0.  1.
    10030    2    1    2    0    0  0.00000000000E+00  0.00000000000E+00 -0.49908282451E+03  0.26533626700E+04  0.26060026464E+04 0.  0.
        4    1    3    3  502    0 -0.60037798495E+03 -0.11274402019E+04  0.12498733916E+02  0.12773930346E+04  0.12699999809E+01 0. -1.
       -4    1    3    3    0  502  0.60037798495E+03  0.11274402019E+04 -0.51158155843E+03  0.13759696354E+04  0.12699999809E+01 0.  1.
</event>
<event>
 5   0  0.6526351E-07  0.2600129E+04  0.7818609E-02  0.8368157E-01
       -2   -1    0    0    0  501  0.00000000000E+00  0.00000000000E+00  0.86378105375E+03  0.86378105376E+03  0.25500000920E-02 0. -1.
        2   -1    0    0  501    0  0.00000000000E+00  0.00000000000E+00 -0.19567088592E+04  0.19567088592E+04  0.25500000920E-02 0.  1.
    10030    2    1    2    0    0  0.00000000000E+00  0.00000000000E+00 -0.10929278054E+04  0.28204899129E+04  0.26001292585E+04 0.  0.
        3    1    3    3  502    0  0.49879174863E+03 -0.89233027734E+03 -0.14177291065E+04  0.17478565050E+04  0.10100000352E+00 0.  1.
       -3    1    3    3    0  502 -0.49879174863E+03  0.89233027734E+03  0.32480130113E+03  0.10726334079E+04  0.10100000352E+00 0. -1.
</event>
<event>
 5   0  0.6526351E-07  0.2599671E+04  0.7818609E-02  0.8368313E-01
        2   -1    0    0  501    0  0.00000000000E+00  0.00000000000E+00  0.21935382586E+04  0.21935382586E+04  0.25500000920E-02 0. -1.
       -2   -1    0    0    0  501  0.00000000000E+00  0.00000000000E+00 -0.77024999395E+03  0.77024999396E+03  0.25500000920E-02 0.  1.
    10030    2    1    2    0    0  0.00000000000E+00  0.00000000000E+00  0.14232882647E+04  0.29637882526E+04  0.25996713873E+04 0.  0.
        3    1    3    3  502    0 -0.55647160923E+03 -0.63992110118E+03  0.18347147242E+04  0.20212218574E+04  0.10100000352E+00 0. -1.
       -3    1    3    3    0  502  0.55647160923E+03  0.63992110118E+03 -0.41142645946E+03  0.94256639520E+03  0.10100000352E+00 0.  1.
</event>
<event>
 5   0  0.6526351E-07  0.2599927E+04  0.7818609E-02  0.8368226E-01
        2   -1    0    0  501    0  0.00000000000E+00  0.00000000000E+00  0.11676565379E+04  0.11676565379E+04  0.25500000920E-02 0. -1.
       -2   -1    0    0    0  501  0.00000000000E+00  0.00000000000E+00 -0.14472626805E+04  0.14472626805E+04  0.25500000920E-02 0.  1.
    10030    2    1    2    0    0  0.00000000000E+00  0.00000000000E+00 -0.27960614254E+03  0.26149192184E+04  0.25999274843E+04 0.  0.
        3    1    3    3  502    0 -0.71627658068E+03 -0.45706382714E+03 -0.11293187049E+04  0.14132658029E+04  0.10100000352E+00 0.  1.
       -3    1    3    3    0  502  0.71627658068E+03  0.45706382714E+03  0.84971256240E+03  0.12016534155E+04  0.10100000352E+00 0. -1.
</event>
<event>
 5   0  0.6599814E-07  0.2598085E+04  0.7818609E-02  0.8368852E-01
       -2   -1    0    0    0  501  0.00000000000E+00  0.00000000000E+00  0.94412867603E+03  0.94412867603E+03  0.25500000920E-02 0.  1.
        2   -1    0    0  501    0  0.00000000000E+00  0.00000000000E+00 -0.17873739837E+04  0.17873739837E+04  0.25500000920E-02 0. -1.
    10030    2    1    2    0    0  0.00000000000E+00  0.00000000000E+00 -0.84324530767E+03  0.27315026597E+04  0.25980847044E+04 0.  0.
        5    1    3    3  502    0 -0.22945945839E+03 -0.61493374668E+03 -0.16002134780E+04  0.17295954501E+04  0.46999998093E+01 0. -1.
       -5    1    3    3    0  502  0.22945945839E+03  0.61493374668E+03  0.75696817032E+03  0.10019072096E+04  0.46999998093E+01 0.  1.
</event>
<event>
 5   0  0.2641626E-07  0.2597925E+04  0.7818609E-02  0.8368906E-01
       -1   -1    0    0    0  501  0.00000000000E+00  0.00000000000E+00  0.85379163895E+03  0.85379163896E+03  0.50400001928E-02 0.  1.
        1   -1    0    0  501    0  0.00000000000E+00  0.00000000000E+00 -0.19762479437E+04  0.19762479437E+04  0.50400001928E-02 0. -1.
    10030    2    1    2    0    0  0.00000000000E+00  0.00000000000E+00 -0.11224563048E+04  0.28300395827E+04  0.25979253037E+04 0.  0.
        3    1    3    3  502    0 -0.86881082546E+03  0.61972627382E+03 -0.13679409575E+04  0.17349799360E+04  0.10100000352E+00 0. -1.
       -3    1    3    3    0  502  0.86881082546E+03 -0.61972627382E+03  0.24548465274E+03  0.10950596467E+04  0.10100000352E+00 0.  1.
</event>
<event>
 5   0  0.2793576E-07  0.2600497E+04  0.7818609E-02  0.8368032E-01
       -1   -1    0    0    0  501  0.00000000000E+00  0.00000000000E+00  0.15378882123E+04  0.15378882123E+04  0.50400001928E-02 0. -1.
        1   -1    0    0  501    0  0.00000000000E+00  0.00000000000E+00 -0.10993297489E+04  0.10993297489E+04  0.50400001928E-02 0.  1.
    10030    2    1    2    0    0  0.00000000000E+00  0.00000000000E+00  0.43855846338E+03  0.26372179612E+04  0.26004970774E+04 0.  0.
        2    1    3    3  502    0  0.53250842321E+03  0.93433816621E+03 -0.52185725174E+03  0.11953610420E+04  0.25500000920E-02 0.  1.
       -2    1    3    3    0  502 -0.53250842321E+03 -0.93433816621E+03  0.96041571512E+03  0.14418569192E+04  0.25500000920E-02 0. -1.
</event>
<event>
 5   0  0.2755061E-07  0.2599792E+04  0.7818609E-02  0.8368272E-01
        1   -1    0    0  501    0  0.00000000000E+00  0.00000000000E+00  0.23115067083E+04  0.23115067083E+04  0.50400001928E-02 0.  1.
       -1   -1    0    0    0  501  0.00000000000E+00  0.00000000000E+00 -0.73100769830E+03  0.73100769832E+03  0.50400001928E-02 0. -1.
    10030    2    1    2    0    0  0.00000000000E+00  0.00000000000E+00  0.15804990100E+04  0.30425144066E+04  0.25997916828E+04 0.  0.
        4    1    3    3  502    0 -0.79168650672E+03  0.82712714438E+03  0.69953556850E+02  0.11470841080E+04  0.12699999809E+01 0. -1.
       -4    1    3    3    0  502  0.79168650672E+03 -0.82712714438E+03  0.15105454532E+04  0.18954302986E+04  0.12699999809E+01 0.  1.
</event>
<event>
 5   0  0.6526351E-07  0.2595938E+04  0.7818609E-02  0.8369582E-01
       -2   -1    0    0    0  501  0.00000000000E+00  0.00000000000E+00  0.85626588667E+03  0.85626588667E+03  0.25500000920E-02 0.  1.
        2   -1    0    0  501    0  0.00000000000E+00  0.00000000000E+00 -0.19675239263E+04  0.19675239263E+04  0.25500000920E-02 0. -1.
    10030    2    1    2    0    0  0.00000000000E+00  0.00000000000E+00 -0.11112580396E+04  0.28237898130E+04  0.25959380727E+04 0.  0.
        3    1    3    3  502    0 -0.10500854570E+03 -0.11487879187E+03 -0.19573366486E+04  0.19635148835E+04  0.10100000352E+00 0. -1.
       -3    1    3    3    0  502  0.10500854570E+03  0.11487879187E+03  0.84607860899E+03  0.86027492947E+03  0.10100000352E+00 0.  1.
</event>
<event>
 5   0  0.6526351E-07  0.2600941E+04  0.7818609E-02  0.8367882E-01
       -2   -1    0    0    0  501  0.00000000000E+00  0.00000000000E+00  0.88361906530E+03  0.88361906530E+03  0.25500000920E-02 0. -1.
        2   -1    0    0  501    0  0.00000000000E+00  0.00000000000E+00 -0.19139730724E+04  0.19139730724E+04  0.25500000920E-02 0.  1.
    10030    2    1    2    0    0  0.00000000000E+00  0.00000000000E+00 -0.10303540071E+04  0.27975921377E+04  0.26009406739E+04 0.  0.
        3    1    3    3  502    0  0.38979365652E+03  0.11979707182E+04 -0.86230041388E+03  0.15266417230E+04  0.10100000352E+00 0.  1.
       -3    1    3    3    0  502 -0.38979365652E+03 -0.11979707182E+04 -0.16805359326E+03  0.12709504148E+04  0.10100000352E+00 0. -1.
</event>
<event>
 5   0  0.7160320E-07  0.2599504E+04  0.7818609E-02  0.8368370E-01
       -2   -1    0    0    0  501  0.00000000000E+00  0.00000000000E+00  0.12483197462E+04  0.12483197462E+04  0.25500000920E-02 0.  1.
        2   -1    0    0  501    0  0.00000000000E+00  0.00000000000E+00 -0.13533033482E+04  0.13533033482E+04  0.25500000920E-02 0. -1.
    10030    2    1    2    0    0  0.00000000000E+00  0.00000000000E+00 -0.10498360196E+03  0.26016230944E+04  0.25995040236E+04 0.  0.
        1    1    3    3  502    0 -0.31910747062E+03  0.12401456321E+04 -0.27530420326E+03  0.13098027222E+04  0.50400001928E-02 0. -1.
       -1    1    3    3    0  502  0.31910747062E+03 -0.12401456321E+04  0.17032060130E+03  0.12918203722E+04  0.50400001928E-02 0.  1.
</event>
<event>
 5   0  0.2623263E-07  0.2599452E+04  0.7818609E-02  0.8368387E-01
       -1   -1    0    0    0  501  0.00000000000E+00  0.00000000000E+00  0.11292028136E+04  0.11292028136E+04  0.50400001928E-02 0. -1.
        1   -1    0    0  501    0  0.00000000000E+00  0.00000000000E+00 -0.14960007350E+04  0.14960007351E+04  0.50400001928E-02 0.  1.
    10030    2    1    2    0    0  0.00000000000E+00  0.00000000000E+00 -0.36679792143E+03  0.26252035487E+04  0.25994524340E+04 0.  0.
        1    1    3    3  502    0  0.35625241133E+03 -0.23468427084E+03 -0.14232809324E+04  0.14858402001E+04  0.50400001928E-02 0.  1.
       -1    1    3    3    0  502 -0.35625241133E+03  0.23468427084E+03  0.10564830110E+04  0.11393633486E+04  0.50400001928E-02 0. -1.
</event>
<event>
 5   0  0.6780984E-07  0.2599358E+04  0.7818609E-02  0.8368419E-01
        2   -1    0    0  501    0  0.00000000000E+00  0.00000000000E+00  0.19182204632E+04  0.19182204632E+04  0.25500000920E-02 0.  1.
       -2   -1    0    0    0  501  0.00000000000E+00  0.00000000000E+00 -0.88058956136E+03  0.88058956137E+03  0.25500000920E-02 0. -1.
    10030    2    1    2    0    0  0.00000000000E+00  0.00000000000E+00  0.10376309018E+04  0.27988100245E+04  0.25993575485E+04 0.  0.
        2    1    3    3  502    0  0.24304635610E+03  0.45895881005E+03 -0.76400973618E+03  0.92381036881E+03  0.25500000920E-02 0. -1.
       -2    1    3    3    0  502 -0.24304635610E+03 -0.45895881005E+03  0.18016406380E+04  0.18749996557E+04  0.25500000920E-02 0.  1.
</event>
<event>
 5   0  0.6526351E-07  0.2588357E+04  0.7818609E-02  0.8372167E-01
        2   -1    0    0  501    0  0.00000000000E+00  0.00000000000E+00  0.20254174982E+04  0.20254174982E+04  0.25500000920E-02 0.  1.
       -2   -1    0    0    0  501  0.00000000000E+00  0.00000000000E+00 -0.82693993220E+03  0.82693993220E+03  0.25500000920E-02 0. -1.
    10030    2    1    2    0    0  0.00000000000E+00  0.00000000000E+00  0.11984775660E+04  0.28523574304E+04  0.25883574781E+04 0.  0.
        3    1    3    3  502    0 -0.37847633238E+03  0.82260049358E+03 -0.41972406886E+03  0.99804018476E+03  0.10100000352E+00 0. -1.
       -3    1    3    3    0  502  0.37847633238E+03 -0.82260049358E+03  0.16182016349E+04  0.18543172457E+04  0.10100000352E+00 0.  1.
</event>
<event>
 5   0  0.2623263E-07  0.2600315E+04  0.7818609E-02  0.8368094E-01
        1   -1    0    0  501    0  0.00000000000E+00  0.00000000000E+00  0.13353635394E+04  0.13353635394E+04  0.50400001928E-02 0.  1.
       -1   -1    0    0    0  501  0.00000000000E+00  0.00000000000E+00 -0.12658795159E+04  0.12658795159E+04  0.50400001928E-02 0. -1.
    10030    2    1    2    0    0  0.00000000000E+00  0.00000000000E+00  0.69484023517E+02  0.26012430553E+04  0.26003148662E+04 0.  0.
        1    1    3    3  502    0  0.29562660172E+03 -0.49409003956E+03 -0.11313881642E+04  0.12694720292E+04  0.50400001928E-02 0. -1.
       -1    1    3    3    0  502 -0.29562660172E+03  0.49409003956E+03  0.12008721877E+04  0.13317710261E+04  0.50400001928E-02 0.  1.
</event>
<event>
 5   0  0.6768478E-07  0.2595978E+04  0.7818609E-02  0.8369569E-01
        2   -1    0    0  501    0  0.00000000000E+00  0.00000000000E+00  0.13109353677E+04  0.13109353677E+04  0.25500000920E-02 0. -1.
       -2   -1    0    0    0  501  0.00000000000E+00  0.00000000000E+00 -0.12851706129E+04  0.12851706130E+04  0.25500000920E-02 0.  1.
    10030    2    1    2    0    0  0.00000000000E+00  0.00000000000E+00  0.25764754767E+02  0.25961059807E+04  0.25959781279E+04 0.  0.
        4    1    3    3  502    0 -0.12799372597E+04 -0.16675279377E+03  0.14973981748E+03  0.12994112162E+04  0.12699999809E+01 0. -1.
       -4    1    3    3    0  502  0.12799372597E+04  0.16675279377E+03 -0.12397506272E+03  0.12966947644E+04  0.12699999809E+01 0.  1.
</event>
<event>
 5   0  0.2294625E-07  0.2598050E+04  0.7818609E-02  0.8368864E-01
        3   -1    0    0  501    0  0.00000000000E+00  0.00000000000E+00  0.13774332944E+04  0.13774332981E+04  0.10100000352E+00 0.  1.
       -3   -1    0    0    0  501  0.00000000000E+00  0.00000000000E+00 -0.12250804419E+04  0.12250804461E+04  0.10100000352E+00 0. -1.
    10030    2    1    2    0    0  0.00000000000E+00  0.00000000000E+00  0.15235285242E+03  0.26025137442E+04  0.25980504993E+04 0.  0.
        2    1    3    3  502    0  0.12237034772E+04 -0.74263445567E+02  0.50645052677E+03  0.13264453986E+04  0.25500000920E-02 0.  1.
       -2    1    3    3    0  502 -0.12237034772E+04  0.74263445567E+02 -0.35409767436E+03  0.12760683455E+04  0.25500000920E-02 0. -1.
</event>
<event>
 5   0  0.6599814E-07  0.2599388E+04  0.7818609E-02  0.8368409E-01
        2   -1    0    0  501    0  0.00000000000E+00  0.00000000000E+00  0.21583048429E+04  0.21583048429E+04  0.25500000920E-02 0. -1.
       -2   -1    0    0    0  501  0.00000000000E+00  0.00000000000E+00 -0.78265310190E+03  0.78265310190E+03  0.25500000920E-02 0.  1.
    10030    2    1    2    0    0  0.00000000000E+00  0.00000000000E+00  0.13756517410E+04  0.29409579448E+04  0.25993876049E+04 0.  0.
        5    1    3    3  502    0  0.42496157780E+02 -0.51743953721E+03 -0.66022321249E+03  0.83992045957E+03  0.46999998093E+01 0.  1.
       -5    1    3    3    0  502 -0.42496157780E+02  0.51743953721E+03  0.20358749535E+04  0.21010374852E+04  0.46999998093E+01 0. -1.
</event>
<event>
 5   0  0.6768478E-07  0.2601139E+04  0.7818609E-02  0.8367815E-01
       -2   -1    0    0    0  501  0.00000000000E+00  0.00000000000E+00  0.94763249464E+03  0.94763249465E+03  0.25500000920E-02 0.  1.
        2   -1    0    0  501    0  0.00000000000E+00  0.00000000000E+00 -0.17849541317E+04  0.17849541317E+04  0.25500000920E-02 0. -1.
    10030    2    1    2    0    0  0.00000000000E+00  0.00000000000E+00 -0.83732163710E+03  0.27325866264E+04  0.26011386251E+04 0.  0.
        4    1    3    3  502    0 -0.46479798839E+03 -0.12130865551E+04 -0.35336888881E+03  0.13462865017E+04  0.12699999809E+01 0.  1.
       -4    1    3    3    0  502  0.46479798839E+03  0.12130865551E+04 -0.48395274829E+03  0.13863001247E+04  0.12699999809E+01 0. -1.
</event>
<event>
 5   0  0.6526351E-07  0.2600293E+04  0.7818609E-02  0.8368102E-01
       -2   -1    0    0    0  501  0.00000000000E+00  0.00000000000E+00  0.68082399867E+03  0.68082399868E+03  0.25500000920E-02 0. -1.
        2   -1    0    0  501    0  0.00000000000E+00  0.00000000000E+00 -0.24828454310E+04  0.24828454310E+04  0.25500000920E-02 0.  1.
    10030    2    1    2    0    0  0.00000000000E+00  0.00000000000E+00 -0.18020214323E+04  0.31636694296E+04  0.26002928715E+04 0.  0.
        3    1    3    3  502    0 -0.44778867515E+03 -0.76110076643E+03 -0.20620065708E+04  0.22431362381E+04  0.10100000352E+00 0.  1.
       -3    1    3    3    0  502  0.44778867515E+03  0.76110076643E+03  0.25998513855E+03  0.92053319154E+03  0.10100000352E+00 0. -1.
</event>
<event>
 5   0  0.6526351E-07  0.2600265E+04  0.7818609E-02  0.8368111E-01
       -2   -1    0    0    0  501  0.00000000000E+00  0.00000000000E+00  0.13026590507E+04  0.13026590507E+04  0.25500000920E-02 0. -1.
        2   -1    0    0  501    0  0.00000000000E+00  0.00000000000E+00 -0.12976113342E+04  0.12976113342E+04  0.25500000920E-02 0.  1.
    10030    2    1    2    0    0  0.00000000000E+00  0.00000000000E+00  0.50477164475E+01  0.26002703849E+04  0.26002654855E+04 0.  0.
        3    1    3    3  502    0 -0.55516801677E+03 -0.95456456348E+03 -0.68372819497E+03  0.12988030211E+04  0.10100000352E+00 0.  1.
       -3    1    3    3    0  502  0.55516801677E+03  0.95456456348E+03  0.68877591142E+03  0.13014673638E+04  0.10100000352E+00 0. -1.
</event>
<event>
 5   0  0.6768478E-07  0.2599933E+04  0.7818609E-02  0.8368224E-01
        2   -1    0    0  501    0  0.00000000000E+00  0.00000000000E+00  0.12034007502E+04  0.12034007502E+04  0.25500000920E-02 0. -1.
       -2   -1    0    0    0  501  0.00000000000E+00  0.00000000000E+00 -0.14042807908E+04  0.14042807908E+04  0.25500000920E-02 0.  1.
    10030    2    1    2    0    0  0.00000000000E+00  0.00000000000E+00 -0.20088004061E+03  0.26076815410E+04  0.25999327354E+04 0.  0.
        4    1    3    3  502    0 -0.35414300905E+02  0.12648341144E+04  0.19852794997E+03  0.12808100833E+04  0.12699999809E+01 0. -1.
       -4    1    3    3    0  502  0.35414300905E+02 -0.12648341144E+04 -0.39940799058E+03  0.13268714578E+04  0.12699999809E+01 0.  1.
</event>
<event>
 5   0  0.6526351E-07  0.2599198E+04  0.7818609E-02  0.8368474E-01
        2   -1    0    0  501    0  0.00000000000E+00  0.00000000000E+00  0.13648682824E+04  0.13648682824E+04  0.25500000920E-02 0.  1.
       -2   -1    0    0    0  501  0.00000000000E+00  0.00000000000E+00 -0.12374510373E+04  0.12374510373E+04  0.25500000920E-02 0. -1.
    10030    2    1    2    0    0  0.00000000000E+00  0.00000000000E+00  0.12741724515E+03  0.26023193197E+04  0.25991980855E+04 0.  0.
        3    1    3    3  502    0 -0.20532427345E+03 -0.11620954685E+04  0.60872775588E+03  0.13278454075E+04  0.10100000352E+00 0.  1.
       -3    1    3    3    0  502  0.20532427345E+03  0.11620954685E+04 -0.48131051073E+03  0.12744739123E+04  0.10100000352E+00 0. -1.
</event>
<event>
 5   0  0.2864801E-07  0.2599434E+04  0.7818609E-02  0.8368393E-01
       -1   -1    0    0    0  501  0.00000000000E+00  0.00000000000E+00  0.76457672622E+03  0.76457672624E+03  0.50400001928E-02 0.  1.
        1   -1    0    0  501    0  0.00000000000E+00  0.00000000000E+00 -0.22094114231E+04  0.22094114232E+04  0.50400001928E-02 0. -1.
    10030    2    1    2    0    0  0.00000000000E+00  0.00000000000E+00 -0.14448346969E+04  0.29739881494E+04  0.25994342098E+04 0.  0.
        5    1    3    3  502    0 -0.11848174286E+04 -0.40280331892E+03 -0.32084382601E+03  0.12919000362E+04  0.46999998093E+01 0.  1.
       -5    1    3    3    0  502  0.11848174286E+04  0.40280331892E+03 -0.11239908709E+04  0.16820881132E+04  0.46999998093E+01 0. -1.
</event>
<event>
 5   0  0.7160320E-07  0.2601153E+04  0.7818609E-02  0.8367810E-01
       -2   -1    0    0    0  501  0.00000000000E+00  0.00000000000E+00  0.19181177896E+04  0.19181177896E+04  0.25500000920E-02 0. -1.
        2   -1    0    0  501    0  0.00000000000E+00  0.00000000000E+00 -0.88185398181E+03  0.88185398182E+03  0.25500000920E-02 0.  1.
    10030    2    1    2    0    0  0.00000000000E+00  0.00000000000E+00  0.10362638078E+04  0.27999717714E+04  0.26011534444E+04 0.  0.
        1    1    3    3  502    0 -0.15591495708E+03 -0.72275364572E+03  0.16698755131E+04  0.18262438324E+04  0.50400001928E-02 0. -1.
       -1    1    3    3    0  502  0.15591495708E+03  0.72275364572E+03 -0.63361170524E+03  0.97372793905E+03  0.50400001928E-02 0.  1.
</event>
<event>
 5   0  0.2641626E-07  0.2579416E+04  0.7818609E-02  0.8375227E-01
       -1   -1    0    0    0  501  0.00000000000E+00  0.00000000000E+00  0.16348486088E+04  0.16348486088E+04  0.50400001928E-02 0.  1.
        1   -1    0    0  501    0  0.00000000000E+00  0.00000000000E+00 -0.10174316678E+04  0.10174316679E+04  0.50400001928E-02 0. -1.
    10030    2    1    2    0    0  0.00000000000E+00  0.00000000000E+00  0.61741694098E+03  0.26522802767E+04  0.25794160167E+04 0.  0.
        3    1    3    3  502    0  0.83247227875E+03 -0.96608480228E+03  0.11087606156E+03  0.12800872827E+04  0.10100000352E+00 0. -1.
       -3    1    3    3    0  502 -0.83247227875E+03  0.96608480228E+03  0.50654087943E+03  0.13721929940E+04  0.10100000352E+00 0.  1.
</event>
<event>
 5   0  0.6768478E-07  0.2599999E+04  0.7818609E-02  0.8368202E-01
       -2   -1    0    0    0  501  0.00000000000E+00  0.00000000000E+00  0.17425588308E+04  0.17425588308E+04  0.25500000920E-02 0.  1.
        2   -1    0    0  501    0  0.00000000000E+00  0.00000000000E+00 -0.96983734805E+03  0.96983734806E+03  0.25500000920E-02 0. -1.
    10030    2    1    2    0    0  0.00000000000E+00  0.00000000000E+00  0.77272148278E+03  0.27123961789E+04  0.25999989503E+04 0.  0.
        4    1    3    3  502    0 -0.20235618302E+03 -0.12741506863E+04  0.21947976523E+03  0.13086561720E+04  0.12699999809E+01 0. -1.
       -4    1    3    3    0  502  0.20235618302E+03  0.12741506863E+04  0.55324171755E+03  0.14037400069E+04  0.12699999809E+01 0.  1.
</event>
<event>
 5   0  0.6768478E-07  0.2598965E+04  0.7818609E-02  0.8368553E-01
        2   -1    0    0  501    0  0.00000000000E+00  0.00000000000E+00  0.12944159805E+04  0.12944159805E+04  0.25500000920E-02 0.  1.
       -2   -1    0    0    0  501  0.00000000000E+00  0.00000000000E+00 -0.13045690102E+04  0.13045690102E+04  0.25500000920E-02 0. -1.
    10030    2    1    2    0    0  0.00000000000E+00  0.00000000000E+00 -0.10153029662E+02  0.25989849907E+04  0.25989651590E+04 0.  0.
        4    1    3    3  502    0 -0.58973553029E+03 -0.70420261945E+03  0.91414975320E+03  0.12959015044E+04  0.12699999809E+01 0.  1.
       -4    1    3    3    0  502  0.58973553029E+03  0.70420261945E+03 -0.92430278287E+03  0.13030834863E+04  0.12699999809E+01 0. -1.
</event>
<event>
 5   0  0.2294625E-07  0.2600096E+04  0.7818609E-02  0.8368169E-01
        3   -1    0    0  501    0  0.00000000000E+00  0.00000000000E+00  0.17454368745E+04  0.17454368774E+04  0.10100000352E+00 0.  1.
       -3   -1    0    0    0  501  0.00000000000E+00  0.00000000000E+00 -0.96831014623E+03  0.96831015150E+03  0.10100000352E+00 0. -1.
    10030    2    1    2    0    0  0.00000000000E+00  0.00000000000E+00  0.77712672825E+03  0.27137470289E+04  0.26000955723E+04 0.  0.
        5    1    3    3  502    0 -0.87819347466E+03  0.13782704780E+03 -0.60152248082E+03  0.10733459177E+04  0.46999998093E+01 0.  1.
       -5    1    3    3    0  502  0.87819347466E+03 -0.13782704780E+03  0.13786492091E+04  0.16404011112E+04  0.46999998093E+01 0. -1.
</event>
<event>
 5   0  0.6768478E-07  0.2600430E+04  0.7818609E-02  0.8368055E-01
        2   -1    0    0  501    0  0.00000000000E+00  0.00000000000E+00  0.20018331375E+04  0.20018331375E+04  0.25500000920E-02 0. -1.
       -2   -1    0    0    0  501  0.00000000000E+00  0.00000000000E+00 -0.84450519328E+03  0.84450519329E+03  0.25500000920E-02 0.  1.
    10030    2    1    2    0    0  0.00000000000E+00  0.00000000000E+00  0.11573279442E+04  0.28463383308E+04  0.26004295651E+04 0.  0.
        4    1    3    3  502    0 -0.10100138547E+04  0.34193294623E+03  0.13930015069E+04  0.17542807465E+04  0.12699999809E+01 0. -1.
       -4    1    3    3    0  502  0.10100138547E+04 -0.34193294623E+03 -0.23567356273E+03  0.10920575843E+04  0.12699999809E+01 0.  1.
</event>
<event>
 5   0  0.7160320E-07  0.2601775E+04  0.7818609E-02  0.8367598E-01
       -2   -1    0    0    0  501  0.00000000000E+00  0.00000000000E+00  0.12225071859E+04  0.12225071859E+04  0.25500000920E-02 0. -1.
        2   -1    0    0  501    0  0.00000000000E+00  0.00000000000E+00 -0.13842935174E+04  0.13842935174E+04  0.25500000920E-02 0.  1.
    10030    2    1    2    0    0  0.00000000000E+00  0.00000000000E+00 -0.16178633146E+03  0.26068007033E+04  0.26017753726E+04 0.  0.
        1    1    3    3  502    0  0.40902745058E+03 -0.11255118196E+04 -0.59003652584E+03  0.13349994057E+04  0.50400001928E-02 0. -1.
       -1    1    3    3    0  502 -0.40902745058E+03  0.11255118196E+04  0.42825019438E+03  0.12718012976E+04  0.50400001928E-02 0.  1.
</event>
<event>
 5   0  0.2755061E-07  0.2600800E+04  0.7818609E-02  0.8367930E-01
       -1   -1    0    0    0  501  0.00000000000E+00  0.00000000000E+00  0.13869910311E+04  0.13869910311E+04  0.50400001928E-02 0.  1.
        1   -1    0    0  501    0  0.00000000000E+00  0.00000000000E+00 -0.12192147099E+04  0.12192147099E+04  0.50400001928E-02 0. -1.
    10030    2    1    2    0    0  0.00000000000E+00  0.00000000000E+00  0.16777632124E+03  0.26062057410E+04  0.26007997752E+04 0.  0.
        4    1    3    3  502    0 -0.38284444755E+01  0.75343870628E+03  0.11459750329E+04  0.13714754573E+04  0.12699999809E+01 0.  1.
       -4    1    3    3    0  502  0.38284444755E+01 -0.75343870628E+03 -0.97819871165E+03  0.12347302837E+04  0.12699999809E+01 0. -1.
</event>
<event>
 5   0  0.2864801E-07  0.2600032E+04  0.7818609E-02  0.8368190E-01
        1   -1    0    0  501    0  0.00000000000E+00  0.00000000000E+00  0.17682994199E+04  0.17682994199E+04  0.50400001928E-02 0. -1.
       -1   -1    0    0    0  501  0.00000000000E+00  0.00000000000E+00 -0.95574399977E+03  0.95574399978E+03  0.50400001928E-02 0.  1.
    10030    2    1    2    0    0  0.00000000000E+00  0.00000000000E+00  0.81255542011E+03  0.27240434197E+04  0.26000319693E+04 0.  0.
        5    1    3    3  502    0  0.10339453399E+03 -0.10483574545E+04  0.12043689161E+04  0.16000844847E+04  0.46999998093E+01 0. -1.
       -5    1    3    3    0  502 -0.10339453399E+03  0.10483574545E+04 -0.39181349599E+03  0.11239589350E+04  0.46999998093E+01 0.  1.
</event>
<event>
 5   0  0.6768478E-07  0.2598865E+04  0.7818609E-02  0.8368587E-01
        2   -1    0    0  501    0  0.00000000000E+00  0.00000000000E+00  0.21422602790E+04  0.21422602790E+04  0.25500000920E-02 0. -1.
       -2   -1    0    0    0  501  0.00000000000E+00  0.00000000000E+00 -0.78819771656E+03  0.78819771657E+03  0.25500000920E-02 0.  1.
    10030    2    1    2    0    0  0.00000000000E+00  0.00000000000E+00  0.13540625624E+04  0.29304579956E+04  0.25988648754E+04 0.  0.
        4    1    3    3  502    0  0.11710962257E+04 -0.52702315710E+03  0.90057688828E+03  0.15685216360E+04  0.12699999809E+01 0. -1.
       -4    1    3    3    0  502 -0.11710962257E+04  0.52702315710E+03  0.45348567415E+03  0.13619363596E+04  0.12699999809E+01 0.  1.
</event>
<event>
 5   0  0.7160320E-07  0.2595946E+04  0.7818609E-02  0.8369579E-01
       -2   -1    0    0    0  501  0.00000000000E+00  0.00000000000E+00  0.85833690293E+03  0.85833690293E+03  0.25500000920E-02 0.  1.
        2   -1    0    0  501    0  0.00000000000E+00  0.00000000000E+00 -0.19627888841E+04  0.19627888841E+04  0.25500000920E-02 0. -1.
    10030    2    1    2    0    0  0.00000000000E+00  0.00000000000E+00 -0.11044519812E+04  0.28211257870E+04  0.25959461719E+04 0.  0.
        1    1    3    3  502    0 -0.87477530493E+03  0.45594885856E+03 -0.14689712755E+04  0.17694625749E+04  0.50400001928E-02 0. -1.
       -1    1    3    3    0  502  0.87477530493E+03 -0.45594885856E+03  0.36451929434E+03  0.10516632121E+04  0.50400001928E-02 0.  1.
</event>
<event>
 5   0  0.6780984E-07  0.2600118E+04  0.7818609E-02  0.8368161E-01
        2   -1    0    0  501    0  0.00000000000E+00  0.00000000000E+00  0.16013190086E+04  0.16013190086E+04  0.25500000920E-02 0. -1.
       -2   -1    0    0    0  501  0.00000000000E+00  0.00000000000E+00 -0.10554760511E+04  0.10554760511E+04  0.25500000920E-02 0.  1.
    10030    2    1    2    0    0  0.00000000000E+00  0.00000000000E+00  0.54584295749E+03  0.26567950597E+04  0.26001183540E+04 0.  0.
        2    1    3    3  502    0  0.44291220582E+03  0.12209626105E+04  0.33101987346E+03  0.13403339415E+04  0.25500000920E-02 0. -1.
       -2    1    3    3    0  502 -0.44291220582E+03 -0.12209626105E+04  0.21482308403E+03  0.13164611182E+04  0.25500000920E-02 0.  1.
</event>
<event>
 5   0  0.6599814E-07  0.2599921E+04  0.7818609E-02  0.8368228E-01
       -2   -1    0    0    0  501  0.00000000000E+00  0.00000000000E+00  0.81984275832E+03  0.81984275832E+03  0.25500000920E-02 0.  1.
        2   -1    0    0  501    0  0.00000000000E+00  0.00000000000E+00 -0.20612454979E+04  0.20612454979E+04  0.25500000920E-02 0. -1.
    10030    2    1    2    0    0  0.00000000000E+00  0.00000000000E+00 -0.12414027396E+04  0.28810882562E+04  0.25999209177E+04 0.  0.
        5    1    3    3  502    0  0.59551579480E+03 -0.11550883122E+04 -0.65586700264E+03  0.14556962891E+04  0.46999998093E+01 0.  1.
       -5    1    3    3    0  502 -0.59551579480E+03  0.11550883122E+04 -0.58553573692E+03  0.14253919672E+04  0.46999998093E+01 0. -1.
</event>
<event>
 5   0  0.6780984E-07  0.2600633E+04  0.7818609E-02  0.8367986E-01
        2   -1    0    0  501    0  0.00000000000E+00  0.00000000000E+00  0.17582739556E+04  0.17582739556E+04  0.25500000920E-02 0. -1.
       -2   -1    0    0    0  501  0.00000000000E+00  0.00000000000E+00 -0.96163804387E+03  0.96163804387E+03  0.25500000920E-02 0.  1.
    10030    2    1    2    0    0  0.00000000000E+00  0.00000000000E+00  0.79663591171E+03  0.27199119994E+04  0.26006330977E+04 0.  0.
        2    1    3    3  502    0  0.28540671432E+03  0.51445743437E+03  0.16111158071E+04  0.17151727575E+04  0.25500000920E-02 0. -1.
       -2    1    3    3    0  502 -0.28540671432E+03 -0.51445743437E+03 -0.81447989535E+03  0.10047392419E+04  0.25500000920E-02 0.  1.
</event>
<event>
 5   0  0.2641626E-07  0.2600849E+04  0.7818609E-02  0.8367913E-01
       -1   -1    0    0    0  501  0.00000000000E+00  0.00000000000E+00  0.99153733975E+03  0.99153733976E+03  0.50400001928E-02 0. -1.
        1   -1    0    0  501    0  0.00000000000E+00  0.00000000000E+00 -0.17055375362E+04  0.17055375362E+04  0.50400001928E-02 0.  1.
    10030    2    1    2    0    0  0.00000000000E+00  0.00000000000E+00 -0.71400019645E+03  0.26970748760E+04  0.26008492086E+04 0.  0.
        3    1    3    3  502    0  0.89489510239E+03  0.88276601461E+03 -0.70247923866E+03  0.14399965874E+04  0.10100000352E+00 0.  1.
       -3    1    3    3    0  502 -0.89489510239E+03 -0.88276601461E+03 -0.11520957789E+02  0.12570782885E+04  0.10100000352E+00 0. -1.
</event>
<event>
 5   0  0.7160320E-07  0.2604524E+04  0.7818609E-02  0.8366666E-01
        2   -1    0    0  501    0  0.00000000000E+00  0.00000000000E+00  0.16032433157E+04  0.16032433157E+04  0.25500000920E-02 0.  1.
       -2   -1    0    0    0  501  0.00000000000E+00  0.00000000000E+00 -0.10577846601E+04  0.10577846601E+04  0.25500000920E-02 0. -1.
    10030    2    1    2    0    0  0.00000000000E+00  0.00000000000E+00  0.54545865552E+03  0.26610279758E+04  0.26045238995E+04 0.  0.
        1    1    3    3  502    0  0.64731115122E+03  0.11293313234E+04  0.23335468160E+03  0.13224429560E+04  0.50400001928E-02 0. -1.
       -1    1    3    3    0  502 -0.64731115122E+03 -0.11293313234E+04  0.31210397392E+03  0.13385850198E+04  0.50400001928E-02 0.  1.
</event>
<event>
 5   0  0.2793576E-07  0.2601704E+04  0.7818609E-02  0.8367622E-01
        1   -1    0    0  501    0  0.00000000000E+00  0.00000000000E+00  0.16443100336E+04  0.16443100336E+04  0.50400001928E-02 0.  1.
       -1   -1    0    0    0  501  0.00000000000E+00  0.00000000000E+00 -0.10291347345E+04  0.10291347345E+04  0.50400001928E-02 0. -1.
    10030    2    1    2    0    0  0.00000000000E+00  0.00000000000E+00  0.61517529907E+03  0.26734447682E+04  0.26017044951E+04 0.  0.
        2    1    3    3  502    0 -0.80517181098E+03  0.94918425143E+03  0.69611971799E+03  0.14261258886E+04  0.25500000920E-02 0.  1.
       -2    1    3    3    0  502  0.80517181098E+03 -0.94918425143E+03 -0.80944418925E+02  0.12473188796E+04  0.25500000920E-02 0. -1.
</event>
<event>
 5   0  0.2755061E-07  0.2600398E+04  0.7818609E-02  0.8368066E-01
       -1   -1    0    0    0  501  0.00000000000E+00  0.00000000000E+00  0.13288072506E+04  0.13288072506E+04  0.50400001928E-02 0.  1.
        1   -1    0    0  501    0  0.00000000000E+00  0.00000000000E+00 -0.12722069937E+04  0.12722069937E+04  0.50400001928E-02 0. -1.
    10030    2    1    2    0    0  0.00000000000E+00  0.00000000000E+00  0.56600256894E+02  0.26010142443E+04  0.26003983368E+04 0.  0.
        4    1    3    3  502    0  0.19060653142E+03  0.12425444232E+04 -0.30384594186E+03  0.12932793444E+04  0.12699999809E+01 0.  1.
       -4    1    3    3    0  502 -0.19060653142E+03 -0.12425444232E+04  0.36044619875E+03  0.13077348999E+04  0.12699999809E+01 0. -1.
</event>
<event>
 5   0  0.6526351E-07  0.2599975E+04  0.7818609E-02  0.8368210E-01
        2   -1    0    0  501    0  0.00000000000E+00  0.00000000000E+00  0.10760056518E+04  0.10760056519E+04  0.25500000920E-02 0. -1.
       -2   -1    0    0    0  501  0.00000000000E+00  0.00000000000E+00 -0.15705932126E+04  0.15705932126E+04  0.25500000920E-02 0.  1.
    10030    2    1    2    0    0  0.00000000000E+00  0.00000000000E+00 -0.49458756073E+03  0.26465988644E+04  0.25999747487E+04 0.  0.
        3    1    3    3  502    0  0.18160707899E+03 -0.34575074386E+03  0.10148778854E+04  0.10874290048E+04  0.10100000352E+00 0. -1.
       -3    1    3    3    0  502 -0.18160707899E+03  0.34575074386E+03 -0.15094654461E+04  0.15591698596E+04  0.10100000352E+00 0.  1.
</event>
<event>
 5   0  0.6599814E-07  0.2598621E+04  0.7818609E-02  0.8368670E-01
        2   -1    0    0  501    0  0.00000000000E+00  0.00000000000E+00  0.10856645169E+04  0.10856645169E+04  0.25500000920E-02 0.  1.
       -2   -1    0    0    0  501  0.00000000000E+00  0.00000000000E+00 -0.15549997195E+04  0.15549997195E+04  0.25500000920E-02 0. -1.
    10030    2    1    2    0    0  0.00000000000E+00  0.00000000000E+00 -0.46933520260E+03  0.26406642364E+04  0.25986211876E+04 0.  0.
        5    1    3    3  502    0 -0.10802186906E+04 -0.49720489937E+03  0.29734921304E+03  0.12257747656E+04  0.46999998093E+01 0.  1.
       -5    1    3    3    0  502  0.10802186906E+04  0.49720489937E+03 -0.76668441564E+03  0.14148894708E+04  0.46999998093E+01 0. -1.
</event>
<event>
 5   0  0.6599814E-07  0.2607490E+04  0.7818609E-02  0.8365662E-01
       -2   -1    0    0    0  501  0.00000000000E+00  0.00000000000E+00  0.74806016586E+03  0.74806016586E+03  0.25500000920E-02 0. -1.
        2   -1    0    0  501    0  0.00000000000E+00  0.00000000000E+00 -0.22722113021E+04  0.22722113021E+04  0.25500000920E-02 0.  1.
    10030    2    1    2    0    0  0.00000000000E+00  0.00000000000E+00 -0.15241511362E+04  0.30202714679E+04  0.26074897994E+04 0.  0.
        5    1    3    3  502    0 -0.11913798975E+04  0.51735673753E+03 -0.89253097518E+03  0.15759688086E+04  0.46999998093E+01 0. -1.
       -5    1    3    3    0  502  0.11913798975E+04 -0.51735673753E+03 -0.63162016102E+03  0.14443026593E+04  0.46999998093E+01 0.  1.
</event>
<event>
 5   0  0.7160320E-07  0.2600079E+04  0.7818609E-02  0.8368174E-01
       -2   -1    0    0    0  501  0.00000000000E+00  0.00000000000E+00  0.19228414603E+04  0.19228414603E+04  0.25500000920E-02 0. -1.
        2   -1    0    0  501    0  0.00000000000E+00  0.00000000000E+00 -0.87896080227E+03  0.87896080228E+03  0.25500000920E-02 0.  1.
    10030    2    1    2    0    0  0.00000000000E+00  0.00000000000E+00  0.10438806580E+04  0.28018022626E+04  0.26000786700E+04 0.  0.
        1    1    3    3  502    0 -0.83831647163E+03  0.98262300886E+03  0.36291078218E+03  0.13416507444E+04  0.50400001928E-02 0.  1.
       -1    1    3    3    0  502  0.83831647163E+03 -0.98262300886E+03  0.68096987586E+03  0.14601515182E+04  0.50400001928E-02 0. -1.
</event>
<event>
 5   0  0.2755061E-07  0.2599905E+04  0.7818609E-02  0.8368233E-01
        1   -1    0    0  501    0  0.00000000000E+00  0.00000000000E+00  0.12130627081E+04  0.12130627081E+04  0.50400001928E-02 0. -1.
       -1   -1    0    0    0  501  0.00000000000E+00  0.00000000000E+00 -0.13930664589E+04  0.13930664589E+04  0.50400001928E-02 0.  1.
    10030    2    1    2    0    0  0.00000000000E+00  0.00000000000E+00 -0.18000375075E+03  0.26061291670E+04  0.25999053607E+04 0.  0.
        4    1    3    3  502    0 -0.27684773241E+03  0.12011812165E+04  0.32377481925E+03  0.12744852798E+04  0.12699999809E+01 0. -1.
       -4    1    3    3    0  502  0.27684773241E+03 -0.12011812165E+04 -0.50377856999E+03  0.13316438872E+04  0.12699999809E+01 0.  1.
</event>
<event>
 5   0  0.2294625E-07  0.2599598E+04  0.7818609E-02  0.8368338E-01
       -3   -1    0    0    0  501  0.00000000000E+00  0.00000000000E+00  0.93558902077E+03  0.93558902622E+03  0.10100000352E+00 0. -1.
        3   -1    0    0  501    0  0.00000000000E+00  0.00000000000E+00 -0.18057900388E+04  0.18057900417E+04  0.10100000352E+00 0.  1.
    10030    2    1    2    0    0  0.00000000000E+00  0.00000000000E+00 -0.87020101806E+03  0.27413790679E+04  0.25995979270E+04 0.  0.
        2    1    3    3  502    0  0.86684394961E+03 -0.84376659223E+03 -0.93655251630E+03  0.15298663703E+04  0.25500000920E-02 0.  1.
       -2    1    3    3    0  502 -0.86684394961E+03  0.84376659223E+03  0.66351498235E+02  0.12115126976E+04  0.25500000920E-02 0. -1.
</event>
<event>
 5   0  0.6599814E-07  0.2600870E+04  0.7818609E-02  0.8367906E-01
        2   -1    0    0  501    0  0.00000000000E+00  0.00000000000E+00  0.86360732441E+03  0.86360732442E+03  0.25500000920E-02 0. -1.
       -2   -1    0    0    0  501  0.00000000000E+00  0.00000000000E+00 -0.19582173459E+04  0.19582173459E+04  0.25500000920E-02 0.  1.
    10030    2    1    2    0    0  0.00000000000E+00  0.00000000000E+00 -0.10946100214E+04  0.28218246703E+04  0.26008697335E+04 0.  0.
        5    1    3    3  502    0  0.34707853149E+03 -0.10678082821E+04 -0.12591133212E+04  0.16870288913E+04  0.46999998093E+01 0.  1.
       -5    1    3    3    0  502 -0.34707853149E+03  0.10678082821E+04  0.16450329981E+03  0.11347957790E+04  0.46999998093E+01 0. -1.
</event>
<event>
 5   0  0.6780984E-07  0.2599355E+04  0.7818609E-02  0.8368420E-01
        2   -1    0    0  501    0  0.00000000000E+00  0.00000000000E+00  0.10137079173E+04  0.10137079173E+04  0.25500000920E-02 0. -1.
       -2   -1    0    0    0  501  0.00000000000E+00  0.00000000000E+00 -0.16663199139E+04  0.16663199139E+04  0.25500000920E-02 0.  1.
    10030    2    1    2    0    0  0.00000000000E+00  0.00000000000E+00 -0.65261199660E+03  0.26800278312E+04  0.25993550657E+04 0.  0.
        2    1    3    3  502    0  0.93603246385E+03  0.90165272188E+03 -0.33169163586E+03  0.13413253690E+04  0.25500000920E-02 0.  1.
       -2    1    3    3    0  502 -0.93603246385E+03 -0.90165272188E+03 -0.32092036074E+03  0.13387024622E+04  0.25500000920E-02 0. -1.
</event>
<event>
 5   0  0.6526351E-07  0.2601889E+04  0.7818609E-02  0.8367560E-01
        2   -1    0    0  501    0  0.00000000000E+00  0.00000000000E+00  0.10253289953E+04  0.10253289953E+04  0.25500000920E-02 0. -1.
       -2   -1    0    0    0  501  0.00000000000E+00  0.00000000000E+00 -0.16506473748E+04  0.16506473748E+04  0.25500000920E-02 0.  1.
    10030    2    1    2    0    0  0.00000000000E+00  0.00000000000E+00 -0.62531837945E+03  0.26759763701E+04  0.26018890172E+04 0.  0.
        3    1    3    3  502    0  0.30311424443E+03  0.93455416563E+03 -0.11896933730E+04  0.15429322945E+04  0.10100000352E+00 0. -1.
       -3    1    3    3    0  502 -0.30311424443E+03 -0.93455416563E+03  0.56437499351E+03  0.11330440756E+04  0.10100000352E+00 0.  1.
</event>
<event>
 5   0  0.2623263E-07  0.2601799E+04  0.7818609E-02  0.8367590E-01
        1   -1    0    0  501    0  0.00000000000E+00  0.00000000000E+00  0.21275741226E+04  0.21275741227E+04  0.50400001928E-02 0. -1.
       -1   -1    0    0    0  501  0.00000000000E+00  0.00000000000E+00 -0.79543157135E+03  0.79543157137E+03  0.50400001928E-02 0.  1.
    10030    2    1    2    0    0  0.00000000000E+00  0.00000000000E+00  0.13321425513E+04  0.29230056940E+04  0.26017990911E+04 0.  0.
        1    1    3    3  502    0 -0.80747286809E+03  0.25831710466E+03  0.17745977453E+04  0.19667072270E+04  0.50400001928E-02 0. -1.
       -1    1    3    3    0  502  0.80747286809E+03 -0.25831710466E+03 -0.44245519399E+03  0.95629846699E+03  0.50400001928E-02 0.  1.
</event>
<event>
 5   0  0.6526351E-07  0.2598672E+04  0.7818609E-02  0.8368652E-01
        2   -1    0    0  501    0  0.00000000000E+00  0.00000000000E+00  0.20791454288E+04  0.20791454288E+04  0.25500000920E-02 0. -1.
       -2   -1    0    0    0  501  0.00000000000E+00  0.00000000000E+00 -0.81200376407E+03  0.81200376407E+03  0.25500000920E-02 0.  1.
    10030    2    1    2    0    0  0.00000000000E+00  0.00000000000E+00  0.12671416648E+04  0.28911491929E+04  0.25986719025E+04 0.  0.
        3    1    3    3  502    0  0.35611136996E+03 -0.91836762296E+03  0.15763267569E+04  0.18587685315E+04  0.10100000352E+00 0. -1.
       -3    1    3    3    0  502 -0.35611136996E+03  0.91836762296E+03 -0.30918509216E+03  0.10323806615E+04  0.10100000352E+00 0.  1.
</event>
<event>
 5   0  0.6599814E-07  0.2600476E+04  0.7818609E-02  0.8368040E-01
       -2   -1    0    0    0  501  0.00000000000E+00  0.00000000000E+00  0.15383430308E+04  0.15383430308E+04  0.25500000920E-02 0. -1.
        2   -1    0    0  501    0  0.00000000000E+00  0.00000000000E+00 -0.10989865326E+04  0.10989865326E+04  0.25500000920E-02 0.  1.
    10030    2    1    2    0    0  0.00000000000E+00  0.00000000000E+00  0.43935649817E+03  0.26373295634E+04  0.26004755514E+04 0.  0.
        5    1    3    3  502    0 -0.82258332112E+03 -0.32698632202E+03  0.11855581438E+04  0.14795720927E+04  0.46999998093E+01 0. -1.
       -5    1    3    3    0  502  0.82258332112E+03  0.32698632202E+03 -0.74620164567E+03  0.11577574707E+04  0.46999998093E+01 0.  1.
</event>
<event>
 5   0  0.2623263E-07  0.2600007E+04  0.7818609E-02  0.8368199E-01
       -1   -1    0    0    0  501  0.00000000000E+00  0.00000000000E+00  0.69162018667E+03  0.69162018669E+03  0.50400001928E-02 0.  1.
        1   -1    0    0  501    0  0.00000000000E+00  0.00000000000E+00 -0.24435514807E+04  0.24435514807E+04  0.50400001928E-02 0. -1.
    10030    2    1    2    0    0  0.00000000000E+00  0.00000000000E+00 -0.17519312940E+04  0.31351716674E+04  0.26000073317E+04 0.  0.
        1    1    3    3  502    0 -0.69083127629E+03 -0.71126057185E+03 -0.18897756038E+04  0.21341019859E+04  0.50400001928E-02 0. -1.
       -1    1    3    3    0  502  0.69083127629E+03  0.71126057185E+03  0.13784430983E+03  0.10010696815E+04  0.50400001928E-02 0.  1.
</event>
<event>
 5   0  0.2793576E-07  0.2599896E+04  0.7818609E-02  0.8368237E-01
        1   -1    0    0  501    0  0.00000000000E+00  0.00000000000E+00  0.10201648979E+04  0.10201648979E+04  0.50400001928E-02 0.  1.
       -1   -1    0    0    0  501  0.00000000000E+00  0.00000000000E+00 -0.16564625019E+04  0.16564625019E+04  0.50400001928E-02 0. -1.
    10030    2    1    2    0    0  0.00000000000E+00  0.00000000000E+00 -0.63629760401E+03  0.26766273997E+04  0.25998960741E+04 0.  0.
        2    1    3    3  502    0  0.43599391994E+03  0.10853709093E+04 -0.90211443325E+03  0.14771361344E+04  0.25500000920E-02 0. -1.
       -2    1    3    3    0  502 -0.43599391994E+03 -0.10853709093E+04  0.26581682924E+03  0.11994912653E+04  0.25500000920E-02 0.  1.
</event>
<event>
 5   0  0.6768478E-07  0.2601244E+04  0.7818609E-02  0.8367779E-01
       -2   -1    0    0    0  501  0.00000000000E+00  0.00000000000E+00  0.63216318866E+03  0.63216318867E+03  0.25500000920E-02 0. -1.
        2   -1    0    0  501    0  0.00000000000E+00  0.00000000000E+00 -0.26759192008E+04  0.26759192008E+04  0.25500000920E-02 0.  1.
    10030    2    1    2    0    0  0.00000000000E+00  0.00000000000E+00 -0.20437560121E+04  0.33080823895E+04  0.26012440213E+04 0.  0.
        4    1    3    3  502    0 -0.95681863538E+03 -0.46921574669E+03 -0.73648736888E+02  0.10682186421E+04  0.12699999809E+01 0. -1.
       -4    1    3    3    0  502  0.95681863538E+03  0.46921574669E+03 -0.19701072752E+04  0.22398637474E+04  0.12699999809E+01 0.  1.
</event>
<event>
 5   0  0.6768478E-07  0.2593219E+04  0.7818609E-02  0.8370508E-01
        2   -1    0    0  501    0  0.00000000000E+00  0.00000000000E+00  0.19408068378E+04  0.19408068378E+04  0.25500000920E-02 0. -1.
       -2   -1    0    0    0  501  0.00000000000E+00  0.00000000000E+00 -0.86623547808E+03  0.86623547808E+03  0.25500000920E-02 0.  1.
    10030    2    1    2    0    0  0.00000000000E+00  0.00000000000E+00  0.10745713597E+04  0.28070423159E+04  0.25932186479E+04 0.  0.
        4    1    3    3  502    0  0.61870210862E+03  0.11354960071E+04  0.64026489585E+03  0.14429429064E+04  0.12699999809E+01 0. -1.
       -4    1    3    3    0  502 -0.61870210862E+03 -0.11354960071E+04  0.43430646385E+03  0.13640994094E+04  0.12699999809E+01 0.  1.
</event>
<event>
 5   0  0.6780984E-07  0.2600505E+04  0.7818609E-02  0.8368030E-01
        2   -1    0    0  501    0  0.00000000000E+00  0.00000000000E+00  0.16098913337E+04  0.16098913337E+04  0.25500000920E-02 0. -1.
       -2   -1    0    0    0  501  0.00000000000E+00  0.00000000000E+00 -0.10501678176E+04  0.10501678176E+04  0.25500000920E-02 0.  1.
    10030    2    1    2    0    0  0.00000000000E+00  0.00000000000E+00  0.55972351609E+03  0.26600591512E+04  0.26005046190E+04 0.  0.
        2    1    3    3  502    0 -0.85452223319E+03  0.53481165182E+03 -0.56017883996E+03  0.11532701690E+04  0.25500000920E-02 0.  1.
       -2    1    3    3    0  502  0.85452223319E+03 -0.53481165182E+03  0.11199023560E+04  0.15067889822E+04  0.25500000920E-02 0. -1.
</event>
<event>
 5   0  0.7160320E-07  0.2605133E+04  0.7818609E-02  0.8366460E-01
       -2   -1    0    0    0  501  0.00000000000E+00  0.00000000000E+00  0.74805208425E+03  0.74805208425E+03  0.25500000920E-02 0. -1.
        2   -1    0    0  501    0  0.00000000000E+00  0.00000000000E+00 -0.22681296023E+04  0.22681296023E+04  0.25500000920E-02 0.  1.
    10030    2    1    2    0    0  0.00000000000E+00  0.00000000000E+00 -0.15200775180E+04  0.30161816865E+04  0.26051326848E+04 0.  0.
        1    1    3    3  502    0 -0.11372732911E+04  0.12901336401E+02 -0.24939557288E+02  0.11376198683E+04  0.50400001928E-02 0. -1.
       -1    1    3    3    0  502  0.11372732911E+04 -0.12901336401E+02 -0.14951379607E+04  0.18785618182E+04  0.50400001928E-02 0.  1.
</event>
<event>
 5   0  0.6768478E-07  0.2599675E+04  0.7818609E-02  0.8368312E-01
       -2   -1    0    0    0  501  0.00000000000E+00  0.00000000000E+00  0.89675814426E+03  0.89675814426E+03  0.25500000920E-02 0.  1.
        2   -1    0    0  501    0  0.00000000000E+00  0.00000000000E+00 -0.18840948732E+04  0.18840948732E+04  0.25500000920E-02 0. -1.
    10030    2    1    2    0    0  0.00000000000E+00  0.00000000000E+00 -0.98733672892E+03  0.27808530174E+04  0.25996749197E+04 0.  0.
        4    1    3    3  502    0  0.59131853847E+03  0.67637406703E+03  0.51118034017E+03  0.10336568316E+04  0.12699999809E+01 0. -1.
       -4    1    3    3    0  502 -0.59131853847E+03 -0.67637406703E+03 -0.14985170691E+04  0.17471961858E+04  0.12699999809E+01 0.  1.
</event>
<event>
 5   0  0.6526351E-07  0.2599218E+04  0.7818609E-02  0.8368467E-01
        2   -1    0    0  501    0  0.00000000000E+00  0.00000000000E+00  0.11824166983E+04  0.11824166983E+04  0.25500000920E-02 0.  1.
       -2   -1    0    0    0  501  0.00000000000E+00  0.00000000000E+00 -0.14284169975E+04  0.14284169975E+04  0.25500000920E-02 0. -1.
    10030    2    1    2    0    0  0.00000000000E+00  0.00000000000E+00 -0.24600029921E+03  0.26108336958E+04  0.25992184287E+04 0.  0.
        3    1    3    3  502    0 -0.23434875026E+03  0.85986060933E+03 -0.10731152957E+04  0.13949394439E+04  0.10100000352E+00 0. -1.
       -3    1    3    3    0  502  0.23434875026E+03 -0.85986060933E+03  0.82711499648E+03  0.12158942519E+04  0.10100000352E+00 0.  1.
</event>
<event>
 5   0  0.2641626E-07  0.2598333E+04  0.7818609E-02  0.8368768E-01
        1   -1    0    0  501    0  0.00000000000E+00  0.00000000000E+00  0.16770556546E+04  0.16770556546E+04  0.50400001928E-02 0. -1.
       -1   -1    0    0    0  501  0.00000000000E+00  0.00000000000E+00 -0.10064266747E+04  0.10064266747E+04  0.50400001928E-02 0.  1.
    10030    2    1    2    0    0  0.00000000000E+00  0.00000000000E+00  0.67062897986E+03  0.26834823293E+04  0.25983329623E+04 0.  0.
        3    1    3    3  502    0  0.50347988347E+03 -0.70950202217E+03 -0.66116129000E+03  0.10927119356E+04  0.10100000352E+00 0.  1.
       -3    1    3    3    0  502 -0.50347988347E+03  0.70950202217E+03  0.13317902699E+04  0.15907703938E+04  0.10100000352E+00 0. -1.
</event>
<event>
 5   0  0.2641626E-07  0.2601896E+04  0.7818609E-02  0.8367558E-01
        1   -1    0    0  501    0  0.00000000000E+00  0.00000000000E+00  0.18504899855E+04  0.18504899855E+04  0.50400001928E-02 0. -1.
       -1   -1    0    0    0  501  0.00000000000E+00  0.00000000000E+00 -0.91460390734E+03  0.91460390735E+03  0.50400001928E-02 0.  1.
    10030    2    1    2    0    0  0.00000000000E+00  0.00000000000E+00  0.93588607819E+03  0.27650938929E+04  0.26018957483E+04 0.  0.
        3    1    3    3  502    0 -0.44257563623E+03  0.12005611601E+04  0.21815781270E+03  0.12980035186E+04  0.10100000352E+00 0.  1.
       -3    1    3    3    0  502  0.44257563623E+03 -0.12005611601E+04  0.71772826549E+03  0.14670903742E+04  0.10100000352E+00 0. -1.
</event>
<event>
 5   0  0.2755061E-07  0.2598163E+04  0.7818609E-02  0.8368826E-01
       -1   -1    0    0    0  501  0.00000000000E+00  0.00000000000E+00  0.77149129294E+03  0.77149129296E+03  0.50400001928E-02 0. -1.
        1   -1    0    0  501    0  0.00000000000E+00  0.00000000000E+00 -0.21874679653E+04  0.21874679653E+04  0.50400001928E-02 0.  1.
    10030    2    1    2    0    0  0.00000000000E+00  0.00000000000E+00 -0.14159766723E+04  0.29589592582E+04  0.25981628038E+04 0.  0.
        4    1    3    3  502    0 -0.41284413292E+03  0.12061930364E+04 -0.99217809255E+03  0.16154754406E+04  0.12699999809E+01 0.  1.
       -4    1    3    3    0  502  0.41284413292E+03 -0.12061930364E+04 -0.42379857977E+03  0.13434838176E+04  0.12699999809E+01 0. -1.
</event>
<event>
 5   0  0.2623263E-07  0.2600479E+04  0.7818609E-02  0.8368039E-01
        1   -1    0    0  501    0  0.00000000000E+00  0.00000000000E+00  0.17701552203E+04  0.17701552203E+04  0.50400001928E-02 0.  1.
       -1   -1    0    0    0  501  0.00000000000E+00  0.00000000000E+00 -0.95507000599E+03  0.95507000601E+03  0.50400001928E-02 0. -1.
    10030    2    1    2    0    0  0.00000000000E+00  0.00000000000E+00  0.81508521433E+03  0.27252252263E+04  0.26004785382E+04 0.  0.
        1    1    3    3  502    0 -0.12888872130E+04 -0.85351374037E+02  0.56335950145E+03  0.14092157509E+04  0.50400001928E-02 0. -1.
       -1    1    3    3    0  502  0.12888872130E+04  0.85351374037E+02  0.25172571289E+03  0.13160094754E+04  0.50400001928E-02 0.  1.
</event>
<event>
 5   0  0.7160320E-07  0.2600309E+04  0.7818609E-02  0.8368096E-01
       -2   -1    0    0    0  501  0.00000000000E+00  0.00000000000E+00  0.12418714247E+04  0.12418714247E+04  0.25500000920E-02 0. -1.
        2   -1    0    0  501    0  0.00000000000E+00  0.00000000000E+00 -0.13611732638E+04  0.13611732638E+04  0.25500000920E-02 0.  1.
    10030    2    1    2    0    0  0.00000000000E+00  0.00000000000E+00 -0.11930183914E+03  0.26030446885E+04  0.26003093511E+04 0.  0.
        1    1    3    3  502    0  0.10152850285E+04 -0.64563130630E+02  0.75078707853E+03  0.12643786317E+04  0.50400001928E-02 0. -1.
       -1    1    3    3    0  502 -0.10152850285E+04  0.64563130630E+02 -0.87008891767E+03  0.13386660568E+04  0.50400001928E-02 0.  1.
</event>
<event>
 5   0  0.6768478E-07  0.2600081E+04  0.7818609E-02  0.8368174E-01
        2   -1    0    0  501    0  0.00000000000E+00  0.00000000000E+00  0.28691385055E+04  0.28691385055E+04  0.25500000920E-02 0.  1.
       -2   -1    0    0    0  501  0.00000000000E+00  0.00000000000E+00 -0.58906372298E+03  0.58906372299E+03  0.25500000920E-02 0. -1.
    10030    2    1    2    0    0  0.00000000000E+00  0.00000000000E+00  0.22800747825E+04  0.34582022285E+04  0.26000810832E+04 0.  0.
        4    1    3    3  502    0 -0.24271549580E+03 -0.10678749977E+04  0.20821812120E+03  0.11147305601E+04  0.12699999809E+01 0. -1.
       -4    1    3    3    0  502  0.24271549580E+03  0.10678749977E+04  0.20718566613E+04  0.23434716684E+04  0.12699999809E+01 0.  1.
</event>
<event>
 5   0  0.6780984E-07  0.2600167E+04  0.7818609E-02  0.8368144E-01
       -2   -1    0    0    0  501  0.00000000000E+00  0.00000000000E+00  0.83380952024E+03  0.83380952025E+03  0.25500000920E-02 0. -1.
        2   -1    0    0  501    0  0.00000000000E+00  0.00000000000E+00 -0.20271029689E+04  0.20271029689E+04  0.25500000920E-02 0.  1.
    10030    2    1    2    0    0  0.00000000000E+00  0.00000000000E+00 -0.11932934487E+04  0.28609124891E+04  0.26001674977E+04 0.  0.
        2    1    3    3  502    0 -0.74566597472E+03  0.10649306113E+04 -0.58445389419E+03  0.14253705859E+04  0.25500000920E-02 0. -1.
       -2    1    3    3    0  502  0.74566597472E+03 -0.10649306113E+04 -0.60883955446E+03  0.14355419032E+04  0.25500000920E-02 0.  1.
</event>
<event>
 5   0  0.2864801E-07  0.2600120E+04  0.7818609E-02  0.8368161E-01
       -1   -1    0    0    0  501  0.00000000000E+00  0.00000000000E+00  0.28635638624E+04  0.28635638624E+04  0.50400001928E-02 0. -1.
        1   -1    0    0  501    0  0.00000000000E+00  0.00000000000E+00 -0.59022795835E+03  0.59022795837E+03  0.50400001928E-02 0.  1.
    10030    2    1    2    0    0  0.00000000000E+00  0.00000000000E+00  0.22733359040E+04  0.34537918208E+04  0.26001195758E+04 0.  0.
        5    1    3    3  502    0  0.36145022839E+03 -0.12449293230E+04  0.12670740782E+04  0.18127311153E+04  0.46999998093E+01 0.  1.
       -5    1    3    3    0  502 -0.36145022839E+03  0.12449293230E+04  0.10062618258E+04  0.16410607055E+04  0.46999998093E+01 0. -1.
</event>
<event>
 5   0  0.2641626E-07  0.2599440E+04  0.7818609E-02  0.8368391E-01
        1   -1    0    0  501    0  0.00000000000E+00  0.00000000000E+00  0.98248679366E+03  0.98248679368E+03  0.50400001928E-02 0.  1.
       -1   -1    0    0    0  501  0.00000000000E+00  0.00000000000E+00 -0.17193846252E+04  0.17193846252E+04  0.50400001928E-02 0. -1.
    10030    2    1    2    0    0  0.00000000000E+00  0.00000000000E+00 -0.73689783152E+03  0.27018714189E+04  0.25994404686E+04 0.  0.
        3    1    3    3  502    0  0.57372875153E+03 -0.90758286983E+02  0.84006711632E+03  0.10213297788E+04  0.10100000352E+00 0.  1.
       -3    1    3    3    0  502 -0.57372875153E+03  0.90758286983E+02 -0.15769649478E+04  0.16805416400E+04  0.10100000352E+00 0. -1.
</event>
<event>
 5   0  0.7160320E-07  0.2601555E+04  0.7818609E-02  0.8367673E-01
       -2   -1    0    0    0  501  0.00000000000E+00  0.00000000000E+00  0.78952546827E+03  0.78952546827E+03  0.25500000920E-02 0.  1.
        2   -1    0    0  501    0  0.00000000000E+00  0.00000000000E+00 -0.21430882239E+04  0.21430882239E+04  0.25500000920E-02 0. -1.
    10030    2    1    2    0    0  0.00000000000E+00  0.00000000000E+00 -0.13535627557E+04  0.29326136922E+04  0.26015554836E+04 0.  0.
        1    1    3    3  502    0 -0.14989075563E+03  0.11205228673E+03 -0.21278334267E+04  0.21360472947E+04  0.50400001928E-02 0. -1.
       -1    1    3    3    0  502  0.14989075563E+03 -0.11205228673E+03  0.77427067101E+03  0.79656639748E+03  0.50400001928E-02 0.  1.
</event>
<event>
 5   0  0.2755061E-07  0.2599142E+04  0.7818609E-02  0.8368493E-01
        1   -1    0    0  501    0  0.00000000000E+00  0.00000000000E+00  0.24140874691E+04  0.24140874691E+04  0.50400001928E-02 0.  1.
       -1   -1    0    0    0  501  0.00000000000E+00  0.00000000000E+00 -0.69959534989E+03  0.69959534991E+03  0.50400001928E-02 0. -1.
    10030    2    1    2    0    0  0.00000000000E+00  0.00000000000E+00  0.17144921192E+04  0.31136828190E+04  0.25991416796E+04 0.  0.
        4    1    3    3  502    0  0.11305516917E+04 -0.62619861672E+03  0.10206747620E+04  0.16468304157E+04  0.12699999809E+01 0. -1.
       -4    1    3    3    0  502 -0.11305516917E+04  0.62619861672E+03  0.69381735720E+03  0.14668524034E+04  0.12699999809E+01 0.  1.
</event>
<event>
 5   0  0.2641626E-07  0.2597183E+04  0.7818609E-02  0.8369159E-01
       -1   -1    0    0    0  501  0.00000000000E+00  0.00000000000E+00  0.12005859766E+04  0.12005859766E+04  0.50400001928E-02 0.  1.
        1   -1    0    0  501    0  0.00000000000E+00  0.00000000000E+00 -0.14045978828E+04  0.14045978828E+04  0.50400001928E-02 0. -1.
    10030    2    1    2    0    0  0.00000000000E+00  0.00000000000E+00 -0.20401190623E+03  0.26051838594E+04  0.25971834905E+04 0.  0.
        3    1    3    3  502    0 -0.44397740893E+03  0.61501273653E+02  0.11205355706E+04  0.12068547226E+04  0.10100000352E+00 0.  1.
       -3    1    3    3    0  502  0.44397740893E+03 -0.61501273653E+02 -0.13245474768E+04  0.13983291368E+04  0.10100000352E+00 0. -1.
</event>
<event>
 5   0  0.2623263E-07  0.2599899E+04  0.7818609E-02  0.8368236E-01
        1   -1    0    0  501    0  0.00000000000E+00  0.00000000000E+00  0.15863638162E+04  0.15863638162E+04  0.50400001928E-02 0. -1.
       -1   -1    0    0    0  501  0.00000000000E+00  0.00000000000E+00 -0.10652465710E+04  0.10652465710E+04  0.50400001928E-02 0.  1.
    10030    2    1    2    0    0  0.00000000000E+00  0.00000000000E+00  0.52111724524E+03  0.26516103872E+04  0.25998989330E+04 0.  0.
        1    1    3    3  502    0  0.49641075291E+03 -0.83201655849E+03 -0.62339429823E+03  0.11520831742E+04  0.50400001928E-02 0.  1.
       -1    1    3    3    0  502 -0.49641075291E+03  0.83201655849E+03  0.11445115435E+04  0.14995272129E+04  0.50400001928E-02 0. -1.
</event>
<event>
 5   0  0.2864801E-07  0.2600979E+04  0.7818609E-02  0.8367869E-01
        1   -1    0    0  501    0  0.00000000000E+00  0.00000000000E+00  0.13877176279E+04  0.13877176279E+04  0.50400001928E-02 0.  1.
       -1   -1    0    0    0  501  0.00000000000E+00  0.00000000000E+00 -0.12187444666E+04  0.12187444666E+04  0.50400001928E-02 0. -1.
    10030    2    1    2    0    0  0.00000000000E+00  0.00000000000E+00  0.16897316132E+03  0.26064620945E+04  0.26009791850E+04 0.  0.
        5    1    3    3  502    0 -0.87099838531E+02 -0.12484683394E+04  0.43877324134E+03  0.13261989382E+04  0.46999998093E+01 0.  1.
       -5    1    3    3    0  502  0.87099838531E+02  0.12484683394E+04 -0.26980008002E+03  0.12802631563E+04  0.46999998093E+01 0. -1.
</event>
<event>
 5   0  0.2641626E-07  0.2602766E+04  0.7818609E-02  0.8367262E-01
        1   -1    0    0  501    0  0.00000000000E+00  0.00000000000E+00  0.14738572711E+04  0.14738572712E+04  0.50400001928E-02 0. -1.
       -1   -1    0    0    0  501  0.00000000000E+00  0.00000000000E+00 -0.11490920643E+04  0.11490920643E+04  0.50400001928E-02 0.  1.
    10030    2    1    2    0    0  0.00000000000E+00  0.00000000000E+00  0.32476520687E+03  0.26229493354E+04  0.26027659858E+04 0.  0.
        3    1    3    3  502    0 -0.10269724464E+04 -0.78893841912E+03  0.29183670686E+03  0.13275032612E+04  0.10100000352E+00 0. -1.
       -3    1    3    3    0  502  0.10269724464E+04  0.78893841912E+03  0.32928500011E+02  0.12954460742E+04  0.10100000352E+00 0.  1.
</event>
<event>
 5   0  0.6768478E-07  0.2599503E+04  0.7818609E-02  0.8368370E-01
        2   -1    0    0  501    0  0.00000000000E+00  0.00000000000E+00  0.96763365732E+03  0.96763365732E+03  0.25500000920E-02 0. -1.
       -2   -1    0    0    0  501  0.00000000000E+00  0.00000000000E+00 -0.17458613984E+04  0.17458613984E+04  0.25500000920E-02 0.  1.
    10030    2    1    2    0    0  0.00000000000E+00  0.00000000000E+00 -0.77822774106E+03  0.27134950557E+04  0.25995032218E+04 0.  0.
        4    1    3    3  502    0  0.12981552297E+04  0.40289671833E+02 -0.44153952464E+03  0.13717831544E+04  0.12699999809E+01 0. -1.
       -4    1    3    3    0  502 -0.12981552297E+04 -0.40289671833E+02 -0.33668821643E+03  0.13417119013E+04  0.12699999809E+01 0.  1.
</event>
<event>
 5   0  0.7160320E-07  0.2599963E+04  0.7818609E-02  0.8368214E-01
       -2   -1    0    0    0  501  0.00000000000E+00  0.00000000000E+00  0.65083507367E+03  0.65083507368E+03  0.25500000920E-02 0.  1.
        2   -1    0    0  501    0  0.00000000000E+00  0.00000000000E+00 -0.25965897343E+04  0.25965897343E+04  0.25500000920E-02 0. -1.
    10030    2    1    2    0    0  0.00000000000E+00  0.00000000000E+00 -0.19457546607E+04  0.32474248080E+04  0.25999628236E+04 0.  0.
        1    1    3    3  502    0 -0.11777833125E+04  0.55025279386E+03 -0.97294137798E+03  0.16237507793E+04  0.50400001928E-02 0.  1.
       -1    1    3    3    0  502  0.11777833125E+04 -0.55025279386E+03 -0.97281328267E+03  0.16236740287E+04  0.50400001928E-02 0. -1.
</event>
<event>
 5   0  0.2755061E-07  0.2602409E+04  0.7818609E-02  0.8367383E-01
       -1   -1    0    0    0  501  0.00000000000E+00  0.00000000000E+00  0.99395391793E+03  0.99395391794E+03  0.50400001928E-02 0.  1.
        1   -1    0    0  501    0  0.00000000000E+00  0.00000000000E+00 -0.17034325791E+04  0.17034325791E+04  0.50400001928E-02 0. -1.
    10030    2    1    2    0    0  0.00000000000E+00  0.00000000000E+00 -0.70947866112E+03  0.26973864970E+04  0.26024092575E+04 0.  0.
        4    1    3    3  502    0  0.83210541668E+03  0.77956978374E+03  0.29503976935E+03  0.11777854434E+04  0.12699999809E+01 0.  1.
       -4    1    3    3    0  502 -0.83210541668E+03 -0.77956978374E+03 -0.10045184305E+04  0.15196010536E+04  0.12699999809E+01 0. -1.
</event>
<event>
 5   0  0.6599814E-07  0.2598440E+04  0.7818609E-02  0.8368731E-01
       -2   -1    0    0    0  501  0.00000000000E+00  0.00000000000E+00  0.16434957740E+04  0.16434957740E+04  0.25500000920E-02 0. -1.
        2   -1    0    0  501    0  0.00000000000E+00  0.00000000000E+00 -0.10270623419E+04  0.10270623419E+04  0.25500000920E-02 0.  1.
    10030    2    1    2    0    0  0.00000000000E+00  0.00000000000E+00  0.61643343205E+03  0.26705581159E+04  0.25984400078E+04 0.  0.
        5    1    3    3  502    0  0.84921624684E+03 -0.37116548063E+03  0.12439917302E+04  0.15512799756E+04  0.46999998093E+01 0. -1.
       -5    1    3    3    0  502 -0.84921624684E+03  0.37116548063E+03 -0.62755829812E+03  0.11192781403E+04  0.46999998093E+01 0.  1.
</event>
<event>
 5   0  0.2755061E-07  0.2598795E+04  0.7818609E-02  0.8368611E-01
       -1   -1    0    0    0  501  0.00000000000E+00  0.00000000000E+00  0.16461255038E+04  0.16461255038E+04  0.50400001928E-02 0.  1.
        1   -1    0    0  501    0  0.00000000000E+00  0.00000000000E+00 -0.10257017368E+04  0.10257017368E+04  0.50400001928E-02 0. -1.
    10030    2    1    2    0    0  0.00000000000E+00  0.00000000000E+00  0.62042376700E+03  0.26718272406E+04  0.25987949425E+04 0.  0.
        4    1    3    3  502    0  0.89649996555E+03  0.86988050748E+03  0.67807703999E+03  0.14213354180E+04  0.12699999809E+01 0.  1.
       -4    1    3    3    0  502 -0.89649996555E+03 -0.86988050748E+03 -0.57653272994E+02  0.12504918226E+04  0.12699999809E+01 0. -1.
</event>
<event>
 5   0  0.2623263E-07  0.2599964E+04  0.7818609E-02  0.8368213E-01
        1   -1    0    0  501    0  0.00000000000E+00  0.00000000000E+00  0.16249932896E+04  0.16249932896E+04  0.50400001928E-02 0. -1.
       -1   -1    0    0    0  501  0.00000000000E+00  0.00000000000E+00 -0.10399755548E+04  0.10399755548E+04  0.50400001928E-02 0.  1.
    10030    2    1    2    0    0  0.00000000000E+00  0.00000000000E+00  0.58501773479E+03  0.26649688444E+04  0.25999640750E+04 0.  0.
        1    1    3    3  502    0 -0.64047126759E+03 -0.88637886939E+03  0.10129930658E+04  0.14906461338E+04  0.50400001928E-02 0. -1.
       -1    1    3    3    0  502  0.64047126759E+03  0.88637886939E+03 -0.42797533100E+03  0.11743227106E+04  0.50400001928E-02 0.  1.
</event>
<event>
 5   0  0.2623263E-07  0.2596057E+04  0.7818609E-02  0.8369542E-01
        1   -1    0    0  501    0  0.00000000000E+00  0.00000000000E+00  0.14701028913E+04  0.14701028913E+04  0.50400001928E-02 0.  1.
       -1   -1    0    0    0  501  0.00000000000E+00  0.00000000000E+00 -0.11460951292E+04  0.11460951292E+04  0.50400001928E-02 0. -1.
    10030    2    1    2    0    0  0.00000000000E+00  0.00000000000E+00  0.32400776207E+03  0.26161980205E+04  0.25960568277E+04 0.  0.
        1    1    3    3  502    0  0.35553174449E+03 -0.10454134524E+04 -0.52562833183E+03  0.12229379588E+04  0.50400001928E-02 0. -1.
       -1    1    3    3    0  502 -0.35553174449E+03  0.10454134524E+04  0.84963609390E+03  0.13932600618E+04  0.50400001928E-02 0.  1.
</event>
<event>
 5   0  0.2641626E-07  0.2600341E+04  0.7818609E-02  0.8368085E-01
       -1   -1    0    0    0  501  0.00000000000E+00  0.00000000000E+00  0.80556596764E+03  0.80556596766E+03  0.50400001928E-02 0.  1.
        1   -1    0    0  501    0  0.00000000000E+00  0.00000000000E+00 -0.20984542625E+04  0.20984542625E+04  0.50400001928E-02 0. -1.
    10030    2    1    2    0    0  0.00000000000E+00  0.00000000000E+00 -0.12928882948E+04  0.29040202302E+04  0.26003410073E+04 0.  0.
        3    1    3    3  502    0  0.10913910790E+04 -0.49458986888E+03 -0.12100493920E+04  0.17029307582E+04  0.10100000352E+00 0. -1.
       -3    1    3    3    0  502 -0.10913910790E+04  0.49458986888E+03 -0.82838902820E+02  0.12010894720E+04  0.10100000352E+00 0.  1.
</event>
<event>
 5   0  0.6599814E-07  0.2595777E+04  0.7818609E-02  0.8369637E-01
        2   -1    0    0  501    0  0.00000000000E+00  0.00000000000E+00  0.31772190712E+04  0.31772190712E+04  0.25500000920E-02 0. -1.
       -2   -1    0    0    0  501  0.00000000000E+00  0.00000000000E+00 -0.53018504677E+03  0.53018504678E+03  0.25500000920E-02 0.  1.
    10030    2    1    2    0    0  0.00000000000E+00  0.00000000000E+00  0.26470340245E+04  0.37074041180E+04  0.25957766020E+04 0.  0.
        5    1    3    3  502    0  0.51979118714E+03  0.10297568883E+04  0.21731843506E+04  0.24603525030E+04  0.46999998093E+01 0. -1.
       -5    1    3    3    0  502 -0.51979118714E+03 -0.10297568883E+04  0.47384967383E+03  0.12470516150E+04  0.46999998093E+01 0.  1.
</event>
<event>
 5   0  0.7160320E-07  0.2600749E+04  0.7818609E-02  0.8367947E-01
        2   -1    0    0  501    0  0.00000000000E+00  0.00000000000E+00  0.20571370202E+04  0.20571370202E+04  0.25500000920E-02 0. -1.
       -2   -1    0    0    0  501  0.00000000000E+00  0.00000000000E+00 -0.82200327583E+03  0.82200327583E+03  0.25500000920E-02 0.  1.
    10030    2    1    2    0    0  0.00000000000E+00  0.00000000000E+00  0.12351337444E+04  0.28791402961E+04  0.26007486380E+04 0.  0.
        1    1    3    3  502    0  0.74454673542E+03 -0.10232194685E+04  0.28610882444E+03  0.12973766536E+04  0.50400001928E-02 0.  1.
       -1    1    3    3    0  502 -0.74454673542E+03  0.10232194685E+04  0.94902491997E+03  0.15817636425E+04  0.50400001928E-02 0. -1.
</event>
<event>
 5   0  0.2755061E-07  0.2599942E+04  0.7818609E-02  0.8368221E-01
       -1   -1    0    0    0  501  0.00000000000E+00  0.00000000000E+00  0.81145798032E+03  0.81145798034E+03  0.50400001928E-02 0.  1.
        1   -1    0    0  501    0  0.00000000000E+00  0.00000000000E+00 -0.20825773181E+04  0.20825773181E+04  0.50400001928E-02 0. -1.
    10030    2    1    2    0    0  0.00000000000E+00  0.00000000000E+00 -0.12711193378E+04  0.28940352984E+04  0.25999415258E+04 0.  0.
        4    1    3    3  502    0 -0.10965621510E+04 -0.43928470722E+03 -0.12396264210E+04  0.17123360889E+04  0.12699999809E+01 0. -1.
       -4    1    3    3    0  502  0.10965621510E+04  0.43928470722E+03 -0.31492916784E+02  0.11816992095E+04  0.12699999809E+01 0.  1.
</event>
<event>
 5   0  0.2641626E-07  0.2601170E+04  0.7818609E-02  0.8367804E-01
        1   -1    0    0  501    0  0.00000000000E+00  0.00000000000E+00  0.14055923017E+04  0.14055923017E+04  0.50400001928E-02 0.  1.
       -1   -1    0    0    0  501  0.00000000000E+00  0.00000000000E+00 -0.12034226201E+04  0.12034226201E+04  0.50400001928E-02 0. -1.
    10030    2    1    2    0    0  0.00000000000E+00  0.00000000000E+00  0.20216968157E+03  0.26090149218E+04  0.26011701755E+04 0.  0.
        3    1    3    3  502    0  0.58492302648E+02 -0.12973597458E+04  0.17170955649E+03  0.13099800920E+04  0.10100000352E+00 0. -1.
       -3    1    3    3    0  502 -0.58492302648E+02  0.12973597458E+04  0.30460125082E+02  0.12990348298E+04  0.10100000352E+00 0.  1.
</event>
<event>
 5   0  0.6599814E-07  0.2599498E+04  0.7818609E-02  0.8368372E-01
       -2   -1    0    0    0  501  0.00000000000E+00  0.00000000000E+00  0.10409533166E+04  0.10409533166E+04  0.25500000920E-02 0.  1.
        2   -1    0    0  501    0  0.00000000000E+00  0.00000000000E+00 -0.16228855395E+04  0.16228855395E+04  0.25500000920E-02 0. -1.
    10030    2    1    2    0    0  0.00000000000E+00  0.00000000000E+00 -0.58193222290E+03  0.26638388560E+04  0.25994984783E+04 0.  0.
        5    1    3    3  502    0  0.45106476109E+03 -0.43332929305E+03 -0.14585044993E+04  0.15869754753E+04  0.46999998093E+01 0. -1.
       -5    1    3    3    0  502 -0.45106476109E+03  0.43332929305E+03  0.87657227639E+03  0.10768633807E+04  0.46999998093E+01 0.  1.
</event>
<event>
 5   0  0.2641626E-07  0.2598769E+04  0.7818609E-02  0.8368619E-01
        1   -1    0    0  501    0  0.00000000000E+00  0.00000000000E+00  0.12915279218E+04  0.12915279218E+04  0.50400001928E-02 0. -1.
       -1   -1    0    0    0  501  0.00000000000E+00  0.00000000000E+00 -0.13072889467E+04  0.13072889467E+04  0.50400001928E-02 0.  1.
    10030    2    1    2    0    0  0.00000000000E+00  0.00000000000E+00 -0.15761024904E+02  0.25988168686E+04  0.25987690753E+04 0.  0.
        3    1    3    3  502    0 -0.75421357671E+03 -0.92823750990E+03 -0.51576500695E+03  0.13024885975E+04  0.10100000352E+00 0.  1.
       -3    1    3    3    0  502  0.75421357671E+03  0.92823750990E+03  0.50000398204E+03  0.12963282711E+04  0.10100000352E+00 0. -1.
</event>
<event>
 5   0  0.2641626E-07  0.2601206E+04  0.7818609E-02  0.8367792E-01
       -1   -1    0    0    0  501  0.00000000000E+00  0.00000000000E+00  0.18482770242E+04  0.18482770242E+04  0.50400001928E-02 0. -1.
        1   -1    0    0  501    0  0.00000000000E+00  0.00000000000E+00 -0.91521365345E+03  0.91521365346E+03  0.50400001928E-02 0.  1.
    10030    2    1    2    0    0  0.00000000000E+00  0.00000000000E+00  0.93306337075E+03  0.27634906777E+04  0.26012061571E+04 0.  0.
        3    1    3    3  502    0 -0.11278986729E+04  0.50238024956E+03  0.90071847429E+03  0.15283439115E+04  0.10100000352E+00 0. -1.
       -3    1    3    3    0  502  0.11278986729E+04 -0.50238024956E+03  0.32344896467E+02  0.12351467662E+04  0.10100000352E+00 0.  1.
</event>
<event>
 5   0  0.6768478E-07  0.2601825E+04  0.7818609E-02  0.8367582E-01
        2   -1    0    0  501    0  0.00000000000E+00  0.00000000000E+00  0.67417243557E+03  0.67417243558E+03  0.25500000920E-02 0.  1.
       -2   -1    0    0    0  501  0.00000000000E+00  0.00000000000E+00 -0.25102965715E+04  0.25102965715E+04  0.25500000920E-02 0. -1.
    10030    2    1    2    0    0  0.00000000000E+00  0.00000000000E+00 -0.18361241359E+04  0.31844690071E+04  0.26018245549E+04 0.  0.
        4    1    3    3  502    0  0.11936432467E+04  0.26560791891E+03 -0.14613568420E+04  0.19054913277E+04  0.12699999809E+01 0. -1.
       -4    1    3    3    0  502 -0.11936432467E+04 -0.26560791891E+03 -0.37476729390E+03  0.12789776794E+04  0.12699999809E+01 0.  1.
</event>
<event>
 5   0  0.6780984E-07  0.2599947E+04  0.7818609E-02  0.8368219E-01
        2   -1    0    0  501    0  0.00000000000E+00  0.00000000000E+00  0.11291093189E+04  0.11291093189E+04  0.25500000920E-02 0. -1.
       -2   -1    0    0    0  501  0.00000000000E+00  0.00000000000E+00 -0.14966941897E+04  0.14966941897E+04  0.25500000920E-02 0.  1.
    10030    2    1    2    0    0  0.00000000000E+00  0.00000000000E+00 -0.36758487080E+03  0.26258035086E+04  0.25999471973E+04 0.  0.
        2    1    3    3  502    0 -0.58384652767E+03  0.11191589587E+04 -0.49758773031E+03  0.13568297948E+04  0.25500000920E-02 0.  1.
       -2    1    3    3    0  502  0.58384652767E+03 -0.11191589587E+04  0.13000285952E+03  0.12689737138E+04  0.25500000920E-02 0. -1.
</event>
<event>
 5   0  0.2793576E-07  0.2598043E+04  0.7818609E-02  0.8368866E-01
       -1   -1    0    0    0  501  0.00000000000E+00  0.00000000000E+00  0.77627982647E+03  0.77627982648E+03  0.50400001928E-02 0. -1.
        1   -1    0    0  501    0  0.00000000000E+00  0.00000000000E+00 -0.21737739642E+04  0.21737739642E+04  0.50400001928E-02 0.  1.
    10030    2    1    2    0    0  0.00000000000E+00  0.00000000000E+00 -0.13974941377E+04  0.29500537907E+04  0.25980430141E+04 0.  0.
        2    1    3    3  502    0 -0.13610794975E+03 -0.12586446064E+04 -0.36819392104E+03  0.13184378569E+04  0.25500000920E-02 0.  1.
       -2    1    3    3    0  502  0.13610794975E+03  0.12586446064E+04 -0.10293002167E+04  0.16316159337E+04  0.25500000920E-02 0. -1.
</event>
<event>
 5   0  0.6780984E-07  0.2604663E+04  0.7818609E-02  0.8366619E-01
       -2   -1    0    0    0  501  0.00000000000E+00  0.00000000000E+00  0.83090592632E+03  0.83090592632E+03  0.25500000920E-02 0. -1.
        2   -1    0    0  501    0  0.00000000000E+00  0.00000000000E+00 -0.20412265311E+04  0.20412265311E+04  0.25500000920E-02 0.  1.
    10030    2    1    2    0    0  0.00000000000E+00  0.00000000000E+00 -0.12103206048E+04  0.28721324575E+04  0.26046629123E+04 0.  0.
        2    1    3    3  502    0 -0.68901343637E+03  0.90324301380E+03  0.97002035457E+02  0.11401740448E+04  0.25500000920E-02 0. -1.
       -2    1    3    3    0  502  0.68901343637E+03 -0.90324301380E+03 -0.13073226403E+04  0.17319584127E+04  0.25500000920E-02 0.  1.
</event>
<event>
 5   0  0.2793576E-07  0.2600084E+04  0.7818609E-02  0.8368173E-01
       -1   -1    0    0    0  501  0.00000000000E+00  0.00000000000E+00  0.11396460588E+04  0.11396460588E+04  0.50400001928E-02 0.  1.
        1   -1    0    0  501    0  0.00000000000E+00  0.00000000000E+00 -0.14830123019E+04  0.14830123019E+04  0.50400001928E-02 0. -1.
    10030    2    1    2    0    0  0.00000000000E+00  0.00000000000E+00 -0.34336624309E+03  0.26226583607E+04  0.26000839409E+04 0.  0.
        2    1    3    3  502    0 -0.74027812223E+03 -0.49055794118E+03  0.78600754291E+03  0.11859454665E+04  0.25500000920E-02 0.  1.
       -2    1    3    3    0  502  0.74027812223E+03  0.49055794118E+03 -0.11293737860E+04  0.14367128942E+04  0.25500000920E-02 0. -1.
</event>
<event>
 5   0  0.2294625E-07  0.2598947E+04  0.7818609E-02  0.8368559E-01
        3   -1    0    0  501    0  0.00000000000E+00  0.00000000000E+00  0.11691352763E+04  0.11691352806E+04  0.10100000352E+00 0.  1.
       -3   -1    0    0    0  501  0.00000000000E+00  0.00000000000E+00 -0.14443418329E+04  0.14443418365E+04  0.10100000352E+00 0. -1.
    10030    2    1    2    0    0  0.00000000000E+00  0.00000000000E+00 -0.27520655665E+03  0.26134771171E+04  0.25989467083E+04 0.  0.
        5    1    3    3  502    0 -0.10987760178E+04 -0.20600965660E+03  0.52856572624E+03  0.12365890720E+04  0.46999998093E+01 0.  1.
       -5    1    3    3    0  502  0.10987760178E+04  0.20600965660E+03 -0.80377228289E+03  0.13768880451E+04  0.46999998093E+01 0. -1.
</event>
<event>
 5   0  0.2623263E-07  0.2599581E+04  0.7818609E-02  0.8368344E-01
       -1   -1    0    0    0  501  0.00000000000E+00  0.00000000000E+00  0.96230679270E+03  0.96230679271E+03  0.50400001928E-02 0. -1.
        1   -1    0    0  501    0  0.00000000000E+00  0.00000000000E+00 -0.17556300767E+04  0.17556300767E+04  0.50400001928E-02 0.  1.
    10030    2    1    2    0    0  0.00000000000E+00  0.00000000000E+00 -0.79332328400E+03  0.27179368694E+04  0.25995805418E+04 0.  0.
        1    1    3    3  502    0 -0.74492542106E+03 -0.87750447587E+03 -0.10279107759E+04  0.15432201889E+04  0.50400001928E-02 0.  1.
       -1    1    3    3    0  502  0.74492542106E+03  0.87750447587E+03  0.23458749192E+03  0.11747166805E+04  0.50400001928E-02 0. -1.
</event>
<event>
 5   0  0.6780984E-07  0.2599622E+04  0.7818609E-02  0.8368330E-01
       -2   -1    0    0    0  501  0.00000000000E+00  0.00000000000E+00  0.12177029962E+04  0.12177029962E+04  0.25500000920E-02 0. -1.
        2   -1    0    0  501    0  0.00000000000E+00  0.00000000000E+00 -0.13874553519E+04  0.13874553519E+04  0.25500000920E-02 0.  1.
    10030    2    1    2    0    0  0.00000000000E+00  0.00000000000E+00 -0.16975235569E+03  0.26051583482E+04  0.25996219257E+04 0.  0.
        2    1    3    3  502    0  0.53175721055E+03  0.54321977168E+03  0.97171982826E+03  0.12337312819E+04  0.25500000920E-02 0. -1.
       -2    1    3    3    0  502 -0.53175721055E+03 -0.54321977168E+03 -0.11414721840E+04  0.13714270663E+04  0.25500000920E-02 0.  1.
</event>
<event>
 5   0  0.6768478E-07  0.2600232E+04  0.7818609E-02  0.8368122E-01
        2   -1    0    0  501    0  0.00000000000E+00  0.00000000000E+00  0.18940240330E+04  0.18940240330E+04  0.25500000920E-02 0. -1.
       -2   -1    0    0    0  501  0.00000000000E+00  0.00000000000E+00 -0.89243948501E+03  0.89243948502E+03  0.25500000920E-02 0.  1.
    10030    2    1    2    0    0  0.00000000000E+00  0.00000000000E+00  0.10015845480E+04  0.27864635180E+04  0.26002321686E+04 0.  0.
        4    1    3    3  502    0  0.78708487621E+03  0.68252372259E+03 -0.33270503193E+03  0.10936340729E+04  0.12699999809E+01 0.  1.
       -4    1    3    3    0  502 -0.78708487621E+03 -0.68252372259E+03  0.13342895799E+04  0.16928294451E+04  0.12699999809E+01 0. -1.
</event>
<event>
 5   0  0.7160320E-07  0.2598217E+04  0.7818609E-02  0.8368807E-01
        2   -1    0    0  501    0  0.00000000000E+00  0.00000000000E+00  0.11367326555E+04  0.11367326555E+04  0.25500000920E-02 0.  1.
       -2   -1    0    0    0  501  0.00000000000E+00  0.00000000000E+00 -0.14846785320E+04  0.14846785320E+04  0.25500000920E-02 0. -1.
    10030    2    1    2    0    0  0.00000000000E+00  0.00000000000E+00 -0.34794587649E+03  0.26214111875E+04  0.25982167502E+04 0.  0.
        1    1    3    3  502    0 -0.57322048925E+03  0.55132803578E+03  0.86239615115E+03  0.11731459644E+04  0.50400001928E-02 0.  1.
       -1    1    3    3    0  502  0.57322048925E+03 -0.55132803578E+03 -0.12103420276E+04  0.14482652230E+04  0.50400001928E-02 0. -1.
</event>
<event>
 5   0  0.7160320E-07  0.2600312E+04  0.7818609E-02  0.8368095E-01
       -2   -1    0    0    0  501  0.00000000000E+00  0.00000000000E+00  0.14674223888E+04  0.14674223888E+04  0.25500000920E-02 0. -1.
        2   -1    0    0  501    0  0.00000000000E+00  0.00000000000E+00 -0.11519560825E+04  0.11519560825E+04  0.25500000920E-02 0.  1.
    10030    2    1    2    0    0  0.00000000000E+00  0.00000000000E+00  0.31546630627E+03  0.26193784713E+04  0.26003124015E+04 0.  0.
        1    1    3    3  502    0 -0.74121154815E+03  0.65676616615E+03  0.10063289681E+04  0.14118903456E+04  0.50400001928E-02 0. -1.
       -1    1    3    3    0  502  0.74121154815E+03 -0.65676616615E+03 -0.69086266179E+03  0.12074881257E+04  0.50400001928E-02 0.  1.
</event>
<event>
 5   0  0.2793576E-07  0.2599948E+04  0.7818609E-02  0.8368219E-01
        1   -1    0    0  501    0  0.00000000000E+00  0.00000000000E+00  0.18376291724E+04  0.18376291724E+04  0.50400001928E-02 0. -1.
       -1   -1    0    0    0  501  0.00000000000E+00  0.00000000000E+00 -0.91962665590E+03  0.91962665591E+03  0.50400001928E-02 0.  1.
    10030    2    1    2    0    0  0.00000000000E+00  0.00000000000E+00  0.91800251649E+03  0.27572558283E+04  0.25999482846E+04 0.  0.
        2    1    3    3  502    0 -0.97312555874E+03  0.75044324936E+03  0.90867794282E+03  0.15283435567E+04  0.25500000920E-02 0. -1.
       -2    1    3    3    0  502  0.97312555874E+03 -0.75044324936E+03  0.93245736742E+01  0.12289122716E+04  0.25500000920E-02 0.  1.
</event>
<event>
 5   0  0.2294625E-07  0.2598959E+04  0.7818609E-02  0.8368555E-01
        4   -1    0    0  501    0  0.00000000000E+00  0.00000000000E+00  0.96286746987E+03  0.96286830742E+03  0.12699999809E+01 0. -1.
       -4   -1    0    0    0  501  0.00000000000E+00  0.00000000000E+00 -0.17537673074E+04  0.17537677672E+04  0.12699999809E+01 0.  1.
    10030    2    1    2    0    0  0.00000000000E+00  0.00000000000E+00 -0.79089983749E+03  0.27166360746E+04  0.25989592165E+04 0.  0.
        3    1    3    3  502    0 -0.58584850849E+03  0.99275018964E+03 -0.10225088206E+04  0.15408749827E+04  0.10100000352E+00 0.  1.
       -3    1    3    3    0  502  0.58584850849E+03 -0.99275018964E+03  0.23160898314E+03  0.11757610919E+04  0.10100000352E+00 0. -1.
</event>
<event>
 5   0  0.7160320E-07  0.2600379E+04  0.7818609E-02  0.8368072E-01
       -2   -1    0    0    0  501  0.00000000000E+00  0.00000000000E+00  0.14961895817E+04  0.14961895817E+04  0.25500000920E-02 0.  1.
        2   -1    0    0  501    0  0.00000000000E+00  0.00000000000E+00 -0.11298654776E+04  0.11298654776E+04  0.25500000920E-02 0. -1.
    10030    2    1    2    0    0  0.00000000000E+00  0.00000000000E+00  0.36632410411E+03  0.26260550593E+04  0.26003791695E+04 0.  0.
        1    1    3    3  502    0 -0.10070198967E+04 -0.44949733743E+03 -0.51237354333E+03  0.12160031154E+04  0.50400001928E-02 0. -1.
       -1    1    3    3    0  502  0.10070198967E+04  0.44949733743E+03  0.87869764744E+03  0.14100519439E+04  0.50400001928E-02 0.  1.
</event>
<event>
 5   0  0.6599814E-07  0.2599927E+04  0.7818609E-02  0.8368226E-01
        2   -1    0    0  501    0  0.00000000000E+00  0.00000000000E+00  0.10294180852E+04  0.10294180852E+04  0.25500000920E-02 0.  1.
       -2   -1    0    0    0  501  0.00000000000E+00  0.00000000000E+00 -0.16416115354E+04  0.16416115354E+04  0.25500000920E-02 0. -1.
    10030    2    1    2    0    0  0.00000000000E+00  0.00000000000E+00 -0.61219345022E+03  0.26710296207E+04  0.25999266171E+04 0.  0.
        5    1    3    3  502    0  0.86255530869E+03  0.53869810352E+03  0.52579213099E+03  0.11448479210E+04  0.46999998093E+01 0.  1.
       -5    1    3    3    0  502 -0.86255530869E+03 -0.53869810352E+03 -0.11379855812E+04  0.15261816996E+04  0.46999998093E+01 0. -1.
</event>
<event>
 5   0  0.6768478E-07  0.2598724E+04  0.7818609E-02  0.8368635E-01
        2   -1    0    0  501    0  0.00000000000E+00  0.00000000000E+00  0.14143703784E+04  0.14143703784E+04  0.25500000920E-02 0. -1.
       -2   -1    0    0    0  501  0.00000000000E+00  0.00000000000E+00 -0.11937057490E+04  0.11937057490E+04  0.25500000920E-02 0.  1.
    10030    2    1    2    0    0  0.00000000000E+00  0.00000000000E+00  0.22066462940E+03  0.26080761273E+04  0.25987243423E+04 0.  0.
        4    1    3    3  502    0 -0.12673500722E+04  0.38744998815E+02 -0.17470216080E+03  0.12799218094E+04  0.12699999809E+01 0.  1.
       -4    1    3    3    0  502  0.12673500722E+04 -0.38744998815E+02  0.39536679020E+03  0.13281543179E+04  0.12699999809E+01 0. -1.
</event>
<event>
 5   0  0.2623263E-07  0.2600860E+04  0.7818609E-02  0.8367909E-01
        1   -1    0    0  501    0  0.00000000000E+00  0.00000000000E+00  0.20499452138E+04  0.20499452138E+04  0.50400001928E-02 0. -1.
       -1   -1    0    0    0  501  0.00000000000E+00  0.00000000000E+00 -0.82495806129E+03  0.82495806130E+03  0.50400001928E-02 0.  1.
    10030    2    1    2    0    0  0.00000000000E+00  0.00000000000E+00  0.12249871525E+04  0.28749032751E+04  0.26008604956E+04 0.  0.
        1    1    3    3  502    0 -0.16092945548E+03  0.21779060081E+03  0.20184341249E+04  0.20365184390E+04  0.50400001928E-02 0. -1.
       -1    1    3    3    0  502  0.16092945548E+03 -0.21779060081E+03 -0.79344697242E+03  0.83838483616E+03  0.50400001928E-02 0.  1.
</event>
<event>
 5   0  0.6526351E-07  0.2591266E+04  0.7818609E-02  0.8371174E-01
       -2   -1    0    0    0  501  0.00000000000E+00  0.00000000000E+00  0.11221124692E+04  0.11221124692E+04  0.25500000920E-02 0. -1.
        2   -1    0    0  501    0  0.00000000000E+00  0.00000000000E+00 -0.14959859305E+04  0.14959859305E+04  0.25500000920E-02 0.  1.
    10030    2    1    2    0    0  0.00000000000E+00  0.00000000000E+00 -0.37387346136E+03  0.26180983997E+04  0.25912656879E+04 0.  0.
        3    1    3    3  502    0 -0.82872574905E+03 -0.58029827698E+03  0.63084692597E+03  0.11922668794E+04  0.10100000352E+00 0. -1.
       -3    1    3    3    0  502  0.82872574905E+03  0.58029827698E+03 -0.10047203873E+04  0.14258315203E+04  0.10100000352E+00 0.  1.
</event>
<event>
 5   0  0.7160320E-07  0.2600937E+04  0.7818609E-02  0.8367883E-01
       -2   -1    0    0    0  501  0.00000000000E+00  0.00000000000E+00  0.14128403511E+04  0.14128403511E+04  0.25500000920E-02 0. -1.
        2   -1    0    0  501    0  0.00000000000E+00  0.00000000000E+00 -0.11970339703E+04  0.11970339703E+04  0.25500000920E-02 0.  1.
    10030    2    1    2    0    0  0.00000000000E+00  0.00000000000E+00  0.21580638076E+03  0.26098743215E+04  0.26009366735E+04 0.  0.
        1    1    3    3  502    0  0.55481333586E+03 -0.11757349451E+04  0.75428479695E+02  0.13022518782E+04  0.50400001928E-02 0.  1.
       -1    1    3    3    0  502 -0.55481333586E+03  0.11757349451E+04  0.14037790107E+03  0.13076224432E+04  0.50400001928E-02 0. -1.
</event>
<event>
 5   0  0.2755061E-07  0.2599825E+04  0.7818609E-02  0.8368261E-01
        1   -1    0    0  501    0  0.00000000000E+00  0.00000000000E+00  0.19380636301E+04  0.19380636301E+04  0.50400001928E-02 0.  1.
       -1   -1    0    0    0  501  0.00000000000E+00  0.00000000000E+00 -0.87188717504E+03  0.87188717506E+03  0.50400001928E-02 0. -1.
    10030    2    1    2    0    0  0.00000000000E+00  0.00000000000E+00  0.10661764550E+04  0.28099508051E+04  0.25998252430E+04 0.  0.
        4    1    3    3  502    0  0.92040228979E+03 -0.49115865952E+03  0.13712620795E+04  0.17230027590E+04  0.12699999809E+01 0.  1.
       -4    1    3    3    0  502 -0.92040228979E+03  0.49115865952E+03 -0.30508562448E+03  0.10869480461E+04  0.12699999809E+01 0. -1.
</event>
<event>
 5   0  0.6526351E-07  0.2601374E+04  0.7818609E-02  0.8367735E-01
       -2   -1    0    0    0  501  0.00000000000E+00  0.00000000000E+00  0.63701464069E+03  0.63701464069E+03  0.25500000920E-02 0.  1.
        2   -1    0    0  501    0  0.00000000000E+00  0.00000000000E+00 -0.26558049844E+04  0.26558049844E+04  0.25500000920E-02 0. -1.
    10030    2    1    2    0    0  0.00000000000E+00  0.00000000000E+00 -0.20187903437E+04  0.32928196251E+04  0.26013739892E+04 0.  0.
        3    1    3    3  502    0  0.12047056703E+04  0.49036056622E+03 -0.10041134729E+04  0.16431716628E+04  0.10100000352E+00 0.  1.
       -3    1    3    3    0  502 -0.12047056703E+04 -0.49036056622E+03 -0.10146768709E+04  0.16496479623E+04  0.10100000352E+00 0. -1.
</event>
<event>
 5   0  0.7160320E-07  0.2598809E+04  0.7818609E-02  0.8368606E-01
       -2   -1    0    0    0  501  0.00000000000E+00  0.00000000000E+00  0.14275111137E+04  0.14275111137E+04  0.25500000920E-02 0. -1.
        2   -1    0    0  501    0  0.00000000000E+00  0.00000000000E+00 -0.11827943581E+04  0.11827943581E+04  0.25500000920E-02 0.  1.
    10030    2    1    2    0    0  0.00000000000E+00  0.00000000000E+00  0.24471675568E+03  0.26103054718E+04  0.25988090283E+04 0.  0.
        1    1    3    3  502    0  0.10213689170E+03 -0.11895073890E+04  0.63755267935E+03  0.13534523236E+04  0.50400001928E-02 0. -1.
       -1    1    3    3    0  502 -0.10213689170E+03  0.11895073890E+04 -0.39283592367E+03  0.12568531482E+04  0.50400001928E-02 0.  1.
</event>
<event>
 5   0  0.2793576E-07  0.2600150E+04  0.7818609E-02  0.8368150E-01
       -1   -1    0    0    0  501  0.00000000000E+00  0.00000000000E+00  0.82995537456E+03  0.82995537458E+03  0.50400001928E-02 0.  1.
        1   -1    0    0  501    0  0.00000000000E+00  0.00000000000E+00 -0.20364890039E+04  0.20364890039E+04  0.50400001928E-02 0. -1.
    10030    2    1    2    0    0  0.00000000000E+00  0.00000000000E+00 -0.12065336293E+04  0.28664443784E+04  0.26001499911E+04 0.  0.
        2    1    3    3  502    0 -0.62645940800E+03  0.86415901990E+03  0.21502874497E+03  0.10887881165E+04  0.25500000920E-02 0.  1.
       -2    1    3    3    0  502  0.62645940800E+03 -0.86415901990E+03 -0.14215623743E+04  0.17776562619E+04  0.25500000920E-02 0. -1.
</event>
<event>
 5   0  0.6599814E-07  0.2587279E+04  0.7818609E-02  0.8372535E-01
       -2   -1    0    0    0  501  0.00000000000E+00  0.00000000000E+00  0.62457484644E+03  0.62457484645E+03  0.25500000920E-02 0.  1.
        2   -1    0    0  501    0  0.00000000000E+00  0.00000000000E+00 -0.26794277329E+04  0.26794277329E+04  0.25500000920E-02 0. -1.
    10030    2    1    2    0    0  0.00000000000E+00  0.00000000000E+00 -0.20548528865E+04  0.33040025794E+04  0.25872790069E+04 0.  0.
        5    1    3    3  502    0 -0.72607693982E+03  0.66697712745E+02  0.33715872329E+03  0.80332708289E+03  0.46999998093E+01 0.  1.
       -5    1    3    3    0  502  0.72607693982E+03 -0.66697712745E+02 -0.23920116098E+04  0.25006754965E+04  0.46999998093E+01 0. -1.
</event>
<event>
 5   0  0.2623263E-07  0.2599568E+04  0.7818609E-02  0.8368348E-01
        1   -1    0    0  501    0  0.00000000000E+00  0.00000000000E+00  0.18432229376E+04  0.18432229376E+04  0.50400001928E-02 0.  1.
       -1   -1    0    0    0  501  0.00000000000E+00  0.00000000000E+00 -0.91656786787E+03  0.91656786789E+03  0.50400001928E-02 0. -1.
    10030    2    1    2    0    0  0.00000000000E+00  0.00000000000E+00  0.92665506972E+03  0.27597908055E+04  0.25995683626E+04 0.  0.
        1    1    3    3  502    0  0.12968206789E+04  0.58885141744E+02  0.53235486719E+03  0.14030727129E+04  0.50400001928E-02 0. -1.
       -1    1    3    3    0  502 -0.12968206789E+04 -0.58885141744E+02  0.39430020253E+03  0.13567180926E+04  0.50400001928E-02 0.  1.
</event>
<event>
 5   0  0.7160320E-07  0.2601108E+04  0.7818609E-02  0.8367825E-01
       -2   -1    0    0    0  501  0.00000000000E+00  0.00000000000E+00  0.17667451298E+04  0.17667451298E+04  0.25500000920E-02 0. -1.
        2   -1    0    0  501    0  0.00000000000E+00  0.00000000000E+00 -0.95737646638E+03  0.95737646639E+03  0.25500000920E-02 0.  1.
    10030    2    1    2    0    0  0.00000000000E+00  0.00000000000E+00  0.80936866342E+03  0.27241215962E+04  0.26011076174E+04 0.  0.
        1    1    3    3  502    0  0.67406101600E+03 -0.60452932633E+03 -0.57307803749E+03  0.10715560633E+04  0.50400001928E-02 0.  1.
       -1    1    3    3    0  502 -0.67406101600E+03  0.60452932633E+03  0.13824467009E+04  0.16525655329E+04  0.50400001928E-02 0. -1.
</event>
<event>
 5   0  0.6780984E-07  0.2600703E+04  0.7818609E-02  0.8367963E-01
       -2   -1    0    0    0  501  0.00000000000E+00  0.00000000000E+00  0.92757377887E+03  0.92757377887E+03  0.25500000920E-02 0.  1.
        2   -1    0    0  501    0  0.00000000000E+00  0.00000000000E+00 -0.18229424068E+04  0.18229424068E+04  0.25500000920E-02 0. -1.
    10030    2    1    2    0    0  0.00000000000E+00  0.00000000000E+00 -0.89536862792E+03  0.27505161857E+04  0.26007026565E+04 0.  0.
        2    1    3    3  502    0  0.47419834289E+03  0.68675743965E+03  0.60696253432E+03  0.10319415523E+04  0.25500000920E-02 0.  1.
       -2    1    3    3    0  502 -0.47419834289E+03 -0.68675743965E+03 -0.15023311622E+04  0.17185746333E+04  0.25500000920E-02 0. -1.
</event>
<event>
 5   0  0.2864801E-07  0.2600307E+04  0.7818609E-02  0.8368097E-01
        1   -1    0    0  501    0  0.00000000000E+00  0.00000000000E+00  0.12055447999E+04  0.12055447999E+04  0.50400001928E-02 0. -1.
       -1   -1    0    0    0  501  0.00000000000E+00  0.00000000000E+00 -0.14021874206E+04  0.14021874206E+04  0.50400001928E-02 0.  1.
    10030    2    1    2    0    0  0.00000000000E+00  0.00000000000E+00 -0.19664262066E+03  0.26077322205E+04  0.26003074844E+04 0.  0.
        5    1    3    3  502    0  0.11671340018E+04  0.56210642615E+03  0.12503282312E+02  0.12955091025E+04  0.46999998093E+01 0.  1.
       -5    1    3    3    0  502 -0.11671340018E+04 -0.56210642615E+03 -0.20914590298E+03  0.13122231180E+04  0.46999998093E+01 0. -1.
</event>
<event>
 5   0  0.2641626E-07  0.2600030E+04  0.7818609E-02  0.8368191E-01
        1   -1    0    0  501    0  0.00000000000E+00  0.00000000000E+00  0.21542240902E+04  0.21542240902E+04  0.50400001928E-02 0.  1.
       -1   -1    0    0    0  501  0.00000000000E+00  0.00000000000E+00 -0.78452349765E+03  0.78452349767E+03  0.50400001928E-02 0. -1.
    10030    2    1    2    0    0  0.00000000000E+00  0.00000000000E+00  0.13697005926E+04  0.29387475879E+04  0.26000303214E+04 0.  0.
        3    1    3    3  502    0  0.11881974185E+04 -0.17518012166E+03  0.12250248212E+03  0.12072729802E+04  0.10100000352E+00 0. -1.
       -3    1    3    3    0  502 -0.11881974185E+04  0.17518012166E+03  0.12471981105E+04  0.17314746077E+04  0.10100000352E+00 0.  1.
</event>
<event>
 5   0  0.6526351E-07  0.2597652E+04  0.7818609E-02  0.8368999E-01
        2   -1    0    0  501    0  0.00000000000E+00  0.00000000000E+00  0.98399687776E+03  0.98399687776E+03  0.25500000920E-02 0.  1.
       -2   -1    0    0    0  501  0.00000000000E+00  0.00000000000E+00 -0.17143845706E+04  0.17143845706E+04  0.25500000920E-02 0. -1.
    10030    2    1    2    0    0  0.00000000000E+00  0.00000000000E+00 -0.73038769284E+03  0.26983814484E+04  0.25976520666E+04 0.  0.
        3    1    3    3  502    0  0.12643765450E+04 -0.23031344006E+03 -0.56024267840E+03  0.14019858049E+04  0.10100000352E+00 0. -1.
       -3    1    3    3    0  502 -0.12643765450E+04  0.23031344006E+03 -0.17014501444E+03  0.12963956435E+04  0.10100000352E+00 0.  1.
</event>
<event>
 5   0  0.6599814E-07  0.2597905E+04  0.7818609E-02  0.8368913E-01
        2   -1    0    0  501    0  0.00000000000E+00  0.00000000000E+00  0.16412622341E+04  0.16412622341E+04  0.25500000920E-02 0.  1.
       -2   -1    0    0    0  501  0.00000000000E+00  0.00000000000E+00 -0.10280361968E+04  0.10280361968E+04  0.25500000920E-02 0. -1.
    10030    2    1    2    0    0  0.00000000000E+00  0.00000000000E+00  0.61322603726E+03  0.26692984309E+04  0.25979045288E+04 0.  0.
        5    1    3    3  502    0 -0.37758962618E+03 -0.75199954321E+03  0.13233408025E+04  0.15682251778E+04  0.46999998093E+01 0.  1.
       -5    1    3    3    0  502  0.37758962618E+03  0.75199954321E+03 -0.71011476527E+03  0.11010732531E+04  0.46999998093E+01 0. -1.
</event>
<event>
 5   0  0.2864801E-07  0.2601545E+04  0.7818609E-02  0.8367677E-01
       -1   -1    0    0    0  501  0.00000000000E+00  0.00000000000E+00  0.11400420007E+04  0.11400420008E+04  0.50400001928E-02 0. -1.
        1   -1    0    0  501    0  0.00000000000E+00  0.00000000000E+00 -0.14841640504E+04  0.14841640504E+04  0.50400001928E-02 0.  1.
    10030    2    1    2    0    0  0.00000000000E+00  0.00000000000E+00 -0.34412204961E+03  0.26242060511E+04  0.26015451973E+04 0.  0.
        5    1    3    3  502    0  0.10104755608E+04 -0.12720152779E+03  0.64415110096E+03  0.12050700471E+04  0.46999998093E+01 0. -1.
       -5    1    3    3    0  502 -0.10104755608E+04  0.12720152779E+03 -0.98827315057E+03  0.14191360040E+04  0.46999998093E+01 0.  1.
</event>
<event>
 5   0  0.7160320E-07  0.2600105E+04  0.7818609E-02  0.8368166E-01
        2   -1    0    0  501    0  0.00000000000E+00  0.00000000000E+00  0.28882496368E+04  0.28882496368E+04  0.25500000920E-02 0.  1.
       -2   -1    0    0    0  501  0.00000000000E+00  0.00000000000E+00 -0.58517658196E+03  0.58517658197E+03  0.25500000920E-02 0. -1.
    10030    2    1    2    0    0  0.00000000000E+00  0.00000000000E+00  0.23030730549E+04  0.34734262188E+04  0.26001046520E+04 0.  0.
        1    1    3    3  502    0  0.75788141660E+03 -0.10978425411E+03 -0.25189949311E+03  0.80615766370E+03  0.50400001928E-02 0. -1.
       -1    1    3    3    0  502 -0.75788141660E+03  0.10978425411E+03  0.25549725480E+04  0.26672685551E+04  0.50400001928E-02 0.  1.
</event>
<event>
 5   0  0.2623263E-07  0.2599577E+04  0.7818609E-02  0.8368345E-01
        1   -1    0    0  501    0  0.00000000000E+00  0.00000000000E+00  0.16389821811E+04  0.16389821811E+04  0.50400001928E-02 0.  1.
       -1   -1    0    0    0  501  0.00000000000E+00  0.00000000000E+00 -0.10307924315E+04  0.10307924315E+04  0.50400001928E-02 0. -1.
    10030    2    1    2    0    0  0.00000000000E+00  0.00000000000E+00  0.60818974964E+03  0.26697746126E+04  0.25995772176E+04 0.  0.
        1    1    3    3  502    0 -0.11148118687E+04  0.46006890571E+03 -0.19374392108E+03  0.12214768142E+04  0.50400001928E-02 0. -1.
       -1    1    3    3    0  502  0.11148118687E+04 -0.46006890571E+03  0.80193367073E+03  0.14482977984E+04  0.50400001928E-02 0.  1.
</event>
<event>
 5   0  0.6526351E-07  0.2600849E+04  0.7818609E-02  0.8367913E-01
       -2   -1    0    0    0  501  0.00000000000E+00  0.00000000000E+00  0.13189584374E+04  0.13189584374E+04  0.25500000920E-02 0. -1.
        2   -1    0    0  501    0  0.00000000000E+00  0.00000000000E+00 -0.12821505190E+04  0.12821505190E+04  0.25500000920E-02 0.  1.
    10030    2    1    2    0    0  0.00000000000E+00  0.00000000000E+00  0.36807918437E+02  0.26011089564E+04  0.26008485116E+04 0.  0.
        3    1    3    3  502    0 -0.58304686910E+03 -0.72196218216E+03  0.92950023014E+03  0.13134472704E+04  0.10100000352E+00 0. -1.
       -3    1    3    3    0  502  0.58304686910E+03  0.72196218216E+03 -0.89269231170E+03  0.12876616860E+04  0.10100000352E+00 0.  1.
</event>
<event>
 5   0  0.6768478E-07  0.2600542E+04  0.7818609E-02  0.8368017E-01
        2   -1    0    0  501    0  0.00000000000E+00  0.00000000000E+00  0.18676812822E+04  0.18676812822E+04  0.25500000920E-02 0. -1.
       -2   -1    0    0    0  501  0.00000000000E+00  0.00000000000E+00 -0.90524282747E+03  0.90524282747E+03  0.25500000920E-02 0.  1.
    10030    2    1    2    0    0  0.00000000000E+00  0.00000000000E+00  0.96243845469E+03  0.27729241096E+04  0.26005423163E+04 0.  0.
        4    1    3    3  502    0 -0.12899892778E+04 -0.12775467200E+03  0.37295104698E+03  0.13488838680E+04  0.12699999809E+01 0.  1.
       -4    1    3    3    0  502  0.12899892778E+04  0.12775467200E+03  0.58948740770E+03  0.14240402416E+04  0.12699999809E+01 0. -1.
</event>
<event>
 5   0  0.6780984E-07  0.2599308E+04  0.7818609E-02  0.8368436E-01
        2   -1    0    0  501    0  0.00000000000E+00  0.00000000000E+00  0.18680874764E+04  0.18680874764E+04  0.25500000920E-02 0.  1.
       -2   -1    0    0    0  501  0.00000000000E+00  0.00000000000E+00 -0.90418687343E+03  0.90418687343E+03  0.25500000920E-02 0. -1.
    10030    2    1    2    0    0  0.00000000000E+00  0.00000000000E+00  0.96390060293E+03  0.27722743498E+04  0.25993077344E+04 0.  0.
        2    1    3    3  502    0  0.60540944032E+03  0.15609207023E+03  0.16971615864E+04  0.18086577275E+04  0.25500000920E-02 0.  1.
       -2    1    3    3    0  502 -0.60540944032E+03 -0.15609207023E+03 -0.73326098349E+03  0.96361662228E+03  0.25500000920E-02 0. -1.
</event>
<event>
 5   0  0.6780984E-07  0.2599404E+04  0.7818609E-02  0.8368404E-01
       -2   -1    0    0    0  501  0.00000000000E+00  0.00000000000E+00  0.87986670471E+03  0.87986670472E+03  0.25500000920E-02 0.  1.
        2   -1    0    0  501    0  0.00000000000E+00  0.00000000000E+00 -0.19198645367E+04  0.19198645367E+04  0.25500000920E-02 0. -1.
    10030    2    1    2    0    0  0.00000000000E+00  0.00000000000E+00 -0.10399978320E+04  0.27997312414E+04  0.25994036881E+04 0.  0.
        2    1    3    3  502    0  0.11178849359E+04 -0.27659075597E+03  0.12897799631E+03  0.11587944165E+04  0.25500000920E-02 0.  1.
       -2    1    3    3    0  502 -0.11178849359E+04  0.27659075597E+03 -0.11689758283E+04  0.16409368249E+04  0.25500000920E-02 0. -1.
</event>
<event>
 5   0  0.7160320E-07  0.2600976E+04  0.7818609E-02  0.8367870E-01
        2   -1    0    0  501    0  0.00000000000E+00  0.00000000000E+00  0.14173527747E+04  0.14173527747E+04  0.25500000920E-02 0.  1.
       -2   -1    0    0    0  501  0.00000000000E+00  0.00000000000E+00 -0.11932589667E+04  0.11932589667E+04  0.25500000920E-02 0. -1.
    10030    2    1    2    0    0  0.00000000000E+00  0.00000000000E+00  0.22409380807E+03  0.26106117414E+04  0.26009758995E+04 0.  0.
        1    1    3    3  502    0  0.76252019436E+02  0.87917234346E+03 -0.84674619747E+03  0.12230034763E+04  0.50400001928E-02 0. -1.
       -1    1    3    3    0  502 -0.76252019436E+02 -0.87917234346E+03  0.10708400055E+04  0.13876082651E+04  0.50400001928E-02 0.  1.
</event>
<event>
 5   0  0.2864801E-07  0.2599145E+04  0.7818609E-02  0.8368492E-01
        1   -1    0    0  501    0  0.00000000000E+00  0.00000000000E+00  0.14051150921E+04  0.14051150921E+04  0.50400001928E-02 0.  1.
       -1   -1    0    0    0  501  0.00000000000E+00  0.00000000000E+00 -0.12019573259E+04  0.12019573259E+04  0.50400001928E-02 0. -1.
    10030    2    1    2    0    0  0.00000000000E+00  0.00000000000E+00  0.20315776626E+03  0.26070724180E+04  0.25991447660E+04 0.  0.
        5    1    3    3  502    0  0.16764871118E+03 -0.10331140722E+04  0.87427617737E+03  0.13637491341E+04  0.46999998093E+01 0.  1.
       -5    1    3    3    0  502 -0.16764871118E+03  0.10331140722E+04 -0.67111841111E+03  0.12433232839E+04  0.46999998093E+01 0. -1.
</event>
<event>
 5   0  0.2623263E-07  0.2595761E+04  0.7818609E-02  0.8369643E-01
       -1   -1    0    0    0  501  0.00000000000E+00  0.00000000000E+00  0.17456830869E+04  0.17456830869E+04  0.50400001928E-02 0.  1.
        1   -1    0    0  501    0  0.00000000000E+00  0.00000000000E+00 -0.96494786424E+03  0.96494786425E+03  0.50400001928E-02 0. -1.
    10030    2    1    2    0    0  0.00000000000E+00  0.00000000000E+00  0.78073522262E+03  0.27106309511E+04  0.25957605177E+04 0.  0.
        1    1    3    3  502    0  0.84762823698E+02  0.41357233956E+03  0.16719798842E+04  0.17244545658E+04  0.50400001928E-02 0.  1.
       -1    1    3    3    0  502 -0.84762823698E+02 -0.41357233956E+03 -0.89124466153E+03  0.98617638537E+03  0.50400001928E-02 0. -1.
</event>
<event>
 5   0  0.7160320E-07  0.2600263E+04  0.7818609E-02  0.8368112E-01
       -2   -1    0    0    0  501  0.00000000000E+00  0.00000000000E+00  0.12068631728E+04  0.12068631728E+04  0.25500000920E-02 0.  1.
        2   -1    0    0  501    0  0.00000000000E+00  0.00000000000E+00 -0.14006081957E+04  0.14006081957E+04  0.25500000920E-02 0. -1.
    10030    2    1    2    0    0  0.00000000000E+00  0.00000000000E+00 -0.19374502293E+03  0.26074713685E+04  0.26002634104E+04 0.  0.
        1    1    3    3  502    0  0.82168126009E+03 -0.39963491956E+03 -0.10243549264E+04  0.13726511492E+04  0.50400001928E-02 0. -1.
       -1    1    3    3    0  502 -0.82168126009E+03  0.39963491956E+03  0.83060990352E+03  0.12348202193E+04  0.50400001928E-02 0.  1.
</event>
<event>
 5   0  0.2793576E-07  0.2600160E+04  0.7818609E-02  0.8368147E-01
       -1   -1    0    0    0  501  0.00000000000E+00  0.00000000000E+00  0.15897458613E+04  0.15897458613E+04  0.50400001928E-02 0.  1.
        1   -1    0    0  501    0  0.00000000000E+00  0.00000000000E+00 -0.10631938039E+04  0.10631938039E+04  0.50400001928E-02 0. -1.
    10030    2    1    2    0    0  0.00000000000E+00  0.00000000000E+00  0.52655205741E+03  0.26529396651E+04  0.26001599562E+04 0.  0.
        2    1    3    3  502    0 -0.79811562694E+03  0.83617620685E+03 -0.34380487392E+03  0.12059771947E+04  0.25500000920E-02 0. -1.
       -2    1    3    3    0  502  0.79811562694E+03 -0.83617620685E+03  0.87035693133E+03  0.14469624704E+04  0.25500000920E-02 0.  1.
</event>
<event>
 5   0  0.2641626E-07  0.2614926E+04  0.7818609E-02  0.8363149E-01
       -1   -1    0    0    0  501  0.00000000000E+00  0.00000000000E+00  0.18463636959E+04  0.18463636959E+04  0.50400001928E-02 0. -1.
        1   -1    0    0  501    0  0.00000000000E+00  0.00000000000E+00 -0.92585211431E+03  0.92585211432E+03  0.50400001928E-02 0.  1.
    10030    2    1    2    0    0  0.00000000000E+00  0.00000000000E+00  0.92051158157E+03  0.27722158102E+04  0.26149261799E+04 0.  0.
        3    1    3    3  502    0  0.13547012369E+03  0.12452713140E+04  0.63007660841E+02  0.12542020473E+04  0.10100000352E+00 0.  1.
       -3    1    3    3    0  502 -0.13547012369E+03 -0.12452713140E+04  0.85750392073E+03  0.15180137629E+04  0.10100000352E+00 0. -1.
</event>
<event>
 5   0  0.2755061E-07  0.2599664E+04  0.7818609E-02  0.8368315E-01
        1   -1    0    0  501    0  0.00000000000E+00  0.00000000000E+00  0.23579466449E+04  0.23579466449E+04  0.50400001928E-02 0.  1.
       -1   -1    0    0    0  501  0.00000000000E+00  0.00000000000E+00 -0.71653997939E+03  0.71653997941E+03  0.50400001928E-02 0. -1.
    10030    2    1    2    0    0  0.00000000000E+00  0.00000000000E+00  0.16414066656E+04  0.30744866244E+04  0.25996638555E+04 0.  0.
        4    1    3    3  502    0 -0.27152417443E+03  0.90760252055E+03  0.18732556595E+04  0.20991798616E+04  0.12699999809E+01 0.  1.
       -4    1    3    3    0  502  0.27152417443E+03 -0.90760252055E+03 -0.23184899394E+03  0.97530676276E+03  0.12699999809E+01 0. -1.
</event>
<event>
 5   0  0.7160320E-07  0.2600062E+04  0.7818609E-02  0.8368180E-01
        2   -1    0    0  501    0  0.00000000000E+00  0.00000000000E+00  0.14967628705E+04  0.14967628705E+04  0.25500000920E-02 0. -1.
       -2   -1    0    0    0  501  0.00000000000E+00  0.00000000000E+00 -0.11291570465E+04  0.11291570465E+04  0.25500000920E-02 0.  1.
    10030    2    1    2    0    0  0.00000000000E+00  0.00000000000E+00  0.36760582400E+03  0.26259199169E+04  0.26000618008E+04 0.  0.
        1    1    3    3  502    0  0.53959202956E+03  0.63067019990E+03  0.11943417189E+04  0.14544265540E+04  0.50400001928E-02 0. -1.
       -1    1    3    3    0  502 -0.53959202956E+03 -0.63067019990E+03 -0.82673589491E+03  0.11714933629E+04  0.50400001928E-02 0.  1.
</event>
<event>
 5   0  0.2793576E-07  0.2599987E+04  0.7818609E-02  0.8368206E-01
       -1   -1    0    0    0  501  0.00000000000E+00  0.00000000000E+00  0.14603446038E+04  0.14603446038E+04  0.50400001928E-02 0. -1.
        1   -1    0    0  501    0  0.00000000000E+00  0.00000000000E+00 -0.11572490991E+04  0.11572490991E+04  0.50400001928E-02 0.  1.
    10030    2    1    2    0    0  0.00000000000E+00  0.00000000000E+00  0.30309550466E+03  0.26175937029E+04  0.25999865208E+04 0.  0.
        2    1    3    3  502    0  0.76914131863E+03 -0.47642604120E+03  0.10913694872E+04  0.14176203647E+04  0.25500000920E-02 0. -1.
       -2    1    3    3    0  502 -0.76914131863E+03  0.47642604120E+03 -0.78827398259E+03  0.11999733382E+04  0.25500000920E-02 0.  1.
</event>
<event>
 5   0  0.2641626E-07  0.2613427E+04  0.7818609E-02  0.8363655E-01
        1   -1    0    0  501    0  0.00000000000E+00  0.00000000000E+00  0.86309734367E+03  0.86309734368E+03  0.50400001928E-02 0.  1.
       -1   -1    0    0    0  501  0.00000000000E+00  0.00000000000E+00 -0.19783394472E+04  0.19783394472E+04  0.50400001928E-02 0. -1.
    10030    2    1    2    0    0  0.00000000000E+00  0.00000000000E+00 -0.11152421035E+04  0.28414367909E+04  0.26134265031E+04 0.  0.
        3    1    3    3  502    0 -0.63792965397E+03 -0.77193143044E+02  0.67944600887E+03  0.93517908120E+03  0.10100000352E+00 0.  1.
       -3    1    3    3    0  502  0.63792965397E+03  0.77193143044E+02 -0.17946881124E+04  0.19062577097E+04  0.10100000352E+00 0. -1.
</event>
<event>
 5   0  0.2864801E-07  0.2602145E+04  0.7818609E-02  0.8367473E-01
       -1   -1    0    0    0  501  0.00000000000E+00  0.00000000000E+00  0.10177346093E+04  0.10177346093E+04  0.50400001928E-02 0. -1.
        1   -1    0    0  501    0  0.00000000000E+00  0.00000000000E+00 -0.16632918540E+04  0.16632918540E+04  0.50400001928E-02 0.  1.
    10030    2    1    2    0    0  0.00000000000E+00  0.00000000000E+00 -0.64555724463E+03  0.26810264633E+04  0.26021450269E+04 0.  0.
        5    1    3    3  502    0  0.26432433973E+03 -0.75754077169E+03 -0.13780496536E+04  0.15946091418E+04  0.46999998093E+01 0.  1.
       -5    1    3    3    0  502 -0.26432433973E+03  0.75754077169E+03  0.73249240895E+03  0.10864173215E+04  0.46999998093E+01 0. -1.
</event>
<event>
 5   0  0.7160320E-07  0.2600788E+04  0.7818609E-02  0.8367934E-01
        2   -1    0    0  501    0  0.00000000000E+00  0.00000000000E+00  0.19886254886E+04  0.19886254886E+04  0.25500000920E-02 0.  1.
       -2   -1    0    0    0  501  0.00000000000E+00  0.00000000000E+00 -0.85034845996E+03  0.85034845997E+03  0.25500000920E-02 0. -1.
    10030    2    1    2    0    0  0.00000000000E+00  0.00000000000E+00  0.11382770287E+04  0.28389739486E+04  0.26007880511E+04 0.  0.
        1    1    3    3  502    0 -0.72500825951E+03  0.10789182815E+04  0.60884251472E+03  0.14354061593E+04  0.50400001928E-02 0. -1.
       -1    1    3    3    0  502  0.72500825951E+03 -0.10789182815E+04  0.52943451393E+03  0.14035677893E+04  0.50400001928E-02 0.  1.
</event>
<event>
 5   0  0.2864801E-07  0.2606182E+04  0.7818609E-02  0.8366104E-01
        1   -1    0    0  501    0  0.00000000000E+00  0.00000000000E+00  0.12923901425E+04  0.12923901426E+04  0.50400001928E-02 0. -1.
       -1   -1    0    0    0  501  0.00000000000E+00  0.00000000000E+00 -0.13138808510E+04  0.13138808510E+04  0.50400001928E-02 0.  1.
    10030    2    1    2    0    0  0.00000000000E+00  0.00000000000E+00 -0.21490708419E+02  0.26062709935E+04  0.26061823883E+04 0.  0.
        5    1    3    3  502    0 -0.12936655766E+04  0.12203251901E+03  0.87043504040E+02  0.13023291524E+04  0.46999998093E+01 0. -1.
       -5    1    3    3    0  502  0.12936655766E+04 -0.12203251901E+03 -0.10853421246E+03  0.13039418411E+04  0.46999998093E+01 0.  1.
</event>
<event>
 5   0  0.6780984E-07  0.2600884E+04  0.7818609E-02  0.8367901E-01
        2   -1    0    0  501    0  0.00000000000E+00  0.00000000000E+00  0.16286428521E+04  0.16286428521E+04  0.25500000920E-02 0. -1.
       -2   -1    0    0    0  501  0.00000000000E+00  0.00000000000E+00 -0.10383796938E+04  0.10383796938E+04  0.25500000920E-02 0.  1.
    10030    2    1    2    0    0  0.00000000000E+00  0.00000000000E+00  0.59026315829E+03  0.26670225459E+04  0.26008842082E+04 0.  0.
        2    1    3    3  502    0 -0.70549973423E+02 -0.87943179589E+03 -0.68455428992E+03  0.11166880308E+04  0.25500000920E-02 0.  1.
       -2    1    3    3    0  502  0.70549973423E+02  0.87943179589E+03  0.12748174482E+04  0.15503345151E+04  0.25500000920E-02 0. -1.
</event>
<event>
 5   0  0.2793576E-07  0.2597497E+04  0.7818609E-02  0.8369052E-01
       -1   -1    0    0    0  501  0.00000000000E+00  0.00000000000E+00  0.13414824625E+04  0.13414824625E+04  0.50400001928E-02 0.  1.
        1   -1    0    0  501    0  0.00000000000E+00  0.00000000000E+00 -0.12573760450E+04  0.12573760450E+04  0.50400001928E-02 0. -1.
    10030    2    1    2    0    0  0.00000000000E+00  0.00000000000E+00  0.84106417435E+02  0.25988585075E+04  0.25974971901E+04 0.  0.
        2    1    3    3  502    0 -0.56544771698E+03  0.97389166113E+03  0.68934808425E+03  0.13203775481E+04  0.25500000920E-02 0.  1.
       -2    1    3    3    0  502  0.56544771698E+03 -0.97389166113E+03 -0.60524166682E+03  0.12784809594E+04  0.25500000920E-02 0. -1.
</event>
<event>
 5   0  0.6599814E-07  0.2600608E+04  0.7818609E-02  0.8367995E-01
        2   -1    0    0  501    0  0.00000000000E+00  0.00000000000E+00  0.18554206897E+04  0.18554206897E+04  0.25500000920E-02 0.  1.
       -2   -1    0    0    0  501  0.00000000000E+00  0.00000000000E+00 -0.91127053260E+03  0.91127053260E+03  0.25500000920E-02 0. -1.
    10030    2    1    2    0    0  0.00000000000E+00  0.00000000000E+00  0.94415015711E+03  0.27666912223E+04  0.26006077752E+04 0.  0.
        5    1    3    3  502    0  0.69954727766E+03 -0.10664696538E+04  0.20284367362E+03  0.12914687616E+04  0.46999998093E+01 0.  1.
       -5    1    3    3    0  502 -0.69954727766E+03  0.10664696538E+04  0.74130648349E+03  0.14752224607E+04  0.46999998093E+01 0. -1.
</event>
<event>
 5   0  0.6768478E-07  0.2597271E+04  0.7818609E-02  0.8369129E-01
        2   -1    0    0  501    0  0.00000000000E+00  0.00000000000E+00  0.20683893973E+04  0.20683893973E+04  0.25500000920E-02 0. -1.
       -2   -1    0    0    0  501  0.00000000000E+00  0.00000000000E+00 -0.81534624837E+03  0.81534624837E+03  0.25500000920E-02 0.  1.
    10030    2    1    2    0    0  0.00000000000E+00  0.00000000000E+00  0.12530431489E+04  0.28837356457E+04  0.25972705175E+04 0.  0.
        4    1    3    3  502    0 -0.42428558465E+03  0.54792633454E+02 -0.73486064126E+03  0.85031891958E+03  0.12699999809E+01 0.  1.
       -4    1    3    3    0  502  0.42428558465E+03 -0.54792633454E+02  0.19879037902E+04  0.20334167261E+04  0.12699999809E+01 0. -1.
</event>
<event>
 5   0  0.6768478E-07  0.2600018E+04  0.7818609E-02  0.8368195E-01
       -2   -1    0    0    0  501  0.00000000000E+00  0.00000000000E+00  0.89145413905E+03  0.89145413905E+03  0.25500000920E-02 0. -1.
        2   -1    0    0  501    0  0.00000000000E+00  0.00000000000E+00 -0.18958052126E+04  0.18958052126E+04  0.25500000920E-02 0.  1.
    10030    2    1    2    0    0  0.00000000000E+00  0.00000000000E+00 -0.10043510735E+04  0.27872593516E+04  0.26000180027E+04 0.  0.
        4    1    3    3  502    0 -0.39225387721E+03 -0.95275682595E+03  0.34763800448E+03  0.10874109015E+04  0.12699999809E+01 0. -1.
       -4    1    3    3    0  502  0.39225387721E+03  0.95275682595E+03 -0.13519890780E+04  0.16998484502E+04  0.12699999809E+01 0.  1.
</event>
<event>
 5   0  0.2864801E-07  0.2599867E+04  0.7818609E-02  0.8368246E-01
       -1   -1    0    0    0  501  0.00000000000E+00  0.00000000000E+00  0.25388002546E+04  0.25388002546E+04  0.50400001928E-02 0. -1.
        1   -1    0    0  501    0  0.00000000000E+00  0.00000000000E+00 -0.66560089826E+03  0.66560089828E+03  0.50400001928E-02 0.  1.
    10030    2    1    2    0    0  0.00000000000E+00  0.00000000000E+00  0.18731993564E+04  0.32044011529E+04  0.25998674813E+04 0.  0.
        5    1    3    3  502    0 -0.92365966770E+03  0.36164731019E+03 -0.98918987249E+02  0.99686659827E+03  0.46999998093E+01 0.  1.
       -5    1    3    3    0  502  0.92365966770E+03 -0.36164731019E+03  0.19721183436E+04  0.22075345547E+04  0.46999998093E+01 0. -1.
</event>
<event>
 5   0  0.2294625E-07  0.2600316E+04  0.7818609E-02  0.8368094E-01
        3   -1    0    0  501    0  0.00000000000E+00  0.00000000000E+00  0.16273849694E+04  0.16273849725E+04  0.10100000352E+00 0.  1.
       -3   -1    0    0    0  501  0.00000000000E+00  0.00000000000E+00 -0.10387279472E+04  0.10387279522E+04  0.10100000352E+00 0. -1.
    10030    2    1    2    0    0  0.00000000000E+00  0.00000000000E+00  0.58865702216E+03  0.26661129247E+04  0.26003155650E+04 0.  0.
        4    1    3    3  502    0  0.39882705160E+03  0.87637388562E+03  0.11901144155E+04  0.15308390312E+04  0.12699999809E+01 0.  1.
       -4    1    3    3    0  502 -0.39882705160E+03 -0.87637388562E+03 -0.60145739331E+03  0.11352738935E+04  0.12699999809E+01 0. -1.
</event>
<event>
 5   0  0.2864801E-07  0.2604718E+04  0.7818609E-02  0.8366600E-01
       -1   -1    0    0    0  501  0.00000000000E+00  0.00000000000E+00  0.14004826468E+04  0.14004826468E+04  0.50400001928E-02 0.  1.
        1   -1    0    0  501    0  0.00000000000E+00  0.00000000000E+00 -0.12111107121E+04  0.12111107121E+04  0.50400001928E-02 0. -1.
    10030    2    1    2    0    0  0.00000000000E+00  0.00000000000E+00  0.18937193465E+03  0.26115933589E+04  0.26047184383E+04 0.  0.
        5    1    3    3  502    0 -0.78982273363E+02 -0.62394462988E+03 -0.10487504732E+04  0.12228837826E+04  0.46999998093E+01 0. -1.
       -5    1    3    3    0  502  0.78982273363E+02  0.62394462988E+03  0.12381224078E+04  0.13887095763E+04  0.46999998093E+01 0.  1.
</event>
<event>
 5   0  0.6768478E-07  0.2600413E+04  0.7818609E-02  0.8368061E-01
       -2   -1    0    0    0  501  0.00000000000E+00  0.00000000000E+00  0.14710816357E+04  0.14710816357E+04  0.25500000920E-02 0.  1.
        2   -1    0    0  501    0  0.00000000000E+00  0.00000000000E+00 -0.11491799763E+04  0.11491799763E+04  0.25500000920E-02 0. -1.
    10030    2    1    2    0    0  0.00000000000E+00  0.00000000000E+00  0.32190165948E+03  0.26202616120E+04  0.26004134742E+04 0.  0.
        4    1    3    3  502    0 -0.17739888064E+03  0.10785190437E+04  0.87050045095E+03  0.13972996595E+04  0.12699999809E+01 0.  1.
       -4    1    3    3    0  502  0.17739888064E+03 -0.10785190437E+04 -0.54859879147E+03  0.12229619525E+04  0.12699999809E+01 0. -1.
</event>
<event>
 5   0  0.6599814E-07  0.2599640E+04  0.7818609E-02  0.8368323E-01
       -2   -1    0    0    0  501  0.00000000000E+00  0.00000000000E+00  0.10949341836E+04  0.10949341836E+04  0.25500000920E-02 0. -1.
        2   -1    0    0  501    0  0.00000000000E+00  0.00000000000E+00 -0.15430444935E+04  0.15430444935E+04  0.25500000920E-02 0.  1.
    10030    2    1    2    0    0  0.00000000000E+00  0.00000000000E+00 -0.44811030983E+03  0.26379786771E+04  0.25996401003E+04 0.  0.
        5    1    3    3  502    0  0.48776620441E+03  0.12047047685E+04 -0.24105401999E+03  0.13218769156E+04  0.46999998093E+01 0.  1.
       -5    1    3    3    0  502 -0.48776620441E+03 -0.12047047685E+04 -0.20705628984E+03  0.13161017615E+04  0.46999998093E+01 0. -1.
</event>
<event>
 5   0  0.2641626E-07  0.2595131E+04  0.7818609E-02  0.8369857E-01
        1   -1    0    0  501    0  0.00000000000E+00  0.00000000000E+00  0.10626644918E+04  0.10626644918E+04  0.50400001928E-02 0.  1.
       -1   -1    0    0    0  501  0.00000000000E+00  0.00000000000E+00 -0.15843909048E+04  0.15843909048E+04  0.50400001928E-02 0. -1.
    10030    2    1    2    0    0  0.00000000000E+00  0.00000000000E+00 -0.52172641297E+03  0.26470553966E+04  0.25951307911E+04 0.  0.
        3    1    3    3  502    0  0.19260621793E+03  0.77148218218E+03  0.78502805275E+03  0.11173857733E+04  0.10100000352E+00 0.  1.
       -3    1    3    3    0  502 -0.19260621793E+03 -0.77148218218E+03 -0.13067544657E+04  0.15296696233E+04  0.10100000352E+00 0. -1.
</event>
<event>
 5   0  0.6768478E-07  0.2599352E+04  0.7818609E-02  0.8368421E-01
       -2   -1    0    0    0  501  0.00000000000E+00  0.00000000000E+00  0.73500791252E+03  0.73500791252E+03  0.25500000920E-02 0. -1.
        2   -1    0    0  501    0  0.00000000000E+00  0.00000000000E+00 -0.22981490432E+04  0.22981490432E+04  0.25500000920E-02 0.  1.
    10030    2    1    2    0    0  0.00000000000E+00  0.00000000000E+00 -0.15631411306E+04  0.30331569557E+04  0.25993520199E+04 0.  0.
        4    1    3    3  502    0  0.13205793688E+03  0.99677149810E+03 -0.17425120875E+04  0.20118008615E+04  0.12699999809E+01 0.  1.
       -4    1    3    3    0  502 -0.13205793688E+03 -0.99677149810E+03  0.17937095688E+03  0.10213560942E+04  0.12699999809E+01 0. -1.
</event>
<event>
 5   0  0.7160320E-07  0.2600096E+04  0.7818609E-02  0.8368168E-01
        2   -1    0    0  501    0  0.00000000000E+00  0.00000000000E+00  0.20043013400E+04  0.20043013400E+04  0.25500000920E-02 0.  1.
       -2   -1    0    0    0  501  0.00000000000E+00  0.00000000000E+00 -0.84324908599E+03  0.84324908599E+03  0.25500000920E-02 0. -1.
    10030    2    1    2    0    0  0.00000000000E+00  0.00000000000E+00  0.11610522540E+04  0.28475504260E+04  0.26000963621E+04 0.  0.
        1    1    3    3  502    0  0.11056652267E+04  0.14578858396E+03  0.13122245021E+04  0.17221158639E+04  0.50400001928E-02 0.  1.
       -1    1    3    3    0  502 -0.11056652267E+04 -0.14578858396E+03 -0.15117224816E+03  0.11254345620E+04  0.50400001928E-02 0. -1.
</event>
<event>
 5   0  0.2641626E-07  0.2601609E+04  0.7818609E-02  0.8367655E-01
       -1   -1    0    0    0  501  0.00000000000E+00  0.00000000000E+00  0.14669734709E+04  0.14669734709E+04  0.50400001928E-02 0. -1.
        1   -1    0    0  501    0  0.00000000000E+00  0.00000000000E+00 -0.11534577007E+04  0.11534577007E+04  0.50400001928E-02 0.  1.
    10030    2    1    2    0    0  0.00000000000E+00  0.00000000000E+00  0.31351577023E+03  0.26204311716E+04  0.26016086152E+04 0.  0.
        3    1    3    3  502    0 -0.86960713425E+03  0.34735023049E+03 -0.75267159828E+03  0.12014088794E+04  0.10100000352E+00 0.  1.
       -3    1    3    3    0  502  0.86960713425E+03 -0.34735023049E+03  0.10661873685E+04  0.14190222921E+04  0.10100000352E+00 0. -1.
</event>
<event>
 5   0  0.6526351E-07  0.2599540E+04  0.7818609E-02  0.8368358E-01
       -2   -1    0    0    0  501  0.00000000000E+00  0.00000000000E+00  0.64188070501E+03  0.64188070501E+03  0.25500000920E-02 0. -1.
        2   -1    0    0  501    0  0.00000000000E+00  0.00000000000E+00 -0.26319557052E+04  0.26319557052E+04  0.25500000920E-02 0.  1.
    10030    2    1    2    0    0  0.00000000000E+00  0.00000000000E+00 -0.19900750002E+04  0.32738364102E+04  0.25995396389E+04 0.  0.
        3    1    3    3  502    0 -0.35413374470E+03  0.12445655700E+03 -0.25622083162E+04  0.25895581881E+04  0.10100000352E+00 0.  1.
       -3    1    3    3    0  502  0.35413374470E+03 -0.12445655700E+03  0.57213331603E+03  0.68427822209E+03  0.10100000352E+00 0. -1.
</event>
<event>
 5   0  0.2641626E-07  0.2600192E+04  0.7818609E-02  0.8368136E-01
        1   -1    0    0  501    0  0.00000000000E+00  0.00000000000E+00  0.19449370688E+04  0.19449370688E+04  0.50400001928E-02 0. -1.
       -1   -1    0    0    0  501  0.00000000000E+00  0.00000000000E+00 -0.86905072821E+03  0.86905072823E+03  0.50400001928E-02 0.  1.
    10030    2    1    2    0    0  0.00000000000E+00  0.00000000000E+00  0.10758863406E+04  0.28139877971E+04  0.26001915130E+04 0.  0.
        3    1    3    3  502    0  0.11770061471E+04 -0.24806578150E+03  0.40561280210E+01  0.12028701362E+04  0.10100000352E+00 0.  1.
       -3    1    3    3    0  502 -0.11770061471E+04  0.24806578150E+03  0.10718302126E+04  0.16111176608E+04  0.10100000352E+00 0. -1.
</event>
<event>
 5   0  0.2864801E-07  0.2602515E+04  0.7818609E-02  0.8367348E-01
       -1   -1    0    0    0  501  0.00000000000E+00  0.00000000000E+00  0.90970982508E+03  0.90970982509E+03  0.50400001928E-02 0.  1.
        1   -1    0    0  501    0  0.00000000000E+00  0.00000000000E+00 -0.18613306023E+04  0.18613306023E+04  0.50400001928E-02 0. -1.
    10030    2    1    2    0    0  0.00000000000E+00  0.00000000000E+00 -0.95162077722E+03  0.27710404274E+04  0.26025147351E+04 0.  0.
        5    1    3    3  502    0 -0.12708743345E+04 -0.98615752269E+02 -0.19733675384E+03  0.12898877956E+04  0.46999998093E+01 0.  1.
       -5    1    3    3    0  502  0.12708743345E+04  0.98615752269E+02 -0.75428402338E+03  0.14811526318E+04  0.46999998093E+01 0. -1.
</event>
<event>
 5   0  0.2623263E-07  0.2599921E+04  0.7818609E-02  0.8368228E-01
       -1   -1    0    0    0  501  0.00000000000E+00  0.00000000000E+00  0.61264772278E+03  0.61264772280E+03  0.50400001928E-02 0. -1.
        1   -1    0    0  501    0  0.00000000000E+00  0.00000000000E+00 -0.27583517063E+04  0.27583517063E+04  0.50400001928E-02 0.  1.
    10030    2    1    2    0    0  0.00000000000E+00  0.00000000000E+00 -0.21457039835E+04  0.33709994291E+04  0.25999214538E+04 0.  0.
        1    1    3    3  502    0 -0.58693985933E+03 -0.33900641355E+03  0.36539905082E+03  0.77002611206E+03  0.50400001928E-02 0. -1.
       -1    1    3    3    0  502  0.58693985933E+03  0.33900641355E+03 -0.25111030343E+04  0.26009733170E+04  0.50400001928E-02 0.  1.
</event>
<event>
 5   0  0.2623263E-07  0.2600136E+04  0.7818609E-02  0.8368155E-01
        1   -1    0    0  501    0  0.00000000000E+00  0.00000000000E+00  0.83638681770E+03  0.83638681771E+03  0.50400001928E-02 0. -1.
       -1   -1    0    0    0  501  0.00000000000E+00  0.00000000000E+00 -0.20208073262E+04  0.20208073262E+04  0.50400001928E-02 0.  1.
    10030    2    1    2    0    0  0.00000000000E+00  0.00000000000E+00 -0.11844205085E+04  0.28571941439E+04  0.26001358494E+04 0.  0.
        1    1    3    3  502    0  0.26353449441E+03  0.69711203729E+02 -0.19890495834E+04  0.20076424799E+04  0.50400001928E-02 0.  1.
       -1    1    3    3    0  502 -0.26353449441E+03 -0.69711203729E+02  0.80462907491E+03  0.84955166405E+03  0.50400001928E-02 0. -1.
</event>
<event>
 5   0  0.6526351E-07  0.2599631E+04  0.7818609E-02  0.8368327E-01
       -2   -1    0    0    0  501  0.00000000000E+00  0.00000000000E+00  0.13838874421E+04  0.13838874421E+04  0.25500000920E-02 0.  1.
        2   -1    0    0  501    0  0.00000000000E+00  0.00000000000E+00 -0.12208508675E+04  0.12208508675E+04  0.25500000920E-02 0. -1.
    10030    2    1    2    0    0  0.00000000000E+00  0.00000000000E+00  0.16303657453E+03  0.26047383096E+04  0.25996308847E+04 0.  0.
        3    1    3    3  502    0 -0.10400259646E+04 -0.37798950692E+03  0.76475982691E+03  0.13451348176E+04  0.10100000352E+00 0.  1.
       -3    1    3    3    0  502  0.10400259646E+04  0.37798950692E+03 -0.60172325238E+03  0.12596034920E+04  0.10100000352E+00 0. -1.
</event>
<event>
 5   0  0.2623263E-07  0.2599804E+04  0.7818609E-02  0.8368268E-01
       -1   -1    0    0    0  501  0.00000000000E+00  0.00000000000E+00  0.86863873567E+03  0.86863873568E+03  0.50400001928E-02 0. -1.
        1   -1    0    0  501    0  0.00000000000E+00  0.00000000000E+00 -0.19452790595E+04  0.19452790595E+04  0.50400001928E-02 0.  1.
    10030    2    1    2    0    0  0.00000000000E+00  0.00000000000E+00 -0.10766403238E+04  0.28139177952E+04  0.25998036409E+04 0.  0.
        1    1    3    3  502    0  0.34960245691E+03 -0.76497620228E+03  0.53443473831E+03  0.99650938654E+03  0.50400001928E-02 0. -1.
       -1    1    3    3    0  502 -0.34960245691E+03  0.76497620228E+03 -0.16110750621E+04  0.18174084086E+04  0.50400001928E-02 0.  1.
</event>
<event>
 5   0  0.2793576E-07  0.2600738E+04  0.7818609E-02  0.8367951E-01
        1   -1    0    0  501    0  0.00000000000E+00  0.00000000000E+00  0.20467155887E+04  0.20467155887E+04  0.50400001928E-02 0. -1.
       -1   -1    0    0    0  501  0.00000000000E+00  0.00000000000E+00 -0.82618203801E+03  0.82618203802E+03  0.50400001928E-02 0.  1.
    10030    2    1    2    0    0  0.00000000000E+00  0.00000000000E+00  0.12205335507E+04  0.28728976267E+04  0.26007380924E+04 0.  0.
        2    1    3    3  502    0  0.56852892638E+03  0.87700425322E+03 -0.24438890388E+03  0.10733534072E+04  0.25500000920E-02 0.  1.
       -2    1    3    3    0  502 -0.56852892638E+03 -0.87700425322E+03  0.14649224546E+04  0.17995442196E+04  0.25500000920E-02 0. -1.
</event>
<event>
 5   0  0.2864801E-07  0.2601173E+04  0.7818609E-02  0.8367803E-01
       -1   -1    0    0    0  501  0.00000000000E+00  0.00000000000E+00  0.75595816418E+03  0.75595816420E+03  0.50400001928E-02 0.  1.
        1   -1    0    0  501    0  0.00000000000E+00  0.00000000000E+00 -0.22375917098E+04  0.22375917098E+04  0.50400001928E-02 0. -1.
    10030    2    1    2    0    0  0.00000000000E+00  0.00000000000E+00 -0.14816335456E+04  0.29935498740E+04  0.26011733669E+04 0.  0.
        5    1    3    3  502    0  0.15052641088E+02 -0.56605143181E+03 -0.20882715524E+04  0.21636868933E+04  0.46999998093E+01 0. -1.
       -5    1    3    3    0  502 -0.15052641088E+02  0.56605143181E+03  0.60663800681E+03  0.82986298072E+03  0.46999998093E+01 0.  1.
</event>
<event>
 5   0  0.6768478E-07  0.2600050E+04  0.7818609E-02  0.8368184E-01
        2   -1    0    0  501    0  0.00000000000E+00  0.00000000000E+00  0.19620381611E+04  0.19620381611E+04  0.25500000920E-02 0. -1.
       -2   -1    0    0    0  501  0.00000000000E+00  0.00000000000E+00 -0.86138250633E+03  0.86138250633E+03  0.25500000920E-02 0.  1.
    10030    2    1    2    0    0  0.00000000000E+00  0.00000000000E+00  0.11006556547E+04  0.28234206674E+04  0.26000502677E+04 0.  0.
        4    1    3    3  502    0 -0.42258534261E+03 -0.13357684008E+03  0.18774692043E+04  0.19290705974E+04  0.12699999809E+01 0. -1.
       -4    1    3    3    0  502  0.42258534261E+03  0.13357684008E+03 -0.77681354954E+03  0.89435006996E+03  0.12699999809E+01 0.  1.
</event>
<event>
 5   0  0.6526351E-07  0.2600534E+04  0.7818609E-02  0.8368020E-01
        2   -1    0    0  501    0  0.00000000000E+00  0.00000000000E+00  0.14829767628E+04  0.14829767628E+04  0.25500000920E-02 0. -1.
       -2   -1    0    0    0  501  0.00000000000E+00  0.00000000000E+00 -0.11400682907E+04  0.11400682907E+04  0.25500000920E-02 0.  1.
    10030    2    1    2    0    0  0.00000000000E+00  0.00000000000E+00  0.34290847203E+03  0.26230450535E+04  0.26005343937E+04 0.  0.
        3    1    3    3  502    0 -0.68287593048E+03 -0.10804252803E+04 -0.69478338863E+02  0.12800256140E+04  0.10100000352E+00 0. -1.
       -3    1    3    3    0  502  0.68287593048E+03  0.10804252803E+04  0.41238681089E+03  0.13430194395E+04  0.10100000352E+00 0.  1.
</event>
<event>
 5   0  0.2623263E-07  0.2604231E+04  0.7818609E-02  0.8366765E-01
        1   -1    0    0  501    0  0.00000000000E+00  0.00000000000E+00  0.26219990672E+04  0.26219990672E+04  0.50400001928E-02 0. -1.
       -1   -1    0    0    0  501  0.00000000000E+00  0.00000000000E+00 -0.64664589788E+03  0.64664589790E+03  0.50400001928E-02 0.  1.
    10030    2    1    2    0    0  0.00000000000E+00  0.00000000000E+00  0.19753531693E+04  0.32686449651E+04  0.26042311273E+04 0.  0.
        1    1    3    3  502    0  0.71780387256E+03  0.55002426902E+03  0.21635759135E+04  0.23449583854E+04  0.50400001928E-02 0. -1.
       -1    1    3    3    0  502 -0.71780387256E+03 -0.55002426902E+03 -0.18822274419E+03  0.92368657965E+03  0.50400001928E-02 0.  1.
</event>
<event>
 5   0  0.2793576E-07  0.2598893E+04  0.7818609E-02  0.8368577E-01
        1   -1    0    0  501    0  0.00000000000E+00  0.00000000000E+00  0.11268439643E+04  0.11268439643E+04  0.50400001928E-02 0. -1.
       -1   -1    0    0    0  501  0.00000000000E+00  0.00000000000E+00 -0.14984869913E+04  0.14984869913E+04  0.50400001928E-02 0.  1.
    10030    2    1    2    0    0  0.00000000000E+00  0.00000000000E+00 -0.37164302697E+03  0.26253309556E+04  0.25988928579E+04 0.  0.
        2    1    3    3  502    0 -0.12398179357E+04  0.37800606783E+03 -0.27908580296E+03  0.13258680124E+04  0.25500000920E-02 0.  1.
       -2    1    3    3    0  502  0.12398179357E+04 -0.37800606783E+03 -0.92557224010E+02  0.12994629431E+04  0.25500000920E-02 0. -1.
</event>
<event>
 5   0  0.2755061E-07  0.2599473E+04  0.7818609E-02  0.8368380E-01
        1   -1    0    0  501    0  0.00000000000E+00  0.00000000000E+00  0.23195378443E+04  0.23195378443E+04  0.50400001928E-02 0.  1.
       -1   -1    0    0    0  501  0.00000000000E+00  0.00000000000E+00 -0.72829785058E+03  0.72829785060E+03  0.50400001928E-02 0. -1.
    10030    2    1    2    0    0  0.00000000000E+00  0.00000000000E+00  0.15912399938E+04  0.30478356949E+04  0.25994725822E+04 0.  0.
        4    1    3    3  502    0  0.57465726483E+03 -0.90050991415E+02  0.21584120427E+04  0.22354159148E+04  0.12699999809E+01 0.  1.
       -4    1    3    3    0  502 -0.57465726483E+03  0.90050991415E+02 -0.56717204898E+03  0.81241978012E+03  0.12699999809E+01 0. -1.
</event>
<event>
 5   0  0.2623263E-07  0.2598991E+04  0.7818609E-02  0.8368544E-01
        1   -1    0    0  501    0  0.00000000000E+00  0.00000000000E+00  0.17768609465E+04  0.17768609465E+04  0.50400001928E-02 0.  1.
       -1   -1    0    0    0  501  0.00000000000E+00  0.00000000000E+00 -0.95037750916E+03  0.95037750917E+03  0.50400001928E-02 0. -1.
    10030    2    1    2    0    0  0.00000000000E+00  0.00000000000E+00  0.82648343736E+03  0.27272384557E+04  0.25989910969E+04 0.  0.
        1    1    3    3  502    0 -0.68009766544E+03 -0.96050491299E+03  0.99141671106E+03  0.15388338498E+04  0.50400001928E-02 0.  1.
       -1    1    3    3    0  502  0.68009766544E+03  0.96050491299E+03 -0.16493327370E+03  0.11884046059E+04  0.50400001928E-02 0. -1.
</event>
<event>
 5   0  0.2294625E-07  0.2600282E+04  0.7818609E-02  0.8368105E-01
       -3   -1    0    0    0  501  0.00000000000E+00  0.00000000000E+00  0.14878772603E+04  0.14878772638E+04  0.10100000352E+00 0. -1.
        3   -1    0    0  501    0  0.00000000000E+00  0.00000000000E+00 -0.11360930779E+04  0.11360930823E+04  0.10100000352E+00 0.  1.
    10030    2    1    2    0    0  0.00000000000E+00  0.00000000000E+00  0.35178418247E+03  0.26239703461E+04  0.26002823435E+04 0.  0.
        5    1    3    3  502    0  0.88740479225E+03 -0.83455497304E+03 -0.28253228630E+03  0.12505262297E+04  0.46999998093E+01 0. -1.
       -5    1    3    3    0  502 -0.88740479225E+03  0.83455497304E+03  0.63431646877E+03  0.13734441164E+04  0.46999998093E+01 0.  1.
</event>
<event>
 5   0  0.2623263E-07  0.2599219E+04  0.7818609E-02  0.8368466E-01
       -1   -1    0    0    0  501  0.00000000000E+00  0.00000000000E+00  0.94537672245E+03  0.94537672247E+03  0.50400001928E-02 0.  1.
        1   -1    0    0  501    0  0.00000000000E+00  0.00000000000E+00 -0.17865735642E+04  0.17865735642E+04  0.50400001928E-02 0. -1.
    10030    2    1    2    0    0  0.00000000000E+00  0.00000000000E+00 -0.84119684171E+03  0.27319502866E+04  0.25992191601E+04 0.  0.
        1    1    3    3  502    0  0.53797758320E+03  0.57017346370E+03 -0.15100966143E+04  0.17014433412E+04  0.50400001928E-02 0. -1.
       -1    1    3    3    0  502 -0.53797758320E+03 -0.57017346370E+03  0.66889977262E+03  0.10305069454E+04  0.50400001928E-02 0.  1.
</event>
<event>
 5   0  0.6768478E-07  0.2599440E+04  0.7818609E-02  0.8368392E-01
       -2   -1    0    0    0  501  0.00000000000E+00  0.00000000000E+00  0.15043813905E+04  0.15043813905E+04  0.25500000920E-02 0.  1.
        2   -1    0    0  501    0  0.00000000000E+00  0.00000000000E+00 -0.11229011197E+04  0.11229011197E+04  0.25500000920E-02 0. -1.
    10030    2    1    2    0    0  0.00000000000E+00  0.00000000000E+00  0.38148027080E+03  0.26272825103E+04  0.25994395918E+04 0.  0.
        4    1    3    3  502    0 -0.69089759616E+03  0.63746969829E+03 -0.71640495609E+03  0.11819241848E+04  0.12699999809E+01 0. -1.
       -4    1    3    3    0  502  0.69089759616E+03 -0.63746969829E+03  0.10978852269E+04  0.14453583254E+04  0.12699999809E+01 0.  1.
</event>
<event>
 5   0  0.6768478E-07  0.2600297E+04  0.7818609E-02  0.8368100E-01
        2   -1    0    0  501    0  0.00000000000E+00  0.00000000000E+00  0.20510621924E+04  0.20510621924E+04  0.25500000920E-02 0. -1.
       -2   -1    0    0    0  501  0.00000000000E+00  0.00000000000E+00 -0.82415140345E+03  0.82415140346E+03  0.25500000920E-02 0.  1.
    10030    2    1    2    0    0  0.00000000000E+00  0.00000000000E+00  0.12269107889E+04  0.28752135958E+04  0.26002967403E+04 0.  0.
        4    1    3    3  502    0  0.11653404704E+03  0.45462685815E+03  0.19541299268E+04  0.20096992680E+04  0.12699999809E+01 0. -1.
       -4    1    3    3    0  502 -0.11653404704E+03 -0.45462685815E+03 -0.72721913786E+03  0.86551432781E+03  0.12699999809E+01 0.  1.
</event>
<event>
 5   0  0.2623263E-07  0.2600431E+04  0.7818609E-02  0.8368055E-01
        1   -1    0    0  501    0  0.00000000000E+00  0.00000000000E+00  0.13944205764E+04  0.13944205764E+04  0.50400001928E-02 0. -1.
       -1   -1    0    0    0  501  0.00000000000E+00  0.00000000000E+00 -0.12123745776E+04  0.12123745776E+04  0.50400001928E-02 0.  1.
    10030    2    1    2    0    0  0.00000000000E+00  0.00000000000E+00  0.18204599883E+03  0.26067951540E+04  0.26004307776E+04 0.  0.
        1    1    3    3  502    0 -0.92263996955E+03  0.52080714956E+03 -0.66451615454E+03  0.12506343671E+04  0.50400001928E-02 0.  1.
       -1    1    3    3    0  502  0.92263996955E+03 -0.52080714956E+03  0.84656215337E+03  0.13561607869E+04  0.50400001928E-02 0. -1.
</event>
<event>
 5   0  0.2755061E-07  0.2598303E+04  0.7818609E-02  0.8368778E-01
        1   -1    0    0  501    0  0.00000000000E+00  0.00000000000E+00  0.18342949324E+04  0.18342949324E+04  0.50400001928E-02 0.  1.
       -1   -1    0    0    0  501  0.00000000000E+00  0.00000000000E+00 -0.92013245767E+03  0.92013245769E+03  0.50400001928E-02 0. -1.
    10030    2    1    2    0    0  0.00000000000E+00  0.00000000000E+00  0.91416247471E+03  0.27544273901E+04  0.25983027570E+04 0.  0.
        4    1    3    3  502    0  0.11174890869E+04 -0.61379023685E+03  0.72161998679E+03  0.14650110350E+04  0.12699999809E+01 0.  1.
       -4    1    3    3    0  502 -0.11174890869E+04  0.61379023685E+03  0.19254248792E+03  0.12894163551E+04  0.12699999809E+01 0. -1.
</event>
<event>
 5   0  0.6768478E-07  0.2602542E+04  0.7818609E-02  0.8367338E-01
       -2   -1    0    0    0  501  0.00000000000E+00  0.00000000000E+00  0.67955962449E+03  0.67955962449E+03  0.25500000920E-02 0.  1.
        2   -1    0    0  501    0  0.00000000000E+00  0.00000000000E+00 -0.24917691595E+04  0.24917691595E+04  0.25500000920E-02 0. -1.
    10030    2    1    2    0    0  0.00000000000E+00  0.00000000000E+00 -0.18122095350E+04  0.31713287840E+04  0.26025416149E+04 0.  0.
        4    1    3    3  502    0 -0.16640699306E+03  0.93273826365E+01  0.66649885169E+03  0.68702301243E+03  0.12699999809E+01 0.  1.
       -4    1    3    3    0  502  0.16640699306E+03 -0.93273826365E+01 -0.24787083867E+04  0.24843057716E+04  0.12699999809E+01 0. -1.
</event>
<event>
 5   0  0.6768478E-07  0.2599689E+04  0.7818609E-02  0.8368307E-01
       -2   -1    0    0    0  501  0.00000000000E+00  0.00000000000E+00  0.13603155951E+04  0.13603155951E+04  0.25500000920E-02 0.  1.
        2   -1    0    0  501    0  0.00000000000E+00  0.00000000000E+00 -0.12420619330E+04  0.12420619330E+04  0.25500000920E-02 0. -1.
    10030    2    1    2    0    0  0.00000000000E+00  0.00000000000E+00  0.11825366216E+03  0.26023775281E+04  0.25996893796E+04 0.  0.
        4    1    3    3  502    0  0.10280373306E+04 -0.53530637050E+03  0.64810665435E+03  0.13279523755E+04  0.12699999809E+01 0.  1.
       -4    1    3    3    0  502 -0.10280373306E+04  0.53530637050E+03 -0.52985299220E+03  0.12744251526E+04  0.12699999809E+01 0. -1.
</event>
<event>
 5   0  0.6599814E-07  0.2600873E+04  0.7818609E-02  0.8367905E-01
        2   -1    0    0  501    0  0.00000000000E+00  0.00000000000E+00  0.30211688527E+04  0.30211688527E+04  0.25500000920E-02 0. -1.
       -2   -1    0    0    0  501  0.00000000000E+00  0.00000000000E+00 -0.55976204445E+03  0.55976204446E+03  0.25500000920E-02 0.  1.
    10030    2    1    2    0    0  0.00000000000E+00  0.00000000000E+00  0.24614068082E+04  0.35809308971E+04  0.26008734330E+04 0.  0.
        5    1    3    3  502    0  0.65917169940E+03 -0.91921724672E+03  0.34734160894E+03  0.11832734085E+04  0.46999998093E+01 0.  1.
       -5    1    3    3    0  502 -0.65917169940E+03  0.91921724672E+03  0.21140651993E+04  0.23976574886E+04  0.46999998093E+01 0. -1.
</event>
<event>
 5   0  0.7160320E-07  0.2601278E+04  0.7818609E-02  0.8367767E-01
       -2   -1    0    0    0  501  0.00000000000E+00  0.00000000000E+00  0.10839302861E+04  0.10839302861E+04  0.25500000920E-02 0.  1.
        2   -1    0    0  501    0  0.00000000000E+00  0.00000000000E+00 -0.15606734026E+04  0.15606734026E+04  0.25500000920E-02 0. -1.
    10030    2    1    2    0    0  0.00000000000E+00  0.00000000000E+00 -0.47674311646E+03  0.26446036887E+04  0.26012775075E+04 0.  0.
        1    1    3    3  502    0 -0.37349160102E+02  0.19578473720E+03  0.10683117132E+04  0.10867458487E+04  0.50400001928E-02 0.  1.
       -1    1    3    3    0  502  0.37349160102E+02 -0.19578473720E+03 -0.15450548296E+04  0.15578578400E+04  0.50400001928E-02 0. -1.
</event>
<event>
 5   0  0.2864801E-07  0.2604296E+04  0.7818609E-02  0.8366743E-01
        1   -1    0    0  501    0  0.00000000000E+00  0.00000000000E+00  0.14223983552E+04  0.14223983552E+04  0.50400001928E-02 0. -1.
       -1   -1    0    0    0  501  0.00000000000E+00  0.00000000000E+00 -0.11920635886E+04  0.11920635886E+04  0.50400001928E-02 0.  1.
    10030    2    1    2    0    0  0.00000000000E+00  0.00000000000E+00  0.23033476656E+03  0.26144619438E+04  0.26042959031E+04 0.  0.
        5    1    3    3  502    0 -0.58116175981E+03  0.52729392232E+03  0.11583479809E+04  0.13991354496E+04  0.46999998093E+01 0. -1.
       -5    1    3    3    0  502  0.58116175981E+03 -0.52729392232E+03 -0.92801321432E+03  0.12153264942E+04  0.46999998093E+01 0.  1.
</event>
<event>
 5   0  0.6599814E-07  0.2602556E+04  0.7818609E-02  0.8367334E-01
       -2   -1    0    0    0  501  0.00000000000E+00  0.00000000000E+00  0.82917767305E+03  0.82917767305E+03  0.25500000920E-02 0.  1.
        2   -1    0    0  501    0  0.00000000000E+00  0.00000000000E+00 -0.20421729097E+04  0.20421729097E+04  0.25500000920E-02 0. -1.
    10030    2    1    2    0    0  0.00000000000E+00  0.00000000000E+00 -0.12129952367E+04  0.28713505828E+04  0.26025558063E+04 0.  0.
        5    1    3    3  502    0 -0.92700915902E+03  0.27606626420E+03  0.35389162853E+03  0.10299611342E+04  0.46999998093E+01 0.  1.
       -5    1    3    3    0  502  0.92700915902E+03 -0.27606626420E+03 -0.15668868652E+04  0.18413894486E+04  0.46999998093E+01 0. -1.
</event>
<event>
 5   0  0.2793576E-07  0.2599554E+04  0.7818609E-02  0.8368353E-01
        1   -1    0    0  501    0  0.00000000000E+00  0.00000000000E+00  0.15540611856E+04  0.15540611856E+04  0.50400001928E-02 0. -1.
       -1   -1    0    0    0  501  0.00000000000E+00  0.00000000000E+00 -0.10870999650E+04  0.10870999651E+04  0.50400001928E-02 0.  1.
    10030    2    1    2    0    0  0.00000000000E+00  0.00000000000E+00  0.46696122053E+03  0.26411611507E+04  0.25995537006E+04 0.  0.
        2    1    3    3  502    0 -0.98066013040E+03  0.84850469849E+03  0.32301224373E+03  0.13364099013E+04  0.25500000920E-02 0.  1.
       -2    1    3    3    0  502  0.98066013040E+03 -0.84850469849E+03  0.14394897680E+03  0.13047512493E+04  0.25500000920E-02 0. -1.
</event>
<event>
 5   0  0.6599814E-07  0.2599929E+04  0.7818609E-02  0.8368225E-01
       -2   -1    0    0    0  501  0.00000000000E+00  0.00000000000E+00  0.19001762019E+04  0.19001762019E+04  0.25500000920E-02 0. -1.
        2   -1    0    0  501    0  0.00000000000E+00  0.00000000000E+00 -0.88934239972E+03  0.88934239972E+03  0.25500000920E-02 0.  1.
    10030    2    1    2    0    0  0.00000000000E+00  0.00000000000E+00  0.10108338022E+04  0.27895186016E+04  0.25999286631E+04 0.  0.
        5    1    3    3  502    0 -0.76603191536E+03 -0.14200613746E+03 -0.61109902244E+03  0.99016904802E+03  0.46999998093E+01 0.  1.
       -5    1    3    3    0  502  0.76603191536E+03  0.14200613746E+03  0.16219328246E+04  0.17993495536E+04  0.46999998093E+01 0. -1.
</event>
<event>
 5   0  0.2641626E-07  0.2600489E+04  0.7818609E-02  0.8368035E-01
       -1   -1    0    0    0  501  0.00000000000E+00  0.00000000000E+00  0.16266692570E+04  0.16266692570E+04  0.50400001928E-02 0.  1.
        1   -1    0    0  501    0  0.00000000000E+00  0.00000000000E+00 -0.10393232696E+04  0.10393232696E+04  0.50400001928E-02 0. -1.
    10030    2    1    2    0    0  0.00000000000E+00  0.00000000000E+00  0.58734598735E+03  0.26659925266E+04  0.26004885777E+04 0.  0.
        3    1    3    3  502    0  0.41469528354E+03 -0.22922201537E+03  0.15350073605E+04  0.16064751842E+04  0.10100000352E+00 0.  1.
       -3    1    3    3    0  502 -0.41469528354E+03  0.22922201537E+03 -0.94766137312E+03  0.10595173424E+04  0.10100000352E+00 0. -1.
</event>
<event>
 5   0  0.2755061E-07  0.2594862E+04  0.7818609E-02  0.8369948E-01
        1   -1    0    0  501    0  0.00000000000E+00  0.00000000000E+00  0.16083792073E+04  0.16083792073E+04  0.50400001928E-02 0.  1.
       -1   -1    0    0    0  501  0.00000000000E+00  0.00000000000E+00 -0.10465987959E+04  0.10465987959E+04  0.50400001928E-02 0. -1.
    10030    2    1    2    0    0  0.00000000000E+00  0.00000000000E+00  0.56178041136E+03  0.26549780032E+04  0.25948624178E+04 0.  0.
        4    1    3    3  502    0  0.68755702836E+03  0.74576946552E+03  0.11085934597E+04  0.15026269779E+04  0.12699999809E+01 0.  1.
       -4    1    3    3    0  502 -0.68755702836E+03 -0.74576946552E+03 -0.54681304832E+03  0.11523510254E+04  0.12699999809E+01 0. -1.
</event>
<event>
 5   0  0.2641626E-07  0.2600335E+04  0.7818609E-02  0.8368087E-01
       -1   -1    0    0    0  501  0.00000000000E+00  0.00000000000E+00  0.92027122217E+03  0.92027122218E+03  0.50400001928E-02 0.  1.
        1   -1    0    0  501    0  0.00000000000E+00  0.00000000000E+00 -0.18368888281E+04  0.18368888281E+04  0.50400001928E-02 0. -1.
    10030    2    1    2    0    0  0.00000000000E+00  0.00000000000E+00 -0.91661760592E+03  0.27571600503E+04  0.26003353067E+04 0.  0.
        3    1    3    3  502    0  0.20870059909E+03  0.94123714998E+03 -0.13832442599E+04  0.16860747330E+04  0.10100000352E+00 0. -1.
       -3    1    3    3    0  502 -0.20870059909E+03 -0.94123714998E+03  0.46662665394E+03  0.10710853173E+04  0.10100000352E+00 0.  1.
</event>
<event>
 5   0  0.2641626E-07  0.2600993E+04  0.7818609E-02  0.8367864E-01
       -1   -1    0    0    0  501  0.00000000000E+00  0.00000000000E+00  0.17809970400E+04  0.17809970400E+04  0.50400001928E-02 0.  1.
        1   -1    0    0  501    0  0.00000000000E+00  0.00000000000E+00 -0.94963187866E+03  0.94963187868E+03  0.50400001928E-02 0. -1.
    10030    2    1    2    0    0  0.00000000000E+00  0.00000000000E+00  0.83136516137E+03  0.27306289187E+04  0.26009933218E+04 0.  0.
        3    1    3    3  502    0  0.79246520414E+03 -0.10157807958E+04  0.22941398637E+03  0.13086032677E+04  0.10100000352E+00 0.  1.
       -3    1    3    3    0  502 -0.79246520414E+03  0.10157807958E+04  0.60195117500E+03  0.14220256510E+04  0.10100000352E+00 0. -1.
</event>
<event>
 5   0  0.6780984E-07  0.2601076E+04  0.7818609E-02  0.8367836E-01
        2   -1    0    0  501    0  0.00000000000E+00  0.00000000000E+00  0.17431760014E+04  0.17431760014E+04  0.25500000920E-02 0. -1.
       -2   -1    0    0    0  501  0.00000000000E+00  0.00000000000E+00 -0.97029760889E+03  0.97029760889E+03  0.25500000920E-02 0.  1.
    10030    2    1    2    0    0  0.00000000000E+00  0.00000000000E+00  0.77287839247E+03  0.27134736103E+04  0.26010763203E+04 0.  0.
        2    1    3    3  502    0  0.12604432223E+04  0.31691709935E+03  0.33699996419E+03  0.13426550341E+04  0.25500000920E-02 0.  1.
       -2    1    3    3    0  502 -0.12604432223E+04 -0.31691709935E+03  0.43587842828E+03  0.13708185762E+04  0.25500000920E-02 0. -1.
</event>
<event>
 5   0  0.2864801E-07  0.2599241E+04  0.7818609E-02  0.8368459E-01
        1   -1    0    0  501    0  0.00000000000E+00  0.00000000000E+00  0.21655588641E+04  0.21655588641E+04  0.50400001928E-02 0.  1.
       -1   -1    0    0    0  501  0.00000000000E+00  0.00000000000E+00 -0.77994325827E+03  0.77994325829E+03  0.50400001928E-02 0. -1.
    10030    2    1    2    0    0  0.00000000000E+00  0.00000000000E+00  0.13856156058E+04  0.29455021224E+04  0.25992406864E+04 0.  0.
        5    1    3    3  502    0 -0.10141608516E+04  0.80360901518E+03  0.83011540122E+03  0.15373429519E+04  0.46999998093E+01 0.  1.
       -5    1    3    3    0  502  0.10141608516E+04 -0.80360901518E+03  0.55550020461E+03  0.14081591705E+04  0.46999998093E+01 0. -1.
</event>
<event>
 5   0  0.2793576E-07  0.2599897E+04  0.7818609E-02  0.8368236E-01
        1   -1    0    0  501    0  0.00000000000E+00  0.00000000000E+00  0.14087916585E+04  0.14087916585E+04  0.50400001928E-02 0. -1.
       -1   -1    0    0    0  501  0.00000000000E+00  0.00000000000E+00 -0.11995147302E+04  0.11995147302E+04  0.50400001928E-02 0.  1.
    10030    2    1    2    0    0  0.00000000000E+00  0.00000000000E+00  0.20927692826E+03  0.26083063887E+04  0.25998971873E+04 0.  0.
        2    1    3    3  502    0 -0.59789680107E+03  0.98343370320E+03 -0.50167040932E+03  0.12555061262E+04  0.25500000920E-02 0.  1.
       -2    1    3    3    0  502  0.59789680107E+03 -0.98343370320E+03  0.71094733758E+03  0.13528002625E+04  0.25500000920E-02 0. -1.
</event>
<event>
 5   0  0.2641626E-07  0.2599526E+04  0.7818609E-02  0.8368362E-01
       -1   -1    0    0    0  501  0.00000000000E+00  0.00000000000E+00  0.10894201746E+04  0.10894201747E+04  0.50400001928E-02 0. -1.
        1   -1    0    0  501    0  0.00000000000E+00  0.00000000000E+00 -0.15507185273E+04  0.15507185273E+04  0.50400001928E-02 0.  1.
    10030    2    1    2    0    0  0.00000000000E+00  0.00000000000E+00 -0.46129835267E+03  0.26401387020E+04  0.25995261483E+04 0.  0.
        3    1    3    3  502    0 -0.38874130929E+03  0.29060376640E+03 -0.14552285199E+04  0.15340340315E+04  0.10100000352E+00 0.  1.
       -3    1    3    3    0  502  0.38874130929E+03 -0.29060376640E+03  0.99393016719E+03  0.11061046705E+04  0.10100000352E+00 0. -1.
</event>
<event>
 5   0  0.7160320E-07  0.2600272E+04  0.7818609E-02  0.8368109E-01
        2   -1    0    0  501    0  0.00000000000E+00  0.00000000000E+00  0.11059910288E+04  0.11059910288E+04  0.25500000920E-02 0. -1.
       -2   -1    0    0    0  501  0.00000000000E+00  0.00000000000E+00 -0.15283609858E+04  0.15283609858E+04  0.25500000920E-02 0.  1.
    10030    2    1    2    0    0  0.00000000000E+00  0.00000000000E+00 -0.42236995701E+03  0.26343520147E+04  0.26002719390E+04 0.  0.
        1    1    3    3  502    0 -0.10925860499E+04  0.22119718213E+03  0.46667407802E+03  0.12084937587E+04  0.50400001928E-02 0. -1.
       -1    1    3    3    0  502  0.10925860499E+04 -0.22119718213E+03 -0.88904403503E+03  0.14258582559E+04  0.50400001928E-02 0.  1.
</event>
<event>
 5   0  0.6780984E-07  0.2595195E+04  0.7818609E-02  0.8369835E-01
        2   -1    0    0  501    0  0.00000000000E+00  0.00000000000E+00  0.14677909211E+04  0.14677909211E+04  0.25500000920E-02 0.  1.
       -2   -1    0    0    0  501  0.00000000000E+00  0.00000000000E+00 -0.11471386139E+04  0.11471386139E+04  0.25500000920E-02 0. -1.
    10030    2    1    2    0    0  0.00000000000E+00  0.00000000000E+00  0.32065230713E+03  0.26149295350E+04  0.25951952857E+04 0.  0.
        2    1    3    3  502    0 -0.12259210711E+04  0.23151171320E+03 -0.19914924299E+03  0.12633845681E+04  0.25500000920E-02 0. -1.
       -2    1    3    3    0  502  0.12259210711E+04 -0.23151171320E+03  0.51980155012E+03  0.13515449669E+04  0.25500000920E-02 0.  1.
</event>
<event>
 5   0  0.2641626E-07  0.2600182E+04  0.7818609E-02  0.8368139E-01
       -1   -1    0    0    0  501  0.00000000000E+00  0.00000000000E+00  0.59513054114E+03  0.59513054116E+03  0.50400001928E-02 0. -1.
        1   -1    0    0  501    0  0.00000000000E+00  0.00000000000E+00 -0.28401104992E+04  0.28401104992E+04  0.50400001928E-02 0.  1.
    10030    2    1    2    0    0  0.00000000000E+00  0.00000000000E+00 -0.22449799581E+04  0.34352410404E+04  0.26001819154E+04 0.  0.
        3    1    3    3  502    0  0.10876260746E+04  0.62448973882E+02 -0.18511634352E+03  0.11050332228E+04  0.10100000352E+00 0. -1.
       -3    1    3    3    0  502 -0.10876260746E+04 -0.62448973882E+02 -0.20598636146E+04  0.23302078176E+04  0.10100000352E+00 0.  1.
</event>
<event>
 5   0  0.7160320E-07  0.2599116E+04  0.7818609E-02  0.8368502E-01
       -2   -1    0    0    0  501  0.00000000000E+00  0.00000000000E+00  0.79658709463E+03  0.79658709463E+03  0.25500000920E-02 0.  1.
        2   -1    0    0  501    0  0.00000000000E+00  0.00000000000E+00 -0.21201082742E+04  0.21201082742E+04  0.25500000920E-02 0. -1.
    10030    2    1    2    0    0  0.00000000000E+00  0.00000000000E+00 -0.13235211796E+04  0.29166953688E+04  0.25991159193E+04 0.  0.
        1    1    3    3  502    0  0.83100931225E+03  0.96685617918E+03 -0.37905943867E+03  0.13300651888E+04  0.50400001928E-02 0.  1.
       -1    1    3    3    0  502 -0.83100931225E+03 -0.96685617918E+03 -0.94446174089E+03  0.15866301801E+04  0.50400001928E-02 0. -1.
</event>
<event>
 5   0  0.2623263E-07  0.2601357E+04  0.7818609E-02  0.8367740E-01
       -1   -1    0    0    0  501  0.00000000000E+00  0.00000000000E+00  0.11100814521E+04  0.11100814521E+04  0.50400001928E-02 0.  1.
        1   -1    0    0  501    0  0.00000000000E+00  0.00000000000E+00 -0.15240004354E+04  0.15240004354E+04  0.50400001928E-02 0. -1.
    10030    2    1    2    0    0  0.00000000000E+00  0.00000000000E+00 -0.41391898323E+03  0.26340818875E+04  0.26013570430E+04 0.  0.
        1    1    3    3  502    0  0.11967633516E+04  0.13374287319E+03 -0.70470709131E+03  0.13952568798E+04  0.50400001928E-02 0. -1.
       -1    1    3    3    0  502 -0.11967633516E+04 -0.13374287319E+03  0.29078810809E+03  0.12388250077E+04  0.50400001928E-02 0.  1.
</event>
<event>
 5   0  0.2641626E-07  0.2600076E+04  0.7818609E-02  0.8368175E-01
       -1   -1    0    0    0  501  0.00000000000E+00  0.00000000000E+00  0.14404020623E+04  0.14404020623E+04  0.50400001928E-02 0.  1.
        1   -1    0    0  501    0  0.00000000000E+00  0.00000000000E+00 -0.11733521548E+04  0.11733521548E+04  0.50400001928E-02 0. -1.
    10030    2    1    2    0    0  0.00000000000E+00  0.00000000000E+00  0.26704990752E+03  0.26137542171E+04  0.26000760478E+04 0.  0.
        3    1    3    3  502    0 -0.41930194623E+03  0.70584083247E+03 -0.87978252457E+03  0.12033464604E+04  0.10100000352E+00 0. -1.
       -3    1    3    3    0  502  0.41930194623E+03 -0.70584083247E+03  0.11468324321E+04  0.14104077568E+04  0.10100000352E+00 0.  1.
</event>
<event>
 5   0  0.6768478E-07  0.2600168E+04  0.7818609E-02  0.8368144E-01
       -2   -1    0    0    0  501  0.00000000000E+00  0.00000000000E+00  0.64406550795E+03  0.64406550795E+03  0.25500000920E-02 0.  1.
        2   -1    0    0  501    0  0.00000000000E+00  0.00000000000E+00 -0.26242960155E+04  0.26242960155E+04  0.25500000920E-02 0. -1.
    10030    2    1    2    0    0  0.00000000000E+00  0.00000000000E+00 -0.19802305076E+04  0.32683615235E+04  0.26001681071E+04 0.  0.
        4    1    3    3  502    0  0.33389681207E+03  0.38929526013E+03 -0.24917623945E+04  0.25439967225E+04  0.12699999809E+01 0. -1.
       -4    1    3    3    0  502 -0.33389681207E+03 -0.38929526013E+03  0.51153188690E+03  0.72436480097E+03  0.12699999809E+01 0.  1.
</event>
<event>
 5   0  0.6599814E-07  0.2600454E+04  0.7818609E-02  0.8368047E-01
       -2   -1    0    0    0  501  0.00000000000E+00  0.00000000000E+00  0.54177945189E+03  0.54177945189E+03  0.25500000920E-02 0.  1.
        2   -1    0    0  501    0  0.00000000000E+00  0.00000000000E+00 -0.31204397061E+04  0.31204397061E+04  0.25500000920E-02 0. -1.
    10030    2    1    2    0    0  0.00000000000E+00  0.00000000000E+00 -0.25786602542E+04  0.36622191580E+04  0.26004538939E+04 0.  0.
        5    1    3    3  502    0 -0.98051753519E+03 -0.40252481006E+03 -0.22876975215E+03  0.10843424501E+04  0.46999998093E+01 0. -1.
       -5    1    3    3    0  502  0.98051753519E+03  0.40252481006E+03 -0.23498905020E+04  0.25778767079E+04  0.46999998093E+01 0.  1.
</event>
<event>
 5   0  0.7160320E-07  0.2597907E+04  0.7818609E-02  0.8368913E-01
        2   -1    0    0  501    0  0.00000000000E+00  0.00000000000E+00  0.17711257577E+04  0.17711257577E+04  0.25500000920E-02 0.  1.
       -2   -1    0    0    0  501  0.00000000000E+00  0.00000000000E+00 -0.95265956362E+03  0.95265956362E+03  0.25500000920E-02 0. -1.
    10030    2    1    2    0    0  0.00000000000E+00  0.00000000000E+00  0.81846619412E+03  0.27237853214E+04  0.25979067662E+04 0.  0.
        1    1    3    3  502    0 -0.33129336213E+03  0.23043256344E+03 -0.88526795289E+03  0.97290996835E+03  0.50400001928E-02 0. -1.
       -1    1    3    3    0  502  0.33129336213E+03 -0.23043256344E+03  0.17037341470E+04  0.17508753530E+04  0.50400001928E-02 0.  1.
</event>
<event>
 5   0  0.6599814E-07  0.2600833E+04  0.7818609E-02  0.8367918E-01
       -2   -1    0    0    0  501  0.00000000000E+00  0.00000000000E+00  0.72101588446E+03  0.72101588447E+03  0.25500000920E-02 0. -1.
        2   -1    0    0  501    0  0.00000000000E+00  0.00000000000E+00 -0.23454174952E+04  0.23454174952E+04  0.25500000920E-02 0.  1.
    10030    2    1    2    0    0  0.00000000000E+00  0.00000000000E+00 -0.16244016107E+04  0.30664333797E+04  0.26008331509E+04 0.  0.
        5    1    3    3  502    0 -0.72748733169E+03 -0.90826731427E+03 -0.12788796332E+03  0.11707112168E+04  0.46999998093E+01 0. -1.
       -5    1    3    3    0  502  0.72748733169E+03  0.90826731427E+03 -0.14965136474E+04  0.18957221629E+04  0.46999998093E+01 0.  1.
</event>
<event>
 5   0  0.6768478E-07  0.2600260E+04  0.7818609E-02  0.8368113E-01
       -2   -1    0    0    0  501  0.00000000000E+00  0.00000000000E+00  0.10039473682E+04  0.10039473683E+04  0.25500000920E-02 0.  1.
        2   -1    0    0  501    0  0.00000000000E+00  0.00000000000E+00 -0.16836917368E+04  0.16836917368E+04  0.25500000920E-02 0. -1.
    10030    2    1    2    0    0  0.00000000000E+00  0.00000000000E+00 -0.67974436854E+03  0.26876391050E+04  0.26002599009E+04 0.  0.
        4    1    3    3  502    0 -0.60371267010E+02 -0.12987257970E+04 -0.34162915459E+03  0.13442639167E+04  0.12699999809E+01 0. -1.
       -4    1    3    3    0  502  0.60371267010E+02  0.12987257970E+04 -0.33811521395E+03  0.13433751883E+04  0.12699999809E+01 0.  1.
</event>
<event>
 5   0  0.2641626E-07  0.2599838E+04  0.7818609E-02  0.8368256E-01
        1   -1    0    0  501    0  0.00000000000E+00  0.00000000000E+00  0.18009180644E+04  0.18009180644E+04  0.50400001928E-02 0.  1.
       -1   -1    0    0    0  501  0.00000000000E+00  0.00000000000E+00 -0.93829326260E+03  0.93829326261E+03  0.50400001928E-02 0. -1.
    10030    2    1    2    0    0  0.00000000000E+00  0.00000000000E+00  0.86262480183E+03  0.27392113270E+04  0.25998379075E+04 0.  0.
        3    1    3    3  502    0  0.16799034307E+02 -0.79343967583E+03 -0.65342375946E+03  0.10280035731E+04  0.10100000352E+00 0. -1.
       -3    1    3    3    0  502 -0.16799034307E+02  0.79343967583E+03  0.15160485613E+04  0.17112077539E+04  0.10100000352E+00 0.  1.
</event>
<event>
 5   0  0.2641626E-07  0.2603331E+04  0.7818609E-02  0.8367071E-01
        1   -1    0    0  501    0  0.00000000000E+00  0.00000000000E+00  0.14197678498E+04  0.14197678498E+04  0.50400001928E-02 0.  1.
       -1   -1    0    0    0  501  0.00000000000E+00  0.00000000000E+00 -0.11933870205E+04  0.11933870205E+04  0.50400001928E-02 0. -1.
    10030    2    1    2    0    0  0.00000000000E+00  0.00000000000E+00  0.22638082927E+03  0.26131548703E+04  0.26033305776E+04 0.  0.
        3    1    3    3  502    0  0.17509451063E+02 -0.78703396351E+03  0.11537332177E+04  0.13967209415E+04  0.10100000352E+00 0.  1.
       -3    1    3    3    0  502 -0.17509451063E+02  0.78703396351E+03 -0.92735238845E+03  0.12164339288E+04  0.10100000352E+00 0. -1.
</event>
<event>
 5   0  0.6526351E-07  0.2611789E+04  0.7818609E-02  0.8364208E-01
       -2   -1    0    0    0  501  0.00000000000E+00  0.00000000000E+00  0.91315961941E+03  0.91315961941E+03  0.25500000920E-02 0.  1.
        2   -1    0    0  501    0  0.00000000000E+00  0.00000000000E+00 -0.18675380347E+04  0.18675380347E+04  0.25500000920E-02 0. -1.
    10030    2    1    2    0    0  0.00000000000E+00  0.00000000000E+00 -0.95437841527E+03  0.27806976541E+04  0.26117889049E+04 0.  0.
        3    1    3    3  502    0 -0.12299692525E+04 -0.25045036911E+03 -0.93596173864E+02  0.12586937688E+04  0.10100000352E+00 0.  1.
       -3    1    3    3    0  502  0.12299692525E+04  0.25045036911E+03 -0.86078224140E+03  0.15220038853E+04  0.10100000352E+00 0. -1.
</event>
<event>
 5   0  0.6768478E-07  0.2596996E+04  0.7818609E-02  0.8369222E-01
        2   -1    0    0  501    0  0.00000000000E+00  0.00000000000E+00  0.28349634143E+04  0.28349634143E+04  0.25500000920E-02 0. -1.
       -2   -1    0    0    0  501  0.00000000000E+00  0.00000000000E+00 -0.59475094126E+03  0.59475094127E+03  0.25500000920E-02 0.  1.
    10030    2    1    2    0    0  0.00000000000E+00  0.00000000000E+00  0.22402124731E+04  0.34297143556E+04  0.25969960794E+04 0.  0.
        4    1    3    3  502    0 -0.31010296592E+03 -0.73077768499E+03 -0.23694786542E+03  0.82845988326E+03  0.12699999809E+01 0.  1.
       -4    1    3    3    0  502  0.31010296592E+03  0.73077768499E+03  0.24771603385E+04  0.26012544723E+04  0.12699999809E+01 0. -1.
</event>
<event>
 5   0  0.2793576E-07  0.2600775E+04  0.7818609E-02  0.8367938E-01
       -1   -1    0    0    0  501  0.00000000000E+00  0.00000000000E+00  0.11041479604E+04  0.11041479604E+04  0.50400001928E-02 0. -1.
        1   -1    0    0  501    0  0.00000000000E+00  0.00000000000E+00 -0.15315050073E+04  0.15315050073E+04  0.50400001928E-02 0.  1.
    10030    2    1    2    0    0  0.00000000000E+00  0.00000000000E+00 -0.42735704689E+03  0.26356529678E+04  0.26007753692E+04 0.  0.
        2    1    3    3  502    0  0.78379570579E+03 -0.67578183202E+03 -0.10116331444E+04  0.14472105623E+04  0.25500000920E-02 0.  1.
       -2    1    3    3    0  502 -0.78379570579E+03  0.67578183202E+03  0.58427609749E+03  0.11884424054E+04  0.25500000920E-02 0. -1.
</event>
<event>
 5   0  0.2623263E-07  0.2599991E+04  0.7818609E-02  0.8368204E-01
        1   -1    0    0  501    0  0.00000000000E+00  0.00000000000E+00  0.12599603191E+04  0.12599603191E+04  0.50400001928E-02 0.  1.
       -1   -1    0    0    0  501  0.00000000000E+00  0.00000000000E+00 -0.13413031433E+04  0.13413031433E+04  0.50400001928E-02 0. -1.
    10030    2    1    2    0    0  0.00000000000E+00  0.00000000000E+00 -0.81342824138E+02  0.26012634624E+04  0.25999913357E+04 0.  0.
        1    1    3    3  502    0 -0.79672164095E+03 -0.64777236236E+03  0.75697291354E+03  0.12756889897E+04  0.50400001928E-02 0.  1.
       -1    1    3    3    0  502  0.79672164095E+03  0.64777236236E+03 -0.83831573768E+03  0.13255744727E+04  0.50400001928E-02 0. -1.
</event>
<event>
 5   0  0.2793576E-07  0.2600035E+04  0.7818609E-02  0.8368189E-01
       -1   -1    0    0    0  501  0.00000000000E+00  0.00000000000E+00  0.22534584243E+04  0.22534584243E+04  0.50400001928E-02 0.  1.
        1   -1    0    0  501    0  0.00000000000E+00  0.00000000000E+00 -0.74997866557E+03  0.74997866559E+03  0.50400001928E-02 0. -1.
    10030    2    1    2    0    0  0.00000000000E+00  0.00000000000E+00  0.15034797587E+04  0.30034370899E+04  0.26000351859E+04 0.  0.
        2    1    3    3  502    0 -0.12177510825E+04 -0.37978146047E+02  0.22784836083E+03  0.12394655760E+04  0.25500000920E-02 0.  1.
       -2    1    3    3    0  502  0.12177510825E+04  0.37978146047E+02  0.12756313979E+04  0.17639715139E+04  0.25500000920E-02 0. -1.
</event>
<event>
 5   0  0.6768478E-07  0.2598999E+04  0.7818609E-02  0.8368541E-01
        2   -1    0    0  501    0  0.00000000000E+00  0.00000000000E+00  0.15129623645E+04  0.15129623645E+04  0.25500000920E-02 0.  1.
       -2   -1    0    0    0  501  0.00000000000E+00  0.00000000000E+00 -0.11161538068E+04  0.11161538068E+04  0.25500000920E-02 0. -1.
    10030    2    1    2    0    0  0.00000000000E+00  0.00000000000E+00  0.39680855777E+03  0.26291161713E+04  0.25989988093E+04 0.  0.
        4    1    3    3  502    0 -0.38071580556E+03  0.26901365368E+03  0.14254669454E+04  0.14997568123E+04  0.12699999809E+01 0.  1.
       -4    1    3    3    0  502  0.38071580556E+03 -0.26901365368E+03 -0.10286583877E+04  0.11293593591E+04  0.12699999809E+01 0. -1.
</event>
<event>
 5   0  0.6768478E-07  0.2594075E+04  0.7818609E-02  0.8370217E-01
       -2   -1    0    0    0  501  0.00000000000E+00  0.00000000000E+00  0.89539005807E+03  0.89539005807E+03  0.25500000920E-02 0. -1.
        2   -1    0    0  501    0  0.00000000000E+00  0.00000000000E+00 -0.18788523352E+04  0.18788523352E+04  0.25500000920E-02 0.  1.
    10030    2    1    2    0    0  0.00000000000E+00  0.00000000000E+00 -0.98346227709E+03  0.27742423932E+04  0.25940745567E+04 0.  0.
        4    1    3    3  502    0  0.11989673491E+04 -0.49084368172E+03 -0.55812228558E+03  0.14106566991E+04  0.12699999809E+01 0.  1.
       -4    1    3    3    0  502 -0.11989673491E+04  0.49084368172E+03 -0.42533999151E+03  0.13635856942E+04  0.12699999809E+01 0. -1.
</event>
<event>
 5   0  0.6599814E-07  0.2599802E+04  0.7818609E-02  0.8368268E-01
        2   -1    0    0  501    0  0.00000000000E+00  0.00000000000E+00  0.26182308677E+04  0.26182308677E+04  0.25500000920E-02 0.  1.
       -2   -1    0    0    0  501  0.00000000000E+00  0.00000000000E+00 -0.64537588359E+03  0.64537588359E+03  0.25500000920E-02 0. -1.
    10030    2    1    2    0    0  0.00000000000E+00  0.00000000000E+00  0.19728549841E+04  0.32636067513E+04  0.25998023461E+04 0.  0.
        5    1    3    3  502    0 -0.71877845619E+03  0.24693669310E+02 -0.37284999724E+03  0.81011817461E+03  0.46999998093E+01 0. -1.
       -5    1    3    3    0  502  0.71877845619E+03 -0.24693669310E+02  0.23457049814E+04  0.24534885767E+04  0.46999998093E+01 0.  1.
</event>
<event>
 5   0  0.2641626E-07  0.2599951E+04  0.7818609E-02  0.8368218E-01
        1   -1    0    0  501    0  0.00000000000E+00  0.00000000000E+00  0.16536878922E+04  0.16536878922E+04  0.50400001928E-02 0.  1.
       -1   -1    0    0    0  501  0.00000000000E+00  0.00000000000E+00 -0.10219195593E+04  0.10219195593E+04  0.50400001928E-02 0. -1.
    10030    2    1    2    0    0  0.00000000000E+00  0.00000000000E+00  0.63176833293E+03  0.26756074515E+04  0.25999507703E+04 0.  0.
        3    1    3    3  502    0 -0.69623937617E+03 -0.60515858518E+03  0.12584906845E+04  0.15603733512E+04  0.10100000352E+00 0.  1.
       -3    1    3    3    0  502  0.69623937617E+03  0.60515858518E+03 -0.62672235155E+03  0.11152341002E+04  0.10100000352E+00 0. -1.
</event>
<event>
 5   0  0.2793576E-07  0.2598838E+04  0.7818609E-02  0.8368596E-01
        1   -1    0    0  501    0  0.00000000000E+00  0.00000000000E+00  0.78875446849E+03  0.78875446850E+03  0.50400001928E-02 0. -1.
       -1   -1    0    0    0  501  0.00000000000E+00  0.00000000000E+00 -0.21407042164E+04  0.21407042164E+04  0.50400001928E-02 0.  1.
    10030    2    1    2    0    0  0.00000000000E+00  0.00000000000E+00 -0.13519497479E+04  0.29294586849E+04  0.25988382146E+04 0.  0.
        2    1    3    3  502    0  0.52156563798E+03 -0.11564808259E+04 -0.35912538254E+03  0.13185028084E+04  0.25500000920E-02 0. -1.
       -2    1    3    3    0  502 -0.52156563798E+03  0.11564808259E+04 -0.99282436537E+03  0.16109558765E+04  0.25500000920E-02 0.  1.
</event>
<event>
 5   0  0.7160320E-07  0.2599186E+04  0.7818609E-02  0.8368478E-01
       -2   -1    0    0    0  501  0.00000000000E+00  0.00000000000E+00  0.10552231393E+04  0.10552231393E+04  0.25500000920E-02 0. -1.
        2   -1    0    0  501    0  0.00000000000E+00  0.00000000000E+00 -0.16005544033E+04  0.16005544033E+04  0.25500000920E-02 0.  1.
    10030    2    1    2    0    0  0.00000000000E+00  0.00000000000E+00 -0.54533126406E+03  0.26557775426E+04  0.25991860588E+04 0.  0.
        1    1    3    3  502    0 -0.97388703129E+03  0.98114028162E+02 -0.11461825924E+04  0.15072547387E+04  0.50400001928E-02 0.  1.
       -1    1    3    3    0  502  0.97388703129E+03 -0.98114028162E+02  0.60085132833E+03  0.11485228039E+04  0.50400001928E-02 0. -1.
</event>
<event>
 5   0  0.2755061E-07  0.2603065E+04  0.7818609E-02  0.8367161E-01
       -1   -1    0    0    0  501  0.00000000000E+00  0.00000000000E+00  0.14716457267E+04  0.14716457267E+04  0.50400001928E-02 0.  1.
        1   -1    0    0  501    0  0.00000000000E+00  0.00000000000E+00 -0.11510829100E+04  0.11510829100E+04  0.50400001928E-02 0. -1.
    10030    2    1    2    0    0  0.00000000000E+00  0.00000000000E+00  0.32056281673E+03  0.26227286367E+04  0.26030645367E+04 0.  0.
        4    1    3    3  502    0 -0.57102621937E+03 -0.54656172661E+03 -0.88154327280E+03  0.11840273725E+04  0.12699999809E+01 0. -1.
       -4    1    3    3    0  502  0.57102621937E+03  0.54656172661E+03  0.12021060895E+04  0.14387012642E+04  0.12699999809E+01 0.  1.
</event>
<event>
 5   0  0.6768478E-07  0.2600550E+04  0.7818609E-02  0.8368014E-01
       -2   -1    0    0    0  501  0.00000000000E+00  0.00000000000E+00  0.14144235733E+04  0.14144235733E+04  0.25500000920E-02 0.  1.
        2   -1    0    0  501    0  0.00000000000E+00  0.00000000000E+00 -0.11953390345E+04  0.11953390345E+04  0.25500000920E-02 0. -1.
    10030    2    1    2    0    0  0.00000000000E+00  0.00000000000E+00  0.21908453878E+03  0.26097626079E+04  0.26005504868E+04 0.  0.
        4    1    3    3  502    0  0.81218001829E+02 -0.12631997446E+04 -0.18890680695E+03  0.12798270794E+04  0.12699999809E+01 0.  1.
       -4    1    3    3    0  502 -0.81218001829E+02  0.12631997446E+04  0.40799134573E+03  0.13299355284E+04  0.12699999809E+01 0. -1.
</event>
<event>
 5   0  0.6780984E-07  0.2600381E+04  0.7818609E-02  0.8368072E-01
       -2   -1    0    0    0  501  0.00000000000E+00  0.00000000000E+00  0.93803278140E+03  0.93803278141E+03  0.25500000920E-02 0.  1.
        2   -1    0    0  501    0  0.00000000000E+00  0.00000000000E+00 -0.18021708636E+04  0.18021708636E+04  0.25500000920E-02 0. -1.
    10030    2    1    2    0    0  0.00000000000E+00  0.00000000000E+00 -0.86413808221E+03  0.27402036450E+04  0.26003810088E+04 0.  0.
        2    1    3    3  502    0 -0.12113888680E+04  0.46426947737E+03 -0.34089380886E+03  0.13413492185E+04  0.25500000920E-02 0.  1.
       -2    1    3    3    0  502  0.12113888680E+04 -0.46426947737E+03 -0.52324427335E+03  0.13988544265E+04  0.25500000920E-02 0. -1.
</event>
<event>
 5   0  0.2755061E-07  0.2610994E+04  0.7818609E-02  0.8364476E-01
       -1   -1    0    0    0  501  0.00000000000E+00  0.00000000000E+00  0.95071164997E+03  0.95071164998E+03  0.50400001928E-02 0.  1.
        1   -1    0    0  501    0  0.00000000000E+00  0.00000000000E+00 -0.17926801795E+04  0.17926801795E+04  0.50400001928E-02 0. -1.
    10030    2    1    2    0    0  0.00000000000E+00  0.00000000000E+00 -0.84196852953E+03  0.27433918295E+04  0.26109936280E+04 0.  0.
        4    1    3    3  502    0 -0.10914220237E+04 -0.24234428116E+03 -0.11292483710E+04  0.15890677395E+04  0.12699999809E+01 0. -1.
       -4    1    3    3    0  502  0.10914220237E+04  0.24234428116E+03  0.28727984146E+03  0.11543240900E+04  0.12699999809E+01 0.  1.
</event>
<event>
 5   0  0.6768478E-07  0.2600220E+04  0.7818609E-02  0.8368126E-01
        2   -1    0    0  501    0  0.00000000000E+00  0.00000000000E+00  0.19144053137E+04  0.19144053138E+04  0.25500000920E-02 0.  1.
       -2   -1    0    0    0  501  0.00000000000E+00  0.00000000000E+00 -0.88293013924E+03  0.88293013925E+03  0.25500000920E-02 0. -1.
    10030    2    1    2    0    0  0.00000000000E+00  0.00000000000E+00  0.10314751745E+04  0.27973354530E+04  0.26002201063E+04 0.  0.
        4    1    3    3  502    0  0.24482695585E+03  0.68581949715E+03  0.16744153379E+04  0.18259126369E+04  0.12699999809E+01 0.  1.
       -4    1    3    3    0  502 -0.24482695585E+03 -0.68581949715E+03 -0.64294016339E+03  0.97142281607E+03  0.12699999809E+01 0. -1.
</event>
<event>
 5   0  0.2641626E-07  0.2604192E+04  0.7818609E-02  0.8366779E-01
        1   -1    0    0  501    0  0.00000000000E+00  0.00000000000E+00  0.11515518957E+04  0.11515518957E+04  0.50400001928E-02 0.  1.
       -1   -1    0    0    0  501  0.00000000000E+00  0.00000000000E+00 -0.14723213579E+04  0.14723213579E+04  0.50400001928E-02 0. -1.
    10030    2    1    2    0    0  0.00000000000E+00  0.00000000000E+00 -0.32076946222E+03  0.26238732536E+04  0.26041923514E+04 0.  0.
        3    1    3    3  502    0 -0.32167036378E+03  0.46905961472E+01  0.11108798676E+04  0.11565240660E+04  0.10100000352E+00 0.  1.
       -3    1    3    3    0  502  0.32167036378E+03 -0.46905961472E+01 -0.14316493298E+04  0.14673491876E+04  0.10100000352E+00 0. -1.
</event>
<event>
 5   0  0.6599814E-07  0.2598978E+04  0.7818609E-02  0.8368548E-01
       -2   -1    0    0    0  501  0.00000000000E+00  0.00000000000E+00  0.13306485742E+04  0.13306485742E+04  0.25500000920E-02 0.  1.
        2   -1    0    0  501    0  0.00000000000E+00  0.00000000000E+00 -0.12690589963E+04  0.12690589963E+04  0.25500000920E-02 0. -1.
    10030    2    1    2    0    0  0.00000000000E+00  0.00000000000E+00  0.61589577892E+02  0.25997075705E+04  0.25989779098E+04 0.  0.
        5    1    3    3  502    0 -0.52881976210E+03  0.11473708286E+04 -0.27349333569E+03  0.12926449063E+04  0.46999998093E+01 0. -1.
       -5    1    3    3    0  502  0.52881976210E+03 -0.11473708286E+04  0.33508291358E+03  0.13070626642E+04  0.46999998093E+01 0.  1.
</event>
<event>
 5   0  0.6599814E-07  0.2598977E+04  0.7818609E-02  0.8368549E-01
        2   -1    0    0  501    0  0.00000000000E+00  0.00000000000E+00  0.17931338079E+04  0.17931338079E+04  0.25500000920E-02 0.  1.
       -2   -1    0    0    0  501  0.00000000000E+00  0.00000000000E+00 -0.94174218216E+03  0.94174218217E+03  0.25500000920E-02 0. -1.
    10030    2    1    2    0    0  0.00000000000E+00  0.00000000000E+00  0.85139162574E+03  0.27348759901E+04  0.25989765256E+04 0.  0.
        5    1    3    3  502    0 -0.57482292470E+03  0.11605141552E+04  0.31317876047E+03  0.13324104192E+04  0.46999998093E+01 0.  1.
       -5    1    3    3    0  502  0.57482292470E+03 -0.11605141552E+04  0.53821286528E+03  0.14024655709E+04  0.46999998093E+01 0. -1.
</event>
<event>
 5   0  0.7160320E-07  0.2600479E+04  0.7818609E-02  0.8368039E-01
       -2   -1    0    0    0  501  0.00000000000E+00  0.00000000000E+00  0.13831718336E+04  0.13831718336E+04  0.25500000920E-02 0.  1.
        2   -1    0    0  501    0  0.00000000000E+00  0.00000000000E+00 -0.12222791777E+04  0.12222791777E+04  0.25500000920E-02 0. -1.
    10030    2    1    2    0    0  0.00000000000E+00  0.00000000000E+00  0.16089265586E+03  0.26054510113E+04  0.26004785186E+04 0.  0.
        1    1    3    3  502    0  0.12724166297E+04  0.25506656426E+03  0.16134165752E+03  0.13077209803E+04  0.50400001928E-02 0.  1.
       -1    1    3    3    0  502 -0.12724166297E+04 -0.25506656426E+03 -0.44900165736E+00  0.12977300310E+04  0.50400001928E-02 0. -1.
</event>
<event>
 5   0  0.2755061E-07  0.2600268E+04  0.7818609E-02  0.8368110E-01
       -1   -1    0    0    0  501  0.00000000000E+00  0.00000000000E+00  0.13195681457E+04  0.13195681457E+04  0.50400001928E-02 0.  1.
        1   -1    0    0  501    0  0.00000000000E+00  0.00000000000E+00 -0.12809863519E+04  0.12809863519E+04  0.50400001928E-02 0. -1.
    10030    2    1    2    0    0  0.00000000000E+00  0.00000000000E+00  0.38581793804E+02  0.26005544977E+04  0.26002682824E+04 0.  0.
        4    1    3    3  502    0 -0.79980107509E+03  0.73890800868E+03 -0.69119589052E+03  0.12897364758E+04  0.12699999809E+01 0.  1.
       -4    1    3    3    0  502  0.79980107509E+03 -0.73890800868E+03  0.72977768432E+03  0.13108180219E+04  0.12699999809E+01 0. -1.
</event>
<event>
 5   0  0.2641626E-07  0.2600434E+04  0.7818609E-02  0.8368054E-01
        1   -1    0    0  501    0  0.00000000000E+00  0.00000000000E+00  0.86178862318E+03  0.86178862320E+03  0.50400001928E-02 0.  1.
       -1   -1    0    0    0  501  0.00000000000E+00  0.00000000000E+00 -0.19616923858E+04  0.19616923858E+04  0.50400001928E-02 0. -1.
    10030    2    1    2    0    0  0.00000000000E+00  0.00000000000E+00 -0.10999037626E+04  0.28234810090E+04  0.26004339487E+04 0.  0.
        3    1    3    3  502    0  0.16149325522E+03 -0.10990442459E+04 -0.12836210437E+04  0.16975456754E+04  0.10100000352E+00 0. -1.
       -3    1    3    3    0  502 -0.16149325522E+03  0.10990442459E+04  0.18371728106E+03  0.11259353336E+04  0.10100000352E+00 0.  1.
</event>
<event>
 5   0  0.2641626E-07  0.2597650E+04  0.7818609E-02  0.8369000E-01
       -1   -1    0    0    0  501  0.00000000000E+00  0.00000000000E+00  0.13504976662E+04  0.13504976662E+04  0.50400001928E-02 0. -1.
        1   -1    0    0  501    0  0.00000000000E+00  0.00000000000E+00 -0.12491297557E+04  0.12491297558E+04  0.50400001928E-02 0.  1.
    10030    2    1    2    0    0  0.00000000000E+00  0.00000000000E+00  0.10136791049E+03  0.25996274220E+04  0.25976503383E+04 0.  0.
        3    1    3    3  502    0 -0.12782935283E+03  0.89852710666E+03  0.98050655152E+03  0.13360705118E+04  0.10100000352E+00 0. -1.
       -3    1    3    3    0  502  0.12782935283E+03 -0.89852710666E+03 -0.87913864103E+03  0.12635569102E+04  0.10100000352E+00 0.  1.
</event>
<event>
 5   0  0.6768478E-07  0.2599234E+04  0.7818609E-02  0.8368461E-01
       -2   -1    0    0    0  501  0.00000000000E+00  0.00000000000E+00  0.13173381724E+04  0.13173381724E+04  0.25500000920E-02 0.  1.
        2   -1    0    0  501    0  0.00000000000E+00  0.00000000000E+00 -0.12821341425E+04  0.12821341425E+04  0.25500000920E-02 0. -1.
    10030    2    1    2    0    0  0.00000000000E+00  0.00000000000E+00  0.35204029876E+02  0.25994723149E+04  0.25992339242E+04 0.  0.
        4    1    3    3  502    0  0.11066927937E+04 -0.23482810319E+03 -0.62205766098E+03  0.12910734000E+04  0.12699999809E+01 0. -1.
       -4    1    3    3    0  502 -0.11066927937E+04  0.23482810319E+03  0.65726169086E+03  0.13083989150E+04  0.12699999809E+01 0.  1.
</event>
<event>
 5   0  0.2864801E-07  0.2600099E+04  0.7818609E-02  0.8368168E-01
        1   -1    0    0  501    0  0.00000000000E+00  0.00000000000E+00  0.24840837383E+04  0.24840837383E+04  0.50400001928E-02 0.  1.
       -1   -1    0    0    0  501  0.00000000000E+00  0.00000000000E+00 -0.68038288894E+03  0.68038288896E+03  0.50400001928E-02 0. -1.
    10030    2    1    2    0    0  0.00000000000E+00  0.00000000000E+00  0.18037008493E+04  0.31644666272E+04  0.26000985137E+04 0.  0.
        5    1    3    3  502    0  0.77579313515E+03 -0.26215718154E+03  0.21307306969E+04  0.22826775438E+04  0.46999998093E+01 0.  1.
       -5    1    3    3    0  502 -0.77579313515E+03  0.26215718154E+03 -0.32702984759E+03  0.88178908339E+03  0.46999998093E+01 0. -1.
</event>
<event>
 5   0  0.2755061E-07  0.2598739E+04  0.7818609E-02  0.8368630E-01
        1   -1    0    0  501    0  0.00000000000E+00  0.00000000000E+00  0.19802658861E+04  0.19802658861E+04  0.50400001928E-02 0.  1.
       -1   -1    0    0    0  501  0.00000000000E+00  0.00000000000E+00 -0.85259325506E+03  0.85259325507E+03  0.50400001928E-02 0. -1.
    10030    2    1    2    0    0  0.00000000000E+00  0.00000000000E+00  0.11276726311E+04  0.28328591412E+04  0.25987391849E+04 0.  0.
        4    1    3    3  502    0 -0.84959346628E+03  0.63874151175E+03  0.13785353116E+04  0.17407357626E+04  0.12699999809E+01 0.  1.
       -4    1    3    3    0  502  0.84959346628E+03 -0.63874151175E+03 -0.25086268055E+03  0.10921233786E+04  0.12699999809E+01 0. -1.
</event>
<event>
 5   0  0.2793576E-07  0.2600021E+04  0.7818609E-02  0.8368194E-01
        1   -1    0    0  501    0  0.00000000000E+00  0.00000000000E+00  0.10470321606E+04  0.10470321606E+04  0.50400001928E-02 0. -1.
       -1   -1    0    0    0  501  0.00000000000E+00  0.00000000000E+00 -0.16141116398E+04  0.16141116398E+04  0.50400001928E-02 0.  1.
    10030    2    1    2    0    0  0.00000000000E+00  0.00000000000E+00 -0.56707947918E+03  0.26611438005E+04  0.26000206136E+04 0.  0.
        2    1    3    3  502    0 -0.62576401468E+03  0.80778173107E+03  0.53905497981E+03  0.11552801385E+04  0.25500000920E-02 0. -1.
       -2    1    3    3    0  502  0.62576401468E+03 -0.80778173107E+03 -0.11061344590E+04  0.15058636620E+04  0.25500000920E-02 0.  1.
</event>
<event>
 5   0  0.6526351E-07  0.2599190E+04  0.7818609E-02  0.8368477E-01
        2   -1    0    0  501    0  0.00000000000E+00  0.00000000000E+00  0.15836154615E+04  0.15836154615E+04  0.25500000920E-02 0. -1.
       -2   -1    0    0    0  501  0.00000000000E+00  0.00000000000E+00 -0.10665131050E+04  0.10665131050E+04  0.25500000920E-02 0.  1.
    10030    2    1    2    0    0  0.00000000000E+00  0.00000000000E+00  0.51710235651E+03  0.26501285666E+04  0.25991895991E+04 0.  0.
        3    1    3    3  502    0 -0.94826780612E+03  0.49916670078E+03 -0.49109082209E+03  0.11787915138E+04  0.10100000352E+00 0.  1.
       -3    1    3    3    0  502  0.94826780612E+03 -0.49916670078E+03  0.10081931786E+04  0.14713370528E+04  0.10100000352E+00 0. -1.
</event>
<event>
 5   0  0.6768478E-07  0.2584442E+04  0.7818609E-02  0.8373505E-01
       -2   -1    0    0    0  501  0.00000000000E+00  0.00000000000E+00  0.75865008462E+03  0.75865008463E+03  0.25500000920E-02 0.  1.
        2   -1    0    0  501    0  0.00000000000E+00  0.00000000000E+00 -0.22010606263E+04  0.22010606263E+04  0.25500000920E-02 0. -1.
    10030    2    1    2    0    0  0.00000000000E+00  0.00000000000E+00 -0.14424105417E+04  0.29597107109E+04  0.25844417814E+04 0.  0.
        4    1    3    3  502    0  0.84607454759E+03 -0.96206273460E+03 -0.91428791124E+03  0.15739538884E+04  0.12699999809E+01 0.  1.
       -4    1    3    3    0  502 -0.84607454759E+03  0.96206273460E+03 -0.52812263043E+03  0.13857568225E+04  0.12699999809E+01 0. -1.
</event>
<event>
 5   0  0.7160320E-07  0.2598188E+04  0.7818609E-02  0.8368817E-01
       -2   -1    0    0    0  501  0.00000000000E+00  0.00000000000E+00  0.57684832480E+03  0.57684832481E+03  0.25500000920E-02 0.  1.
        2   -1    0    0  501    0  0.00000000000E+00  0.00000000000E+00 -0.29256305969E+04  0.29256305969E+04  0.25500000920E-02 0. -1.
    10030    2    1    2    0    0  0.00000000000E+00  0.00000000000E+00 -0.23487822721E+04  0.35024789217E+04  0.25981879138E+04 0.  0.
        1    1    3    3  502    0  0.60550865845E+03 -0.11007413613E+04 -0.16202112870E+04  0.20502089880E+04  0.50400001928E-02 0. -1.
       -1    1    3    3    0  502 -0.60550865845E+03  0.11007413613E+04 -0.72857098507E+03  0.14522699337E+04  0.50400001928E-02 0.  1.
</event>
<event>
 5   0  0.6526351E-07  0.2599840E+04  0.7818609E-02  0.8368256E-01
        2   -1    0    0  501    0  0.00000000000E+00  0.00000000000E+00  0.16429130384E+04  0.16429130384E+04  0.25500000920E-02 0.  1.
       -2   -1    0    0    0  501  0.00000000000E+00  0.00000000000E+00 -0.10285340048E+04  0.10285340048E+04  0.25500000920E-02 0. -1.
    10030    2    1    2    0    0  0.00000000000E+00  0.00000000000E+00  0.61437903362E+03  0.26714470433E+04  0.25998399389E+04 0.  0.
        3    1    3    3  502    0  0.20345894937E+03  0.92179409071E+03  0.12255001919E+04  0.15469164878E+04  0.10100000352E+00 0.  1.
       -3    1    3    3    0  502 -0.20345894937E+03 -0.92179409071E+03 -0.61112115832E+03  0.11245305554E+04  0.10100000352E+00 0. -1.
</event>
<event>
 5   0  0.2864801E-07  0.2602694E+04  0.7818609E-02  0.8367287E-01
        1   -1    0    0  501    0  0.00000000000E+00  0.00000000000E+00  0.19462625096E+04  0.19462625096E+04  0.50400001928E-02 0. -1.
       -1   -1    0    0    0  501  0.00000000000E+00  0.00000000000E+00 -0.87013146828E+03  0.87013146830E+03  0.50400001928E-02 0.  1.
    10030    2    1    2    0    0  0.00000000000E+00  0.00000000000E+00  0.10761310414E+04  0.28163939779E+04  0.26026941850E+04 0.  0.
        5    1    3    3  502    0 -0.11896937299E+04 -0.45388579051E+03  0.24750678824E+03  0.12971758486E+04  0.46999998093E+01 0.  1.
       -5    1    3    3    0  502  0.11896937299E+04  0.45388579051E+03  0.82862425311E+03  0.15192181294E+04  0.46999998093E+01 0. -1.
</event>
<event>
 5   0  0.2755061E-07  0.2600928E+04  0.7818609E-02  0.8367886E-01
        1   -1    0    0  501    0  0.00000000000E+00  0.00000000000E+00  0.16125455868E+04  0.16125455868E+04  0.50400001928E-02 0. -1.
       -1   -1    0    0    0  501  0.00000000000E+00  0.00000000000E+00 -0.10487804347E+04  0.10487804347E+04  0.50400001928E-02 0.  1.
    10030    2    1    2    0    0  0.00000000000E+00  0.00000000000E+00  0.56376515212E+03  0.26613260215E+04  0.26009277279E+04 0.  0.
        4    1    3    3  502    0 -0.40415645439E+03  0.76855628941E+03  0.12724455682E+04  0.15405000963E+04  0.12699999809E+01 0. -1.
       -4    1    3    3    0  502  0.40415645439E+03 -0.76855628941E+03 -0.70868041609E+03  0.11208259252E+04  0.12699999809E+01 0.  1.
</event>
<event>
 5   0  0.2864801E-07  0.2600285E+04  0.7818609E-02  0.8368104E-01
        1   -1    0    0  501    0  0.00000000000E+00  0.00000000000E+00  0.12502968316E+04  0.12502968316E+04  0.50400001928E-02 0. -1.
       -1   -1    0    0    0  501  0.00000000000E+00  0.00000000000E+00 -0.13519751679E+04  0.13519751679E+04  0.50400001928E-02 0.  1.
    10030    2    1    2    0    0  0.00000000000E+00  0.00000000000E+00 -0.10167833625E+03  0.26022719995E+04  0.26002848066E+04 0.  0.
        5    1    3    3  502    0  0.94142647145E+02 -0.63141829899E+03  0.10826323587E+04  0.12568479703E+04  0.46999998093E+01 0. -1.
       -5    1    3    3    0  502 -0.94142647145E+02  0.63141829899E+03 -0.11843106949E+04  0.13454240292E+04  0.46999998093E+01 0.  1.
</event>
<event>
 5   0  0.2623263E-07  0.2601765E+04  0.7818609E-02  0.8367602E-01
       -1   -1    0    0    0  501  0.00000000000E+00  0.00000000000E+00  0.71129829609E+03  0.71129829610E+03  0.50400001928E-02 0.  1.
        1   -1    0    0  501    0  0.00000000000E+00  0.00000000000E+00 -0.23791644391E+04  0.23791644391E+04  0.50400001928E-02 0. -1.
    10030    2    1    2    0    0  0.00000000000E+00  0.00000000000E+00 -0.16678661430E+04  0.30904627352E+04  0.26017652559E+04 0.  0.
        1    1    3    3  502    0  0.67514312664E+03 -0.21377436937E+03 -0.21301293863E+04  0.22447647816E+04  0.50400001928E-02 0. -1.
       -1    1    3    3    0  502 -0.67514312664E+03  0.21377436937E+03  0.46226324333E+03  0.84569795353E+03  0.50400001928E-02 0.  1.
</event>
<event>
 5   0  0.6768478E-07  0.2599858E+04  0.7818609E-02  0.8368249E-01
       -2   -1    0    0    0  501  0.00000000000E+00  0.00000000000E+00  0.15665147147E+04  0.15665147147E+04  0.25500000920E-02 0.  1.
        2   -1    0    0  501    0  0.00000000000E+00  0.00000000000E+00 -0.10787101199E+04  0.10787101199E+04  0.25500000920E-02 0. -1.
    10030    2    1    2    0    0  0.00000000000E+00  0.00000000000E+00  0.48780459483E+03  0.26452248347E+04  0.25998579006E+04 0.  0.
        4    1    3    3  502    0  0.10985345954E+04  0.63658256671E+03  0.52769244332E+03  0.13749460168E+04  0.12699999809E+01 0. -1.
       -4    1    3    3    0  502 -0.10985345954E+04 -0.63658256671E+03 -0.39887848490E+02  0.12702788178E+04  0.12699999809E+01 0.  1.
</event>
<event>
 5   0  0.7160320E-07  0.2602450E+04  0.7818609E-02  0.8367369E-01
       -2   -1    0    0    0  501  0.00000000000E+00  0.00000000000E+00  0.69953460146E+03  0.69953460146E+03  0.25500000920E-02 0.  1.
        2   -1    0    0  501    0  0.00000000000E+00  0.00000000000E+00 -0.24204480170E+04  0.24204480170E+04  0.25500000920E-02 0. -1.
    10030    2    1    2    0    0  0.00000000000E+00  0.00000000000E+00 -0.17209134155E+04  0.31199826185E+04  0.26024504905E+04 0.  0.
        1    1    3    3  502    0 -0.81866258309E+03  0.74775607399E+03 -0.43961584692E+02  0.11096306557E+04  0.50400001928E-02 0.  1.
       -1    1    3    3    0  502  0.81866258309E+03 -0.74775607399E+03 -0.16769518308E+04  0.20103519627E+04  0.50400001928E-02 0. -1.
</event>
<event>
 5   0  0.6780984E-07  0.2600851E+04  0.7818609E-02  0.8367912E-01
        2   -1    0    0  501    0  0.00000000000E+00  0.00000000000E+00  0.57895772265E+03  0.57895772265E+03  0.25500000920E-02 0. -1.
       -2   -1    0    0    0  501  0.00000000000E+00  0.00000000000E+00 -0.29209504280E+04  0.29209504280E+04  0.25500000920E-02 0.  1.
    10030    2    1    2    0    0  0.00000000000E+00  0.00000000000E+00 -0.23419927053E+04  0.34999081506E+04  0.26008512512E+04 0.  0.
        2    1    3    3  502    0 -0.26721980920E+01 -0.10161216655E+04 -0.78925494848E+02  0.10191857601E+04  0.25500000920E-02 0. -1.
       -2    1    3    3    0  502  0.26721980920E+01  0.10161216655E+04 -0.22630672105E+04  0.24807223905E+04  0.25500000920E-02 0.  1.
</event>
<event>
 5   0  0.2641626E-07  0.2600260E+04  0.7818609E-02  0.8368113E-01
       -1   -1    0    0    0  501  0.00000000000E+00  0.00000000000E+00  0.72697552291E+03  0.72697552293E+03  0.50400001928E-02 0. -1.
        1   -1    0    0  501    0  0.00000000000E+00  0.00000000000E+00 -0.23251641088E+04  0.23251641088E+04  0.50400001928E-02 0.  1.
    10030    2    1    2    0    0  0.00000000000E+00  0.00000000000E+00 -0.15981885859E+04  0.30521396317E+04  0.26002595208E+04 0.  0.
        3    1    3    3  502    0 -0.15714890335E+03  0.10976194894E+03 -0.23084866147E+04  0.23164312905E+04  0.10100000352E+00 0.  1.
       -3    1    3    3    0  502  0.15714890335E+03 -0.10976194894E+03  0.71029802886E+03  0.73570834116E+03  0.10100000352E+00 0. -1.
</event>
<event>
 5   0  0.6526351E-07  0.2600553E+04  0.7818609E-02  0.8368013E-01
       -2   -1    0    0    0  501  0.00000000000E+00  0.00000000000E+00  0.10811468166E+04  0.10811468166E+04  0.25500000920E-02 0. -1.
        2   -1    0    0  501    0  0.00000000000E+00  0.00000000000E+00 -0.15638203900E+04  0.15638203900E+04  0.25500000920E-02 0.  1.
    10030    2    1    2    0    0  0.00000000000E+00  0.00000000000E+00 -0.48267357344E+03  0.26449672067E+04  0.26005533538E+04 0.  0.
        3    1    3    3  502    0 -0.49760170987E+03 -0.18510133260E+03  0.96588431647E+03  0.11021807873E+04  0.10100000352E+00 0. -1.
       -3    1    3    3    0  502  0.49760170987E+03  0.18510133260E+03 -0.14485578899E+04  0.15427864193E+04  0.10100000352E+00 0.  1.
</event>
<event>
 5   0  0.6599814E-07  0.2605215E+04  0.7818609E-02  0.8366432E-01
       -2   -1    0    0    0  501  0.00000000000E+00  0.00000000000E+00  0.15669353923E+04  0.15669353923E+04  0.25500000920E-02 0. -1.
        2   -1    0    0  501    0  0.00000000000E+00  0.00000000000E+00 -0.10828692759E+04  0.10828692759E+04  0.25500000920E-02 0.  1.
    10030    2    1    2    0    0  0.00000000000E+00  0.00000000000E+00  0.48406611640E+03  0.26498046682E+04  0.26052149191E+04 0.  0.
        5    1    3    3  502    0  0.92439712091E+03  0.88550006790E+03 -0.32240610344E+01  0.12800987821E+04  0.46999998093E+01 0.  1.
       -5    1    3    3    0  502 -0.92439712091E+03 -0.88550006790E+03  0.48729017744E+03  0.13697058861E+04  0.46999998093E+01 0. -1.
</event>
<event>
 5   0  0.7160320E-07  0.2595691E+04  0.7818609E-02  0.8369666E-01
       -2   -1    0    0    0  501  0.00000000000E+00  0.00000000000E+00  0.97491258395E+03  0.97491258396E+03  0.25500000920E-02 0.  1.
        2   -1    0    0  501    0  0.00000000000E+00  0.00000000000E+00 -0.17277477502E+04  0.17277477502E+04  0.25500000920E-02 0. -1.
    10030    2    1    2    0    0  0.00000000000E+00  0.00000000000E+00 -0.75283516627E+03  0.27026603342E+04  0.25956910630E+04 0.  0.
        1    1    3    3  502    0 -0.71304322255E+03 -0.34434502601E+03  0.69425798078E+03  0.10530898718E+04  0.50400001928E-02 0.  1.
       -1    1    3    3    0  502  0.71304322255E+03  0.34434502601E+03 -0.14470931470E+04  0.16495704624E+04  0.50400001928E-02 0. -1.
</event>
<event>
 5   0  0.2641626E-07  0.2600209E+04  0.7818609E-02  0.8368130E-01
        1   -1    0    0  501    0  0.00000000000E+00  0.00000000000E+00  0.15282132434E+04  0.15282132434E+04  0.50400001928E-02 0. -1.
       -1   -1    0    0    0  501  0.00000000000E+00  0.00000000000E+00 -0.11060447767E+04  0.11060447767E+04  0.50400001928E-02 0.  1.
    10030    2    1    2    0    0  0.00000000000E+00  0.00000000000E+00  0.42216846669E+03  0.26342580201E+04  0.26002094343E+04 0.  0.
        3    1    3    3  502    0  0.17720676092E+03  0.69968291526E+03  0.13065921684E+04  0.14926960584E+04  0.10100000352E+00 0. -1.
       -3    1    3    3    0  502 -0.17720676092E+03 -0.69968291526E+03 -0.88442370172E+03  0.11415619617E+04  0.10100000352E+00 0.  1.
</event>
<event>
 5   0  0.2755061E-07  0.2602990E+04  0.7818609E-02  0.8367186E-01
       -1   -1    0    0    0  501  0.00000000000E+00  0.00000000000E+00  0.12129038981E+04  0.12129038981E+04  0.50400001928E-02 0.  1.
        1   -1    0    0  501    0  0.00000000000E+00  0.00000000000E+00 -0.13965569799E+04  0.13965569799E+04  0.50400001928E-02 0. -1.
    10030    2    1    2    0    0  0.00000000000E+00  0.00000000000E+00 -0.18365308183E+03  0.26094608780E+04  0.26029901305E+04 0.  0.
        4    1    3    3  502    0 -0.83117761809E+03  0.94272232028E+03  0.24710589722E+03  0.12808764746E+04  0.12699999809E+01 0.  1.
       -4    1    3    3    0  502  0.83117761809E+03 -0.94272232028E+03 -0.43075897905E+03  0.13285844034E+04  0.12699999809E+01 0. -1.
</event>
<event>
 5   0  0.2641626E-07  0.2599782E+04  0.7818609E-02  0.8368275E-01
       -1   -1    0    0    0  501  0.00000000000E+00  0.00000000000E+00  0.10165895392E+04  0.10165895392E+04  0.50400001928E-02 0. -1.
        1   -1    0    0  501    0  0.00000000000E+00  0.00000000000E+00 -0.16621418427E+04  0.16621418427E+04  0.50400001928E-02 0.  1.
    10030    2    1    2    0    0  0.00000000000E+00  0.00000000000E+00 -0.64555230348E+03  0.26787313820E+04  0.25997815370E+04 0.  0.
        3    1    3    3  502    0 -0.44760246647E+03 -0.95076542097E+03  0.46558196942E+03  0.11493778466E+04  0.10100000352E+00 0. -1.
       -3    1    3    3    0  502  0.44760246647E+03  0.95076542097E+03 -0.11111342729E+04  0.15293535354E+04  0.10100000352E+00 0.  1.
</event>
<event>
 5   0  0.6768478E-07  0.2598713E+04  0.7818609E-02  0.8368638E-01
        2   -1    0    0  501    0  0.00000000000E+00  0.00000000000E+00  0.20910571009E+04  0.20910571009E+04  0.25500000920E-02 0. -1.
       -2   -1    0    0    0  501  0.00000000000E+00  0.00000000000E+00 -0.80740382750E+03  0.80740382750E+03  0.25500000920E-02 0.  1.
    10030    2    1    2    0    0  0.00000000000E+00  0.00000000000E+00  0.12836532734E+04  0.28984609284E+04  0.25987131483E+04 0.  0.
        4    1    3    3  502    0  0.10072762780E+04 -0.70906948146E+03  0.18068742354E+03  0.12450038505E+04  0.12699999809E+01 0.  1.
       -4    1    3    3    0  502 -0.10072762780E+04  0.70906948146E+03  0.11029658498E+04  0.16534570779E+04  0.12699999809E+01 0. -1.
</event>
<event>
 5   0  0.6599814E-07  0.2599815E+04  0.7818609E-02  0.8368264E-01
       -2   -1    0    0    0  501  0.00000000000E+00  0.00000000000E+00  0.10708544452E+04  0.10708544452E+04  0.25500000920E-02 0.  1.
        2   -1    0    0  501    0  0.00000000000E+00  0.00000000000E+00 -0.15779542314E+04  0.15779542314E+04  0.25500000920E-02 0. -1.
    10030    2    1    2    0    0  0.00000000000E+00  0.00000000000E+00 -0.50709978621E+03  0.26488086766E+04  0.25998148419E+04 0.  0.
        5    1    3    3  502    0 -0.14238357375E+03  0.69957373234E+02  0.10609459464E+04  0.10727513726E+04  0.46999998093E+01 0.  1.
       -5    1    3    3    0  502  0.14238357375E+03 -0.69957373234E+02 -0.15680457326E+04  0.15760573041E+04  0.46999998093E+01 0. -1.
</event>
<event>
 5   0  0.6780984E-07  0.2599956E+04  0.7818609E-02  0.8368216E-01
        2   -1    0    0  501    0  0.00000000000E+00  0.00000000000E+00  0.10586318138E+04  0.10586318138E+04  0.25500000920E-02 0. -1.
       -2   -1    0    0    0  501  0.00000000000E+00  0.00000000000E+00 -0.15963459385E+04  0.15963459385E+04  0.25500000920E-02 0.  1.
    10030    2    1    2    0    0  0.00000000000E+00  0.00000000000E+00 -0.53771412469E+03  0.26549777523E+04  0.25999558429E+04 0.  0.
        2    1    3    3  502    0  0.73418585138E+02 -0.17102844350E+02 -0.15941120753E+04  0.15958935129E+04  0.25500000920E-02 0.  1.
       -2    1    3    3    0  502 -0.73418585138E+02  0.17102844350E+02  0.10563979506E+04  0.10590842393E+04  0.25500000920E-02 0. -1.
</event>
<event>
 5   0  0.6526351E-07  0.2600236E+04  0.7818609E-02  0.8368121E-01
        2   -1    0    0  501    0  0.00000000000E+00  0.00000000000E+00  0.24324001162E+04  0.24324001162E+04  0.25500000920E-02 0. -1.
       -2   -1    0    0    0  501  0.00000000000E+00  0.00000000000E+00 -0.69491298315E+03  0.69491298315E+03  0.25500000920E-02 0.  1.
    10030    2    1    2    0    0  0.00000000000E+00  0.00000000000E+00  0.17374871330E+04  0.31273130994E+04  0.26002356978E+04 0.  0.
        3    1    3    3  502    0  0.92478274268E+03  0.83193594941E+03  0.13234957855E+04  0.18163098991E+04  0.10100000352E+00 0. -1.
       -3    1    3    3    0  502 -0.92478274268E+03 -0.83193594941E+03  0.41399134755E+03  0.13110032003E+04  0.10100000352E+00 0.  1.
</event>
<event>
 5   0  0.6780984E-07  0.2599711E+04  0.7818609E-02  0.8368299E-01
       -2   -1    0    0    0  501  0.00000000000E+00  0.00000000000E+00  0.10732182471E+04  0.10732182471E+04  0.25500000920E-02 0.  1.
        2   -1    0    0  501    0  0.00000000000E+00  0.00000000000E+00 -0.15743529739E+04  0.15743529739E+04  0.25500000920E-02 0. -1.
    10030    2    1    2    0    0  0.00000000000E+00  0.00000000000E+00 -0.50113472680E+03  0.26475712210E+04  0.25997110139E+04 0.  0.
        2    1    3    3  502    0  0.64238404543E+03 -0.38006541748E+03  0.83322231507E+03  0.11186448989E+04  0.25500000920E-02 0.  1.
       -2    1    3    3    0  502 -0.64238404543E+03  0.38006541748E+03 -0.13343570419E+04  0.15289263222E+04  0.25500000920E-02 0. -1.
</event>
<event>
 5   0  0.6526351E-07  0.2599286E+04  0.7818609E-02  0.8368444E-01
        2   -1    0    0  501    0  0.00000000000E+00  0.00000000000E+00  0.22294107113E+04  0.22294107113E+04  0.25500000920E-02 0.  1.
       -2   -1    0    0    0  501  0.00000000000E+00  0.00000000000E+00 -0.75763149403E+03  0.75763149403E+03  0.25500000920E-02 0. -1.
    10030    2    1    2    0    0  0.00000000000E+00  0.00000000000E+00  0.14717792173E+04  0.29870422054E+04  0.25992858774E+04 0.  0.
        3    1    3    3  502    0  0.12726073323E+04  0.97349519049E+02  0.10175329725E+04  0.16322927775E+04  0.10100000352E+00 0.  1.
       -3    1    3    3    0  502 -0.12726073323E+04 -0.97349519049E+02  0.45424624477E+03  0.13547494278E+04  0.10100000352E+00 0. -1.
</event>
<event>
 5   0  0.6526351E-07  0.2599109E+04  0.7818609E-02  0.8368504E-01
       -2   -1    0    0    0  501  0.00000000000E+00  0.00000000000E+00  0.16757637544E+04  0.16757637544E+04  0.25500000920E-02 0.  1.
        2   -1    0    0  501    0  0.00000000000E+00  0.00000000000E+00 -0.10078042152E+04  0.10078042152E+04  0.25500000920E-02 0. -1.
    10030    2    1    2    0    0  0.00000000000E+00  0.00000000000E+00  0.66795953918E+03  0.26835679696E+04  0.25991089052E+04 0.  0.
        3    1    3    3  502    0  0.47951103448E+03  0.10358597726E+04  0.97537922447E+03  0.15014329630E+04  0.10100000352E+00 0.  1.
       -3    1    3    3    0  502 -0.47951103448E+03 -0.10358597726E+04 -0.30741968529E+03  0.11821350066E+04  0.10100000352E+00 0. -1.
</event>
<event>
 5   0  0.6768478E-07  0.2599980E+04  0.7818609E-02  0.8368208E-01
        2   -1    0    0  501    0  0.00000000000E+00  0.00000000000E+00  0.19878422929E+04  0.19878422929E+04  0.25500000920E-02 0.  1.
       -2   -1    0    0    0  501  0.00000000000E+00  0.00000000000E+00 -0.85015528001E+03  0.85015528001E+03  0.25500000920E-02 0. -1.
    10030    2    1    2    0    0  0.00000000000E+00  0.00000000000E+00  0.11376870129E+04  0.28379975729E+04  0.25999804777E+04 0.  0.
        4    1    3    3  502    0  0.10259303132E+04 -0.53330546188E+03  0.12173955600E+04  0.16789881732E+04  0.12699999809E+01 0.  1.
       -4    1    3    3    0  502 -0.10259303132E+04  0.53330546188E+03 -0.79708547166E+02  0.11590093997E+04  0.12699999809E+01 0. -1.
</event>
<event>
 5   0  0.2864801E-07  0.2599679E+04  0.7818609E-02  0.8368310E-01
        1   -1    0    0  501    0  0.00000000000E+00  0.00000000000E+00  0.11309302270E+04  0.11309302270E+04  0.50400001928E-02 0. -1.
       -1   -1    0    0    0  501  0.00000000000E+00  0.00000000000E+00 -0.14939766539E+04  0.14939766539E+04  0.50400001928E-02 0.  1.
    10030    2    1    2    0    0  0.00000000000E+00  0.00000000000E+00 -0.36304642695E+03  0.26249068809E+04  0.25996794851E+04 0.  0.
        5    1    3    3  502    0  0.75972436650E+03  0.84769751119E+03  0.45209248704E+03  0.12248191256E+04  0.46999998093E+01 0. -1.
       -5    1    3    3    0  502 -0.75972436650E+03 -0.84769751119E+03 -0.81513891399E+03  0.14000877553E+04  0.46999998093E+01 0.  1.
</event>
<event>
 5   0  0.2793576E-07  0.2599914E+04  0.7818609E-02  0.8368231E-01
        1   -1    0    0  501    0  0.00000000000E+00  0.00000000000E+00  0.94347891073E+03  0.94347891074E+03  0.50400001928E-02 0.  1.
       -1   -1    0    0    0  501  0.00000000000E+00  0.00000000000E+00 -0.17911240069E+04  0.17911240069E+04  0.50400001928E-02 0. -1.
    10030    2    1    2    0    0  0.00000000000E+00  0.00000000000E+00 -0.84764509620E+03  0.27346029177E+04  0.25999136348E+04 0.  0.
        2    1    3    3  502    0 -0.10077823632E+04  0.56525288209E+03 -0.10502886001E+04  0.15614871936E+04  0.25500000920E-02 0.  1.
       -2    1    3    3    0  502  0.10077823632E+04 -0.56525288209E+03  0.20264350394E+03  0.11731157240E+04  0.25500000920E-02 0. -1.
</event>
<event>
 5   0  0.2793576E-07  0.2598301E+04  0.7818609E-02  0.8368779E-01
        1   -1    0    0  501    0  0.00000000000E+00  0.00000000000E+00  0.84067910562E+03  0.84067910563E+03  0.50400001928E-02 0.  1.
       -1   -1    0    0    0  501  0.00000000000E+00  0.00000000000E+00 -0.20076530070E+04  0.20076530070E+04  0.50400001928E-02 0. -1.
    10030    2    1    2    0    0  0.00000000000E+00  0.00000000000E+00 -0.11669739013E+04  0.28483321126E+04  0.25983009328E+04 0.  0.
        2    1    3    3  502    0  0.72791153779E+03  0.56170287931E+03  0.42267343281E+03  0.10119378253E+04  0.25500000920E-02 0.  1.
       -2    1    3    3    0  502 -0.72791153779E+03 -0.56170287931E+03 -0.15896473341E+04  0.18363942873E+04  0.25500000920E-02 0. -1.
</event>
<event>
 5   0  0.2641626E-07  0.2602570E+04  0.7818609E-02  0.8367329E-01
        1   -1    0    0  501    0  0.00000000000E+00  0.00000000000E+00  0.18053350612E+04  0.18053350612E+04  0.50400001928E-02 0. -1.
       -1   -1    0    0    0  501  0.00000000000E+00  0.00000000000E+00 -0.93796597415E+03  0.93796597416E+03  0.50400001928E-02 0.  1.
    10030    2    1    2    0    0  0.00000000000E+00  0.00000000000E+00  0.86736908708E+03  0.27433010354E+04  0.26025701600E+04 0.  0.
        3    1    3    3  502    0 -0.63955866102E+03 -0.27382819604E+03  0.15928426061E+04  0.17381498036E+04  0.10100000352E+00 0. -1.
       -3    1    3    3    0  502  0.63955866102E+03  0.27382819604E+03 -0.72547351899E+03  0.10051512318E+04  0.10100000352E+00 0.  1.
</event>
<event>
 5   0  0.7160320E-07  0.2601362E+04  0.7818609E-02  0.8367739E-01
        2   -1    0    0  501    0  0.00000000000E+00  0.00000000000E+00  0.96912590315E+03  0.96912590315E+03  0.25500000920E-02 0.  1.
       -2   -1    0    0    0  501  0.00000000000E+00  0.00000000000E+00 -0.17456666830E+04  0.17456666830E+04  0.25500000920E-02 0. -1.
    10030    2    1    2    0    0  0.00000000000E+00  0.00000000000E+00 -0.77654077988E+03  0.27147925862E+04  0.26013617978E+04 0.  0.
        1    1    3    3  502    0  0.11586084621E+04 -0.56520441070E+03 -0.56885076244E+03  0.14090496032E+04  0.50400001928E-02 0. -1.
       -1    1    3    3    0  502 -0.11586084621E+04  0.56520441070E+03 -0.20769001744E+03  0.13057429830E+04  0.50400001928E-02 0.  1.
</event>
<event>
 5   0  0.2641626E-07  0.2599363E+04  0.7818609E-02  0.8368417E-01
       -1   -1    0    0    0  501  0.00000000000E+00  0.00000000000E+00  0.90724978005E+03  0.90724978006E+03  0.50400001928E-02 0.  1.
        1   -1    0    0  501    0  0.00000000000E+00  0.00000000000E+00 -0.18618604217E+04  0.18618604217E+04  0.50400001928E-02 0. -1.
    10030    2    1    2    0    0  0.00000000000E+00  0.00000000000E+00 -0.95461064165E+03  0.27691102018E+04  0.25993633514E+04 0.  0.
        3    1    3    3  502    0  0.30791025624E+03  0.11111726125E+04  0.16157395896E+03  0.11643107210E+04  0.10100000352E+00 0.  1.
       -3    1    3    3    0  502 -0.30791025624E+03 -0.11111726125E+04 -0.11161846006E+04  0.16047994808E+04  0.10100000352E+00 0. -1.
</event>
<event>
 5   0  0.6526351E-07  0.2599462E+04  0.7818609E-02  0.8368384E-01
        2   -1    0    0  501    0  0.00000000000E+00  0.00000000000E+00  0.19615114343E+04  0.19615114343E+04  0.25500000920E-02 0. -1.
       -2   -1    0    0    0  501  0.00000000000E+00  0.00000000000E+00 -0.86122416418E+03  0.86122416418E+03  0.25500000920E-02 0.  1.
    10030    2    1    2    0    0  0.00000000000E+00  0.00000000000E+00  0.11002872702E+04  0.28227355985E+04  0.25994622871E+04 0.  0.
        3    1    3    3  502    0  0.89300328228E+03  0.93626031401E+03  0.68429767385E+03  0.14636603275E+04  0.10100000352E+00 0.  1.
       -3    1    3    3    0  502 -0.89300328228E+03 -0.93626031401E+03  0.41598959630E+03  0.13590752710E+04  0.10100000352E+00 0. -1.
</event>
<event>
 5   0  0.2623263E-07  0.2600162E+04  0.7818609E-02  0.8368146E-01
       -1   -1    0    0    0  501  0.00000000000E+00  0.00000000000E+00  0.13921321163E+04  0.13921321163E+04  0.50400001928E-02 0. -1.
        1   -1    0    0  501    0  0.00000000000E+00  0.00000000000E+00 -0.12141160645E+04  0.12141160645E+04  0.50400001928E-02 0.  1.
    10030    2    1    2    0    0  0.00000000000E+00  0.00000000000E+00  0.17801605174E+03  0.26062481808E+04  0.26001615075E+04 0.  0.
        1    1    3    3  502    0 -0.40130570249E+03  0.45869642140E+03 -0.10620535060E+04  0.12245024799E+04  0.50400001928E-02 0.  1.
       -1    1    3    3    0  502  0.40130570249E+03 -0.45869642140E+03  0.12400695577E+04  0.13817457008E+04  0.50400001928E-02 0. -1.
</event>
<event>
 5   0  0.6768478E-07  0.2600339E+04  0.7818609E-02  0.8368086E-01
        2   -1    0    0  501    0  0.00000000000E+00  0.00000000000E+00  0.10844503402E+04  0.10844503402E+04  0.25500000920E-02 0.  1.
       -2   -1    0    0    0  501  0.00000000000E+00  0.00000000000E+00 -0.15587991696E+04  0.15587991696E+04  0.25500000920E-02 0. -1.
    10030    2    1    2    0    0  0.00000000000E+00  0.00000000000E+00 -0.47434882939E+03  0.26432495099E+04  0.26003386625E+04 0.  0.
        4    1    3    3  502    0 -0.91744029061E+03 -0.90058387389E+03 -0.43451899858E+03  0.13570395624E+04  0.12699999809E+01 0. -1.
       -4    1    3    3    0  502  0.91744029061E+03  0.90058387389E+03 -0.39829830813E+02  0.12862099475E+04  0.12699999809E+01 0.  1.
</event>
<event>
 5   0  0.6768478E-07  0.2598439E+04  0.7818609E-02  0.8368732E-01
        2   -1    0    0  501    0  0.00000000000E+00  0.00000000000E+00  0.22474434644E+04  0.22474434644E+04  0.25500000920E-02 0.  1.
       -2   -1    0    0    0  501  0.00000000000E+00  0.00000000000E+00 -0.75106262282E+03  0.75106262283E+03  0.25500000920E-02 0. -1.
    10030    2    1    2    0    0  0.00000000000E+00  0.00000000000E+00  0.14963808416E+04  0.29985060873E+04  0.25984385950E+04 0.  0.
        4    1    3    3  502    0 -0.22116654671E+03  0.82822917712E+03 -0.37838339108E+03  0.93704525759E+03  0.12699999809E+01 0. -1.
       -4    1    3    3    0  502  0.22116654671E+03 -0.82822917712E+03  0.18747642327E+04  0.20614608297E+04  0.12699999809E+01 0.  1.
</event>
<event>
 5   0  0.2864801E-07  0.2599551E+04  0.7818609E-02  0.8368354E-01
       -1   -1    0    0    0  501  0.00000000000E+00  0.00000000000E+00  0.11872969386E+04  0.11872969386E+04  0.50400001928E-02 0. -1.
        1   -1    0    0  501    0  0.00000000000E+00  0.00000000000E+00 -0.14229100092E+04  0.14229100092E+04  0.50400001928E-02 0.  1.
    10030    2    1    2    0    0  0.00000000000E+00  0.00000000000E+00 -0.23561307060E+03  0.26102069477E+04  0.25995512672E+04 0.  0.
        5    1    3    3  502    0 -0.42411475261E+03  0.86145655972E+03  0.76180593850E+03  0.12257043304E+04  0.46999998093E+01 0. -1.
       -5    1    3    3    0  502  0.42411475261E+03 -0.86145655972E+03 -0.99741900909E+03  0.13845026173E+04  0.46999998093E+01 0.  1.
</event>
<event>
 5   0  0.2641626E-07  0.2600770E+04  0.7818609E-02  0.8367940E-01
       -1   -1    0    0    0  501  0.00000000000E+00  0.00000000000E+00  0.16744960225E+04  0.16744960225E+04  0.50400001928E-02 0. -1.
        1   -1    0    0  501    0  0.00000000000E+00  0.00000000000E+00 -0.10098564621E+04  0.10098564621E+04  0.50400001928E-02 0.  1.
    10030    2    1    2    0    0  0.00000000000E+00  0.00000000000E+00  0.66463956044E+03  0.26843524846E+04  0.26007696008E+04 0.  0.
        3    1    3    3  502    0 -0.36748640172E+03  0.30411136650E+03 -0.91629844473E+03  0.10330212141E+04  0.10100000352E+00 0.  1.
       -3    1    3    3    0  502  0.36748640172E+03 -0.30411136650E+03  0.15809380052E+04  0.16513312705E+04  0.10100000352E+00 0. -1.
</event>
<event>
 5   0  0.2793576E-07  0.2600676E+04  0.7818609E-02  0.8367971E-01
       -1   -1    0    0    0  501  0.00000000000E+00  0.00000000000E+00  0.71098368182E+03  0.71098368184E+03  0.50400001928E-02 0.  1.
        1   -1    0    0  501    0  0.00000000000E+00  0.00000000000E+00 -0.23782253281E+04  0.23782253281E+04  0.50400001928E-02 0. -1.
    10030    2    1    2    0    0  0.00000000000E+00  0.00000000000E+00 -0.16672416463E+04  0.30892090100E+04  0.26006763736E+04 0.  0.
        2    1    3    3  502    0 -0.12963515164E+04  0.77579039647E+02 -0.91181732528E+03  0.15868070444E+04  0.25500000920E-02 0.  1.
       -2    1    3    3    0  502  0.12963515164E+04 -0.77579039647E+02 -0.75542432104E+03  0.15024019656E+04  0.25500000920E-02 0. -1.
</event>
<event>
 5   0  0.6768478E-07  0.2598746E+04  0.7818609E-02  0.8368627E-01
       -2   -1    0    0    0  501  0.00000000000E+00  0.00000000000E+00  0.14095464528E+04  0.14095464528E+04  0.25500000920E-02 0.  1.
        2   -1    0    0  501    0  0.00000000000E+00  0.00000000000E+00 -0.11978105432E+04  0.11978105432E+04  0.25500000920E-02 0. -1.
    10030    2    1    2    0    0  0.00000000000E+00  0.00000000000E+00  0.21173590961E+03  0.26073569959E+04  0.25987455452E+04 0.  0.
        4    1    3    3  502    0 -0.96903689041E+03  0.79142072574E+03  0.45772754897E+03  0.13322519965E+04  0.12699999809E+01 0.  1.
       -4    1    3    3    0  502  0.96903689041E+03 -0.79142072574E+03 -0.24599163936E+03  0.12751049995E+04  0.12699999809E+01 0. -1.
</event>
<event>
 5   0  0.2641626E-07  0.2604025E+04  0.7818609E-02  0.8366835E-01
       -1   -1    0    0    0  501  0.00000000000E+00  0.00000000000E+00  0.19561583174E+04  0.19561583174E+04  0.50400001928E-02 0. -1.
        1   -1    0    0  501    0  0.00000000000E+00  0.00000000000E+00 -0.86661522142E+03  0.86661522143E+03  0.50400001928E-02 0.  1.
    10030    2    1    2    0    0  0.00000000000E+00  0.00000000000E+00  0.10895430960E+04  0.28227735388E+04  0.26040250178E+04 0.  0.
        3    1    3    3  502    0 -0.20013321186E+03  0.13708736083E+03 -0.84190233394E+03  0.87615398023E+03  0.10100000352E+00 0.  1.
       -3    1    3    3    0  502  0.20013321186E+03 -0.13708736083E+03  0.19314454299E+04  0.19466195586E+04  0.10100000352E+00 0. -1.
</event>
<event>
 5   0  0.6780984E-07  0.2600093E+04  0.7818609E-02  0.8368170E-01
        2   -1    0    0  501    0  0.00000000000E+00  0.00000000000E+00  0.10581675153E+04  0.10581675154E+04  0.25500000920E-02 0.  1.
       -2   -1    0    0    0  501  0.00000000000E+00  0.00000000000E+00 -0.15972150882E+04  0.15972150882E+04  0.25500000920E-02 0. -1.
    10030    2    1    2    0    0  0.00000000000E+00  0.00000000000E+00 -0.53904757289E+03  0.26553826036E+04  0.26000931686E+04 0.  0.
        2    1    3    3  502    0  0.14907618234E+03  0.70162718714E+03 -0.13768384969E+04  0.15524782332E+04  0.25500000920E-02 0. -1.
       -2    1    3    3    0  502 -0.14907618234E+03 -0.70162718714E+03  0.83779092403E+03  0.11029043704E+04  0.25500000920E-02 0.  1.
</event>
<event>
 5   0  0.6768478E-07  0.2600061E+04  0.7818609E-02  0.8368180E-01
       -2   -1    0    0    0  501  0.00000000000E+00  0.00000000000E+00  0.78165517812E+03  0.78165517813E+03  0.25500000920E-02 0. -1.
        2   -1    0    0  501    0  0.00000000000E+00  0.00000000000E+00 -0.21621802639E+04  0.21621802639E+04  0.25500000920E-02 0.  1.
    10030    2    1    2    0    0  0.00000000000E+00  0.00000000000E+00 -0.13805250858E+04  0.29438354421E+04  0.26000610757E+04 0.  0.
        4    1    3    3  502    0  0.88761660664E+03  0.89525392435E+03 -0.33091052940E+03  0.13033979518E+04  0.12699999809E+01 0. -1.
       -4    1    3    3    0  502 -0.88761660664E+03 -0.89525392435E+03 -0.10496145564E+04  0.16404374902E+04  0.12699999809E+01 0.  1.
</event>
<event>
 5   0  0.2864801E-07  0.2601013E+04  0.7818609E-02  0.8367857E-01
       -1   -1    0    0    0  501  0.00000000000E+00  0.00000000000E+00  0.11484881088E+04  0.11484881088E+04  0.50400001928E-02 0.  1.
        1   -1    0    0  501    0  0.00000000000E+00  0.00000000000E+00 -0.14726464272E+04  0.14726464272E+04  0.50400001928E-02 0. -1.
    10030    2    1    2    0    0  0.00000000000E+00  0.00000000000E+00 -0.32415831841E+03  0.26211345359E+04  0.26010128104E+04 0.  0.
        5    1    3    3  502    0  0.65624591982E+03  0.84304891695E+03  0.58521314912E+03  0.12181488840E+04  0.46999998093E+01 0.  1.
       -5    1    3    3    0  502 -0.65624591982E+03 -0.84304891695E+03 -0.90937146753E+03  0.14029856520E+04  0.46999998093E+01 0. -1.
</event>
<event>
 5   0  0.2793576E-07  0.2598907E+04  0.7818609E-02  0.8368573E-01
        1   -1    0    0  501    0  0.00000000000E+00  0.00000000000E+00  0.16013907349E+04  0.16013907349E+04  0.50400001928E-02 0.  1.
       -1   -1    0    0    0  501  0.00000000000E+00  0.00000000000E+00 -0.10544457154E+04  0.10544457154E+04  0.50400001928E-02 0. -1.
    10030    2    1    2    0    0  0.00000000000E+00  0.00000000000E+00  0.54694501955E+03  0.26558364503E+04  0.25989071542E+04 0.  0.
        2    1    3    3  502    0  0.43094973436E+02 -0.25647159754E+03 -0.10275795287E+04  0.10599785587E+04  0.25500000920E-02 0. -1.
       -2    1    3    3    0  502 -0.43094973436E+02  0.25647159754E+03  0.15745245483E+04  0.15958578916E+04  0.25500000920E-02 0.  1.
</event>
<event>
 5   0  0.6780984E-07  0.2599035E+04  0.7818609E-02  0.8368529E-01
        2   -1    0    0  501    0  0.00000000000E+00  0.00000000000E+00  0.17290447495E+04  0.17290447495E+04  0.25500000920E-02 0. -1.
       -2   -1    0    0    0  501  0.00000000000E+00  0.00000000000E+00 -0.97669252743E+03  0.97669252743E+03  0.25500000920E-02 0.  1.
    10030    2    1    2    0    0  0.00000000000E+00  0.00000000000E+00  0.75235222212E+03  0.27057372770E+04  0.25990345026E+04 0.  0.
        2    1    3    3  502    0 -0.38531003562E+03 -0.12264701520E+04  0.17850662095E+03  0.12979050316E+04  0.25500000920E-02 0.  1.
       -2    1    3    3    0  502  0.38531003562E+03  0.12264701520E+04  0.57384560116E+03  0.14078322454E+04  0.25500000920E-02 0. -1.
</event>
<event>
 5   0  0.6526351E-07  0.2601453E+04  0.7818609E-02  0.8367708E-01
        2   -1    0    0  501    0  0.00000000000E+00  0.00000000000E+00  0.15947361381E+04  0.15947361381E+04  0.25500000920E-02 0.  1.
       -2   -1    0    0    0  501  0.00000000000E+00  0.00000000000E+00 -0.10609211489E+04  0.10609211489E+04  0.25500000920E-02 0. -1.
    10030    2    1    2    0    0  0.00000000000E+00  0.00000000000E+00  0.53381498912E+03  0.26556572870E+04  0.26014528986E+04 0.  0.
        3    1    3    3  502    0 -0.94646047900E+03  0.71200036954E+03 -0.28203033117E+03  0.12174863787E+04  0.10100000352E+00 0. -1.
       -3    1    3    3    0  502  0.94646047900E+03 -0.71200036954E+03  0.81584532029E+03  0.14381709083E+04  0.10100000352E+00 0.  1.
</event>
<event>
 5   0  0.6599814E-07  0.2601175E+04  0.7818609E-02  0.8367802E-01
       -2   -1    0    0    0  501  0.00000000000E+00  0.00000000000E+00  0.66231782099E+03  0.66231782100E+03  0.25500000920E-02 0. -1.
        2   -1    0    0  501    0  0.00000000000E+00  0.00000000000E+00 -0.25539525511E+04  0.25539525511E+04  0.25500000920E-02 0.  1.
    10030    2    1    2    0    0  0.00000000000E+00  0.00000000000E+00 -0.18916347301E+04  0.32162703721E+04  0.26011753409E+04 0.  0.
        5    1    3    3  502    0 -0.16154479793E+03 -0.24315125075E+03  0.62127461063E+03  0.68645719772E+03  0.46999998093E+01 0. -1.
       -5    1    3    3    0  502  0.16154479793E+03  0.24315125075E+03 -0.25129093407E+04  0.25298131744E+04  0.46999998093E+01 0.  1.
</event>
<event>
 5   0  0.2793576E-07  0.2599416E+04  0.7818609E-02  0.8368399E-01
       -1   -1    0    0    0  501  0.00000000000E+00  0.00000000000E+00  0.89130430720E+03  0.89130430722E+03  0.50400001928E-02 0.  1.
        1   -1    0    0  501    0  0.00000000000E+00  0.00000000000E+00 -0.18952464256E+04  0.18952464256E+04  0.50400001928E-02 0. -1.
    10030    2    1    2    0    0  0.00000000000E+00  0.00000000000E+00 -0.10039421184E+04  0.27865507328E+04  0.25994163209E+04 0.  0.
        2    1    3    3  502    0 -0.77599067316E+03 -0.70522602103E+03  0.32125658628E+03  0.10966818407E+04  0.25500000920E-02 0.  1.
       -2    1    3    3    0  502  0.77599067316E+03  0.70522602103E+03 -0.13251987047E+04  0.16898688921E+04  0.25500000920E-02 0. -1.
</event>
<event>
 5   0  0.6780984E-07  0.2599854E+04  0.7818609E-02  0.8368251E-01
       -2   -1    0    0    0  501  0.00000000000E+00  0.00000000000E+00  0.12780388805E+04  0.12780388806E+04  0.25500000920E-02 0. -1.
        2   -1    0    0  501    0  0.00000000000E+00  0.00000000000E+00 -0.13221902061E+04  0.13221902061E+04  0.25500000920E-02 0.  1.
    10030    2    1    2    0    0  0.00000000000E+00  0.00000000000E+00 -0.44151325591E+02  0.26002290867E+04  0.25998542197E+04 0.  0.
        2    1    3    3  502    0  0.56600903623E+03 -0.77461057827E+03 -0.89936957730E+03  0.13150108036E+04  0.25500000920E-02 0.  1.
       -2    1    3    3    0  502 -0.56600903623E+03  0.77461057827E+03  0.85521825171E+03  0.12852182831E+04  0.25500000920E-02 0. -1.
</event>
<event>
 5   0  0.2793576E-07  0.2599282E+04  0.7818609E-02  0.8368445E-01
       -1   -1    0    0    0  501  0.00000000000E+00  0.00000000000E+00  0.99843655934E+03  0.99843655935E+03  0.50400001928E-02 0.  1.
        1   -1    0    0  501    0  0.00000000000E+00  0.00000000000E+00 -0.16917115499E+04  0.16917115499E+04  0.50400001928E-02 0. -1.
    10030    2    1    2    0    0  0.00000000000E+00  0.00000000000E+00 -0.69327499056E+03  0.26901481092E+04  0.25992819465E+04 0.  0.
        2    1    3    3  502    0 -0.38905340354E+03  0.59347532143E+03 -0.14735026747E+04  0.16354771904E+04  0.25500000920E-02 0. -1.
       -2    1    3    3    0  502  0.38905340354E+03 -0.59347532143E+03  0.78022768415E+03  0.10546709188E+04  0.25500000920E-02 0.  1.
</event>
<event>
 5   0  0.6599814E-07  0.2600839E+04  0.7818609E-02  0.8367916E-01
        2   -1    0    0  501    0  0.00000000000E+00  0.00000000000E+00  0.12846923825E+04  0.12846923825E+04  0.25500000920E-02 0. -1.
       -2   -1    0    0    0  501  0.00000000000E+00  0.00000000000E+00 -0.13163388553E+04  0.13163388553E+04  0.25500000920E-02 0.  1.
    10030    2    1    2    0    0  0.00000000000E+00  0.00000000000E+00 -0.31646472818E+02  0.26010312378E+04  0.26008387110E+04 0.  0.
        5    1    3    3  502    0  0.12754984451E+03  0.11572651244E+04 -0.59512156807E+03  0.13075638806E+04  0.46999998093E+01 0.  1.
       -5    1    3    3    0  502 -0.12754984451E+03 -0.11572651244E+04  0.56347509525E+03  0.12934673572E+04  0.46999998093E+01 0. -1.
</event>
<event>
 5   0  0.2623263E-07  0.2602190E+04  0.7818609E-02  0.8367458E-01
       -1   -1    0    0    0  501  0.00000000000E+00  0.00000000000E+00  0.67722841891E+03  0.67722841893E+03  0.50400001928E-02 0. -1.
        1   -1    0    0  501    0  0.00000000000E+00  0.00000000000E+00 -0.24996700865E+04  0.24996700865E+04  0.50400001928E-02 0.  1.
    10030    2    1    2    0    0  0.00000000000E+00  0.00000000000E+00 -0.18224416676E+04  0.31768985054E+04  0.26021895554E+04 0.  0.
        1    1    3    3  502    0  0.62732251136E+03 -0.10275604548E+04 -0.30886285022E+03  0.12429039713E+04  0.50400001928E-02 0. -1.
       -1    1    3    3    0  502 -0.62732251136E+03  0.10275604548E+04 -0.15135788174E+04  0.19339945341E+04  0.50400001928E-02 0.  1.
</event>
<event>
 5   0  0.2793576E-07  0.2591761E+04  0.7818609E-02  0.8371005E-01
        1   -1    0    0  501    0  0.00000000000E+00  0.00000000000E+00  0.14174971499E+04  0.14174971499E+04  0.50400001928E-02 0.  1.
       -1   -1    0    0    0  501  0.00000000000E+00  0.00000000000E+00 -0.11846978806E+04  0.11846978806E+04  0.50400001928E-02 0. -1.
    10030    2    1    2    0    0  0.00000000000E+00  0.00000000000E+00  0.23279926931E+03  0.26021950306E+04  0.25917606906E+04 0.  0.
        2    1    3    3  502    0  0.12428575807E+03  0.10688512181E+03 -0.11742461585E+04  0.11856329194E+04  0.25500000920E-02 0. -1.
       -2    1    3    3    0  502 -0.12428575807E+03 -0.10688512181E+03  0.14070454278E+04  0.14165621112E+04  0.25500000920E-02 0.  1.
</event>
<event>
 5   0  0.2623263E-07  0.2595519E+04  0.7818609E-02  0.8369725E-01
        1   -1    0    0  501    0  0.00000000000E+00  0.00000000000E+00  0.16619595307E+04  0.16619595307E+04  0.50400001928E-02 0.  1.
       -1   -1    0    0    0  501  0.00000000000E+00  0.00000000000E+00 -0.10133696519E+04  0.10133696519E+04  0.50400001928E-02 0. -1.
    10030    2    1    2    0    0  0.00000000000E+00  0.00000000000E+00  0.64858987881E+03  0.26753291827E+04  0.25955187160E+04 0.  0.
        1    1    3    3  502    0 -0.10990902894E+04  0.63906620853E+03  0.59263497936E+03  0.14027192527E+04  0.50400001928E-02 0. -1.
       -1    1    3    3    0  502  0.10990902894E+04 -0.63906620853E+03  0.55954899448E+02  0.12726099300E+04  0.50400001928E-02 0.  1.
</event>
<event>
 5   0  0.6599814E-07  0.2599230E+04  0.7818609E-02  0.8368463E-01
       -2   -1    0    0    0  501  0.00000000000E+00  0.00000000000E+00  0.91579503560E+03  0.91579503560E+03  0.25500000920E-02 0. -1.
        2   -1    0    0  501    0  0.00000000000E+00  0.00000000000E+00 -0.18442975612E+04  0.18442975612E+04  0.25500000920E-02 0.  1.
    10030    2    1    2    0    0  0.00000000000E+00  0.00000000000E+00 -0.92850252565E+03  0.27600925968E+04  0.25992295403E+04 0.  0.
        5    1    3    3  502    0 -0.32094236977E+03  0.12468093452E+04 -0.27596753946E+03  0.13167071507E+04  0.46999998093E+01 0. -1.
       -5    1    3    3    0  502  0.32094236977E+03 -0.12468093452E+04 -0.65253498619E+03  0.14433854461E+04  0.46999998093E+01 0.  1.
</event>
<event>
 5   0  0.2864801E-07  0.2598504E+04  0.7818609E-02  0.8368710E-01
       -1   -1    0    0    0  501  0.00000000000E+00  0.00000000000E+00  0.11606886935E+04  0.11606886936E+04  0.50400001928E-02 0. -1.
        1   -1    0    0  501    0  0.00000000000E+00  0.00000000000E+00 -0.14543568665E+04  0.14543568665E+04  0.50400001928E-02 0.  1.
    10030    2    1    2    0    0  0.00000000000E+00  0.00000000000E+00 -0.29366817291E+03  0.26150455600E+04  0.25985038551E+04 0.  0.
        5    1    3    3  502    0 -0.72893943321E+03  0.84210205651E+03  0.52641257037E+03  0.12319175521E+04  0.46999998093E+01 0. -1.
       -5    1    3    3    0  502  0.72893943321E+03 -0.84210205651E+03 -0.82008074328E+03  0.13831280079E+04  0.46999998093E+01 0.  1.
</event>
<event>
 5   0  0.2641626E-07  0.2597797E+04  0.7818609E-02  0.8368950E-01
       -1   -1    0    0    0  501  0.00000000000E+00  0.00000000000E+00  0.11311323826E+04  0.11311323826E+04  0.50400001928E-02 0.  1.
        1   -1    0    0  501    0  0.00000000000E+00  0.00000000000E+00 -0.14915472020E+04  0.14915472021E+04  0.50400001928E-02 0. -1.
    10030    2    1    2    0    0  0.00000000000E+00  0.00000000000E+00 -0.36041481944E+03  0.26226795847E+04  0.25977970209E+04 0.  0.
        3    1    3    3  502    0 -0.60339648626E+03  0.58267089178E+03 -0.11814448004E+04  0.14489321980E+04  0.10100000352E+00 0. -1.
       -3    1    3    3    0  502  0.60339648626E+03 -0.58267089178E+03  0.82102998101E+03  0.11737473867E+04  0.10100000352E+00 0.  1.
</event>
<event>
 5   0  0.7160320E-07  0.2600349E+04  0.7818609E-02  0.8368083E-01
        2   -1    0    0  501    0  0.00000000000E+00  0.00000000000E+00  0.18632615757E+04  0.18632615757E+04  0.25500000920E-02 0. -1.
       -2   -1    0    0    0  501  0.00000000000E+00  0.00000000000E+00 -0.90725494383E+03  0.90725494384E+03  0.25500000920E-02 0.  1.
    10030    2    1    2    0    0  0.00000000000E+00  0.00000000000E+00  0.95600663189E+03  0.27705165196E+04  0.26003486506E+04 0.  0.
        1    1    3    3  502    0 -0.18030016444E+03 -0.96598127343E+03 -0.42907719603E+03  0.10722570634E+04  0.50400001928E-02 0.  1.
       -1    1    3    3    0  502  0.18030016444E+03  0.96598127343E+03  0.13850838279E+04  0.16982594561E+04  0.50400001928E-02 0. -1.
</event>
<event>
 5   0  0.2641626E-07  0.2602249E+04  0.7818609E-02  0.8367438E-01
       -1   -1    0    0    0  501  0.00000000000E+00  0.00000000000E+00  0.12434121199E+04  0.12434121200E+04  0.50400001928E-02 0.  1.
        1   -1    0    0  501    0  0.00000000000E+00  0.00000000000E+00 -0.13615151407E+04  0.13615151407E+04  0.50400001928E-02 0. -1.
    10030    2    1    2    0    0  0.00000000000E+00  0.00000000000E+00 -0.11810302071E+03  0.26049272606E+04  0.26022485872E+04 0.  0.
        3    1    3    3  502    0 -0.64555656243E+03  0.82718807130E+03  0.71111750685E+03  0.12675454624E+04  0.10100000352E+00 0. -1.
       -3    1    3    3    0  502  0.64555656243E+03 -0.82718807130E+03 -0.82922052756E+03  0.13373817982E+04  0.10100000352E+00 0.  1.
</event>
<event>
 5   0  0.6526351E-07  0.2599467E+04  0.7818609E-02  0.8368382E-01
       -2   -1    0    0    0  501  0.00000000000E+00  0.00000000000E+00  0.15800073078E+04  0.15800073078E+04  0.25500000920E-02 0.  1.
        2   -1    0    0  501    0  0.00000000000E+00  0.00000000000E+00 -0.10691766314E+04  0.10691766314E+04  0.25500000920E-02 0. -1.
    10030    2    1    2    0    0  0.00000000000E+00  0.00000000000E+00  0.51083067648E+03  0.26491839392E+04  0.25994667845E+04 0.  0.
        3    1    3    3  502    0 -0.15111306819E+01  0.10133565262E+04  0.10848693519E+04  0.14845319982E+04  0.10100000352E+00 0.  1.
       -3    1    3    3    0  502  0.15111306819E+01 -0.10133565262E+04 -0.57403867544E+03  0.11646519410E+04  0.10100000352E+00 0. -1.
</event>
<event>
 5   0  0.2623263E-07  0.2600694E+04  0.7818609E-02  0.8367966E-01
       -1   -1    0    0    0  501  0.00000000000E+00  0.00000000000E+00  0.10918033224E+04  0.10918033224E+04  0.50400001928E-02 0. -1.
        1   -1    0    0  501    0  0.00000000000E+00  0.00000000000E+00 -0.15487242311E+04  0.15487242311E+04  0.50400001928E-02 0.  1.
    10030    2    1    2    0    0  0.00000000000E+00  0.00000000000E+00 -0.45692090869E+03  0.26405275535E+04  0.26006939543E+04 0.  0.
        1    1    3    3  502    0 -0.50413698904E+03  0.11827552225E+03 -0.14395245677E+04  0.15298281551E+04  0.50400001928E-02 0.  1.
       -1    1    3    3    0  502  0.50413698904E+03 -0.11827552225E+03  0.98260365904E+03  0.11106993984E+04  0.50400001928E-02 0. -1.
</event>
<event>
 5   0  0.2623263E-07  0.2594835E+04  0.7818609E-02  0.8369958E-01
       -1   -1    0    0    0  501  0.00000000000E+00  0.00000000000E+00  0.17838721377E+04  0.17838721377E+04  0.50400001928E-02 0.  1.
        1   -1    0    0  501    0  0.00000000000E+00  0.00000000000E+00 -0.94361670154E+03  0.94361670155E+03  0.50400001928E-02 0. -1.
    10030    2    1    2    0    0  0.00000000000E+00  0.00000000000E+00  0.84025543618E+03  0.27274888393E+04  0.25948345169E+04 0.  0.
        1    1    3    3  502    0  0.78226093705E+02 -0.12729120062E+04  0.67078735801E+03  0.14409649465E+04  0.50400001928E-02 0. -1.
       -1    1    3    3    0  502 -0.78226093705E+02  0.12729120062E+04  0.16946807817E+03  0.12865238928E+04  0.50400001928E-02 0.  1.
</event>
<event>
 5   0  0.7160320E-07  0.2599785E+04  0.7818609E-02  0.8368274E-01
        2   -1    0    0  501    0  0.00000000000E+00  0.00000000000E+00  0.19063584903E+04  0.19063584903E+04  0.25500000920E-02 0. -1.
       -2   -1    0    0    0  501  0.00000000000E+00  0.00000000000E+00 -0.88636017173E+03  0.88636017174E+03  0.25500000920E-02 0.  1.
    10030    2    1    2    0    0  0.00000000000E+00  0.00000000000E+00  0.10199983186E+04  0.27927186621E+04  0.25997847902E+04 0.  0.
        1    1    3    3  502    0  0.61119927228E+03  0.78751281695E+03 -0.38616575087E+03  0.10690486305E+04  0.50400001928E-02 0.  1.
       -1    1    3    3    0  502 -0.61119927228E+03 -0.78751281695E+03  0.14061640695E+04  0.17236700315E+04  0.50400001928E-02 0. -1.
</event>
<event>
 5   0  0.2623263E-07  0.2599006E+04  0.7818609E-02  0.8368539E-01
        1   -1    0    0  501    0  0.00000000000E+00  0.00000000000E+00  0.83448019535E+03  0.83448019537E+03  0.50400001928E-02 0. -1.
       -1   -1    0    0    0  501  0.00000000000E+00  0.00000000000E+00 -0.20236645849E+04  0.20236645849E+04  0.50400001928E-02 0.  1.
    10030    2    1    2    0    0  0.00000000000E+00  0.00000000000E+00 -0.11891843895E+04  0.28581447802E+04  0.25990059778E+04 0.  0.
        1    1    3    3  502    0  0.32392474401E+03 -0.36849259633E+03 -0.19178983263E+04  0.19796585623E+04  0.50400001928E-02 0.  1.
       -1    1    3    3    0  502 -0.32392474401E+03  0.36849259633E+03  0.72871393680E+03  0.87848621790E+03  0.50400001928E-02 0. -1.
</event>
<event>
 5   0  0.2623263E-07  0.2600096E+04  0.7818609E-02  0.8368169E-01
       -1   -1    0    0    0  501  0.00000000000E+00  0.00000000000E+00  0.13409024447E+04  0.13409024447E+04  0.50400001928E-02 0.  1.
        1   -1    0    0  501    0  0.00000000000E+00  0.00000000000E+00 -0.12604381474E+04  0.12604381475E+04  0.50400001928E-02 0. -1.
    10030    2    1    2    0    0  0.00000000000E+00  0.00000000000E+00  0.80464297220E+02  0.26013405921E+04  0.26000958392E+04 0.  0.
        1    1    3    3  502    0 -0.80103646069E+03 -0.78843037899E+03 -0.61341263643E+03  0.12804518485E+04  0.50400001928E-02 0. -1.
       -1    1    3    3    0  502  0.80103646069E+03  0.78843037899E+03  0.69387693365E+03  0.13208887436E+04  0.50400001928E-02 0.  1.
</event>
<event>
 5   0  0.6526351E-07  0.2601393E+04  0.7818609E-02  0.8367728E-01
        2   -1    0    0  501    0  0.00000000000E+00  0.00000000000E+00  0.10114928101E+04  0.10114928101E+04  0.25500000920E-02 0.  1.
       -2   -1    0    0    0  501  0.00000000000E+00  0.00000000000E+00 -0.16725881635E+04  0.16725881635E+04  0.25500000920E-02 0. -1.
    10030    2    1    2    0    0  0.00000000000E+00  0.00000000000E+00 -0.66109535339E+03  0.26840809736E+04  0.26013926283E+04 0.  0.
        3    1    3    3  502    0 -0.61302688198E+03 -0.17411833864E+03  0.83937762854E+03  0.10538851775E+04  0.10100000352E+00 0.  1.
       -3    1    3    3    0  502  0.61302688198E+03  0.17411833864E+03 -0.15004729819E+04  0.16301957961E+04  0.10100000352E+00 0. -1.
</event>
<event>
 5   0  0.6599814E-07  0.2600163E+04  0.7818609E-02  0.8368146E-01
        2   -1    0    0  501    0  0.00000000000E+00  0.00000000000E+00  0.12362482533E+04  0.12362482533E+04  0.25500000920E-02 0.  1.
       -2   -1    0    0    0  501  0.00000000000E+00  0.00000000000E+00 -0.13672110497E+04  0.13672110497E+04  0.25500000920E-02 0. -1.
    10030    2    1    2    0    0  0.00000000000E+00  0.00000000000E+00 -0.13096279640E+03  0.26034593031E+04  0.26001632812E+04 0.  0.
        5    1    3    3  502    0  0.12459787332E+04 -0.17687757526E+03 -0.39214870296E+03  0.13181621203E+04  0.46999998093E+01 0. -1.
       -5    1    3    3    0  502 -0.12459787332E+04  0.17687757526E+03  0.26118590656E+03  0.12852971828E+04  0.46999998093E+01 0.  1.
</event>
<event>
 5   0  0.6780984E-07  0.2599306E+04  0.7818609E-02  0.8368437E-01
       -2   -1    0    0    0  501  0.00000000000E+00  0.00000000000E+00  0.13900230770E+04  0.13900230770E+04  0.25500000920E-02 0.  1.
        2   -1    0    0  501    0  0.00000000000E+00  0.00000000000E+00 -0.12151584427E+04  0.12151584427E+04  0.25500000920E-02 0. -1.
    10030    2    1    2    0    0  0.00000000000E+00  0.00000000000E+00  0.17486463435E+03  0.26051815197E+04  0.25993062748E+04 0.  0.
        2    1    3    3  502    0 -0.70599414710E+03 -0.58704163141E+03 -0.83445795528E+03  0.12407117683E+04  0.25500000920E-02 0. -1.
       -2    1    3    3    0  502  0.70599414710E+03  0.58704163141E+03  0.10093225896E+04  0.13644697515E+04  0.25500000920E-02 0.  1.
</event>
<event>
 5   0  0.6780984E-07  0.2599954E+04  0.7818609E-02  0.8368217E-01
        2   -1    0    0  501    0  0.00000000000E+00  0.00000000000E+00  0.25675318996E+04  0.25675318996E+04  0.25500000920E-02 0. -1.
       -2   -1    0    0    0  501  0.00000000000E+00  0.00000000000E+00 -0.65819658379E+03  0.65819658380E+03  0.25500000920E-02 0.  1.
    10030    2    1    2    0    0  0.00000000000E+00  0.00000000000E+00  0.19093353158E+04  0.32257284834E+04  0.25999544035E+04 0.  0.
        2    1    3    3  502    0 -0.33083446056E+03 -0.50489833101E+03  0.23831106502E+04  0.24583714398E+04  0.25500000920E-02 0. -1.
       -2    1    3    3    0  502  0.33083446056E+03  0.50489833101E+03 -0.47377533436E+03  0.76735704363E+03  0.25500000920E-02 0.  1.
</event>
<event>
 5   0  0.6526351E-07  0.2598110E+04  0.7818609E-02  0.8368844E-01
       -2   -1    0    0    0  501  0.00000000000E+00  0.00000000000E+00  0.12384758153E+04  0.12384758153E+04  0.25500000920E-02 0. -1.
        2   -1    0    0  501    0  0.00000000000E+00  0.00000000000E+00 -0.13625969865E+04  0.13625969865E+04  0.25500000920E-02 0.  1.
    10030    2    1    2    0    0  0.00000000000E+00  0.00000000000E+00 -0.12412117116E+03  0.26010728019E+04  0.25981096311E+04 0.  0.
        3    1    3    3  502    0 -0.32175635497E+03 -0.11160427076E+04 -0.64450149428E+03  0.13283300281E+04  0.10100000352E+00 0.  1.
       -3    1    3    3    0  502  0.32175635497E+03  0.11160427076E+04  0.52038032313E+03  0.12727427738E+04  0.10100000352E+00 0. -1.
</event>
<event>
 5   0  0.2793576E-07  0.2600440E+04  0.7818609E-02  0.8368052E-01
        1   -1    0    0  501    0  0.00000000000E+00  0.00000000000E+00  0.14848873217E+04  0.14848873217E+04  0.50400001928E-02 0.  1.
       -1   -1    0    0    0  501  0.00000000000E+00  0.00000000000E+00 -0.11385185341E+04  0.11385185341E+04  0.50400001928E-02 0. -1.
    10030    2    1    2    0    0  0.00000000000E+00  0.00000000000E+00  0.34636878759E+03  0.26234058557E+04  0.26004397603E+04 0.  0.
        2    1    3    3  502    0  0.50031756547E+03  0.11370976787E+04 -0.21395326430E+03  0.12605890672E+04  0.25500000920E-02 0. -1.
       -2    1    3    3    0  502 -0.50031756547E+03 -0.11370976787E+04  0.56032205189E+03  0.13628167885E+04  0.25500000920E-02 0.  1.
</event>
<event>
 5   0  0.7160320E-07  0.2593596E+04  0.7818609E-02  0.8370380E-01
       -2   -1    0    0    0  501  0.00000000000E+00  0.00000000000E+00  0.16502565870E+04  0.16502565870E+04  0.25500000920E-02 0. -1.
        2   -1    0    0  501    0  0.00000000000E+00  0.00000000000E+00 -0.10190448926E+04  0.10190448926E+04  0.25500000920E-02 0.  1.
    10030    2    1    2    0    0  0.00000000000E+00  0.00000000000E+00  0.63121169432E+03  0.26693014796E+04  0.25935963807E+04 0.  0.
        1    1    3    3  502    0  0.27478042253E+03  0.52533632448E+03  0.15026153592E+04  0.16153437567E+04  0.50400001928E-02 0. -1.
       -1    1    3    3    0  502 -0.27478042253E+03 -0.52533632448E+03 -0.87140366492E+03  0.10539577229E+04  0.50400001928E-02 0.  1.
</event>
<event>
 5   0  0.2641626E-07  0.2601540E+04  0.7818609E-02  0.8367678E-01
       -1   -1    0    0    0  501  0.00000000000E+00  0.00000000000E+00  0.13578924848E+04  0.13578924848E+04  0.50400001928E-02 0.  1.
        1   -1    0    0  501    0  0.00000000000E+00  0.00000000000E+00 -0.12460507514E+04  0.12460507515E+04  0.50400001928E-02 0. -1.
    10030    2    1    2    0    0  0.00000000000E+00  0.00000000000E+00  0.11184173338E+03  0.26039432363E+04  0.26015402754E+04 0.  0.
        3    1    3    3  502    0 -0.85655603257E+03 -0.75593777941E+03 -0.56664462557E+03  0.12752318633E+04  0.10100000352E+00 0. -1.
       -3    1    3    3    0  502  0.85655603257E+03  0.75593777941E+03  0.67848635895E+03  0.13287113730E+04  0.10100000352E+00 0.  1.
</event>
<event>
 5   0  0.2641626E-07  0.2599759E+04  0.7818609E-02  0.8368283E-01
       -1   -1    0    0    0  501  0.00000000000E+00  0.00000000000E+00  0.81111732900E+03  0.81111732902E+03  0.50400001928E-02 0.  1.
        1   -1    0    0  501    0  0.00000000000E+00  0.00000000000E+00 -0.20831593122E+04  0.20831593122E+04  0.50400001928E-02 0. -1.
    10030    2    1    2    0    0  0.00000000000E+00  0.00000000000E+00 -0.12720419832E+04  0.28942766412E+04  0.25997589252E+04 0.  0.
        3    1    3    3  502    0  0.79567831680E+02 -0.54860408403E+03  0.67292617161E+03  0.87185269599E+03  0.10100000352E+00 0.  1.
       -3    1    3    3    0  502 -0.79567831680E+02  0.54860408403E+03 -0.19449681548E+04  0.20224239452E+04  0.10100000352E+00 0. -1.
</event>
<event>
 5   0  0.2755061E-07  0.2598742E+04  0.7818609E-02  0.8368629E-01
        1   -1    0    0  501    0  0.00000000000E+00  0.00000000000E+00  0.15529729456E+04  0.15529729456E+04  0.50400001928E-02 0.  1.
       -1   -1    0    0    0  501  0.00000000000E+00  0.00000000000E+00 -0.10871827002E+04  0.10871827002E+04  0.50400001928E-02 0. -1.
    10030    2    1    2    0    0  0.00000000000E+00  0.00000000000E+00  0.46579024532E+03  0.26401556458E+04  0.25987422499E+04 0.  0.
        4    1    3    3  502    0  0.43198837551E+03 -0.11927240759E+04 -0.52940633088E+02  0.12696491647E+04  0.12699999809E+01 0. -1.
       -4    1    3    3    0  502 -0.43198837551E+03  0.11927240759E+04  0.51873087841E+03  0.13705064812E+04  0.12699999809E+01 0.  1.
</event>
<event>
 5   0  0.6768478E-07  0.2600114E+04  0.7818609E-02  0.8368162E-01
       -2   -1    0    0    0  501  0.00000000000E+00  0.00000000000E+00  0.16898056530E+04  0.16898056530E+04  0.25500000920E-02 0.  1.
        2   -1    0    0  501    0  0.00000000000E+00  0.00000000000E+00 -0.10002027361E+04  0.10002027361E+04  0.25500000920E-02 0. -1.
    10030    2    1    2    0    0  0.00000000000E+00  0.00000000000E+00  0.68960291696E+03  0.26900083891E+04  0.26001140265E+04 0.  0.
        4    1    3    3  502    0 -0.94233077335E+03 -0.66974657399E+03  0.96000194669E+03  0.15027152459E+04  0.12699999809E+01 0.  1.
       -4    1    3    3    0  502  0.94233077335E+03  0.66974657399E+03 -0.27039902974E+03  0.11872931432E+04  0.12699999809E+01 0. -1.
</event>
<event>
 5   0  0.2641626E-07  0.2601232E+04  0.7818609E-02  0.8367783E-01
        1   -1    0    0  501    0  0.00000000000E+00  0.00000000000E+00  0.86789916343E+03  0.86789916344E+03  0.50400001928E-02 0.  1.
       -1   -1    0    0    0  501  0.00000000000E+00  0.00000000000E+00 -0.19490768355E+04  0.19490768355E+04  0.50400001928E-02 0. -1.
    10030    2    1    2    0    0  0.00000000000E+00  0.00000000000E+00 -0.10811776721E+04  0.28169759990E+04  0.26012321350E+04 0.  0.
        3    1    3    3  502    0 -0.48193302998E+03 -0.62878466379E+03  0.57645250694E+03  0.97975869569E+03  0.10100000352E+00 0.  1.
       -3    1    3    3    0  502  0.48193302998E+03  0.62878466379E+03 -0.16576301790E+04  0.18372173033E+04  0.10100000352E+00 0. -1.
</event>
<event>
 5   0  0.6599814E-07  0.2599805E+04  0.7818609E-02  0.8368267E-01
        2   -1    0    0  501    0  0.00000000000E+00  0.00000000000E+00  0.14946056692E+04  0.14946056692E+04  0.25500000920E-02 0. -1.
       -2   -1    0    0    0  501  0.00000000000E+00  0.00000000000E+00 -0.11305633394E+04  0.11305633394E+04  0.25500000920E-02 0.  1.
    10030    2    1    2    0    0  0.00000000000E+00  0.00000000000E+00  0.36404232980E+03  0.26251690085E+04  0.25998048976E+04 0.  0.
        5    1    3    3  502    0  0.50651943952E+03 -0.93901103411E+03 -0.56780054871E+03  0.12086038300E+04  0.46999998093E+01 0.  1.
       -5    1    3    3    0  502 -0.50651943952E+03  0.93901103411E+03  0.93184287850E+03  0.14165651785E+04  0.46999998093E+01 0. -1.
</event>
<event>
 5   0  0.2641626E-07  0.2600227E+04  0.7818609E-02  0.8368124E-01
       -1   -1    0    0    0  501  0.00000000000E+00  0.00000000000E+00  0.73346312232E+03  0.73346312234E+03  0.50400001928E-02 0.  1.
        1   -1    0    0  501    0  0.00000000000E+00  0.00000000000E+00 -0.23045408106E+04  0.23045408106E+04  0.50400001928E-02 0. -1.
    10030    2    1    2    0    0  0.00000000000E+00  0.00000000000E+00 -0.15710776882E+04  0.30380039329E+04  0.26002274504E+04 0.  0.
        3    1    3    3  502    0  0.67034415485E+03 -0.66181766008E+03  0.26138795915E+03  0.97759274574E+03  0.10100000352E+00 0.  1.
       -3    1    3    3    0  502 -0.67034415485E+03  0.66181766008E+03 -0.18324656474E+04  0.20604111872E+04  0.10100000352E+00 0. -1.
</event>
<event>
 5   0  0.7160320E-07  0.2599297E+04  0.7818609E-02  0.8368440E-01
        2   -1    0    0  501    0  0.00000000000E+00  0.00000000000E+00  0.15624572779E+04  0.15624572779E+04  0.25500000920E-02 0. -1.
       -2   -1    0    0    0  501  0.00000000000E+00  0.00000000000E+00 -0.10810447960E+04  0.10810447960E+04  0.25500000920E-02 0.  1.
    10030    2    1    2    0    0  0.00000000000E+00  0.00000000000E+00  0.48141248194E+03  0.26435020739E+04  0.25992970659E+04 0.  0.
        1    1    3    3  502    0 -0.12590134657E+04  0.13973806718E+03  0.53624188836E+03  0.13755715166E+04  0.50400001928E-02 0. -1.
       -1    1    3    3    0  502  0.12590134657E+04 -0.13973806718E+03 -0.54829406419E+02  0.12679305573E+04  0.50400001928E-02 0.  1.
</event>
<event>
 5   0  0.2641626E-07  0.2599831E+04  0.7818609E-02  0.8368259E-01
       -1   -1    0    0    0  501  0.00000000000E+00  0.00000000000E+00  0.15457763876E+04  0.15457763876E+04  0.50400001928E-02 0.  1.
        1   -1    0    0  501    0  0.00000000000E+00  0.00000000000E+00 -0.10931592727E+04  0.10931592727E+04  0.50400001928E-02 0. -1.
    10030    2    1    2    0    0  0.00000000000E+00  0.00000000000E+00  0.45261711490E+03  0.26389356603E+04  0.25998306034E+04 0.  0.
        3    1    3    3  502    0 -0.46068258350E+03  0.11782495338E+04  0.52959941582E+03  0.13714867692E+04  0.10100000352E+00 0. -1.
       -3    1    3    3    0  502  0.46068258350E+03 -0.11782495338E+04 -0.76982300924E+02  0.12674488911E+04  0.10100000352E+00 0.  1.
</event>
<event>
 5   0  0.6599814E-07  0.2599581E+04  0.7818609E-02  0.8368344E-01
       -2   -1    0    0    0  501  0.00000000000E+00  0.00000000000E+00  0.80636712973E+03  0.80636712973E+03  0.25500000920E-02 0. -1.
        2   -1    0    0  501    0  0.00000000000E+00  0.00000000000E+00 -0.20951433742E+04  0.20951433742E+04  0.25500000920E-02 0.  1.
    10030    2    1    2    0    0  0.00000000000E+00  0.00000000000E+00 -0.12887762444E+04  0.29015105039E+04  0.25995805423E+04 0.  0.
        5    1    3    3  502    0 -0.25194047167E+02  0.11566123076E+04 -0.13056946583E+04  0.17444905849E+04  0.46999998093E+01 0.  1.
       -5    1    3    3    0  502  0.25194047167E+02 -0.11566123076E+04  0.16918413906E+02  0.11570199190E+04  0.46999998093E+01 0. -1.
</event>
<event>
 5   0  0.6526351E-07  0.2600603E+04  0.7818609E-02  0.8367996E-01
       -2   -1    0    0    0  501  0.00000000000E+00  0.00000000000E+00  0.10385141488E+04  0.10385141488E+04  0.25500000920E-02 0. -1.
        2   -1    0    0  501    0  0.00000000000E+00  0.00000000000E+00 -0.16280804556E+04  0.16280804556E+04  0.25500000920E-02 0.  1.
    10030    2    1    2    0    0  0.00000000000E+00  0.00000000000E+00 -0.58956630680E+03  0.26665946044E+04  0.26006034596E+04 0.  0.
        3    1    3    3  502    0  0.88522836912E+03  0.90950134109E+03 -0.48309743766E+01  0.12691908066E+04  0.10100000352E+00 0.  1.
       -3    1    3    3    0  502 -0.88522836912E+03 -0.90950134109E+03 -0.58473533242E+03  0.13974037978E+04  0.10100000352E+00 0. -1.
</event>
<event>
 5   0  0.6526351E-07  0.2600638E+04  0.7818609E-02  0.8367985E-01
        2   -1    0    0  501    0  0.00000000000E+00  0.00000000000E+00  0.11608667772E+04  0.11608667772E+04  0.25500000920E-02 0. -1.
       -2   -1    0    0    0  501  0.00000000000E+00  0.00000000000E+00 -0.14565229612E+04  0.14565229612E+04  0.25500000920E-02 0.  1.
    10030    2    1    2    0    0  0.00000000000E+00  0.00000000000E+00 -0.29565618401E+03  0.26173897384E+04  0.26006377032E+04 0.  0.
        3    1    3    3  502    0  0.11762613863E+04 -0.43328064513E+03 -0.49575150051E+03  0.13479957443E+04  0.10100000352E+00 0.  1.
       -3    1    3    3    0  502 -0.11762613863E+04  0.43328064513E+03  0.20009531650E+03  0.12693939941E+04  0.10100000352E+00 0. -1.
</event>
<event>
 5   0  0.2623263E-07  0.2599676E+04  0.7818609E-02  0.8368311E-01
       -1   -1    0    0    0  501  0.00000000000E+00  0.00000000000E+00  0.68968085282E+03  0.68968085284E+03  0.50400001928E-02 0.  1.
        1   -1    0    0  501    0  0.00000000000E+00  0.00000000000E+00 -0.24497974260E+04  0.24497974260E+04  0.50400001928E-02 0. -1.
    10030    2    1    2    0    0  0.00000000000E+00  0.00000000000E+00 -0.17601165732E+04  0.31394782789E+04  0.25996756552E+04 0.  0.
        1    1    3    3  502    0 -0.45603368752E+03  0.34438757437E+03  0.52983958097E+03  0.77929423655E+03  0.50400001928E-02 0.  1.
       -1    1    3    3    0  502  0.45603368752E+03 -0.34438757437E+03 -0.22899561542E+04  0.23601840423E+04  0.50400001928E-02 0. -1.
</event>
<event>
 5   0  0.2755061E-07  0.2599905E+04  0.7818609E-02  0.8368234E-01
        1   -1    0    0  501    0  0.00000000000E+00  0.00000000000E+00  0.28562472351E+04  0.28562472351E+04  0.50400001928E-02 0. -1.
       -1   -1    0    0    0  501  0.00000000000E+00  0.00000000000E+00 -0.59164217767E+03  0.59164217769E+03  0.50400001928E-02 0.  1.
    10030    2    1    2    0    0  0.00000000000E+00  0.00000000000E+00  0.22646050574E+04  0.34478894128E+04  0.25999048707E+04 0.  0.
        4    1    3    3  502    0 -0.93243386569E+03  0.84321155102E+03  0.15710111302E+04  0.20120924973E+04  0.12699999809E+01 0. -1.
       -4    1    3    3    0  502  0.93243386569E+03 -0.84321155102E+03  0.69359392721E+03  0.14357969155E+04  0.12699999809E+01 0.  1.
</event>
<event>
 5   0  0.2623263E-07  0.2600256E+04  0.7818609E-02  0.8368114E-01
       -1   -1    0    0    0  501  0.00000000000E+00  0.00000000000E+00  0.87814875512E+03  0.87814875514E+03  0.50400001928E-02 0. -1.
        1   -1    0    0  501    0  0.00000000000E+00  0.00000000000E+00 -0.19248823391E+04  0.19248823391E+04  0.50400001928E-02 0.  1.
    10030    2    1    2    0    0  0.00000000000E+00  0.00000000000E+00 -0.10467335839E+04  0.28030310942E+04  0.26002561642E+04 0.  0.
        1    1    3    3  502    0  0.88464139734E+03 -0.45082482289E+03  0.38143230493E+03  0.10636371684E+04  0.50400001928E-02 0. -1.
       -1    1    3    3    0  502 -0.88464139734E+03  0.45082482289E+03 -0.14281658889E+04  0.17393939258E+04  0.50400001928E-02 0.  1.
</event>
<event>
 5   0  0.2294625E-07  0.2597670E+04  0.7818609E-02  0.8368993E-01
        3   -1    0    0  501    0  0.00000000000E+00  0.00000000000E+00  0.19817694077E+04  0.19817694103E+04  0.10100000352E+00 0. -1.
       -3   -1    0    0    0  501  0.00000000000E+00  0.00000000000E+00 -0.85124566935E+03  0.85124567535E+03  0.10100000352E+00 0.  1.
    10030    2    1    2    0    0  0.00000000000E+00  0.00000000000E+00  0.11305237384E+04  0.28330150856E+04  0.25976702163E+04 0.  0.
        4    1    3    3  502    0 -0.93376863623E+03  0.51136379914E+02 -0.41774928120E+03  0.10242337967E+04  0.12699999809E+01 0.  1.
       -4    1    3    3    0  502  0.93376863623E+03 -0.51136379914E+02  0.15482730195E+04  0.18087812890E+04  0.12699999809E+01 0. -1.
</event>
<event>
 5   0  0.2641626E-07  0.2599660E+04  0.7818609E-02  0.8368317E-01
        1   -1    0    0  501    0  0.00000000000E+00  0.00000000000E+00  0.18952570241E+04  0.18952570241E+04  0.50400001928E-02 0. -1.
       -1   -1    0    0    0  501  0.00000000000E+00  0.00000000000E+00 -0.89146646781E+03  0.89146646783E+03  0.50400001928E-02 0.  1.
    10030    2    1    2    0    0  0.00000000000E+00  0.00000000000E+00  0.10037905563E+04  0.27867234919E+04  0.25996600431E+04 0.  0.
        3    1    3    3  502    0 -0.22989087407E+03  0.95178938180E+03 -0.41449008524E+03  0.10632755439E+04  0.10100000352E+00 0.  1.
       -3    1    3    3    0  502  0.22989087407E+03 -0.95178938180E+03  0.14182806415E+04  0.17234479480E+04  0.10100000352E+00 0. -1.
</event>
<event>
 5   0  0.2755061E-07  0.2599853E+04  0.7818609E-02  0.8368251E-01
       -1   -1    0    0    0  501  0.00000000000E+00  0.00000000000E+00  0.12036271546E+04  0.12036271546E+04  0.50400001928E-02 0.  1.
        1   -1    0    0  501    0  0.00000000000E+00  0.00000000000E+00 -0.14039302235E+04  0.14039302235E+04  0.50400001928E-02 0. -1.
    10030    2    1    2    0    0  0.00000000000E+00  0.00000000000E+00 -0.20030306890E+03  0.26075573781E+04  0.25998527191E+04 0.  0.
        4    1    3    3  502    0  0.39392088628E+03  0.83713110331E+03 -0.10160086722E+04  0.13741315016E+04  0.12699999809E+01 0. -1.
       -4    1    3    3    0  502 -0.39392088628E+03 -0.83713110331E+03  0.81570560329E+03  0.12334258765E+04  0.12699999809E+01 0.  1.
</event>
<event>
 5   0  0.2793576E-07  0.2600227E+04  0.7818609E-02  0.8368124E-01
        1   -1    0    0  501    0  0.00000000000E+00  0.00000000000E+00  0.64727539570E+03  0.64727539572E+03  0.50400001928E-02 0. -1.
       -1   -1    0    0    0  501  0.00000000000E+00  0.00000000000E+00 -0.26113992835E+04  0.26113992835E+04  0.50400001928E-02 0.  1.
    10030    2    1    2    0    0  0.00000000000E+00  0.00000000000E+00 -0.19641238878E+04  0.32586746793E+04  0.26002265321E+04 0.  0.
        2    1    3    3  502    0  0.15852277274E+03  0.48583038267E+01  0.63510696869E+03  0.65460975724E+03  0.25500000920E-02 0. -1.
       -2    1    3    3    0  502 -0.15852277274E+03 -0.48583038267E+01 -0.25992308565E+04  0.26040649220E+04  0.25500000920E-02 0.  1.
</event>
<event>
 5   0  0.6780984E-07  0.2596548E+04  0.7818609E-02  0.8369375E-01
       -2   -1    0    0    0  501  0.00000000000E+00  0.00000000000E+00  0.66976141663E+03  0.66976141663E+03  0.25500000920E-02 0.  1.
        2   -1    0    0  501    0  0.00000000000E+00  0.00000000000E+00 -0.25165914921E+04  0.25165914921E+04  0.25500000920E-02 0. -1.
    10030    2    1    2    0    0  0.00000000000E+00  0.00000000000E+00 -0.18468300755E+04  0.31863529087E+04  0.25965483880E+04 0.  0.
        2    1    3    3  502    0  0.30657128439E+02 -0.94667640460E+03 -0.20130102871E+04  0.22247126760E+04  0.25500000920E-02 0. -1.
       -2    1    3    3    0  502 -0.30657128439E+02  0.94667640460E+03  0.16618021164E+03  0.96164023278E+03  0.25500000920E-02 0.  1.
</event>
<event>
 5   0  0.2864801E-07  0.2600305E+04  0.7818609E-02  0.8368098E-01
        1   -1    0    0  501    0  0.00000000000E+00  0.00000000000E+00  0.13400921278E+04  0.13400921278E+04  0.50400001928E-02 0. -1.
       -1   -1    0    0    0  501  0.00000000000E+00  0.00000000000E+00 -0.12614034792E+04  0.12614034792E+04  0.50400001928E-02 0.  1.
    10030    2    1    2    0    0  0.00000000000E+00  0.00000000000E+00  0.78688648576E+02  0.26014956070E+04  0.26003052686E+04 0.  0.
        5    1    3    3  502    0  0.82739811023E+03  0.54727456553E+03  0.88013233041E+03  0.13261795097E+04  0.46999998093E+01 0. -1.
       -5    1    3    3    0  502 -0.82739811023E+03 -0.54727456553E+03 -0.80144368184E+03  0.12753160973E+04  0.46999998093E+01 0.  1.
</event>
<event>
 5   0  0.2641626E-07  0.2601660E+04  0.7818609E-02  0.8367638E-01
        1   -1    0    0  501    0  0.00000000000E+00  0.00000000000E+00  0.11257480985E+04  0.11257480985E+04  0.50400001928E-02 0.  1.
       -1   -1    0    0    0  501  0.00000000000E+00  0.00000000000E+00 -0.15031409759E+04  0.15031409759E+04  0.50400001928E-02 0. -1.
    10030    2    1    2    0    0  0.00000000000E+00  0.00000000000E+00 -0.37739287744E+03  0.26288890744E+04  0.26016595438E+04 0.  0.
        3    1    3    3  502    0  0.83513339903E+03  0.43290702366E+03  0.71920720324E+03  0.11841094952E+04  0.10100000352E+00 0.  1.
       -3    1    3    3    0  502 -0.83513339903E+03 -0.43290702366E+03 -0.10966000807E+04  0.14447795792E+04  0.10100000352E+00 0. -1.
</event>
<event>
 5   0  0.6780984E-07  0.2600016E+04  0.7818609E-02  0.8368196E-01
       -2   -1    0    0    0  501  0.00000000000E+00  0.00000000000E+00  0.11839521903E+04  0.11839521903E+04  0.25500000920E-02 0. -1.
        2   -1    0    0  501    0  0.00000000000E+00  0.00000000000E+00 -0.14274397263E+04  0.14274397263E+04  0.25500000920E-02 0.  1.
    10030    2    1    2    0    0  0.00000000000E+00  0.00000000000E+00 -0.24348753598E+03  0.26113919165E+04  0.26000156849E+04 0.  0.
        2    1    3    3  502    0  0.27778782043E+03 -0.53139621701E+03  0.10367641831E+04  0.11976760764E+04  0.25500000920E-02 0. -1.
       -2    1    3    3    0  502 -0.27778782043E+03  0.53139621701E+03 -0.12802517190E+04  0.14137158402E+04  0.25500000920E-02 0.  1.
</event>
<event>
 5   0  0.2793576E-07  0.2599551E+04  0.7818609E-02  0.8368354E-01
       -1   -1    0    0    0  501  0.00000000000E+00  0.00000000000E+00  0.13057295685E+04  0.13057295685E+04  0.50400001928E-02 0. -1.
        1   -1    0    0  501    0  0.00000000000E+00  0.00000000000E+00 -0.12938489947E+04  0.12938489947E+04  0.50400001928E-02 0.  1.
    10030    2    1    2    0    0  0.00000000000E+00  0.00000000000E+00  0.11880573750E+02  0.25995785632E+04  0.25995514148E+04 0.  0.
        2    1    3    3  502    0  0.86407709281E+03  0.75778274575E+03  0.61303226964E+03  0.13025638087E+04  0.25500000920E-02 0. -1.
       -2    1    3    3    0  502 -0.86407709281E+03 -0.75778274575E+03 -0.60115169589E+03  0.12970147546E+04  0.25500000920E-02 0.  1.
</event>
<event>
 5   0  0.2864801E-07  0.2600052E+04  0.7818609E-02  0.8368184E-01
        1   -1    0    0  501    0  0.00000000000E+00  0.00000000000E+00  0.15891831956E+04  0.15891831956E+04  0.50400001928E-02 0. -1.
       -1   -1    0    0    0  501  0.00000000000E+00  0.00000000000E+00 -0.10634817505E+04  0.10634817506E+04  0.50400001928E-02 0.  1.
    10030    2    1    2    0    0  0.00000000000E+00  0.00000000000E+00  0.52570144501E+03  0.26526649461E+04  0.26000517893E+04 0.  0.
        5    1    3    3  502    0 -0.47080877132E+03 -0.13312860091E+03 -0.96595545084E+03  0.10828093768E+04  0.46999998093E+01 0.  1.
       -5    1    3    3    0  502  0.47080877132E+03  0.13312860091E+03  0.14916568959E+04  0.15698555693E+04  0.46999998093E+01 0. -1.
</event>
<event>
 5   0  0.7160320E-07  0.2599805E+04  0.7818609E-02  0.8368268E-01
        2   -1    0    0  501    0  0.00000000000E+00  0.00000000000E+00  0.87470521072E+03  0.87470521073E+03  0.25500000920E-02 0.  1.
       -2   -1    0    0    0  501  0.00000000000E+00  0.00000000000E+00 -0.19317890317E+04  0.19317890317E+04  0.25500000920E-02 0. -1.
    10030    2    1    2    0    0  0.00000000000E+00  0.00000000000E+00 -0.10570838210E+04  0.28064942424E+04  0.25998045558E+04 0.  0.
        1    1    3    3  502    0 -0.36443164572E+03 -0.52524573775E+03  0.69327717899E+03  0.94304122728E+03  0.50400001928E-02 0.  1.
       -1    1    3    3    0  502  0.36443164572E+03  0.52524573775E+03 -0.17503609999E+04  0.18634530151E+04  0.50400001928E-02 0. -1.
</event>
<event>
 5   0  0.6780984E-07  0.2597143E+04  0.7818609E-02  0.8369172E-01
        2   -1    0    0  501    0  0.00000000000E+00  0.00000000000E+00  0.26890594438E+04  0.26890594438E+04  0.25500000920E-02 0. -1.
       -2   -1    0    0    0  501  0.00000000000E+00  0.00000000000E+00 -0.62709192747E+03  0.62709192747E+03  0.25500000920E-02 0.  1.
    10030    2    1    2    0    0  0.00000000000E+00  0.00000000000E+00  0.20619675164E+04  0.33161513713E+04  0.25971426374E+04 0.  0.
        2    1    3    3  502    0 -0.67757307376E+03 -0.10718204335E+04  0.13884622541E+04  0.18803541536E+04  0.25500000920E-02 0. -1.
       -2    1    3    3    0  502  0.67757307376E+03  0.10718204335E+04  0.67350526226E+03  0.14357972177E+04  0.25500000920E-02 0.  1.
</event>
<event>
 5   0  0.6768478E-07  0.2598937E+04  0.7818609E-02  0.8368562E-01
       -2   -1    0    0    0  501  0.00000000000E+00  0.00000000000E+00  0.91935635010E+03  0.91935635011E+03  0.25500000920E-02 0. -1.
        2   -1    0    0  501    0  0.00000000000E+00  0.00000000000E+00 -0.18367395963E+04  0.18367395963E+04  0.25500000920E-02 0.  1.
    10030    2    1    2    0    0  0.00000000000E+00  0.00000000000E+00 -0.91738324623E+03  0.27560959464E+04  0.25989368683E+04 0.  0.
        4    1    3    3  502    0  0.11791828709E+04  0.45325504955E+02  0.11835438193E+03  0.11859747118E+04  0.12699999809E+01 0. -1.
       -4    1    3    3    0  502 -0.11791828709E+04 -0.45325504955E+02 -0.10357376282E+04  0.15701212347E+04  0.12699999809E+01 0.  1.
</event>
<event>
 5   0  0.6599814E-07  0.2601000E+04  0.7818609E-02  0.8367862E-01
       -2   -1    0    0    0  501  0.00000000000E+00  0.00000000000E+00  0.95721066196E+03  0.95721066196E+03  0.25500000920E-02 0. -1.
        2   -1    0    0  501    0  0.00000000000E+00  0.00000000000E+00 -0.17669047543E+04  0.17669047543E+04  0.25500000920E-02 0.  1.
    10030    2    1    2    0    0  0.00000000000E+00  0.00000000000E+00 -0.80969409236E+03  0.27241154163E+04  0.26009998612E+04 0.  0.
        5    1    3    3  502    0 -0.80410315410E+03 -0.58500302042E+03  0.47295848400E+03  0.11011458731E+04  0.46999998093E+01 0. -1.
       -5    1    3    3    0  502  0.80410315410E+03  0.58500302042E+03 -0.12826525764E+04  0.16229695431E+04  0.46999998093E+01 0.  1.
</event>
<event>
 5   0  0.6768478E-07  0.2600362E+04  0.7818609E-02  0.8368078E-01
        2   -1    0    0  501    0  0.00000000000E+00  0.00000000000E+00  0.20881360318E+04  0.20881360318E+04  0.25500000920E-02 0.  1.
       -2   -1    0    0    0  501  0.00000000000E+00  0.00000000000E+00 -0.80955972645E+03  0.80955972645E+03  0.25500000920E-02 0. -1.
    10030    2    1    2    0    0  0.00000000000E+00  0.00000000000E+00  0.12785763054E+04  0.28976957583E+04  0.26003621553E+04 0.  0.
        4    1    3    3  502    0  0.11396693121E+04 -0.52633724655E+03  0.26206664535E+03  0.12824030480E+04  0.12699999809E+01 0.  1.
       -4    1    3    3    0  502 -0.11396693121E+04  0.52633724655E+03  0.10165096600E+04  0.16152927103E+04  0.12699999809E+01 0. -1.
</event>
<event>
 5   0  0.7160320E-07  0.2601742E+04  0.7818609E-02  0.8367610E-01
        2   -1    0    0  501    0  0.00000000000E+00  0.00000000000E+00  0.11847565697E+04  0.11847565697E+04  0.25500000920E-02 0.  1.
       -2   -1    0    0    0  501  0.00000000000E+00  0.00000000000E+00 -0.14283658653E+04  0.14283658654E+04  0.25500000920E-02 0. -1.
    10030    2    1    2    0    0  0.00000000000E+00  0.00000000000E+00 -0.24360929565E+03  0.26131224350E+04  0.26017423723E+04 0.  0.
        1    1    3    3  502    0  0.60844219467E+03  0.10547457162E+04  0.33799182333E+03  0.12636965232E+04  0.50400001928E-02 0.  1.
       -1    1    3    3    0  502 -0.60844219467E+03 -0.10547457162E+04 -0.58160111898E+03  0.13494259119E+04  0.50400001928E-02 0. -1.
</event>
<event>
 5   0  0.2793576E-07  0.2606663E+04  0.7818609E-02  0.8365942E-01
       -1   -1    0    0    0  501  0.00000000000E+00  0.00000000000E+00  0.10841328863E+04  0.10841328863E+04  0.50400001928E-02 0. -1.
        1   -1    0    0  501    0  0.00000000000E+00  0.00000000000E+00 -0.15668488935E+04  0.15668488935E+04  0.50400001928E-02 0.  1.
    10030    2    1    2    0    0  0.00000000000E+00  0.00000000000E+00 -0.48271600724E+03  0.26509817798E+04  0.26066625507E+04 0.  0.
        2    1    3    3  502    0  0.63398492613E+03 -0.11267380390E+04 -0.40907681558E+03  0.13560307284E+04  0.25500000920E-02 0. -1.
       -2    1    3    3    0  502 -0.63398492613E+03  0.11267380390E+04 -0.73639191667E+02  0.12949510515E+04  0.25500000920E-02 0.  1.
</event>
<event>
 5   0  0.6780984E-07  0.2599264E+04  0.7818609E-02  0.8368451E-01
        2   -1    0    0  501    0  0.00000000000E+00  0.00000000000E+00  0.15243265889E+04  0.15243265889E+04  0.25500000920E-02 0. -1.
       -2   -1    0    0    0  501  0.00000000000E+00  0.00000000000E+00 -0.11080590524E+04  0.11080590524E+04  0.25500000920E-02 0.  1.
    10030    2    1    2    0    0  0.00000000000E+00  0.00000000000E+00  0.41626753650E+03  0.26323856414E+04  0.25992644157E+04 0.  0.
        2    1    3    3  502    0 -0.49408706832E+03 -0.10461292985E+04  0.80773836485E+03  0.14110102078E+04  0.25500000920E-02 0.  1.
       -2    1    3    3    0  502  0.49408706832E+03  0.10461292985E+04 -0.39147082835E+03  0.12213754336E+04  0.25500000920E-02 0. -1.
</event>
<event>
 5   0  0.6526351E-07  0.2600688E+04  0.7818609E-02  0.8367967E-01
        2   -1    0    0  501    0  0.00000000000E+00  0.00000000000E+00  0.18656302971E+04  0.18656302971E+04  0.25500000920E-02 0.  1.
       -2   -1    0    0    0  501  0.00000000000E+00  0.00000000000E+00 -0.90633968209E+03  0.90633968209E+03  0.25500000920E-02 0. -1.
    10030    2    1    2    0    0  0.00000000000E+00  0.00000000000E+00  0.95929061501E+03  0.27719699792E+04  0.26006881938E+04 0.  0.
        3    1    3    3  502    0  0.76164210241E+03  0.98257560341E+03  0.73300528282E+02  0.12453619900E+04  0.10100000352E+00 0. -1.
       -3    1    3    3    0  502 -0.76164210241E+03 -0.98257560341E+03  0.88599008673E+03  0.15266079892E+04  0.10100000352E+00 0.  1.
</event>
<event>
 5   0  0.6599814E-07  0.2600180E+04  0.7818609E-02  0.8368140E-01
       -2   -1    0    0    0  501  0.00000000000E+00  0.00000000000E+00  0.14740330114E+04  0.14740330114E+04  0.25500000920E-02 0. -1.
        2   -1    0    0  501    0  0.00000000000E+00  0.00000000000E+00 -0.11466729627E+04  0.11466729627E+04  0.25500000920E-02 0.  1.
    10030    2    1    2    0    0  0.00000000000E+00  0.00000000000E+00  0.32736004874E+03  0.26207059741E+04  0.26001798401E+04 0.  0.
        5    1    3    3  502    0  0.12823513451E+04  0.25442772272E+02 -0.50457520447E+02  0.12836044400E+04  0.46999998093E+01 0.  1.
       -5    1    3    3    0  502 -0.12823513451E+04 -0.25442772272E+02  0.37781756918E+03  0.13371015341E+04  0.46999998093E+01 0. -1.
</event>
<event>
 5   0  0.7160320E-07  0.2600676E+04  0.7818609E-02  0.8367972E-01
       -2   -1    0    0    0  501  0.00000000000E+00  0.00000000000E+00  0.12737617614E+04  0.12737617614E+04  0.25500000920E-02 0.  1.
        2   -1    0    0  501    0  0.00000000000E+00  0.00000000000E+00 -0.13274684417E+04  0.13274684417E+04  0.25500000920E-02 0. -1.
    10030    2    1    2    0    0  0.00000000000E+00  0.00000000000E+00 -0.53706680313E+02  0.26012302031E+04  0.26006757126E+04 0.  0.
        1    1    3    3  502    0  0.47379634524E+03 -0.10740932610E+04 -0.58618561576E+03  0.13121634373E+04  0.50400001928E-02 0. -1.
       -1    1    3    3    0  502 -0.47379634524E+03  0.10740932610E+04  0.53247893544E+03  0.12890667658E+04  0.50400001928E-02 0.  1.
</event>
<event>
 5   0  0.2623263E-07  0.2602074E+04  0.7818609E-02  0.8367497E-01
        1   -1    0    0  501    0  0.00000000000E+00  0.00000000000E+00  0.12119351189E+04  0.12119351189E+04  0.50400001928E-02 0. -1.
       -1   -1    0    0    0  501  0.00000000000E+00  0.00000000000E+00 -0.13966895798E+04  0.13966895798E+04  0.50400001928E-02 0.  1.
    10030    2    1    2    0    0  0.00000000000E+00  0.00000000000E+00 -0.18475446092E+03  0.26086246987E+04  0.26020739052E+04 0.  0.
        1    1    3    3  502    0  0.12532048778E+03  0.12277856200E+04  0.32040490121E+03  0.12750772738E+04  0.50400001928E-02 0.  1.
       -1    1    3    3    0  502 -0.12532048778E+03 -0.12277856200E+04 -0.50515936214E+03  0.13335474249E+04  0.50400001928E-02 0. -1.
</event>
<event>
 5   0  0.6780984E-07  0.2598924E+04  0.7818609E-02  0.8368567E-01
       -2   -1    0    0    0  501  0.00000000000E+00  0.00000000000E+00  0.12611090690E+04  0.12611090690E+04  0.25500000920E-02 0.  1.
        2   -1    0    0  501    0  0.00000000000E+00  0.00000000000E+00 -0.13389810679E+04  0.13389810679E+04  0.25500000920E-02 0. -1.
    10030    2    1    2    0    0  0.00000000000E+00  0.00000000000E+00 -0.77871998946E+02  0.26000901369E+04  0.25989237526E+04 0.  0.
        2    1    3    3  502    0 -0.25044128661E+03 -0.74707404812E+03 -0.10727248189E+04  0.13310067650E+04  0.25500000920E-02 0. -1.
       -2    1    3    3    0  502  0.25044128661E+03  0.74707404812E+03  0.99485281997E+03  0.12690833719E+04  0.25500000920E-02 0.  1.
</event>
<event>
 5   0  0.2641626E-07  0.2599681E+04  0.7818609E-02  0.8368310E-01
       -1   -1    0    0    0  501  0.00000000000E+00  0.00000000000E+00  0.60287788849E+03  0.60287788851E+03  0.50400001928E-02 0. -1.
        1   -1    0    0  501    0  0.00000000000E+00  0.00000000000E+00 -0.28025326638E+04  0.28025326638E+04  0.50400001928E-02 0.  1.
    10030    2    1    2    0    0  0.00000000000E+00  0.00000000000E+00 -0.21996547754E+04  0.34054105524E+04  0.25996807303E+04 0.  0.
        3    1    3    3  502    0  0.95661459715E+03 -0.26553992605E+03 -0.21988941602E+04  0.24126248108E+04  0.10100000352E+00 0.  1.
       -3    1    3    3    0  502 -0.95661459715E+03  0.26553992605E+03 -0.76061512094E+00  0.99278574151E+03  0.10100000352E+00 0. -1.
</event>
<event>
 5   0  0.6599814E-07  0.2605892E+04  0.7818609E-02  0.8366202E-01
        2   -1    0    0  501    0  0.00000000000E+00  0.00000000000E+00  0.12302906550E+04  0.12302906550E+04  0.25500000920E-02 0.  1.
       -2   -1    0    0    0  501  0.00000000000E+00  0.00000000000E+00 -0.13798923188E+04  0.13798923188E+04  0.25500000920E-02 0. -1.
    10030    2    1    2    0    0  0.00000000000E+00  0.00000000000E+00 -0.14960166382E+03  0.26101829738E+04  0.26058922654E+04 0.  0.
        5    1    3    3  502    0 -0.64371929372E+03 -0.94204870596E+03  0.55537435769E+03  0.12689732309E+04  0.46999998093E+01 0.  1.
       -5    1    3    3    0  502  0.64371929372E+03  0.94204870596E+03 -0.70497602151E+03  0.13412097429E+04  0.46999998093E+01 0. -1.
</event>
<event>
 5   0  0.2755061E-07  0.2597472E+04  0.7818609E-02  0.8369060E-01
       -1   -1    0    0    0  501  0.00000000000E+00  0.00000000000E+00  0.35796148752E+04  0.35796148752E+04  0.50400001928E-02 0. -1.
        1   -1    0    0  501    0  0.00000000000E+00  0.00000000000E+00 -0.47120011122E+03  0.47120011125E+03  0.50400001928E-02 0.  1.
    10030    2    1    2    0    0  0.00000000000E+00  0.00000000000E+00  0.31084147640E+04  0.40508149865E+04  0.25974717919E+04 0.  0.
        4    1    3    3  502    0  0.41687433251E+03 -0.60412710569E+03 -0.11670955028E+03  0.74322035828E+03  0.12699999809E+01 0.  1.
       -4    1    3    3    0  502 -0.41687433251E+03  0.60412710569E+03  0.32251243143E+04  0.33075946282E+04  0.12699999809E+01 0. -1.
</event>
<event>
 5   0  0.6768478E-07  0.2600988E+04  0.7818609E-02  0.8367866E-01
        2   -1    0    0  501    0  0.00000000000E+00  0.00000000000E+00  0.10017347421E+04  0.10017347421E+04  0.25500000920E-02 0. -1.
       -2   -1    0    0    0  501  0.00000000000E+00  0.00000000000E+00 -0.16883554751E+04  0.16883554751E+04  0.25500000920E-02 0.  1.
    10030    2    1    2    0    0  0.00000000000E+00  0.00000000000E+00 -0.68662073303E+03  0.26900902172E+04  0.26009877635E+04 0.  0.
        4    1    3    3  502    0 -0.99119551494E+03 -0.72551894106E+03  0.98447540407E+02  0.12322904746E+04  0.12699999809E+01 0. -1.
       -4    1    3    3    0  502  0.99119551494E+03  0.72551894106E+03 -0.78506827344E+03  0.14577997426E+04  0.12699999809E+01 0.  1.
</event>
<event>
 5   0  0.2623263E-07  0.2601151E+04  0.7818609E-02  0.8367810E-01
       -1   -1    0    0    0  501  0.00000000000E+00  0.00000000000E+00  0.86285340318E+03  0.86285340319E+03  0.50400001928E-02 0.  1.
        1   -1    0    0  501    0  0.00000000000E+00  0.00000000000E+00 -0.19603519676E+04  0.19603519676E+04  0.50400001928E-02 0. -1.
    10030    2    1    2    0    0  0.00000000000E+00  0.00000000000E+00 -0.10974985644E+04  0.28232053708E+04  0.26011507966E+04 0.  0.
        1    1    3    3  502    0 -0.27047287557E+03  0.11251430005E+04 -0.11930538428E+04  0.16620709431E+04  0.50400001928E-02 0. -1.
       -1    1    3    3    0  502  0.27047287557E+03 -0.11251430005E+04  0.95555278432E+02  0.11611344277E+04  0.50400001928E-02 0.  1.
</event>
<event>
 5   0  0.7160320E-07  0.2600096E+04  0.7818609E-02  0.8368169E-01
        2   -1    0    0  501    0  0.00000000000E+00  0.00000000000E+00  0.14735552509E+04  0.14735552509E+04  0.25500000920E-02 0.  1.
       -2   -1    0    0    0  501  0.00000000000E+00  0.00000000000E+00 -0.11469703333E+04  0.11469703333E+04  0.25500000920E-02 0. -1.
    10030    2    1    2    0    0  0.00000000000E+00  0.00000000000E+00  0.32658491765E+03  0.26205255842E+04  0.26000955038E+04 0.  0.
        1    1    3    3  502    0 -0.78059375883E+03 -0.56000871276E+03 -0.71948237304E+03  0.12002463330E+04  0.50400001928E-02 0. -1.
       -1    1    3    3    0  502  0.78059375883E+03  0.56000871276E+03  0.10460672907E+04  0.14202792512E+04  0.50400001928E-02 0.  1.
</event>
<event>
 5   0  0.2755061E-07  0.2600665E+04  0.7818609E-02  0.8367975E-01
       -1   -1    0    0    0  501  0.00000000000E+00  0.00000000000E+00  0.13536565372E+04  0.13536565372E+04  0.50400001928E-02 0.  1.
        1   -1    0    0  501    0  0.00000000000E+00  0.00000000000E+00 -0.12491092990E+04  0.12491092990E+04  0.50400001928E-02 0. -1.
    10030    2    1    2    0    0  0.00000000000E+00  0.00000000000E+00  0.10454723817E+03  0.26027658362E+04  0.26006652751E+04 0.  0.
        4    1    3    3  502    0  0.72757797148E+03  0.14724946636E+03  0.11207553660E+04  0.13443014220E+04  0.12699999809E+01 0.  1.
       -4    1    3    3    0  502 -0.72757797148E+03 -0.14724946636E+03 -0.10162081278E+04  0.12584644142E+04  0.12699999809E+01 0. -1.
</event>
<event>
 5   0  0.6526351E-07  0.2600629E+04  0.7818609E-02  0.8367987E-01
        2   -1    0    0  501    0  0.00000000000E+00  0.00000000000E+00  0.18334891229E+04  0.18334891229E+04  0.25500000920E-02 0. -1.
       -2   -1    0    0    0  501  0.00000000000E+00  0.00000000000E+00 -0.92218621828E+03  0.92218621829E+03  0.25500000920E-02 0.  1.
    10030    2    1    2    0    0  0.00000000000E+00  0.00000000000E+00  0.91130290463E+03  0.27556753412E+04  0.26006294627E+04 0.  0.
        3    1    3    3  502    0 -0.11425232560E+04  0.19044391967E+03  0.10818045610E+04  0.15849067466E+04  0.10100000352E+00 0. -1.
       -3    1    3    3    0  502  0.11425232560E+04 -0.19044391967E+03 -0.17050165640E+03  0.11707685946E+04  0.10100000352E+00 0.  1.
</event>
<event>
 5   0  0.2641626E-07  0.2601168E+04  0.7818609E-02  0.8367804E-01
       -1   -1    0    0    0  501  0.00000000000E+00  0.00000000000E+00  0.12802984280E+04  0.12802984280E+04  0.50400001928E-02 0. -1.
        1   -1    0    0  501    0  0.00000000000E+00  0.00000000000E+00 -0.13211913126E+04  0.13211913126E+04  0.50400001928E-02 0.  1.
    10030    2    1    2    0    0  0.00000000000E+00  0.00000000000E+00 -0.40892884608E+02  0.26014897405E+04  0.26011683225E+04 0.  0.
        3    1    3    3  502    0 -0.11679287727E+04 -0.56741380353E+03  0.53745658685E+02  0.12995786427E+04  0.10100000352E+00 0.  1.
       -3    1    3    3    0  502  0.11679287727E+04  0.56741380353E+03 -0.94638543293E+02  0.13019110978E+04  0.10100000352E+00 0. -1.
</event>
<event>
 5   0  0.7160320E-07  0.2600832E+04  0.7818609E-02  0.8367919E-01
       -2   -1    0    0    0  501  0.00000000000E+00  0.00000000000E+00  0.11016157199E+04  0.11016157199E+04  0.25500000920E-02 0.  1.
        2   -1    0    0  501    0  0.00000000000E+00  0.00000000000E+00 -0.15350920844E+04  0.15350920844E+04  0.25500000920E-02 0. -1.
    10030    2    1    2    0    0  0.00000000000E+00  0.00000000000E+00 -0.43347636449E+03  0.26367078044E+04  0.26008318452E+04 0.  0.
        1    1    3    3  502    0 -0.44760012880E+03  0.77212584798E+03  0.74211878859E+03  0.11607172338E+04  0.50400001928E-02 0.  1.
       -1    1    3    3    0  502  0.44760012880E+03 -0.77212584798E+03 -0.11755951531E+04  0.14759905706E+04  0.50400001928E-02 0. -1.
</event>
<event>
 5   0  0.2755061E-07  0.2598764E+04  0.7818609E-02  0.8368621E-01
        1   -1    0    0  501    0  0.00000000000E+00  0.00000000000E+00  0.15393680851E+04  0.15393680851E+04  0.50400001928E-02 0. -1.
       -1   -1    0    0    0  501  0.00000000000E+00  0.00000000000E+00 -0.10968092234E+04  0.10968092234E+04  0.50400001928E-02 0.  1.
    10030    2    1    2    0    0  0.00000000000E+00  0.00000000000E+00  0.44255886164E+03  0.26361773085E+04  0.25987636399E+04 0.  0.
        4    1    3    3  502    0  0.99316919563E+03 -0.70251299716E+03  0.68445117162E+03  0.13958454719E+04  0.12699999809E+01 0.  1.
       -4    1    3    3    0  502 -0.99316919563E+03  0.70251299716E+03 -0.24189230999E+03  0.12403318366E+04  0.12699999809E+01 0. -1.
</event>
<event>
 5   0  0.6526351E-07  0.2599705E+04  0.7818609E-02  0.8368301E-01
       -2   -1    0    0    0  501  0.00000000000E+00  0.00000000000E+00  0.10894359117E+04  0.10894359117E+04  0.25500000920E-02 0. -1.
        2   -1    0    0  501    0  0.00000000000E+00  0.00000000000E+00 -0.15509098904E+04  0.15509098904E+04  0.25500000920E-02 0.  1.
    10030    2    1    2    0    0  0.00000000000E+00  0.00000000000E+00 -0.46147397867E+03  0.26403458022E+04  0.25997053145E+04 0.  0.
        3    1    3    3  502    0 -0.12777688838E+03 -0.61586316241E+03 -0.13860622098E+04  0.15220981662E+04  0.10100000352E+00 0.  1.
       -3    1    3    3    0  502  0.12777688838E+03  0.61586316241E+03  0.92458823111E+03  0.11182476360E+04  0.10100000352E+00 0. -1.
</event>
<event>
 5   0  0.2755061E-07  0.2600551E+04  0.7818609E-02  0.8368014E-01
        1   -1    0    0  501    0  0.00000000000E+00  0.00000000000E+00  0.12395695712E+04  0.12395695712E+04  0.50400001928E-02 0. -1.
       -1   -1    0    0    0  501  0.00000000000E+00  0.00000000000E+00 -0.13639545157E+04  0.13639545157E+04  0.50400001928E-02 0.  1.
    10030    2    1    2    0    0  0.00000000000E+00  0.00000000000E+00 -0.12438494444E+03  0.26035240869E+04  0.26005511063E+04 0.  0.
        4    1    3    3  502    0 -0.18373828380E+03  0.95199911560E+03 -0.92958518579E+03  0.13432022571E+04  0.12699999809E+01 0.  1.
       -4    1    3    3    0  502  0.18373828380E+03 -0.95199911560E+03  0.80520024135E+03  0.12603218298E+04  0.12699999809E+01 0. -1.
</event>
<event>
 5   0  0.2294625E-07  0.2598115E+04  0.7818609E-02  0.8368842E-01
       -3   -1    0    0    0  501  0.00000000000E+00  0.00000000000E+00  0.17646084085E+04  0.17646084114E+04  0.10100000352E+00 0. -1.
        3   -1    0    0  501    0  0.00000000000E+00  0.00000000000E+00 -0.95633168589E+03  0.95633169122E+03  0.10100000352E+00 0.  1.
    10030    2    1    2    0    0  0.00000000000E+00  0.00000000000E+00  0.80827672262E+03  0.27209401026E+04  0.25981154289E+04 0.  0.
        4    1    3    3  502    0  0.59834428405E+03 -0.67635472237E+03 -0.57386002930E+03  0.10699479141E+04  0.12699999809E+01 0.  1.
       -4    1    3    3    0  502 -0.59834428405E+03  0.67635472237E+03  0.13821367519E+04  0.16509921885E+04  0.12699999809E+01 0. -1.
</event>
<event>
 5   0  0.2755061E-07  0.2598190E+04  0.7818609E-02  0.8368816E-01
        1   -1    0    0  501    0  0.00000000000E+00  0.00000000000E+00  0.16340240224E+04  0.16340240224E+04  0.50400001928E-02 0.  1.
       -1   -1    0    0    0  501  0.00000000000E+00  0.00000000000E+00 -0.10328169586E+04  0.10328169586E+04  0.50400001928E-02 0. -1.
    10030    2    1    2    0    0  0.00000000000E+00  0.00000000000E+00  0.60120706384E+03  0.26668409810E+04  0.25981899246E+04 0.  0.
        4    1    3    3  502    0  0.48525214207E+03 -0.10653297161E+04 -0.27752765783E+03  0.12030878019E+04  0.12699999809E+01 0. -1.
       -4    1    3    3    0  502 -0.48525214207E+03  0.10653297161E+04  0.87873472167E+03  0.14637531791E+04  0.12699999809E+01 0.  1.
</event>
<event>
 5   0  0.2864801E-07  0.2600415E+04  0.7818609E-02  0.8368060E-01
        1   -1    0    0  501    0  0.00000000000E+00  0.00000000000E+00  0.18409673508E+04  0.18409673508E+04  0.50400001928E-02 0.  1.
       -1   -1    0    0    0  501  0.00000000000E+00  0.00000000000E+00 -0.91828877832E+03  0.91828877833E+03  0.50400001928E-02 0. -1.
    10030    2    1    2    0    0  0.00000000000E+00  0.00000000000E+00  0.92267857251E+03  0.27592561292E+04  0.26004150896E+04 0.  0.
        5    1    3    3  502    0  0.10143818850E+04 -0.66310780759E+03 -0.38424023278E+02  0.12125102345E+04  0.46999998093E+01 0. -1.
       -5    1    3    3    0  502 -0.10143818850E+04  0.66310780759E+03  0.96110259579E+03  0.15467458947E+04  0.46999998093E+01 0.  1.
</event>
<event>
 5   0  0.6780984E-07  0.2600808E+04  0.7818609E-02  0.8367927E-01
        2   -1    0    0  501    0  0.00000000000E+00  0.00000000000E+00  0.13528728550E+04  0.13528728550E+04  0.25500000920E-02 0.  1.
       -2   -1    0    0    0  501  0.00000000000E+00  0.00000000000E+00 -0.12499703896E+04  0.12499703896E+04  0.25500000920E-02 0. -1.
    10030    2    1    2    0    0  0.00000000000E+00  0.00000000000E+00  0.10290246542E+03  0.26028432447E+04  0.26008083434E+04 0.  0.
        2    1    3    3  502    0 -0.10790609323E+04  0.72268813197E+03 -0.14936014501E+02  0.12987970265E+04  0.25500000920E-02 0. -1.
       -2    1    3    3    0  502  0.10790609323E+04 -0.72268813197E+03  0.11783847992E+03  0.13040462181E+04  0.25500000920E-02 0.  1.
</event>
<event>
 5   0  0.6768478E-07  0.2600601E+04  0.7818609E-02  0.8367997E-01
        2   -1    0    0  501    0  0.00000000000E+00  0.00000000000E+00  0.14326899625E+04  0.14326899625E+04  0.25500000920E-02 0. -1.
       -2   -1    0    0    0  501  0.00000000000E+00  0.00000000000E+00 -0.11801448161E+04  0.11801448161E+04  0.25500000920E-02 0.  1.
    10030    2    1    2    0    0  0.00000000000E+00  0.00000000000E+00  0.25254514641E+03  0.26128347787E+04  0.26006011862E+04 0.  0.
        4    1    3    3  502    0  0.10927777820E+04 -0.66695557044E+03  0.35491066814E+03  0.13285165445E+04  0.12699999809E+01 0. -1.
       -4    1    3    3    0  502 -0.10927777820E+04  0.66695557044E+03 -0.10236552173E+03  0.12843182342E+04  0.12699999809E+01 0.  1.
</event>
<event>
 5   0  0.6599814E-07  0.2600282E+04  0.7818609E-02  0.8368105E-01
        2   -1    0    0  501    0  0.00000000000E+00  0.00000000000E+00  0.15440413780E+04  0.15440413780E+04  0.25500000920E-02 0.  1.
       -2   -1    0    0    0  501  0.00000000000E+00  0.00000000000E+00 -0.10947677334E+04  0.10947677334E+04  0.25500000920E-02 0. -1.
    10030    2    1    2    0    0  0.00000000000E+00  0.00000000000E+00  0.44927364455E+03  0.26388091114E+04  0.26002820460E+04 0.  0.
        5    1    3    3  502    0  0.12021947753E+04 -0.20278107975E+03  0.68293872133E+03  0.13974333012E+04  0.46999998093E+01 0. -1.
       -5    1    3    3    0  502 -0.12021947753E+04  0.20278107975E+03 -0.23366507678E+03  0.12413758102E+04  0.46999998093E+01 0.  1.
</event>
<event>
 5   0  0.6599814E-07  0.2600549E+04  0.7818609E-02  0.8368015E-01
        2   -1    0    0  501    0  0.00000000000E+00  0.00000000000E+00  0.20918070171E+04  0.20918070171E+04  0.25500000920E-02 0. -1.
       -2   -1    0    0    0  501  0.00000000000E+00  0.00000000000E+00 -0.80825487641E+03  0.80825487641E+03  0.25500000920E-02 0.  1.
    10030    2    1    2    0    0  0.00000000000E+00  0.00000000000E+00  0.12835521407E+04  0.29000618935E+04  0.26005485745E+04 0.  0.
        5    1    3    3  502    0 -0.24818871016E+03 -0.12709063742E+04  0.77320803128E+03  0.15082020414E+04  0.46999998093E+01 0.  1.
       -5    1    3    3    0  502  0.24818871016E+03  0.12709063742E+04  0.51034410938E+03  0.13918598521E+04  0.46999998093E+01 0. -1.
</event>
<event>
 5   0  0.2755061E-07  0.2600301E+04  0.7818609E-02  0.8368099E-01
       -1   -1    0    0    0  501  0.00000000000E+00  0.00000000000E+00  0.78087812309E+03  0.78087812310E+03  0.50400001928E-02 0.  1.
        1   -1    0    0  501    0  0.00000000000E+00  0.00000000000E+00 -0.21647310310E+04  0.21647310310E+04  0.50400001928E-02 0. -1.
    10030    2    1    2    0    0  0.00000000000E+00  0.00000000000E+00 -0.13838529080E+04  0.29456091542E+04  0.26003008322E+04 0.  0.
        4    1    3    3  502    0 -0.40574772356E+03 -0.19081413487E+03  0.69052425151E+03  0.82332654765E+03  0.12699999809E+01 0.  1.
       -4    1    3    3    0  502  0.40574772356E+03  0.19081413487E+03 -0.20743771595E+04  0.21222826065E+04  0.12699999809E+01 0. -1.
</event>
<event>
 5   0  0.2623263E-07  0.2599997E+04  0.7818609E-02  0.8368202E-01
       -1   -1    0    0    0  501  0.00000000000E+00  0.00000000000E+00  0.17220069459E+04  0.17220069459E+04  0.50400001928E-02 0.  1.
        1   -1    0    0  501    0  0.00000000000E+00  0.00000000000E+00 -0.98141099118E+03  0.98141099120E+03  0.50400001928E-02 0. -1.
    10030    2    1    2    0    0  0.00000000000E+00  0.00000000000E+00  0.74059595469E+03  0.27034179371E+04  0.25999973412E+04 0.  0.
        1    1    3    3  502    0 -0.67844609020E+03 -0.59078116573E+03 -0.60547907792E+03  0.10843967894E+04  0.50400001928E-02 0. -1.
       -1    1    3    3    0  502  0.67844609020E+03  0.59078116573E+03  0.13460750326E+04  0.16190211477E+04  0.50400001928E-02 0.  1.
</event>
<event>
 5   0  0.6526351E-07  0.2601079E+04  0.7818609E-02  0.8367835E-01
        2   -1    0    0  501    0  0.00000000000E+00  0.00000000000E+00  0.14029916233E+04  0.14029916233E+04  0.25500000920E-02 0.  1.
       -2   -1    0    0    0  501  0.00000000000E+00  0.00000000000E+00 -0.12055685234E+04  0.12055685234E+04  0.25500000920E-02 0. -1.
    10030    2    1    2    0    0  0.00000000000E+00  0.00000000000E+00  0.19742309986E+03  0.26085601467E+04  0.26010786529E+04 0.  0.
        3    1    3    3  502    0  0.10287253188E+04 -0.48321854222E+03 -0.53526699067E+03  0.12562988110E+04  0.10100000352E+00 0. -1.
       -3    1    3    3    0  502 -0.10287253188E+04  0.48321854222E+03  0.73269009053E+03  0.13522613357E+04  0.10100000352E+00 0.  1.
</event>
<event>
 5   0  0.7160320E-07  0.2597045E+04  0.7818609E-02  0.8369206E-01
        2   -1    0    0  501    0  0.00000000000E+00  0.00000000000E+00  0.99888607160E+03  0.99888607160E+03  0.25500000920E-02 0.  1.
       -2   -1    0    0    0  501  0.00000000000E+00  0.00000000000E+00 -0.16880404415E+04  0.16880404415E+04  0.25500000920E-02 0. -1.
    10030    2    1    2    0    0  0.00000000000E+00  0.00000000000E+00 -0.68915436987E+03  0.26869265131E+04  0.25970445397E+04 0.  0.
        1    1    3    3  502    0 -0.17770346101E+02 -0.11991369889E+04 -0.85971994677E+03  0.14755892688E+04  0.50400001928E-02 0.  1.
       -1    1    3    3    0  502  0.17770346101E+02  0.11991369889E+04  0.17056557691E+03  0.12113372443E+04  0.50400001928E-02 0. -1.
</event>
<event>
 5   0  0.6599814E-07  0.2598001E+04  0.7818609E-02  0.8368881E-01
        2   -1    0    0  501    0  0.00000000000E+00  0.00000000000E+00  0.23610498610E+04  0.23610498610E+04  0.25500000920E-02 0. -1.
       -2   -1    0    0    0  501  0.00000000000E+00  0.00000000000E+00 -0.71468306414E+03  0.71468306414E+03  0.25500000920E-02 0.  1.
    10030    2    1    2    0    0  0.00000000000E+00  0.00000000000E+00  0.16463667968E+04  0.30757329251E+04  0.25980010387E+04 0.  0.
        5    1    3    3  502    0  0.12177570289E+04  0.27346331602E+03  0.12494901182E+04  0.17660583263E+04  0.46999998093E+01 0. -1.
       -5    1    3    3    0  502 -0.12177570289E+04 -0.27346331602E+03  0.39687667864E+03  0.13096745988E+04  0.46999998093E+01 0.  1.
</event>
<event>
 5   0  0.2641626E-07  0.2600562E+04  0.7818609E-02  0.8368010E-01
        1   -1    0    0  501    0  0.00000000000E+00  0.00000000000E+00  0.16553450664E+04  0.16553450664E+04  0.50400001928E-02 0.  1.
       -1   -1    0    0    0  501  0.00000000000E+00  0.00000000000E+00 -0.10213762808E+04  0.10213762808E+04  0.50400001928E-02 0. -1.
    10030    2    1    2    0    0  0.00000000000E+00  0.00000000000E+00  0.63396878560E+03  0.26767213472E+04  0.26005616219E+04 0.  0.
        3    1    3    3  502    0 -0.29007535456E+03 -0.38455536051E+03 -0.92615419319E+03  0.10439291817E+04  0.10100000352E+00 0. -1.
       -3    1    3    3    0  502  0.29007535456E+03  0.38455536051E+03  0.15601229788E+04  0.16327921655E+04  0.10100000352E+00 0.  1.
</event>
<event>
 5   0  0.6780984E-07  0.2595751E+04  0.7818609E-02  0.8369646E-01
       -2   -1    0    0    0  501  0.00000000000E+00  0.00000000000E+00  0.66822285439E+03  0.66822285439E+03  0.25500000920E-02 0. -1.
        2   -1    0    0  501    0  0.00000000000E+00  0.00000000000E+00 -0.25208373472E+04  0.25208373472E+04  0.25500000920E-02 0.  1.
    10030    2    1    2    0    0  0.00000000000E+00  0.00000000000E+00 -0.18526144928E+04  0.31890602016E+04  0.25957512420E+04 0.  0.
        2    1    3    3  502    0 -0.58990501750E+03 -0.56914184429E+03 -0.21625744212E+04  0.23127123678E+04  0.25500000920E-02 0.  1.
       -2    1    3    3    0  502  0.58990501750E+03  0.56914184429E+03  0.30995992844E+03  0.87634783381E+03  0.25500000920E-02 0. -1.
</event>
<event>
 5   0  0.2623263E-07  0.2599375E+04  0.7818609E-02  0.8368414E-01
        1   -1    0    0  501    0  0.00000000000E+00  0.00000000000E+00  0.93195376613E+03  0.93195376615E+03  0.50400001928E-02 0.  1.
       -1   -1    0    0    0  501  0.00000000000E+00  0.00000000000E+00 -0.18125225172E+04  0.18125225172E+04  0.50400001928E-02 0. -1.
    10030    2    1    2    0    0  0.00000000000E+00  0.00000000000E+00 -0.88056875110E+03  0.27444762834E+04  0.25993746834E+04 0.  0.
        1    1    3    3  502    0 -0.95243312335E+03  0.22915622791E+03  0.46152939928E+03  0.10828900303E+04  0.50400001928E-02 0.  1.
       -1    1    3    3    0  502  0.95243312335E+03 -0.22915622791E+03 -0.13420981504E+04  0.16615862531E+04  0.50400001928E-02 0. -1.
</event>
<event>
 5   0  0.6526351E-07  0.2598386E+04  0.7818609E-02  0.8368750E-01
       -2   -1    0    0    0  501  0.00000000000E+00  0.00000000000E+00  0.13803979860E+04  0.13803979860E+04  0.25500000920E-02 0. -1.
        2   -1    0    0  501    0  0.00000000000E+00  0.00000000000E+00 -0.12227651676E+04  0.12227651676E+04  0.25500000920E-02 0.  1.
    10030    2    1    2    0    0  0.00000000000E+00  0.00000000000E+00  0.15763281834E+03  0.26031631536E+04  0.25983860950E+04 0.  0.
        3    1    3    3  502    0  0.11001407373E+04 -0.60505202927E+03  0.41335390893E+03  0.13218392732E+04  0.10100000352E+00 0.  1.
       -3    1    3    3    0  502 -0.11001407373E+04  0.60505202927E+03 -0.25572109059E+03  0.12813238804E+04  0.10100000352E+00 0. -1.
</event>
<event>
 5   0  0.6780984E-07  0.2603756E+04  0.7818609E-02  0.8366927E-01
        2   -1    0    0  501    0  0.00000000000E+00  0.00000000000E+00  0.22345161321E+04  0.22345161321E+04  0.25500000920E-02 0.  1.
       -2   -1    0    0    0  501  0.00000000000E+00  0.00000000000E+00 -0.75850253339E+03  0.75850253340E+03  0.25500000920E-02 0. -1.
    10030    2    1    2    0    0  0.00000000000E+00  0.00000000000E+00  0.14760135987E+04  0.29930186655E+04  0.26037558619E+04 0.  0.
        2    1    3    3  502    0  0.24036548671E+03  0.12547128232E+04  0.10260852736E+04  0.16385758525E+04  0.25500000920E-02 0. -1.
       -2    1    3    3    0  502 -0.24036548671E+03 -0.12547128232E+04  0.44992832513E+03  0.13544428130E+04  0.25500000920E-02 0.  1.
</event>
<event>
 5   0  0.2623263E-07  0.2603658E+04  0.7818609E-02  0.8366960E-01
       -1   -1    0    0    0  501  0.00000000000E+00  0.00000000000E+00  0.10562395224E+04  0.10562395224E+04  0.50400001928E-02 0.  1.
        1   -1    0    0  501    0  0.00000000000E+00  0.00000000000E+00 -0.16045212382E+04  0.16045212382E+04  0.50400001928E-02 0. -1.
    10030    2    1    2    0    0  0.00000000000E+00  0.00000000000E+00 -0.54828171577E+03  0.26607607606E+04  0.26036580008E+04 0.  0.
        1    1    3    3  502    0  0.61117681586E+03  0.69255797435E+03  0.66335834695E+03  0.11371974079E+04  0.50400001928E-02 0.  1.
       -1    1    3    3    0  502 -0.61117681586E+03 -0.69255797435E+03 -0.12116400627E+04  0.15235633527E+04  0.50400001928E-02 0. -1.
</event>
<event>
 5   0  0.6599814E-07  0.2590913E+04  0.7818609E-02  0.8371294E-01
        2   -1    0    0  501    0  0.00000000000E+00  0.00000000000E+00  0.12913221421E+04  0.12913221421E+04  0.25500000920E-02 0. -1.
       -2   -1    0    0    0  501  0.00000000000E+00  0.00000000000E+00 -0.12996040169E+04  0.12996040169E+04  0.25500000920E-02 0.  1.
    10030    2    1    2    0    0  0.00000000000E+00  0.00000000000E+00 -0.82818747798E+01  0.25909261589E+04  0.25909129224E+04 0.  0.
        5    1    3    3  502    0 -0.16307361233E+02 -0.50909676496E+03  0.11869738358E+04  0.12916556906E+04  0.46999998093E+01 0. -1.
       -5    1    3    3    0  502  0.16307361233E+02  0.50909676496E+03 -0.11952557106E+04  0.12992704683E+04  0.46999998093E+01 0.  1.
</event>
<event>
 5   0  0.6780984E-07  0.2599707E+04  0.7818609E-02  0.8368301E-01
        2   -1    0    0  501    0  0.00000000000E+00  0.00000000000E+00  0.19210636578E+04  0.19210636578E+04  0.25500000920E-02 0. -1.
       -2   -1    0    0    0  501  0.00000000000E+00  0.00000000000E+00 -0.87952276010E+03  0.87952276010E+03  0.25500000920E-02 0.  1.
    10030    2    1    2    0    0  0.00000000000E+00  0.00000000000E+00  0.10415408977E+04  0.28005864179E+04  0.25997070686E+04 0.  0.
        2    1    3    3  502    0 -0.32815293144E+03 -0.91412647582E+03 -0.40987339753E+03  0.10541858291E+04  0.25500000920E-02 0.  1.
       -2    1    3    3    0  502  0.32815293144E+03  0.91412647582E+03  0.14514142952E+04  0.17464005888E+04  0.25500000920E-02 0. -1.
</event>
<event>
 5   0  0.6599814E-07  0.2598443E+04  0.7818609E-02  0.8368730E-01
       -2   -1    0    0    0  501  0.00000000000E+00  0.00000000000E+00  0.74660021403E+03  0.74660021404E+03  0.25500000920E-02 0.  1.
        2   -1    0    0  501    0  0.00000000000E+00  0.00000000000E+00 -0.22608839038E+04  0.22608839038E+04  0.25500000920E-02 0. -1.
    10030    2    1    2    0    0  0.00000000000E+00  0.00000000000E+00 -0.15142836898E+04  0.30074841178E+04  0.25984429234E+04 0.  0.
        5    1    3    3  502    0  0.73015382851E+03 -0.64181116034E+03 -0.17547447810E+04  0.20060402576E+04  0.46999998093E+01 0. -1.
       -5    1    3    3    0  502 -0.73015382851E+03  0.64181116034E+03  0.24046109119E+03  0.10014438602E+04  0.46999998093E+01 0.  1.
</event>
<event>
 5   0  0.2623263E-07  0.2584545E+04  0.7818609E-02  0.8373470E-01
        1   -1    0    0  501    0  0.00000000000E+00  0.00000000000E+00  0.10816674828E+04  0.10816674828E+04  0.50400001928E-02 0. -1.
       -1   -1    0    0    0  501  0.00000000000E+00  0.00000000000E+00 -0.15438835324E+04  0.15438835324E+04  0.50400001928E-02 0.  1.
    10030    2    1    2    0    0  0.00000000000E+00  0.00000000000E+00 -0.46221604961E+03  0.26255510151E+04  0.25845453094E+04 0.  0.
        1    1    3    3  502    0 -0.33069362646E+03 -0.28402407207E+03 -0.14669372548E+04  0.15303374979E+04  0.50400001928E-02 0.  1.
       -1    1    3    3    0  502  0.33069362646E+03  0.28402407207E+03  0.10047212052E+04  0.10952135172E+04  0.50400001928E-02 0. -1.
</event>
<event>
 5   0  0.6768478E-07  0.2600132E+04  0.7818609E-02  0.8368156E-01
        2   -1    0    0  501    0  0.00000000000E+00  0.00000000000E+00  0.10321788145E+04  0.10321788145E+04  0.25500000920E-02 0.  1.
       -2   -1    0    0    0  501  0.00000000000E+00  0.00000000000E+00 -0.16374799210E+04  0.16374799210E+04  0.25500000920E-02 0. -1.
    10030    2    1    2    0    0  0.00000000000E+00  0.00000000000E+00 -0.60530110652E+03  0.26696587356E+04  0.26001323687E+04 0.  0.
        4    1    3    3  502    0  0.56044148223E+03  0.74142111087E+03  0.63070627117E+03  0.11232060951E+04  0.12699999809E+01 0.  1.
       -4    1    3    3    0  502 -0.56044148223E+03 -0.74142111087E+03 -0.12360073777E+04  0.15464526405E+04  0.12699999809E+01 0. -1.
</event>
<event>
 5   0  0.6526351E-07  0.2599148E+04  0.7818609E-02  0.8368491E-01
        2   -1    0    0  501    0  0.00000000000E+00  0.00000000000E+00  0.86200456556E+03  0.86200456556E+03  0.25500000920E-02 0. -1.
       -2   -1    0    0    0  501  0.00000000000E+00  0.00000000000E+00 -0.19592616417E+04  0.19592616417E+04  0.25500000920E-02 0.  1.
    10030    2    1    2    0    0  0.00000000000E+00  0.00000000000E+00 -0.10972570761E+04  0.28212662072E+04  0.25991479221E+04 0.  0.
        3    1    3    3  502    0  0.69948998962E+03 -0.24757506494E+03  0.60946565035E+03  0.96022291553E+03  0.10100000352E+00 0. -1.
       -3    1    3    3    0  502 -0.69948998962E+03  0.24757506494E+03 -0.17067227265E+04  0.18610432917E+04  0.10100000352E+00 0.  1.
</event>
<event>
 5   0  0.6599814E-07  0.2600195E+04  0.7818609E-02  0.8368135E-01
        2   -1    0    0  501    0  0.00000000000E+00  0.00000000000E+00  0.14895048847E+04  0.14895048847E+04  0.25500000920E-02 0.  1.
       -2   -1    0    0    0  501  0.00000000000E+00  0.00000000000E+00 -0.11347754304E+04  0.11347754304E+04  0.25500000920E-02 0. -1.
    10030    2    1    2    0    0  0.00000000000E+00  0.00000000000E+00  0.35472945433E+03  0.26242803150E+04  0.26001950285E+04 0.  0.
        5    1    3    3  502    0 -0.10725474722E+04  0.43448349723E+03  0.77538808526E+03  0.13929762246E+04  0.46999998093E+01 0.  1.
       -5    1    3    3    0  502  0.10725474722E+04 -0.43448349723E+03 -0.42065863094E+03  0.12313040905E+04  0.46999998093E+01 0. -1.
</event>
<event>
 5   0  0.6526351E-07  0.2600150E+04  0.7818609E-02  0.8368150E-01
        2   -1    0    0  501    0  0.00000000000E+00  0.00000000000E+00  0.88757178414E+03  0.88757178415E+03  0.25500000920E-02 0.  1.
       -2   -1    0    0    0  501  0.00000000000E+00  0.00000000000E+00 -0.19042907150E+04  0.19042907151E+04  0.25500000920E-02 0. -1.
    10030    2    1    2    0    0  0.00000000000E+00  0.00000000000E+00 -0.10167189309E+04  0.27918624992E+04  0.26001497707E+04 0.  0.
        3    1    3    3  502    0  0.39409815746E+02 -0.37561135566E+03  0.82737177137E+03  0.90949496004E+03  0.10100000352E+00 0.  1.
       -3    1    3    3    0  502 -0.39409815746E+02  0.37561135566E+03 -0.18440907023E+04  0.18823675392E+04  0.10100000352E+00 0. -1.
</event>
<event>
 5   0  0.2641626E-07  0.2600033E+04  0.7818609E-02  0.8368190E-01
       -1   -1    0    0    0  501  0.00000000000E+00  0.00000000000E+00  0.12759992536E+04  0.12759992536E+04  0.50400001928E-02 0.  1.
        1   -1    0    0  501    0  0.00000000000E+00  0.00000000000E+00 -0.13244861376E+04  0.13244861376E+04  0.50400001928E-02 0. -1.
    10030    2    1    2    0    0  0.00000000000E+00  0.00000000000E+00 -0.48486883939E+02  0.26004853912E+04  0.26000333252E+04 0.  0.
        3    1    3    3  502    0  0.27139742621E+02  0.12674676417E+04 -0.31209988378E+03  0.13056098713E+04  0.10100000352E+00 0.  1.
       -3    1    3    3    0  502 -0.27139742621E+02 -0.12674676417E+04  0.26361299984E+03  0.12948755200E+04  0.10100000352E+00 0. -1.
</event>
<event>
 5   0  0.2641626E-07  0.2601213E+04  0.7818609E-02  0.8367789E-01
       -1   -1    0    0    0  501  0.00000000000E+00  0.00000000000E+00  0.11511886242E+04  0.11511886242E+04  0.50400001928E-02 0. -1.
        1   -1    0    0  501    0  0.00000000000E+00  0.00000000000E+00 -0.14694176131E+04  0.14694176131E+04  0.50400001928E-02 0.  1.
    10030    2    1    2    0    0  0.00000000000E+00  0.00000000000E+00 -0.31822898892E+03  0.26206062373E+04  0.26012126713E+04 0.  0.
        3    1    3    3  502    0  0.12840140544E+04  0.12938947174E+03  0.37792758656E+01  0.12905223827E+04  0.10100000352E+00 0. -1.
       -3    1    3    3    0  502 -0.12840140544E+04 -0.12938947174E+03 -0.32200826478E+03  0.13300838545E+04  0.10100000352E+00 0.  1.
</event>
<event>
 5   0  0.6768478E-07  0.2600893E+04  0.7818609E-02  0.8367898E-01
        2   -1    0    0  501    0  0.00000000000E+00  0.00000000000E+00  0.16125721362E+04  0.16125721362E+04  0.25500000920E-02 0.  1.
       -2   -1    0    0    0  501  0.00000000000E+00  0.00000000000E+00 -0.10487350885E+04  0.10487350885E+04  0.25500000920E-02 0. -1.
    10030    2    1    2    0    0  0.00000000000E+00  0.00000000000E+00  0.56383704773E+03  0.26613072246E+04  0.26008929097E+04 0.  0.
        4    1    3    3  502    0  0.16487288701E+03  0.12898941017E+04  0.29442983320E+03  0.13333043171E+04  0.12699999809E+01 0. -1.
       -4    1    3    3    0  502 -0.16487288701E+03 -0.12898941017E+04  0.26940721453E+03  0.13280029076E+04  0.12699999809E+01 0.  1.
</event>
<event>
 5   0  0.2864801E-07  0.2599964E+04  0.7818609E-02  0.8368214E-01
        1   -1    0    0  501    0  0.00000000000E+00  0.00000000000E+00  0.24836207456E+04  0.24836207456E+04  0.50400001928E-02 0. -1.
       -1   -1    0    0    0  501  0.00000000000E+00  0.00000000000E+00 -0.68043913088E+03  0.68043913090E+03  0.50400001928E-02 0.  1.
    10030    2    1    2    0    0  0.00000000000E+00  0.00000000000E+00  0.18031816148E+04  0.31640598766E+04  0.25999636472E+04 0.  0.
        5    1    3    3  502    0  0.10130377994E+04  0.64019847822E+03  0.15147168011E+04  0.19314473206E+04  0.46999998093E+01 0. -1.
       -5    1    3    3    0  502 -0.10130377994E+04 -0.64019847822E+03  0.28846481365E+03  0.12326125560E+04  0.46999998093E+01 0.  1.
</event>
<event>
 5   0  0.2641626E-07  0.2598943E+04  0.7818609E-02  0.8368560E-01
       -1   -1    0    0    0  501  0.00000000000E+00  0.00000000000E+00  0.98440148895E+03  0.98440148896E+03  0.50400001928E-02 0.  1.
        1   -1    0    0  501    0  0.00000000000E+00  0.00000000000E+00 -0.17153840416E+04  0.17153840416E+04  0.50400001928E-02 0. -1.
    10030    2    1    2    0    0  0.00000000000E+00  0.00000000000E+00 -0.73098255266E+03  0.26997855306E+04  0.25989433274E+04 0.  0.
        3    1    3    3  502    0  0.68774069210E+02 -0.26465094240E+03 -0.16851600106E+04  0.17072007103E+04  0.10100000352E+00 0. -1.
       -3    1    3    3    0  502 -0.68774069210E+02  0.26465094240E+03  0.95417745793E+03  0.99258482022E+03  0.10100000352E+00 0.  1.
</event>
<event>
 5   0  0.2294625E-07  0.2600153E+04  0.7818609E-02  0.8368149E-01
        3   -1    0    0  501    0  0.00000000000E+00  0.00000000000E+00  0.11468196643E+04  0.11468196687E+04  0.10100000352E+00 0. -1.
       -3   -1    0    0    0  501  0.00000000000E+00  0.00000000000E+00 -0.14738137760E+04  0.14738137795E+04  0.10100000352E+00 0.  1.
    10030    2    1    2    0    0  0.00000000000E+00  0.00000000000E+00 -0.32699411171E+03  0.26206334482E+04  0.26001527879E+04 0.  0.
        1    1    3    3  502    0 -0.29766668208E+03 -0.54345834238E+03  0.98841661517E+03  0.11665846856E+04  0.50400001928E-02 0. -1.
       -1    1    3    3    0  502  0.29766668208E+03  0.54345834238E+03 -0.13154107269E+04  0.14540487626E+04  0.50400001928E-02 0.  1.
</event>
<event>
 5   0  0.2641626E-07  0.2600072E+04  0.7818609E-02  0.8368177E-01
       -1   -1    0    0    0  501  0.00000000000E+00  0.00000000000E+00  0.18244741280E+04  0.18244741280E+04  0.50400001928E-02 0. -1.
        1   -1    0    0  501    0  0.00000000000E+00  0.00000000000E+00 -0.92634582352E+03  0.92634582353E+03  0.50400001928E-02 0.  1.
    10030    2    1    2    0    0  0.00000000000E+00  0.00000000000E+00  0.89812830451E+03  0.27508199516E+04  0.26000722980E+04 0.  0.
        3    1    3    3  502    0 -0.43793225469E+03  0.10911717561E+04  0.10358879042E+04  0.15670048568E+04  0.10100000352E+00 0. -1.
       -3    1    3    3    0  502  0.43793225469E+03 -0.10911717561E+04 -0.13775959965E+03  0.11838150948E+04  0.10100000352E+00 0.  1.
</event>
<event>
 5   0  0.7160320E-07  0.2603825E+04  0.7818609E-02  0.8366903E-01
       -2   -1    0    0    0  501  0.00000000000E+00  0.00000000000E+00  0.12689716637E+04  0.12689716637E+04  0.25500000920E-02 0. -1.
        2   -1    0    0  501    0  0.00000000000E+00  0.00000000000E+00 -0.13357082554E+04  0.13357082554E+04  0.25500000920E-02 0.  1.
    10030    2    1    2    0    0  0.00000000000E+00  0.00000000000E+00 -0.66736591690E+02  0.26046799191E+04  0.26038248229E+04 0.  0.
        1    1    3    3  502    0  0.78325068971E+02 -0.26707570407E+03  0.12388636937E+04  0.12697430841E+04  0.50400001928E-02 0. -1.
       -1    1    3    3    0  502 -0.78325068971E+02  0.26707570407E+03 -0.13056002854E+04  0.13349368350E+04  0.50400001928E-02 0.  1.
</event>
<event>
 5   0  0.2793576E-07  0.2600118E+04  0.7818609E-02  0.8368161E-01
        1   -1    0    0  501    0  0.00000000000E+00  0.00000000000E+00  0.19725464198E+04  0.19725464198E+04  0.50400001928E-02 0.  1.
       -1   -1    0    0    0  501  0.00000000000E+00  0.00000000000E+00 -0.85683833323E+03  0.85683833324E+03  0.50400001928E-02 0. -1.
    10030    2    1    2    0    0  0.00000000000E+00  0.00000000000E+00  0.11157080866E+04  0.28293847530E+04  0.26001179870E+04 0.  0.
        2    1    3    3  502    0  0.10995460614E+04  0.17378280123E+03  0.12885956151E+04  0.17028448733E+04  0.25500000920E-02 0.  1.
       -2    1    3    3    0  502 -0.10995460614E+04 -0.17378280123E+03 -0.17288752854E+03  0.11265398798E+04  0.25500000920E-02 0. -1.
</event>
<event>
 5   0  0.2641626E-07  0.2598504E+04  0.7818609E-02  0.8368710E-01
       -1   -1    0    0    0  501  0.00000000000E+00  0.00000000000E+00  0.11154611816E+04  0.11154611816E+04  0.50400001928E-02 0.  1.
        1   -1    0    0  501    0  0.00000000000E+00  0.00000000000E+00 -0.15133254140E+04  0.15133254141E+04  0.50400001928E-02 0. -1.
    10030    2    1    2    0    0  0.00000000000E+00  0.00000000000E+00 -0.39786423245E+03  0.26287865957E+04  0.25985039962E+04 0.  0.
        3    1    3    3  502    0 -0.69763821371E+03  0.60451715326E+03 -0.11238712998E+04  0.14543819218E+04  0.10100000352E+00 0. -1.
       -3    1    3    3    0  502  0.69763821371E+03 -0.60451715326E+03  0.72600706737E+03  0.11744046738E+04  0.10100000352E+00 0.  1.
</event>
<event>
 5   0  0.2793576E-07  0.2600590E+04  0.7818609E-02  0.8368001E-01
       -1   -1    0    0    0  501  0.00000000000E+00  0.00000000000E+00  0.12888289165E+04  0.12888289165E+04  0.50400001928E-02 0. -1.
        1   -1    0    0  501    0  0.00000000000E+00  0.00000000000E+00 -0.13118626088E+04  0.13118626088E+04  0.50400001928E-02 0.  1.
    10030    2    1    2    0    0  0.00000000000E+00  0.00000000000E+00 -0.23033692326E+02  0.26006915253E+04  0.26005895214E+04 0.  0.
        2    1    3    3  502    0  0.10396664546E+04 -0.54226813001E+03 -0.57350454833E+03  0.13053231510E+04  0.25500000920E-02 0.  1.
       -2    1    3    3    0  502 -0.10396664546E+04  0.54226813001E+03  0.55047085600E+03  0.12953683742E+04  0.25500000920E-02 0. -1.
</event>
<event>
 5   0  0.2641626E-07  0.2601745E+04  0.7818609E-02  0.8367609E-01
        1   -1    0    0  501    0  0.00000000000E+00  0.00000000000E+00  0.14234882393E+04  0.14234882393E+04  0.50400001928E-02 0. -1.
       -1   -1    0    0    0  501  0.00000000000E+00  0.00000000000E+00 -0.11888185273E+04  0.11888185273E+04  0.50400001928E-02 0.  1.
    10030    2    1    2    0    0  0.00000000000E+00  0.00000000000E+00  0.23466971203E+03  0.26123067666E+04  0.26017449470E+04 0.  0.
        3    1    3    3  502    0 -0.92363897747E+03  0.19452652476E+03 -0.78146367229E+03  0.12254121800E+04  0.10100000352E+00 0.  1.
       -3    1    3    3    0  502  0.92363897747E+03 -0.19452652476E+03  0.10161333843E+04  0.13868945867E+04  0.10100000352E+00 0. -1.
</event>
<event>
 5   0  0.6599814E-07  0.2599843E+04  0.7818609E-02  0.8368255E-01
        2   -1    0    0  501    0  0.00000000000E+00  0.00000000000E+00  0.15335402761E+04  0.15335402761E+04  0.25500000920E-02 0.  1.
       -2   -1    0    0    0  501  0.00000000000E+00  0.00000000000E+00 -0.11018918061E+04  0.11018918061E+04  0.25500000920E-02 0. -1.
    10030    2    1    2    0    0  0.00000000000E+00  0.00000000000E+00  0.43164847009E+03  0.26354320822E+04  0.25998426603E+04 0.  0.
        5    1    3    3  502    0  0.21260731514E+03 -0.15719785442E+03  0.15059841633E+04  0.15290269540E+04  0.46999998093E+01 0.  1.
       -5    1    3    3    0  502 -0.21260731514E+03  0.15719785442E+03 -0.10743356933E+04  0.11064051282E+04  0.46999998093E+01 0. -1.
</event>
<event>
 5   0  0.7160320E-07  0.2604797E+04  0.7818609E-02  0.8366574E-01
        2   -1    0    0  501    0  0.00000000000E+00  0.00000000000E+00  0.93829530738E+03  0.93829530739E+03  0.25500000920E-02 0.  1.
       -2   -1    0    0    0  501  0.00000000000E+00  0.00000000000E+00 -0.18077910805E+04  0.18077910805E+04  0.25500000920E-02 0. -1.
    10030    2    1    2    0    0  0.00000000000E+00  0.00000000000E+00 -0.86949577315E+03  0.27460863879E+04  0.26047970267E+04 0.  0.
        1    1    3    3  502    0 -0.75863486672E+03  0.37866911548E+03  0.60747294984E+03  0.10430438844E+04  0.50400001928E-02 0.  1.
       -1    1    3    3    0  502  0.75863486672E+03 -0.37866911548E+03 -0.14769687230E+04  0.17030425035E+04  0.50400001928E-02 0. -1.
</event>
<event>
 5   0  0.2623263E-07  0.2604122E+04  0.7818609E-02  0.8366802E-01
        1   -1    0    0  501    0  0.00000000000E+00  0.00000000000E+00  0.15399598270E+04  0.15399598270E+04  0.50400001928E-02 0.  1.
       -1   -1    0    0    0  501  0.00000000000E+00  0.00000000000E+00 -0.11009135605E+04  0.11009135605E+04  0.50400001928E-02 0. -1.
    10030    2    1    2    0    0  0.00000000000E+00  0.00000000000E+00  0.43904626648E+03  0.26408733876E+04  0.26041218529E+04 0.  0.
        1    1    3    3  502    0 -0.49895983773E+03  0.47900472163E+03  0.13382491919E+04  0.15064253525E+04  0.50400001928E-02 0.  1.
       -1    1    3    3    0  502  0.49895983773E+03 -0.47900472163E+03 -0.89920292545E+03  0.11344480350E+04  0.50400001928E-02 0. -1.
</event>
<event>
 5   0  0.6780984E-07  0.2609665E+04  0.7818609E-02  0.8364926E-01
        2   -1    0    0  501    0  0.00000000000E+00  0.00000000000E+00  0.15344512640E+04  0.15344512640E+04  0.25500000920E-02 0. -1.
       -2   -1    0    0    0  501  0.00000000000E+00  0.00000000000E+00 -0.11095739877E+04  0.11095739877E+04  0.25500000920E-02 0.  1.
    10030    2    1    2    0    0  0.00000000000E+00  0.00000000000E+00  0.42487727628E+03  0.26440252516E+04  0.26096645055E+04 0.  0.
        2    1    3    3  502    0 -0.16814840169E+03  0.57136249947E+03  0.13886978162E+04  0.15110296541E+04  0.25500000920E-02 0. -1.
       -2    1    3    3    0  502  0.16814840169E+03 -0.57136249947E+03 -0.96382053994E+03  0.11329955975E+04  0.25500000920E-02 0.  1.
</event>
<event>
 5   0  0.6599814E-07  0.2600019E+04  0.7818609E-02  0.8368195E-01
       -2   -1    0    0    0  501  0.00000000000E+00  0.00000000000E+00  0.63548929793E+03  0.63548929793E+03  0.25500000920E-02 0.  1.
        2   -1    0    0  501    0  0.00000000000E+00  0.00000000000E+00 -0.26594075862E+04  0.26594075862E+04  0.25500000920E-02 0. -1.
    10030    2    1    2    0    0  0.00000000000E+00  0.00000000000E+00 -0.20239182883E+04  0.32948968842E+04  0.26000192768E+04 0.  0.
        5    1    3    3  502    0 -0.44583423443E+03 -0.35608938267E+03  0.46831348979E+03  0.73817845251E+03  0.46999998093E+01 0.  1.
       -5    1    3    3    0  502  0.44583423443E+03  0.35608938267E+03 -0.24922317781E+04  0.25567184316E+04  0.46999998093E+01 0. -1.
</event>
<event>
 5   0  0.2793576E-07  0.2601811E+04  0.7818609E-02  0.8367586E-01
       -1   -1    0    0    0  501  0.00000000000E+00  0.00000000000E+00  0.12233171292E+04  0.12233171292E+04  0.50400001928E-02 0. -1.
        1   -1    0    0  501    0  0.00000000000E+00  0.00000000000E+00 -0.13834149958E+04  0.13834149958E+04  0.50400001928E-02 0.  1.
    10030    2    1    2    0    0  0.00000000000E+00  0.00000000000E+00 -0.16009786663E+03  0.26067321250E+04  0.26018111085E+04 0.  0.
        2    1    3    3  502    0 -0.82885015590E+03 -0.84487184056E+03 -0.62102783923E+03  0.13365914054E+04  0.25500000920E-02 0.  1.
       -2    1    3    3    0  502  0.82885015590E+03  0.84487184056E+03  0.46092997260E+03  0.12701407196E+04  0.25500000920E-02 0. -1.
</event>
<event>
 5   0  0.6780984E-07  0.2600527E+04  0.7818609E-02  0.8368022E-01
        2   -1    0    0  501    0  0.00000000000E+00  0.00000000000E+00  0.17142275657E+04  0.17142275657E+04  0.25500000920E-02 0. -1.
       -2   -1    0    0    0  501  0.00000000000E+00  0.00000000000E+00 -0.98626631959E+03  0.98626631960E+03  0.25500000920E-02 0.  1.
    10030    2    1    2    0    0  0.00000000000E+00  0.00000000000E+00  0.72796124614E+03  0.27004938853E+04  0.26005268022E+04 0.  0.
        2    1    3    3  502    0  0.18941024995E+03  0.11732101111E+04 -0.18392544368E+03  0.12025501138E+04  0.25500000920E-02 0.  1.
       -2    1    3    3    0  502 -0.18941024995E+03 -0.11732101111E+04  0.91188668982E+03  0.14979437715E+04  0.25500000920E-02 0. -1.
</event>
<event>
 5   0  0.6526351E-07  0.2601689E+04  0.7818609E-02  0.8367628E-01
       -2   -1    0    0    0  501  0.00000000000E+00  0.00000000000E+00  0.95370733780E+03  0.95370733781E+03  0.25500000920E-02 0. -1.
        2   -1    0    0  501    0  0.00000000000E+00  0.00000000000E+00 -0.17743350938E+04  0.17743350938E+04  0.25500000920E-02 0.  1.
    10030    2    1    2    0    0  0.00000000000E+00  0.00000000000E+00 -0.82062775602E+03  0.27280424316E+04  0.26016889889E+04 0.  0.
        3    1    3    3  502    0  0.61087731807E+03 -0.19642444776E+03 -0.15968359485E+04  0.17209412303E+04  0.10100000352E+00 0.  1.
       -3    1    3    3    0  502 -0.61087731807E+03  0.19642444776E+03  0.77620819251E+03  0.10071012013E+04  0.10100000352E+00 0. -1.
</event>
<event>
 5   0  0.2294625E-07  0.2600116E+04  0.7818609E-02  0.8368162E-01
        3   -1    0    0  501    0  0.00000000000E+00  0.00000000000E+00  0.16862479050E+04  0.16862479080E+04  0.10100000352E+00 0.  1.
       -3   -1    0    0    0  501  0.00000000000E+00  0.00000000000E+00 -0.10023143981E+04  0.10023144032E+04  0.10100000352E+00 0. -1.
    10030    2    1    2    0    0  0.00000000000E+00  0.00000000000E+00  0.68393350686E+03  0.26885623113E+04  0.26001158166E+04 0.  0.
        4    1    3    3  502    0 -0.34798535361E+03 -0.11861561851E+04 -0.74330663430E+02  0.12383807824E+04  0.12699999809E+01 0. -1.
       -4    1    3    3    0  502  0.34798535361E+03  0.11861561851E+04  0.75826417029E+03  0.14501815289E+04  0.12699999809E+01 0.  1.
</event>
<event>
 5   0  0.2864801E-07  0.2599811E+04  0.7818609E-02  0.8368266E-01
        1   -1    0    0  501    0  0.00000000000E+00  0.00000000000E+00  0.23898405796E+04  0.23898405796E+04  0.50400001928E-02 0.  1.
       -1   -1    0    0    0  501  0.00000000000E+00  0.00000000000E+00 -0.70705715820E+03  0.70705715822E+03  0.50400001928E-02 0. -1.
    10030    2    1    2    0    0  0.00000000000E+00  0.00000000000E+00  0.16827834214E+04  0.30968977378E+04  0.25998106768E+04 0.  0.
        5    1    3    3  502    0  0.44567458449E+03  0.75917428789E+03 -0.29791016191E+03  0.92937828102E+03  0.46999998093E+01 0. -1.
       -5    1    3    3    0  502 -0.44567458449E+03 -0.75917428789E+03  0.19806935833E+04  0.21675194568E+04  0.46999998093E+01 0.  1.
</event>
<event>
 5   0  0.7160320E-07  0.2600795E+04  0.7818609E-02  0.8367931E-01
       -2   -1    0    0    0  501  0.00000000000E+00  0.00000000000E+00  0.88489552985E+03  0.88489552985E+03  0.25500000920E-02 0. -1.
        2   -1    0    0  501    0  0.00000000000E+00  0.00000000000E+00 -0.19109984748E+04  0.19109984748E+04  0.25500000920E-02 0.  1.
    10030    2    1    2    0    0  0.00000000000E+00  0.00000000000E+00 -0.10261029449E+04  0.27958940046E+04  0.26007952690E+04 0.  0.
        1    1    3    3  502    0 -0.96920348185E+03  0.39844889828E+02 -0.14440982785E+04  0.17396444586E+04  0.50400001928E-02 0.  1.
       -1    1    3    3    0  502  0.96920348185E+03 -0.39844889828E+02  0.41799533357E+03  0.10562495460E+04  0.50400001928E-02 0. -1.
</event>
<event>
 5   0  0.2755061E-07  0.2600418E+04  0.7818609E-02  0.8368059E-01
        1   -1    0    0  501    0  0.00000000000E+00  0.00000000000E+00  0.15810279099E+04  0.15810279099E+04  0.50400001928E-02 0. -1.
       -1   -1    0    0    0  501  0.00000000000E+00  0.00000000000E+00 -0.10692688266E+04  0.10692688266E+04  0.50400001928E-02 0.  1.
    10030    2    1    2    0    0  0.00000000000E+00  0.00000000000E+00  0.51175908339E+03  0.26502967365E+04  0.26004183187E+04 0.  0.
        4    1    3    3  502    0 -0.95038540167E+02  0.12224441710E+04  0.69677415680E+03  0.14102829198E+04  0.12699999809E+01 0. -1.
       -4    1    3    3    0  502  0.95038540167E+02 -0.12224441710E+04 -0.18501507341E+03  0.12400138167E+04  0.12699999809E+01 0.  1.
</event>
<event>
 5   0  0.2793576E-07  0.2600872E+04  0.7818609E-02  0.8367905E-01
       -1   -1    0    0    0  501  0.00000000000E+00  0.00000000000E+00  0.67585757001E+03  0.67585757003E+03  0.50400001928E-02 0.  1.
        1   -1    0    0  501    0  0.00000000000E+00  0.00000000000E+00 -0.25022041512E+04  0.25022041512E+04  0.50400001928E-02 0. -1.
    10030    2    1    2    0    0  0.00000000000E+00  0.00000000000E+00 -0.18263465812E+04  0.31780617212E+04  0.26008718672E+04 0.  0.
        2    1    3    3  502    0 -0.10435268261E+04  0.28320963560E+03 -0.30359034068E+02  0.10817012551E+04  0.25500000920E-02 0.  1.
       -2    1    3    3    0  502  0.10435268261E+04 -0.28320963560E+03 -0.17959875471E+04  0.20963604661E+04  0.25500000920E-02 0. -1.
</event>
<event>
 5   0  0.6768478E-07  0.2604459E+04  0.7818609E-02  0.8366688E-01
       -2   -1    0    0    0  501  0.00000000000E+00  0.00000000000E+00  0.77518336412E+03  0.77518336412E+03  0.25500000920E-02 0.  1.
        2   -1    0    0  501    0  0.00000000000E+00  0.00000000000E+00 -0.21876141544E+04  0.21876141544E+04  0.25500000920E-02 0. -1.
    10030    2    1    2    0    0  0.00000000000E+00  0.00000000000E+00 -0.14124307903E+04  0.29627975185E+04  0.26044593294E+04 0.  0.
        4    1    3    3  502    0  0.66508228581E+03 -0.37677606726E+03 -0.19055497266E+04  0.20531478332E+04  0.12699999809E+01 0. -1.
       -4    1    3    3    0  502 -0.66508228581E+03  0.37677606726E+03  0.49311893627E+03  0.90964968530E+03  0.12699999809E+01 0.  1.
</event>
<event>
 5   0  0.6780984E-07  0.2600241E+04  0.7818609E-02  0.8368119E-01
       -2   -1    0    0    0  501  0.00000000000E+00  0.00000000000E+00  0.95230032451E+03  0.95230032452E+03  0.25500000920E-02 0.  1.
        2   -1    0    0  501    0  0.00000000000E+00  0.00000000000E+00 -0.17749798379E+04  0.17749798379E+04  0.25500000920E-02 0. -1.
    10030    2    1    2    0    0  0.00000000000E+00  0.00000000000E+00 -0.82267951337E+03  0.27272801624E+04  0.26002414316E+04 0.  0.
        2    1    3    3  502    0  0.49637583124E+03  0.57651378469E+03 -0.15171532955E+04  0.16972068913E+04  0.25500000920E-02 0. -1.
       -2    1    3    3    0  502 -0.49637583124E+03 -0.57651378469E+03  0.69447378214E+03  0.10300732711E+04  0.25500000920E-02 0.  1.
</event>
<event>
 5   0  0.6599814E-07  0.2599066E+04  0.7818609E-02  0.8368519E-01
        2   -1    0    0  501    0  0.00000000000E+00  0.00000000000E+00  0.13530400789E+04  0.13530400790E+04  0.25500000920E-02 0. -1.
       -2   -1    0    0    0  501  0.00000000000E+00  0.00000000000E+00 -0.12481418284E+04  0.12481418284E+04  0.25500000920E-02 0.  1.
    10030    2    1    2    0    0  0.00000000000E+00  0.00000000000E+00  0.10489825055E+03  0.26011819074E+04  0.25990659230E+04 0.  0.
        5    1    3    3  502    0  0.11315033733E+03 -0.92984919571E+03  0.95392731084E+03  0.13369449989E+04  0.46999998093E+01 0. -1.
       -5    1    3    3    0  502 -0.11315033733E+03  0.92984919571E+03 -0.84902906029E+03  0.12642369085E+04  0.46999998093E+01 0.  1.
</event>
<event>
 5   0  0.2793576E-07  0.2602562E+04  0.7818609E-02  0.8367331E-01
        1   -1    0    0  501    0  0.00000000000E+00  0.00000000000E+00  0.15706014031E+04  0.15706014031E+04  0.50400001928E-02 0. -1.
       -1   -1    0    0    0  501  0.00000000000E+00  0.00000000000E+00 -0.10781428333E+04  0.10781428333E+04  0.50400001928E-02 0.  1.
    10030    2    1    2    0    0  0.00000000000E+00  0.00000000000E+00  0.49245856978E+03  0.26487442364E+04  0.26025623119E+04 0.  0.
        2    1    3    3  502    0 -0.52992835235E+03 -0.39170078266E+03  0.13882274160E+04  0.15366941532E+04  0.25500000920E-02 0. -1.
       -2    1    3    3    0  502  0.52992835235E+03  0.39170078266E+03 -0.89576884626E+03  0.11120500833E+04  0.25500000920E-02 0.  1.
</event>
<event>
 5   0  0.6768478E-07  0.2597328E+04  0.7818609E-02  0.8369109E-01
       -2   -1    0    0    0  501  0.00000000000E+00  0.00000000000E+00  0.12834815610E+04  0.12834815610E+04  0.25500000920E-02 0.  1.
        2   -1    0    0  501    0  0.00000000000E+00  0.00000000000E+00 -0.13140263862E+04  0.13140263862E+04  0.25500000920E-02 0. -1.
    10030    2    1    2    0    0  0.00000000000E+00  0.00000000000E+00 -0.30544825165E+02  0.25975079472E+04  0.25973283484E+04 0.  0.
        4    1    3    3  502    0 -0.24495411090E+03  0.80304744844E+03 -0.10061180434E+04  0.13104056055E+04  0.12699999809E+01 0. -1.
       -4    1    3    3    0  502  0.24495411090E+03 -0.80304744844E+03  0.97557321820E+03  0.12871023416E+04  0.12699999809E+01 0.  1.
</event>
<event>
 5   0  0.6526351E-07  0.2595462E+04  0.7818609E-02  0.8369744E-01
        2   -1    0    0  501    0  0.00000000000E+00  0.00000000000E+00  0.11698417296E+04  0.11698417296E+04  0.25500000920E-02 0. -1.
       -2   -1    0    0    0  501  0.00000000000E+00  0.00000000000E+00 -0.14396014440E+04  0.14396014440E+04  0.25500000920E-02 0.  1.
    10030    2    1    2    0    0  0.00000000000E+00  0.00000000000E+00 -0.26975971443E+03  0.26094431736E+04  0.25954620731E+04 0.  0.
        3    1    3    3  502    0  0.81045130332E+03 -0.99880004205E+03  0.38306565031E+02  0.12868178745E+04  0.10100000352E+00 0. -1.
       -3    1    3    3    0  502 -0.81045130332E+03  0.99880004205E+03 -0.30806627946E+03  0.13226252991E+04  0.10100000352E+00 0.  1.
</event>
<event>
 5   0  0.2641626E-07  0.2608834E+04  0.7818609E-02  0.8365207E-01
       -1   -1    0    0    0  501  0.00000000000E+00  0.00000000000E+00  0.75023799760E+03  0.75023799762E+03  0.50400001928E-02 0.  1.
        1   -1    0    0  501    0  0.00000000000E+00  0.00000000000E+00 -0.22679527060E+04  0.22679527060E+04  0.50400001928E-02 0. -1.
    10030    2    1    2    0    0  0.00000000000E+00  0.00000000000E+00 -0.15177147084E+04  0.30181907036E+04  0.26088344499E+04 0.  0.
        3    1    3    3  502    0 -0.86293713690E+03  0.74741375542E+02 -0.18872213129E+04  0.20764997158E+04  0.10100000352E+00 0. -1.
       -3    1    3    3    0  502  0.86293713690E+03 -0.74741375542E+02  0.36950660458E+03  0.94169098779E+03  0.10100000352E+00 0.  1.
</event>
<event>
 5   0  0.6526351E-07  0.2600094E+04  0.7818609E-02  0.8368169E-01
        2   -1    0    0  501    0  0.00000000000E+00  0.00000000000E+00  0.24503666441E+04  0.24503666441E+04  0.25500000920E-02 0.  1.
       -2   -1    0    0    0  501  0.00000000000E+00  0.00000000000E+00 -0.68974240695E+03  0.68974240696E+03  0.25500000920E-02 0. -1.
    10030    2    1    2    0    0  0.00000000000E+00  0.00000000000E+00  0.17606242371E+04  0.31401090510E+04  0.26000936806E+04 0.  0.
        3    1    3    3  502    0 -0.91609112631E+03 -0.36087933128E+03  0.19055447725E+04  0.21448910773E+04  0.10100000352E+00 0.  1.
       -3    1    3    3    0  502  0.91609112631E+03  0.36087933128E+03 -0.14492053534E+03  0.99521797372E+03  0.10100000352E+00 0. -1.
</event>
<event>
 5   0  0.2793576E-07  0.2602120E+04  0.7818609E-02  0.8367481E-01
        1   -1    0    0  501    0  0.00000000000E+00  0.00000000000E+00  0.19786101028E+04  0.19786101029E+04  0.50400001928E-02 0.  1.
       -1   -1    0    0    0  501  0.00000000000E+00  0.00000000000E+00 -0.85552839008E+03  0.85552839009E+03  0.50400001928E-02 0. -1.
    10030    2    1    2    0    0  0.00000000000E+00  0.00000000000E+00  0.11230817128E+04  0.28341384929E+04  0.26021199941E+04 0.  0.
        2    1    3    3  502    0  0.69446411271E+03  0.41938737673E+03 -0.54630180317E+03  0.97806535352E+03  0.25500000920E-02 0. -1.
       -2    1    3    3    0  502 -0.69446411271E+03 -0.41938737673E+03  0.16693835159E+04  0.18560731394E+04  0.25500000920E-02 0.  1.
</event>
<event>
 5   0  0.2623263E-07  0.2600566E+04  0.7818609E-02  0.8368009E-01
        1   -1    0    0  501    0  0.00000000000E+00  0.00000000000E+00  0.20100485829E+04  0.20100485829E+04  0.50400001928E-02 0. -1.
       -1   -1    0    0    0  501  0.00000000000E+00  0.00000000000E+00 -0.84114204492E+03  0.84114204493E+03  0.50400001928E-02 0.  1.
    10030    2    1    2    0    0  0.00000000000E+00  0.00000000000E+00  0.11689065380E+04  0.28511906279E+04  0.26005663810E+04 0.  0.
        1    1    3    3  502    0  0.57323849822E+03 -0.95978719799E+03 -0.14357678479E+03  0.11271238328E+04  0.50400001928E-02 0.  1.
       -1    1    3    3    0  502 -0.57323849822E+03  0.95978719799E+03  0.13124833228E+04  0.17240667951E+04  0.50400001928E-02 0. -1.
</event>
<event>
 5   0  0.6768478E-07  0.2595819E+04  0.7818609E-02  0.8369623E-01
        2   -1    0    0  501    0  0.00000000000E+00  0.00000000000E+00  0.10336318870E+04  0.10336318870E+04  0.25500000920E-02 0.  1.
       -2   -1    0    0    0  501  0.00000000000E+00  0.00000000000E+00 -0.16297569430E+04  0.16297569430E+04  0.25500000920E-02 0. -1.
    10030    2    1    2    0    0  0.00000000000E+00  0.00000000000E+00 -0.59612505598E+03  0.26633888300E+04  0.25958187489E+04 0.  0.
        4    1    3    3  502    0  0.47408908476E+02  0.81238742394E+03 -0.13354934838E+04  0.15638943025E+04  0.12699999809E+01 0. -1.
       -4    1    3    3    0  502 -0.47408908476E+02 -0.81238742394E+03  0.73936842778E+03  0.10994945275E+04  0.12699999809E+01 0.  1.
</event>
<event>
 5   0  0.6768478E-07  0.2600147E+04  0.7818609E-02  0.8368151E-01
       -2   -1    0    0    0  501  0.00000000000E+00  0.00000000000E+00  0.85897305767E+03  0.85897305768E+03  0.25500000920E-02 0. -1.
        2   -1    0    0  501    0  0.00000000000E+00  0.00000000000E+00 -0.19676874730E+04  0.19676874730E+04  0.25500000920E-02 0.  1.
    10030    2    1    2    0    0  0.00000000000E+00  0.00000000000E+00 -0.11087144153E+04  0.28266605307E+04  0.26001465537E+04 0.  0.
        4    1    3    3  502    0 -0.18483115169E+03 -0.10871092509E+04 -0.13029845501E+04  0.17069679050E+04  0.12699999809E+01 0.  1.
       -4    1    3    3    0  502  0.18483115169E+03  0.10871092509E+04  0.19427013473E+03  0.11196926257E+04  0.12699999809E+01 0. -1.
</event>
<event>
 5   0  0.6768478E-07  0.2600342E+04  0.7818609E-02  0.8368085E-01
       -2   -1    0    0    0  501  0.00000000000E+00  0.00000000000E+00  0.83005158765E+03  0.83005158766E+03  0.25500000920E-02 0. -1.
        2   -1    0    0  501    0  0.00000000000E+00  0.00000000000E+00 -0.20365538514E+04  0.20365538514E+04  0.25500000920E-02 0.  1.
    10030    2    1    2    0    0  0.00000000000E+00  0.00000000000E+00 -0.12065022637E+04  0.28666054390E+04  0.26003420988E+04 0.  0.
        4    1    3    3  502    0  0.12383051545E+04  0.39053887744E+03 -0.67738978459E+03  0.14645063345E+04  0.12699999809E+01 0. -1.
       -4    1    3    3    0  502 -0.12383051545E+04 -0.39053887744E+03 -0.52911247911E+03  0.14020991046E+04  0.12699999809E+01 0.  1.
</event>
<event>
 5   0  0.2623263E-07  0.2598010E+04  0.7818609E-02  0.8368878E-01
       -1   -1    0    0    0  501  0.00000000000E+00  0.00000000000E+00  0.13602770376E+04  0.13602770376E+04  0.50400001928E-02 0. -1.
        1   -1    0    0  501    0  0.00000000000E+00  0.00000000000E+00 -0.12404926231E+04  0.12404926231E+04  0.50400001928E-02 0.  1.
    10030    2    1    2    0    0  0.00000000000E+00  0.00000000000E+00  0.11978441445E+03  0.26007696607E+04  0.25980097232E+04 0.  0.
        1    1    3    3  502    0  0.91542373324E+03 -0.82291043747E+03  0.47534082955E+03  0.13195192699E+04  0.50400001928E-02 0. -1.
       -1    1    3    3    0  502 -0.91542373324E+03  0.82291043747E+03 -0.35555641509E+03  0.12812503908E+04  0.50400001928E-02 0.  1.
</event>
<event>
 5   0  0.6526351E-07  0.2603980E+04  0.7818609E-02  0.8366851E-01
        2   -1    0    0  501    0  0.00000000000E+00  0.00000000000E+00  0.28570459599E+04  0.28570459600E+04  0.25500000920E-02 0.  1.
       -2   -1    0    0    0  501  0.00000000000E+00  0.00000000000E+00 -0.59333220006E+03  0.59333220006E+03  0.25500000920E-02 0. -1.
    10030    2    1    2    0    0  0.00000000000E+00  0.00000000000E+00  0.22637137599E+04  0.34503781600E+04  0.26039795430E+04 0.  0.
        3    1    3    3  502    0  0.31993643895E+03  0.31903983659E+03 -0.48612090279E+03  0.66367106659E+03  0.10100000352E+00 0. -1.
       -3    1    3    3    0  502 -0.31993643895E+03 -0.31903983659E+03  0.27498346627E+04  0.27867070934E+04  0.10100000352E+00 0.  1.
</event>
<event>
 5   0  0.7160320E-07  0.2599411E+04  0.7818609E-02  0.8368401E-01
       -2   -1    0    0    0  501  0.00000000000E+00  0.00000000000E+00  0.11715409190E+04  0.11715409190E+04  0.25500000920E-02 0. -1.
        2   -1    0    0  501    0  0.00000000000E+00  0.00000000000E+00 -0.14418905954E+04  0.14418905954E+04  0.25500000920E-02 0.  1.
    10030    2    1    2    0    0  0.00000000000E+00  0.00000000000E+00 -0.27034967647E+03  0.26134315144E+04  0.25994105741E+04 0.  0.
        1    1    3    3  502    0  0.29754953109E+03  0.14211113203E+03 -0.13991363248E+04  0.14374678267E+04  0.50400001928E-02 0.  1.
       -1    1    3    3    0  502 -0.29754953109E+03 -0.14211113203E+03  0.11287866483E+04  0.11759636877E+04  0.50400001928E-02 0. -1.
</event>
<event>
 5   0  0.2793576E-07  0.2599307E+04  0.7818609E-02  0.8368437E-01
        1   -1    0    0  501    0  0.00000000000E+00  0.00000000000E+00  0.15104998522E+04  0.15104998523E+04  0.50400001928E-02 0.  1.
       -1   -1    0    0    0  501  0.00000000000E+00  0.00000000000E+00 -0.11182387972E+04  0.11182387972E+04  0.50400001928E-02 0. -1.
    10030    2    1    2    0    0  0.00000000000E+00  0.00000000000E+00  0.39226105508E+03  0.26287386494E+04  0.25993072446E+04 0.  0.
        2    1    3    3  502    0 -0.97100464237E+03 -0.29486236487E+03 -0.62503973030E+03  0.11918340884E+04  0.25500000920E-02 0. -1.
       -2    1    3    3    0  502  0.97100464237E+03  0.29486236487E+03  0.10173007854E+04  0.14369045611E+04  0.25500000920E-02 0.  1.
</event>
<event>
 5   0  0.2623263E-07  0.2600450E+04  0.7818609E-02  0.8368048E-01
        1   -1    0    0  501    0  0.00000000000E+00  0.00000000000E+00  0.19535740761E+04  0.19535740761E+04  0.50400001928E-02 0. -1.
       -1   -1    0    0    0  501  0.00000000000E+00  0.00000000000E+00 -0.86538067510E+03  0.86538067511E+03  0.50400001928E-02 0.  1.
    10030    2    1    2    0    0  0.00000000000E+00  0.00000000000E+00  0.10881934010E+04  0.28189547512E+04  0.26004501556E+04 0.  0.
        1    1    3    3  502    0  0.58443092300E+02 -0.12925194056E+04  0.68360892694E+03  0.14633328992E+04  0.50400001928E-02 0. -1.
       -1    1    3    3    0  502 -0.58443092300E+02  0.12925194056E+04  0.40458447409E+03  0.13556218520E+04  0.50400001928E-02 0.  1.
</event>
<event>
 5   0  0.2793576E-07  0.2599841E+04  0.7818609E-02  0.8368255E-01
        1   -1    0    0  501    0  0.00000000000E+00  0.00000000000E+00  0.18245049938E+04  0.18245049938E+04  0.50400001928E-02 0.  1.
       -1   -1    0    0    0  501  0.00000000000E+00  0.00000000000E+00 -0.92616514956E+03  0.92616514958E+03  0.50400001928E-02 0. -1.
    10030    2    1    2    0    0  0.00000000000E+00  0.00000000000E+00  0.89833984419E+03  0.27506701433E+04  0.25998407185E+04 0.  0.
        2    1    3    3  502    0 -0.36078175997E+03  0.11704803869E+03  0.17646569655E+04  0.18049592592E+04  0.25500000920E-02 0.  1.
       -2    1    3    3    0  502  0.36078175997E+03 -0.11704803869E+03 -0.86631712128E+03  0.94571088411E+03  0.25500000920E-02 0. -1.
</event>
<event>
 5   0  0.6526351E-07  0.2599412E+04  0.7818609E-02  0.8368401E-01
        2   -1    0    0  501    0  0.00000000000E+00  0.00000000000E+00  0.10738003105E+04  0.10738003105E+04  0.25500000920E-02 0. -1.
       -2   -1    0    0    0  501  0.00000000000E+00  0.00000000000E+00 -0.15731374452E+04  0.15731374452E+04  0.25500000920E-02 0.  1.
    10030    2    1    2    0    0  0.00000000000E+00  0.00000000000E+00 -0.49933713470E+03  0.26469377557E+04  0.25994118390E+04 0.  0.
        3    1    3    3  502    0  0.15777756059E+03 -0.19280684985E+03  0.10492583910E+04  0.10784300725E+04  0.10100000352E+00 0. -1.
       -3    1    3    3    0  502 -0.15777756059E+03  0.19280684985E+03 -0.15485955257E+04  0.15685076832E+04  0.10100000352E+00 0.  1.
</event>
<event>
 5   0  0.2793576E-07  0.2601051E+04  0.7818609E-02  0.8367844E-01
        1   -1    0    0  501    0  0.00000000000E+00  0.00000000000E+00  0.18338326869E+04  0.18338326869E+04  0.50400001928E-02 0.  1.
       -1   -1    0    0    0  501  0.00000000000E+00  0.00000000000E+00 -0.92231256435E+03  0.92231256436E+03  0.50400001928E-02 0. -1.
    10030    2    1    2    0    0  0.00000000000E+00  0.00000000000E+00  0.91152012256E+03  0.27561452513E+04  0.26010512706E+04 0.  0.
        2    1    3    3  502    0 -0.80277574396E+03  0.22177643963E+03  0.15141858430E+04  0.17281181821E+04  0.25500000920E-02 0.  1.
       -2    1    3    3    0  502  0.80277574396E+03 -0.22177643963E+03 -0.60266572045E+03  0.10280270691E+04  0.25500000920E-02 0. -1.
</event>
<event>
 5   0  0.6780984E-07  0.2599791E+04  0.7818609E-02  0.8368272E-01
       -2   -1    0    0    0  501  0.00000000000E+00  0.00000000000E+00  0.79427930093E+03  0.79427930094E+03  0.25500000920E-02 0. -1.
        2   -1    0    0  501    0  0.00000000000E+00  0.00000000000E+00 -0.21273725618E+04  0.21273725618E+04  0.25500000920E-02 0.  1.
    10030    2    1    2    0    0  0.00000000000E+00  0.00000000000E+00 -0.13330932609E+04  0.29216518627E+04  0.25997907541E+04 0.  0.
        2    1    3    3  502    0 -0.12633613276E+03 -0.28182829789E+02 -0.21201118521E+04  0.21240596403E+04  0.25500000920E-02 0.  1.
       -2    1    3    3    0  502  0.12633613276E+03  0.28182829789E+02  0.78701859121E+03  0.79759222241E+03  0.25500000920E-02 0. -1.
</event>
<event>
 5   0  0.2641626E-07  0.2599400E+04  0.7818609E-02  0.8368405E-01
       -1   -1    0    0    0  501  0.00000000000E+00  0.00000000000E+00  0.95011348863E+03  0.95011348865E+03  0.50400001928E-02 0. -1.
        1   -1    0    0  501    0  0.00000000000E+00  0.00000000000E+00 -0.17779135887E+04  0.17779135887E+04  0.50400001928E-02 0.  1.
    10030    2    1    2    0    0  0.00000000000E+00  0.00000000000E+00 -0.82780010002E+03  0.27280270773E+04  0.25993996863E+04 0.  0.
        3    1    3    3  502    0  0.33583883000E+03  0.12361371988E+04 -0.18302136552E+03  0.12939550705E+04  0.10100000352E+00 0. -1.
       -3    1    3    3    0  502 -0.33583883000E+03 -0.12361371988E+04 -0.64477873450E+03  0.14340720068E+04  0.10100000352E+00 0.  1.
</event>
<event>
 5   0  0.2623263E-07  0.2602639E+04  0.7818609E-02  0.8367306E-01
        1   -1    0    0  501    0  0.00000000000E+00  0.00000000000E+00  0.68478656161E+03  0.68478656162E+03  0.50400001928E-02 0.  1.
       -1   -1    0    0    0  501  0.00000000000E+00  0.00000000000E+00 -0.24729337596E+04  0.24729337596E+04  0.50400001928E-02 0. -1.
    10030    2    1    2    0    0  0.00000000000E+00  0.00000000000E+00 -0.17881471980E+04  0.31577203213E+04  0.26026385123E+04 0.  0.
        1    1    3    3  502    0  0.12099947016E+03 -0.53374336937E+03  0.53836829255E+03  0.76769998996E+03  0.50400001928E-02 0.  1.
       -1    1    3    3    0  502 -0.12099947016E+03  0.53374336937E+03 -0.23265154906E+04  0.23900203313E+04  0.50400001928E-02 0. -1.
</event>
<event>
 5   0  0.6768478E-07  0.2620617E+04  0.7818609E-02  0.8361232E-01
        2   -1    0    0  501    0  0.00000000000E+00  0.00000000000E+00  0.13913276648E+04  0.13913276648E+04  0.25500000920E-02 0. -1.
       -2   -1    0    0    0  501  0.00000000000E+00  0.00000000000E+00 -0.12340070755E+04  0.12340070755E+04  0.25500000920E-02 0.  1.
    10030    2    1    2    0    0  0.00000000000E+00  0.00000000000E+00  0.15732058927E+03  0.26253347403E+04  0.26206168607E+04 0.  0.
        4    1    3    3  502    0 -0.17790018020E+03 -0.27052347771E+03  0.13506212946E+04  0.13888883758E+04  0.12699999809E+01 0. -1.
       -4    1    3    3    0  502  0.17790018020E+03  0.27052347771E+03 -0.11933007053E+04  0.12364463645E+04  0.12699999809E+01 0.  1.
</event>
<event>
 5   0  0.6599814E-07  0.2598477E+04  0.7818609E-02  0.8368719E-01
        2   -1    0    0  501    0  0.00000000000E+00  0.00000000000E+00  0.27775808064E+04  0.27775808064E+04  0.25500000920E-02 0.  1.
       -2   -1    0    0    0  501  0.00000000000E+00  0.00000000000E+00 -0.60773076561E+03  0.60773076561E+03  0.25500000920E-02 0. -1.
    10030    2    1    2    0    0  0.00000000000E+00  0.00000000000E+00  0.21698500408E+04  0.33853115721E+04  0.25984774850E+04 0.  0.
        5    1    3    3  502    0  0.96456131760E+03 -0.80313332458E+03  0.64776125962E+03  0.14124512069E+04  0.46999998093E+01 0. -1.
       -5    1    3    3    0  502 -0.96456131760E+03  0.80313332458E+03  0.15220887812E+04  0.19728603651E+04  0.46999998093E+01 0.  1.
</event>
<event>
 5   0  0.2793576E-07  0.2601201E+04  0.7818609E-02  0.8367794E-01
       -1   -1    0    0    0  501  0.00000000000E+00  0.00000000000E+00  0.10578709292E+04  0.10578709292E+04  0.50400001928E-02 0.  1.
        1   -1    0    0  501    0  0.00000000000E+00  0.00000000000E+00 -0.15990240256E+04  0.15990240256E+04  0.50400001928E-02 0. -1.
    10030    2    1    2    0    0  0.00000000000E+00  0.00000000000E+00 -0.54115309642E+03  0.26568949549E+04  0.26012005166E+04 0.  0.
        2    1    3    3  502    0 -0.48722480547E+03  0.44472899230E+03  0.87431049426E+03  0.10952582928E+04  0.25500000920E-02 0.  1.
       -2    1    3    3    0  502  0.48722480547E+03 -0.44472899230E+03 -0.14154635907E+04  0.15616366620E+04  0.25500000920E-02 0. -1.
</event>
<event>
 5   0  0.2793576E-07  0.2594723E+04  0.7818609E-02  0.8369996E-01
        1   -1    0    0  501    0  0.00000000000E+00  0.00000000000E+00  0.18048188098E+04  0.18048188098E+04  0.50400001928E-02 0. -1.
       -1   -1    0    0    0  501  0.00000000000E+00  0.00000000000E+00 -0.93258461577E+03  0.93258461579E+03  0.50400001928E-02 0.  1.
    10030    2    1    2    0    0  0.00000000000E+00  0.00000000000E+00  0.87223419407E+03  0.27374034256E+04  0.25947225334E+04 0.  0.
        2    1    3    3  502    0  0.15038236256E+03 -0.46818682794E+03 -0.83045516304E+03  0.96512669565E+03  0.25500000920E-02 0.  1.
       -2    1    3    3    0  502 -0.15038236256E+03  0.46818682794E+03  0.17026893571E+04  0.17722767300E+04  0.25500000920E-02 0. -1.
</event>
<event>
 5   0  0.2623263E-07  0.2600617E+04  0.7818609E-02  0.8367992E-01
        1   -1    0    0  501    0  0.00000000000E+00  0.00000000000E+00  0.14466860448E+04  0.14466860448E+04  0.50400001928E-02 0. -1.
       -1   -1    0    0    0  501  0.00000000000E+00  0.00000000000E+00 -0.11687412949E+04  0.11687412949E+04  0.50400001928E-02 0.  1.
    10030    2    1    2    0    0  0.00000000000E+00  0.00000000000E+00  0.27794474985E+03  0.26154273397E+04  0.26006166356E+04 0.  0.
        1    1    3    3  502    0 -0.10227543286E+04  0.19042198017E+03 -0.64554377147E+03  0.12243421532E+04  0.50400001928E-02 0.  1.
       -1    1    3    3    0  502  0.10227543286E+04 -0.19042198017E+03  0.92348852132E+03  0.13910851865E+04  0.50400001928E-02 0. -1.
</event>
<event>
 5   0  0.2864801E-07  0.2599929E+04  0.7818609E-02  0.8368225E-01
        1   -1    0    0  501    0  0.00000000000E+00  0.00000000000E+00  0.17103955132E+04  0.17103955132E+04  0.50400001928E-02 0.  1.
       -1   -1    0    0    0  501  0.00000000000E+00  0.00000000000E+00 -0.98802136571E+03  0.98802136573E+03  0.50400001928E-02 0. -1.
    10030    2    1    2    0    0  0.00000000000E+00  0.00000000000E+00  0.72237414747E+03  0.26984168789E+04  0.25999286997E+04 0.  0.
        5    1    3    3  502    0 -0.11431765013E+04  0.44241415002E+03  0.81036593515E+03  0.14694549439E+04  0.46999998093E+01 0.  1.
       -5    1    3    3    0  502  0.11431765013E+04 -0.44241415002E+03 -0.87991787675E+02  0.12289619351E+04  0.46999998093E+01 0. -1.
</event>
<event>
 5   0  0.2641626E-07  0.2599663E+04  0.7818609E-02  0.8368316E-01
        1   -1    0    0  501    0  0.00000000000E+00  0.00000000000E+00  0.20149715622E+04  0.20149715622E+04  0.50400001928E-02 0.  1.
       -1   -1    0    0    0  501  0.00000000000E+00  0.00000000000E+00 -0.83850435304E+03  0.83850435305E+03  0.50400001928E-02 0. -1.
    10030    2    1    2    0    0  0.00000000000E+00  0.00000000000E+00  0.11764672091E+04  0.28534759152E+04  0.25996633829E+04 0.  0.
        3    1    3    3  502    0  0.58510324281E+03 -0.11102234805E+04  0.95984422665E+03  0.15799502939E+04  0.10100000352E+00 0.  1.
       -3    1    3    3    0  502 -0.58510324281E+03  0.11102234805E+04  0.21662298246E+03  0.12735256213E+04  0.10100000352E+00 0. -1.
</event>
<event>
 5   0  0.7160320E-07  0.2600366E+04  0.7818609E-02  0.8368077E-01
       -2   -1    0    0    0  501  0.00000000000E+00  0.00000000000E+00  0.68100437543E+03  0.68100437544E+03  0.25500000920E-02 0. -1.
        2   -1    0    0  501    0  0.00000000000E+00  0.00000000000E+00 -0.24823268703E+04  0.24823268703E+04  0.25500000920E-02 0.  1.
    10030    2    1    2    0    0  0.00000000000E+00  0.00000000000E+00 -0.18013224949E+04  0.31633312457E+04  0.26003657127E+04 0.  0.
        1    1    3    3  502    0  0.66000449459E+03 -0.93476393653E+03 -0.14969280716E+03  0.11540353056E+04  0.50400001928E-02 0. -1.
       -1    1    3    3    0  502 -0.66000449459E+03  0.93476393653E+03 -0.16516296877E+04  0.20092959402E+04  0.50400001928E-02 0.  1.
</event>
<event>
 5   0  0.2864801E-07  0.2600446E+04  0.7818609E-02  0.8368050E-01
       -1   -1    0    0    0  501  0.00000000000E+00  0.00000000000E+00  0.99606406185E+03  0.99606406186E+03  0.50400001928E-02 0.  1.
        1   -1    0    0  501    0  0.00000000000E+00  0.00000000000E+00 -0.16972601930E+04  0.16972601930E+04  0.50400001928E-02 0. -1.
    10030    2    1    2    0    0  0.00000000000E+00  0.00000000000E+00 -0.70119613114E+03  0.26933242549E+04  0.26004460247E+04 0.  0.
        5    1    3    3  502    0 -0.54329221287E+03  0.48460507691E+03 -0.14663627006E+04  0.16371469600E+04  0.46999998093E+01 0. -1.
       -5    1    3    3    0  502  0.54329221287E+03 -0.48460507691E+03  0.76516656943E+03  0.10561772948E+04  0.46999998093E+01 0.  1.
</event>
<event>
 5   0  0.2623263E-07  0.2599801E+04  0.7818609E-02  0.8368269E-01
        1   -1    0    0  501    0  0.00000000000E+00  0.00000000000E+00  0.98511259677E+03  0.98511259678E+03  0.50400001928E-02 0.  1.
       -1   -1    0    0    0  501  0.00000000000E+00  0.00000000000E+00 -0.17152777151E+04  0.17152777151E+04  0.50400001928E-02 0. -1.
    10030    2    1    2    0    0  0.00000000000E+00  0.00000000000E+00 -0.73016511835E+03  0.27003903119E+04  0.25998012879E+04 0.  0.
        1    1    3    3  502    0 -0.99327490379E+03 -0.64230820941E+03  0.19483532340E+03  0.11987975949E+04  0.50400001928E-02 0. -1.
       -1    1    3    3    0  502  0.99327490379E+03  0.64230820941E+03 -0.92500044175E+03  0.15015927170E+04  0.50400001928E-02 0.  1.
</event>
<event>
 5   0  0.2623263E-07  0.2599277E+04  0.7818609E-02  0.8368447E-01
        1   -1    0    0  501    0  0.00000000000E+00  0.00000000000E+00  0.19323011040E+04  0.19323011040E+04  0.50400001928E-02 0.  1.
       -1   -1    0    0    0  501  0.00000000000E+00  0.00000000000E+00 -0.87411867559E+03  0.87411867561E+03  0.50400001928E-02 0. -1.
    10030    2    1    2    0    0  0.00000000000E+00  0.00000000000E+00  0.10581824284E+04  0.28064197796E+04  0.25992771933E+04 0.  0.
        1    1    3    3  502    0 -0.57591855290E+03 -0.17228534898E+03  0.17731742547E+04  0.18723010865E+04  0.50400001928E-02 0.  1.
       -1    1    3    3    0  502  0.57591855290E+03  0.17228534898E+03 -0.71499182630E+03  0.93411869308E+03  0.50400001928E-02 0. -1.
</event>
<event>
 5   0  0.2755061E-07  0.2599867E+04  0.7818609E-02  0.8368246E-01
       -1   -1    0    0    0  501  0.00000000000E+00  0.00000000000E+00  0.15108393800E+04  0.15108393800E+04  0.50400001928E-02 0.  1.
        1   -1    0    0  501    0  0.00000000000E+00  0.00000000000E+00 -0.11184692965E+04  0.11184692965E+04  0.50400001928E-02 0. -1.
    10030    2    1    2    0    0  0.00000000000E+00  0.00000000000E+00  0.39237008352E+03  0.26293086765E+04  0.25998672723E+04 0.  0.
        4    1    3    3  502    0 -0.13144299597E+03 -0.59900493156E+03  0.13553503799E+04  0.14876358541E+04  0.12699999809E+01 0.  1.
       -4    1    3    3    0  502  0.13144299597E+03  0.59900493156E+03 -0.96298029638E+03  0.11416728224E+04  0.12699999809E+01 0. -1.
</event>
<event>
 5   0  0.2641626E-07  0.2601191E+04  0.7818609E-02  0.8367797E-01
        1   -1    0    0  501    0  0.00000000000E+00  0.00000000000E+00  0.22965703736E+04  0.22965703736E+04  0.50400001928E-02 0. -1.
       -1   -1    0    0    0  501  0.00000000000E+00  0.00000000000E+00 -0.73655428375E+03  0.73655428377E+03  0.50400001928E-02 0.  1.
    10030    2    1    2    0    0  0.00000000000E+00  0.00000000000E+00  0.15600160899E+04  0.30331246574E+04  0.26011910708E+04 0.  0.
        3    1    3    3  502    0  0.10229260128E+04  0.78251499962E+03  0.99132226884E+03  0.16252468130E+04  0.10100000352E+00 0. -1.
       -3    1    3    3    0  502 -0.10229260128E+04 -0.78251499962E+03  0.56869382101E+03  0.14078778444E+04  0.10100000352E+00 0.  1.
</event>
<event>
 5   0  0.7160320E-07  0.2599284E+04  0.7818609E-02  0.8368444E-01
       -2   -1    0    0    0  501  0.00000000000E+00  0.00000000000E+00  0.15076583743E+04  0.15076583743E+04  0.25500000920E-02 0.  1.
        2   -1    0    0  501    0  0.00000000000E+00  0.00000000000E+00 -0.11203266002E+04  0.11203266002E+04  0.25500000920E-02 0. -1.
    10030    2    1    2    0    0  0.00000000000E+00  0.00000000000E+00  0.38733177409E+03  0.26279849744E+04  0.25992843482E+04 0.  0.
        1    1    3    3  502    0  0.86247866670E+03  0.23120109093E+03 -0.76108432838E+03  0.11732743711E+04  0.50400001928E-02 0. -1.
       -1    1    3    3    0  502 -0.86247866670E+03 -0.23120109093E+03  0.11484161025E+04  0.14547106033E+04  0.50400001928E-02 0.  1.
</event>
<event>
 5   0  0.6526351E-07  0.2600743E+04  0.7818609E-02  0.8367949E-01
        2   -1    0    0  501    0  0.00000000000E+00  0.00000000000E+00  0.14111278128E+04  0.14111278128E+04  0.25500000920E-02 0. -1.
       -2   -1    0    0    0  501  0.00000000000E+00  0.00000000000E+00 -0.11983085147E+04  0.11983085147E+04  0.25500000920E-02 0.  1.
    10030    2    1    2    0    0  0.00000000000E+00  0.00000000000E+00  0.21281929805E+03  0.26094363275E+04  0.26007433348E+04 0.  0.
        3    1    3    3  502    0 -0.11520726718E+04  0.37357429215E+03  0.58142347361E+03  0.13434591392E+04  0.10100000352E+00 0. -1.
       -3    1    3    3    0  502  0.11520726718E+04 -0.37357429215E+03 -0.36860417555E+03  0.12659771883E+04  0.10100000352E+00 0.  1.
</event>
<event>
 5   0  0.2641626E-07  0.2598926E+04  0.7818609E-02  0.8368566E-01
       -1   -1    0    0    0  501  0.00000000000E+00  0.00000000000E+00  0.87784795127E+03  0.87784795128E+03  0.50400001928E-02 0.  1.
        1   -1    0    0  501    0  0.00000000000E+00  0.00000000000E+00 -0.19235727444E+04  0.19235727444E+04  0.50400001928E-02 0. -1.
    10030    2    1    2    0    0  0.00000000000E+00  0.00000000000E+00 -0.10457247932E+04  0.28014206957E+04  0.25989262343E+04 0.  0.
        3    1    3    3  502    0  0.33073881420E+03 -0.11963719149E+04 -0.10830580541E+03  0.12459631133E+04  0.10100000352E+00 0.  1.
       -3    1    3    3    0  502 -0.33073881420E+03  0.11963719149E+04 -0.93741898775E+03  0.15554575824E+04  0.10100000352E+00 0. -1.
</event>
<event>
 5   0  0.6599814E-07  0.2601006E+04  0.7818609E-02  0.8367860E-01
        2   -1    0    0  501    0  0.00000000000E+00  0.00000000000E+00  0.15300612830E+04  0.15300612830E+04  0.25500000920E-02 0.  1.
       -2   -1    0    0    0  501  0.00000000000E+00  0.00000000000E+00 -0.11053857638E+04  0.11053857638E+04  0.25500000920E-02 0. -1.
    10030    2    1    2    0    0  0.00000000000E+00  0.00000000000E+00  0.42467551916E+03  0.26354470468E+04  0.26010059284E+04 0.  0.
        5    1    3    3  502    0 -0.12649176064E+04 -0.11880446728E+03 -0.69107848992E+02  0.12723714227E+04  0.46999998093E+01 0. -1.
       -5    1    3    3    0  502  0.12649176064E+04  0.11880446728E+03  0.49378336815E+03  0.13630756241E+04  0.46999998093E+01 0.  1.
</event>
<event>
 5   0  0.2755061E-07  0.2600433E+04  0.7818609E-02  0.8368054E-01
       -1   -1    0    0    0  501  0.00000000000E+00  0.00000000000E+00  0.81589577430E+03  0.81589577432E+03  0.50400001928E-02 0.  1.
        1   -1    0    0  501    0  0.00000000000E+00  0.00000000000E+00 -0.20720335286E+04  0.20720335286E+04  0.50400001928E-02 0. -1.
    10030    2    1    2    0    0  0.00000000000E+00  0.00000000000E+00 -0.12561377543E+04  0.28879293029E+04  0.26004333487E+04 0.  0.
        4    1    3    3  502    0 -0.10274638286E+04  0.48005011745E+03  0.78189241925E+02  0.11367696357E+04  0.12699999809E+01 0.  1.
       -4    1    3    3    0  502  0.10274638286E+04 -0.48005011745E+03 -0.13343269962E+04  0.17511596672E+04  0.12699999809E+01 0. -1.
</event>
<event>
 5   0  0.2793576E-07  0.2596188E+04  0.7818609E-02  0.8369497E-01
       -1   -1    0    0    0  501  0.00000000000E+00  0.00000000000E+00  0.11188803712E+04  0.11188803713E+04  0.50400001928E-02 0.  1.
        1   -1    0    0  501    0  0.00000000000E+00  0.00000000000E+00 -0.15060131820E+04  0.15060131820E+04  0.50400001928E-02 0. -1.
    10030    2    1    2    0    0  0.00000000000E+00  0.00000000000E+00 -0.38713281071E+03  0.26248935532E+04  0.25961884278E+04 0.  0.
        2    1    3    3  502    0 -0.81370507185E+03  0.23381132765E+02  0.82874434173E+03  0.11616711261E+04  0.25500000920E-02 0.  1.
       -2    1    3    3    0  502  0.81370507185E+03 -0.23381132765E+02 -0.12158771524E+04  0.14632224271E+04  0.25500000920E-02 0. -1.
</event>
<event>
 5   0  0.2623263E-07  0.2604244E+04  0.7818609E-02  0.8366761E-01
       -1   -1    0    0    0  501  0.00000000000E+00  0.00000000000E+00  0.82121430764E+03  0.82121430766E+03  0.50400001928E-02 0.  1.
        1   -1    0    0  501    0  0.00000000000E+00  0.00000000000E+00 -0.20646523556E+04  0.20646523556E+04  0.50400001928E-02 0. -1.
    10030    2    1    2    0    0  0.00000000000E+00  0.00000000000E+00 -0.12434380480E+04  0.28858666633E+04  0.26042442703E+04 0.  0.
        1    1    3    3  502    0  0.44926868033E+03 -0.36372559446E+02  0.73200728840E+03  0.85965108067E+03  0.50400001928E-02 0.  1.
       -1    1    3    3    0  502 -0.44926868033E+03  0.36372559446E+02 -0.19754453364E+04  0.20262155826E+04  0.50400001928E-02 0. -1.
</event>
<event>
 5   0  0.2864801E-07  0.2599549E+04  0.7818609E-02  0.8368354E-01
        1   -1    0    0  501    0  0.00000000000E+00  0.00000000000E+00  0.13116835612E+04  0.13116835612E+04  0.50400001928E-02 0.  1.
       -1   -1    0    0    0  501  0.00000000000E+00  0.00000000000E+00 -0.12879740293E+04  0.12879740293E+04  0.50400001928E-02 0. -1.
    10030    2    1    2    0    0  0.00000000000E+00  0.00000000000E+00  0.23709531873E+02  0.25996575905E+04  0.25995494698E+04 0.  0.
        5    1    3    3  502    0  0.92317974084E+03  0.79127819100E+01  0.92680747386E+03  0.13081733943E+04  0.46999998093E+01 0.  1.
       -5    1    3    3    0  502 -0.92317974084E+03 -0.79127819100E+01 -0.90309794199E+03  0.12914841961E+04  0.46999998093E+01 0. -1.
</event>
<event>
 5   0  0.6599814E-07  0.2596574E+04  0.7818609E-02  0.8369366E-01
       -2   -1    0    0    0  501  0.00000000000E+00  0.00000000000E+00  0.87930573473E+03  0.87930573473E+03  0.25500000920E-02 0. -1.
        2   -1    0    0  501    0  0.00000000000E+00  0.00000000000E+00 -0.19169095114E+04  0.19169095114E+04  0.25500000920E-02 0.  1.
    10030    2    1    2    0    0  0.00000000000E+00  0.00000000000E+00 -0.10376037767E+04  0.27962152461E+04  0.25965743019E+04 0.  0.
        5    1    3    3  502    0 -0.59614702720E+03 -0.10411941622E+04  0.15371565375E+02  0.11998895518E+04  0.46999998093E+01 0. -1.
       -5    1    3    3    0  502  0.59614702720E+03  0.10411941622E+04 -0.10529753420E+04  0.15963256943E+04  0.46999998093E+01 0.  1.
</event>
<event>
 5   0  0.6768478E-07  0.2602602E+04  0.7818609E-02  0.8367318E-01
        2   -1    0    0  501    0  0.00000000000E+00  0.00000000000E+00  0.13669590441E+04  0.13669590441E+04  0.25500000920E-02 0. -1.
       -2   -1    0    0    0  501  0.00000000000E+00  0.00000000000E+00 -0.12387967426E+04  0.12387967426E+04  0.25500000920E-02 0.  1.
    10030    2    1    2    0    0  0.00000000000E+00  0.00000000000E+00  0.12816230150E+03  0.26057557868E+04  0.26026020912E+04 0.  0.
        4    1    3    3  502    0  0.83421791624E+03 -0.55511896369E+03 -0.76716956021E+03  0.12619934004E+04  0.12699999809E+01 0.  1.
       -4    1    3    3    0  502 -0.83421791624E+03  0.55511896369E+03  0.89533186171E+03  0.13437623864E+04  0.12699999809E+01 0. -1.
</event>
<event>
 5   0  0.2864801E-07  0.2600460E+04  0.7818609E-02  0.8368045E-01
        1   -1    0    0  501    0  0.00000000000E+00  0.00000000000E+00  0.16322508562E+04  0.16322508562E+04  0.50400001928E-02 0. -1.
       -1   -1    0    0    0  501  0.00000000000E+00  0.00000000000E+00 -0.10357462222E+04  0.10357462222E+04  0.50400001928E-02 0.  1.
    10030    2    1    2    0    0  0.00000000000E+00  0.00000000000E+00  0.59650463400E+03  0.26679970784E+04  0.26004596962E+04 0.  0.
        5    1    3    3  502    0 -0.84843551711E+03 -0.96996446407E+03  0.12084030753E+03  0.12943331712E+04  0.46999998093E+01 0.  1.
       -5    1    3    3    0  502  0.84843551711E+03  0.96996446407E+03  0.47566432647E+03  0.13736639071E+04  0.46999998093E+01 0. -1.
</event>
<event>
 5   0  0.2294625E-07  0.2599487E+04  0.7818609E-02  0.8368375E-01
        3   -1    0    0  501    0  0.00000000000E+00  0.00000000000E+00  0.92971510663E+03  0.92971511211E+03  0.10100000352E+00 0. -1.
       -3   -1    0    0    0  501  0.00000000000E+00  0.00000000000E+00 -0.18170439306E+04  0.18170439334E+04  0.10100000352E+00 0.  1.
    10030    2    1    2    0    0  0.00000000000E+00  0.00000000000E+00 -0.88732882402E+03  0.27467590456E+04  0.25994870287E+04 0.  0.
        1    1    3    3  502    0 -0.51628575702E+03  0.33875380335E+03 -0.16521499082E+04  0.17637756210E+04  0.50400001928E-02 0.  1.
       -1    1    3    3    0  502  0.51628575702E+03 -0.33875380335E+03  0.76482108414E+03  0.98298342456E+03  0.50400001928E-02 0. -1.
</event>
<event>
 5   0  0.6526351E-07  0.2599664E+04  0.7818609E-02  0.8368315E-01
       -2   -1    0    0    0  501  0.00000000000E+00  0.00000000000E+00  0.61874302815E+03  0.61874302815E+03  0.25500000920E-02 0.  1.
        2   -1    0    0  501    0  0.00000000000E+00  0.00000000000E+00 -0.27306389464E+04  0.27306389464E+04  0.25500000920E-02 0. -1.
    10030    2    1    2    0    0  0.00000000000E+00  0.00000000000E+00 -0.21118959182E+04  0.33493819745E+04  0.25996644479E+04 0.  0.
        3    1    3    3  502    0 -0.78932259685E+03 -0.58466635860E+03 -0.21527447753E+04  0.23662575917E+04  0.10100000352E+00 0. -1.
       -3    1    3    3    0  502  0.78932259685E+03  0.58466635860E+03  0.40848857026E+02  0.98312438282E+03  0.10100000352E+00 0.  1.
</event>
<event>
 5   0  0.6768478E-07  0.2599093E+04  0.7818609E-02  0.8368509E-01
       -2   -1    0    0    0  501  0.00000000000E+00  0.00000000000E+00  0.12781386904E+04  0.12781386904E+04  0.25500000920E-02 0.  1.
        2   -1    0    0  501    0  0.00000000000E+00  0.00000000000E+00 -0.13213132151E+04  0.13213132151E+04  0.25500000920E-02 0. -1.
    10030    2    1    2    0    0  0.00000000000E+00  0.00000000000E+00 -0.43174524696E+02  0.25994519055E+04  0.25990933361E+04 0.  0.
        4    1    3    3  502    0  0.11733301744E+03 -0.19080274342E+03  0.12586859001E+04  0.12784617835E+04  0.12699999809E+01 0.  1.
       -4    1    3    3    0  502 -0.11733301744E+03  0.19080274342E+03 -0.13018604248E+04  0.13209901220E+04  0.12699999809E+01 0. -1.
</event>
<event>
 5   0  0.6768478E-07  0.2600372E+04  0.7818609E-02  0.8368075E-01
        2   -1    0    0  501    0  0.00000000000E+00  0.00000000000E+00  0.24774468280E+04  0.24774468280E+04  0.25500000920E-02 0. -1.
       -2   -1    0    0    0  501  0.00000000000E+00  0.00000000000E+00 -0.68234913141E+03  0.68234913141E+03  0.25500000920E-02 0.  1.
    10030    2    1    2    0    0  0.00000000000E+00  0.00000000000E+00  0.17950976966E+04  0.31597959594E+04  0.26003720435E+04 0.  0.
        4    1    3    3  502    0  0.92010925805E+03  0.36034485917E+01 -0.21869948220E+03  0.94575108142E+03  0.12699999809E+01 0.  1.
       -4    1    3    3    0  502 -0.92010925805E+03 -0.36034485917E+01  0.20137971788E+04  0.22140448780E+04  0.12699999809E+01 0. -1.
</event>
<event>
 5   0  0.2623263E-07  0.2602792E+04  0.7818609E-02  0.8367253E-01
        1   -1    0    0  501    0  0.00000000000E+00  0.00000000000E+00  0.68632007315E+03  0.68632007317E+03  0.50400001928E-02 0. -1.
       -1   -1    0    0    0  501  0.00000000000E+00  0.00000000000E+00 -0.24676990521E+04  0.24676990521E+04  0.50400001928E-02 0.  1.
    10030    2    1    2    0    0  0.00000000000E+00  0.00000000000E+00 -0.17813789790E+04  0.31540191253E+04  0.26027918810E+04 0.  0.
        1    1    3    3  502    0 -0.11429358596E+04  0.12173301484E+03 -0.16302843734E+04  0.19947301683E+04  0.50400001928E-02 0.  1.
       -1    1    3    3    0  502  0.11429358596E+04 -0.12173301484E+03 -0.15109460559E+03  0.11592889570E+04  0.50400001928E-02 0. -1.
</event>
<event>
 5   0  0.2641626E-07  0.2599602E+04  0.7818609E-02  0.8368336E-01
       -1   -1    0    0    0  501  0.00000000000E+00  0.00000000000E+00  0.25897368414E+04  0.25897368414E+04  0.50400001928E-02 0. -1.
        1   -1    0    0  501    0  0.00000000000E+00  0.00000000000E+00 -0.65237630577E+03  0.65237630579E+03  0.50400001928E-02 0.  1.
    10030    2    1    2    0    0  0.00000000000E+00  0.00000000000E+00  0.19373605356E+04  0.32421131472E+04  0.25996022415E+04 0.  0.
        3    1    3    3  502    0 -0.93779058307E+03  0.16498229530E+03  0.20721239449E+04  0.22804315356E+04  0.10100000352E+00 0. -1.
       -3    1    3    3    0  502  0.93779058307E+03 -0.16498229530E+03 -0.13476340922E+03  0.96168161162E+03  0.10100000352E+00 0.  1.
</event>
<event>
 5   0  0.2641626E-07  0.2599219E+04  0.7818609E-02  0.8368467E-01
        1   -1    0    0  501    0  0.00000000000E+00  0.00000000000E+00  0.18166214354E+04  0.18166214354E+04  0.50400001928E-02 0. -1.
       -1   -1    0    0    0  501  0.00000000000E+00  0.00000000000E+00 -0.92973940748E+03  0.92973940749E+03  0.50400001928E-02 0.  1.
    10030    2    1    2    0    0  0.00000000000E+00  0.00000000000E+00  0.88688202792E+03  0.27463608429E+04  0.25992187572E+04 0.  0.
        3    1    3    3  502    0  0.89830483848E+03 -0.89619963411E+03  0.14672510073E+03  0.12773619817E+04  0.10100000352E+00 0.  1.
       -3    1    3    3    0  502 -0.89830483848E+03  0.89619963411E+03  0.74015692718E+03  0.14689988612E+04  0.10100000352E+00 0. -1.
</event>
<event>
 5   0  0.6768478E-07  0.2604008E+04  0.7818609E-02  0.8366841E-01
        2   -1    0    0  501    0  0.00000000000E+00  0.00000000000E+00  0.20510125727E+04  0.20510125727E+04  0.25500000920E-02 0. -1.
       -2   -1    0    0    0  501  0.00000000000E+00  0.00000000000E+00 -0.82652592095E+03  0.82652592096E+03  0.25500000920E-02 0.  1.
    10030    2    1    2    0    0  0.00000000000E+00  0.00000000000E+00  0.12244866517E+04  0.28775384936E+04  0.26040084912E+04 0.  0.
        4    1    3    3  502    0 -0.68245517875E+03  0.10833507229E+04  0.35116426650E+03  0.13276715764E+04  0.12699999809E+01 0.  1.
       -4    1    3    3    0  502  0.68245517875E+03 -0.10833507229E+04  0.87332238523E+03  0.15498669173E+04  0.12699999809E+01 0. -1.
</event>
<event>
 5   0  0.2755061E-07  0.2614671E+04  0.7818609E-02  0.8363235E-01
        1   -1    0    0  501    0  0.00000000000E+00  0.00000000000E+00  0.12505914900E+04  0.12505914900E+04  0.50400001928E-02 0. -1.
       -1   -1    0    0    0  501  0.00000000000E+00  0.00000000000E+00 -0.13666546856E+04  0.13666546856E+04  0.50400001928E-02 0.  1.
    10030    2    1    2    0    0  0.00000000000E+00  0.00000000000E+00 -0.11606319554E+03  0.26172461756E+04  0.26146714666E+04 0.  0.
        4    1    3    3  502    0 -0.17453313900E+03  0.85885461713E+03 -0.10290548971E+04  0.13516836406E+04  0.12699999809E+01 0.  1.
       -4    1    3    3    0  502  0.17453313900E+03 -0.85885461713E+03  0.91299170160E+03  0.12655625350E+04  0.12699999809E+01 0. -1.
</event>
<event>
 5   0  0.6526351E-07  0.2600500E+04  0.7818609E-02  0.8368031E-01
       -2   -1    0    0    0  501  0.00000000000E+00  0.00000000000E+00  0.96876705464E+03  0.96876705465E+03  0.25500000920E-02 0.  1.
        2   -1    0    0  501    0  0.00000000000E+00  0.00000000000E+00 -0.17451568282E+04  0.17451568282E+04  0.25500000920E-02 0. -1.
    10030    2    1    2    0    0  0.00000000000E+00  0.00000000000E+00 -0.77638977351E+03  0.27139238828E+04  0.26005002906E+04 0.  0.
        3    1    3    3  502    0 -0.17789711436E+03 -0.12087426053E+04  0.76119695287E+02  0.12241324632E+04  0.10100000352E+00 0. -1.
       -3    1    3    3    0  502  0.17789711436E+03  0.12087426053E+04 -0.85250946879E+03  0.14897914196E+04  0.10100000352E+00 0.  1.
</event>
<event>
 5   0  0.2864801E-07  0.2600459E+04  0.7818609E-02  0.8368045E-01
        1   -1    0    0  501    0  0.00000000000E+00  0.00000000000E+00  0.10067364376E+04  0.10067364376E+04  0.50400001928E-02 0.  1.
       -1   -1    0    0    0  501  0.00000000000E+00  0.00000000000E+00 -0.16792837932E+04  0.16792837932E+04  0.50400001928E-02 0. -1.
    10030    2    1    2    0    0  0.00000000000E+00  0.00000000000E+00 -0.67254735557E+03  0.26860202308E+04  0.26004585624E+04 0.  0.
        5    1    3    3  502    0 -0.62518869148E+03 -0.60571312854E+02  0.83962327904E+03  0.10485795748E+04  0.46999998093E+01 0.  1.
       -5    1    3    3    0  502  0.62518869148E+03  0.60571312854E+02 -0.15121706346E+04  0.16374406560E+04  0.46999998093E+01 0. -1.
</event>
<event>
 5   0  0.6526351E-07  0.2601561E+04  0.7818609E-02  0.8367671E-01
        2   -1    0    0  501    0  0.00000000000E+00  0.00000000000E+00  0.12509903945E+04  0.12509903945E+04  0.25500000920E-02 0. -1.
       -2   -1    0    0    0  501  0.00000000000E+00  0.00000000000E+00 -0.13525524174E+04  0.13525524175E+04  0.25500000920E-02 0.  1.
    10030    2    1    2    0    0  0.00000000000E+00  0.00000000000E+00 -0.10156202292E+03  0.26035428120E+04  0.26015611331E+04 0.  0.
        3    1    3    3  502    0 -0.11665880252E+04  0.44747262533E+03 -0.41281713203E+03  0.13158941316E+04  0.10100000352E+00 0.  1.
       -3    1    3    3    0  502  0.11665880252E+04 -0.44747262533E+03  0.31125510911E+03  0.12876486804E+04  0.10100000352E+00 0. -1.
</event>
<event>
 5   0  0.7160320E-07  0.2601294E+04  0.7818609E-02  0.8367762E-01
       -2   -1    0    0    0  501  0.00000000000E+00  0.00000000000E+00  0.11675173095E+04  0.11675173095E+04  0.25500000920E-02 0.  1.
        2   -1    0    0  501    0  0.00000000000E+00  0.00000000000E+00 -0.14489568296E+04  0.14489568297E+04  0.25500000920E-02 0. -1.
    10030    2    1    2    0    0  0.00000000000E+00  0.00000000000E+00 -0.28143952015E+03  0.26164741392E+04  0.26012936623E+04 0.  0.
        1    1    3    3  502    0  0.10578225259E+04  0.51556092658E+03 -0.69792971509E+03  0.13681730346E+04  0.50400001928E-02 0.  1.
       -1    1    3    3    0  502 -0.10578225259E+04 -0.51556092658E+03  0.41649019494E+03  0.12483011046E+04  0.50400001928E-02 0. -1.
</event>
<event>
 5   0  0.2864801E-07  0.2600599E+04  0.7818609E-02  0.8367998E-01
        1   -1    0    0  501    0  0.00000000000E+00  0.00000000000E+00  0.12368457497E+04  0.12368457497E+04  0.50400001928E-02 0. -1.
       -1   -1    0    0    0  501  0.00000000000E+00  0.00000000000E+00 -0.13670085314E+04  0.13670085315E+04  0.50400001928E-02 0.  1.
    10030    2    1    2    0    0  0.00000000000E+00  0.00000000000E+00 -0.13016278171E+03  0.26038542812E+04  0.26005989249E+04 0.  0.
        5    1    3    3  502    0 -0.17390268140E+03  0.89147488314E+03  0.86656010897E+03  0.12553557752E+04  0.46999998093E+01 0. -1.
       -5    1    3    3    0  502  0.17390268140E+03 -0.89147488314E+03 -0.99672289068E+03  0.13484985060E+04  0.46999998093E+01 0.  1.
</event>
<event>
 5   0  0.2793576E-07  0.2602662E+04  0.7818609E-02  0.8367297E-01
        1   -1    0    0  501    0  0.00000000000E+00  0.00000000000E+00  0.16913499898E+04  0.16913499898E+04  0.50400001928E-02 0.  1.
       -1   -1    0    0    0  501  0.00000000000E+00  0.00000000000E+00 -0.10012492481E+04  0.10012492481E+04  0.50400001928E-02 0. -1.
    10030    2    1    2    0    0  0.00000000000E+00  0.00000000000E+00  0.69010074171E+03  0.26925992378E+04  0.26026624103E+04 0.  0.
        2    1    3    3  502    0 -0.99356276819E+03 -0.33510555265E+03 -0.45229627992E+03  0.11419433570E+04  0.25500000920E-02 0.  1.
       -2    1    3    3    0  502  0.99356276819E+03  0.33510555265E+03  0.11423970216E+04  0.15506558808E+04  0.25500000920E-02 0. -1.
</event>
<event>
 5   0  0.6780984E-07  0.2598379E+04  0.7818609E-02  0.8368752E-01
        2   -1    0    0  501    0  0.00000000000E+00  0.00000000000E+00  0.10454732531E+04  0.10454732531E+04  0.25500000920E-02 0.  1.
       -2   -1    0    0    0  501  0.00000000000E+00  0.00000000000E+00 -0.16144777211E+04  0.16144777211E+04  0.25500000920E-02 0. -1.
    10030    2    1    2    0    0  0.00000000000E+00  0.00000000000E+00 -0.56900446800E+03  0.26599509741E+04  0.25983789370E+04 0.  0.
        2    1    3    3  502    0  0.11588207435E+04  0.56389768667E+03 -0.11614492799E+03  0.12939612671E+04  0.25500000920E-02 0.  1.
       -2    1    3    3    0  502 -0.11588207435E+04 -0.56389768667E+03 -0.45285954000E+03  0.13659897070E+04  0.25500000920E-02 0. -1.
</event>
<event>
 5   0  0.6780984E-07  0.2597913E+04  0.7818609E-02  0.8368910E-01
        2   -1    0    0  501    0  0.00000000000E+00  0.00000000000E+00  0.18352692091E+04  0.18352692091E+04  0.25500000920E-02 0. -1.
       -2   -1    0    0    0  501  0.00000000000E+00  0.00000000000E+00 -0.91936812893E+03  0.91936812894E+03  0.25500000920E-02 0.  1.
    10030    2    1    2    0    0  0.00000000000E+00  0.00000000000E+00  0.91590108012E+03  0.27546373380E+04  0.25979130230E+04 0.  0.
        2    1    3    3  502    0 -0.30581330403E+03  0.10598156103E+04  0.11853048134E+04  0.16191597838E+04  0.25500000920E-02 0. -1.
       -2    1    3    3    0  502  0.30581330403E+03 -0.10598156103E+04 -0.26940373325E+03  0.11354775542E+04  0.25500000920E-02 0.  1.
</event>
<event>
 5   0  0.2641626E-07  0.2600356E+04  0.7818609E-02  0.8368080E-01
       -1   -1    0    0    0  501  0.00000000000E+00  0.00000000000E+00  0.24164965850E+04  0.24164965850E+04  0.50400001928E-02 0.  1.
        1   -1    0    0  501    0  0.00000000000E+00  0.00000000000E+00 -0.69955085386E+03  0.69955085388E+03  0.50400001928E-02 0. -1.
    10030    2    1    2    0    0  0.00000000000E+00  0.00000000000E+00  0.17169457311E+04  0.31160474388E+04  0.26003555521E+04 0.  0.
        3    1    3    3  502    0 -0.76221123921E+03 -0.97061676482E+03  0.13487574358E+04  0.18281710829E+04  0.10100000352E+00 0.  1.
       -3    1    3    3    0  502  0.76221123921E+03  0.97061676482E+03  0.36818829530E+03  0.12878763560E+04  0.10100000352E+00 0. -1.
</event>
<event>
 5   0  0.2793576E-07  0.2598355E+04  0.7818609E-02  0.8368760E-01
       -1   -1    0    0    0  501  0.00000000000E+00  0.00000000000E+00  0.67893609179E+03  0.67893609181E+03  0.50400001928E-02 0.  1.
        1   -1    0    0  501    0  0.00000000000E+00  0.00000000000E+00 -0.24860390933E+04  0.24860390933E+04  0.50400001928E-02 0. -1.
    10030    2    1    2    0    0  0.00000000000E+00  0.00000000000E+00 -0.18071030015E+04  0.31649751851E+04  0.25983546071E+04 0.  0.
        2    1    3    3  502    0  0.29047146298E+03 -0.32389417756E+03  0.58756623396E+03  0.73110545639E+03  0.25500000920E-02 0.  1.
       -2    1    3    3    0  502 -0.29047146298E+03  0.32389417756E+03 -0.23946692354E+04  0.24338697287E+04  0.25500000920E-02 0. -1.
</event>
<event>
 5   0  0.7160320E-07  0.2599750E+04  0.7818609E-02  0.8368286E-01
       -2   -1    0    0    0  501  0.00000000000E+00  0.00000000000E+00  0.87855013933E+03  0.87855013933E+03  0.25500000920E-02 0.  1.
        2   -1    0    0  501    0  0.00000000000E+00  0.00000000000E+00 -0.19232535773E+04  0.19232535773E+04  0.25500000920E-02 0. -1.
    10030    2    1    2    0    0  0.00000000000E+00  0.00000000000E+00 -0.10447034380E+04  0.28018037166E+04  0.25997497559E+04 0.  0.
        1    1    3    3  502    0 -0.63333952142E+03  0.82268280197E+02 -0.17425044808E+04  0.18558579916E+04  0.50400001928E-02 0. -1.
       -1    1    3    3    0  502  0.63333952142E+03 -0.82268280197E+02  0.69780104283E+03  0.94594572504E+03  0.50400001928E-02 0.  1.
</event>
<event>
 5   0  0.2755061E-07  0.2600232E+04  0.7818609E-02  0.8368122E-01
        1   -1    0    0  501    0  0.00000000000E+00  0.00000000000E+00  0.18316605349E+04  0.18316605349E+04  0.50400001928E-02 0.  1.
       -1   -1    0    0    0  501  0.00000000000E+00  0.00000000000E+00 -0.92282469925E+03  0.92282469927E+03  0.50400001928E-02 0. -1.
    10030    2    1    2    0    0  0.00000000000E+00  0.00000000000E+00  0.90883583566E+03  0.27544852342E+04  0.26002319760E+04 0.  0.
        4    1    3    3  502    0 -0.97712146930E+03 -0.43812015724E+03  0.12354373130E+04  0.16349381044E+04  0.12699999809E+01 0.  1.
       -4    1    3    3    0  502  0.97712146930E+03  0.43812015724E+03 -0.32660147733E+03  0.11195471298E+04  0.12699999809E+01 0. -1.
</event>
<event>
 5   0  0.7160320E-07  0.2599394E+04  0.7818609E-02  0.8368407E-01
        2   -1    0    0  501    0  0.00000000000E+00  0.00000000000E+00  0.16061135588E+04  0.16061135588E+04  0.25500000920E-02 0.  1.
       -2   -1    0    0    0  501  0.00000000000E+00  0.00000000000E+00 -0.10517388660E+04  0.10517388660E+04  0.25500000920E-02 0. -1.
    10030    2    1    2    0    0  0.00000000000E+00  0.00000000000E+00  0.55437469280E+03  0.26578524247E+04  0.25993938162E+04 0.  0.
        1    1    3    3  502    0  0.10683005219E+04 -0.63943436047E+03 -0.10411994790E+03  0.12493931607E+04  0.50400001928E-02 0.  1.
       -1    1    3    3    0  502 -0.10683005219E+04  0.63943436047E+03  0.65849464070E+03  0.14084592640E+04  0.50400001928E-02 0. -1.
</event>
<event>
 5   0  0.2623263E-07  0.2600653E+04  0.7818609E-02  0.8367979E-01
        1   -1    0    0  501    0  0.00000000000E+00  0.00000000000E+00  0.19561756367E+04  0.19561756367E+04  0.50400001928E-02 0. -1.
       -1   -1    0    0    0  501  0.00000000000E+00  0.00000000000E+00 -0.86436468093E+03  0.86436468094E+03  0.50400001928E-02 0.  1.
    10030    2    1    2    0    0  0.00000000000E+00  0.00000000000E+00  0.10918109557E+04  0.28205403176E+04  0.26006530949E+04 0.  0.
        1    1    3    3  502    0 -0.38161185042E+03  0.10591187319E+04  0.12516881203E+04  0.16834735647E+04  0.50400001928E-02 0. -1.
       -1    1    3    3    0  502  0.38161185042E+03 -0.10591187319E+04 -0.15987716455E+03  0.11370667529E+04  0.50400001928E-02 0.  1.
</event>
<event>
 5   0  0.6768478E-07  0.2600422E+04  0.7818609E-02  0.8368058E-01
       -2   -1    0    0    0  501  0.00000000000E+00  0.00000000000E+00  0.10664698834E+04  0.10664698834E+04  0.25500000920E-02 0.  1.
        2   -1    0    0  501    0  0.00000000000E+00  0.00000000000E+00 -0.15851818017E+04  0.15851818017E+04  0.25500000920E-02 0. -1.
    10030    2    1    2    0    0  0.00000000000E+00  0.00000000000E+00 -0.51871191835E+03  0.26516516851E+04  0.26004220051E+04 0.  0.
        4    1    3    3  502    0  0.15016358518E+03  0.50352037375E+03  0.95338702780E+03  0.10885909731E+04  0.12699999809E+01 0.  1.
       -4    1    3    3    0  502 -0.15016358518E+03 -0.50352037375E+03 -0.14720989461E+04  0.15630607120E+04  0.12699999809E+01 0. -1.
</event>
<event>
 5   0  0.2294625E-07  0.2600844E+04  0.7818609E-02  0.8367914E-01
        3   -1    0    0  501    0  0.00000000000E+00  0.00000000000E+00  0.12690480021E+04  0.12690480061E+04  0.10100000352E+00 0.  1.
       -3   -1    0    0    0  501  0.00000000000E+00  0.00000000000E+00 -0.13325720611E+04  0.13325720650E+04  0.10100000352E+00 0. -1.
    10030    2    1    2    0    0  0.00000000000E+00  0.00000000000E+00 -0.63524059021E+02  0.26016200711E+04  0.26008444183E+04 0.  0.
        4    1    3    3  502    0 -0.11338878630E+04  0.39886104147E+03  0.46467671415E+03  0.12886884332E+04  0.12699999809E+01 0.  1.
       -4    1    3    3    0  502  0.11338878630E+04 -0.39886104147E+03 -0.52820077318E+03  0.13129316379E+04  0.12699999809E+01 0. -1.
</event>
<event>
 5   0  0.6526351E-07  0.2599646E+04  0.7818609E-02  0.8368322E-01
        2   -1    0    0  501    0  0.00000000000E+00  0.00000000000E+00  0.19740383676E+04  0.19740383676E+04  0.25500000920E-02 0.  1.
       -2   -1    0    0    0  501  0.00000000000E+00  0.00000000000E+00 -0.85587961722E+03  0.85587961722E+03  0.25500000920E-02 0. -1.
    10030    2    1    2    0    0  0.00000000000E+00  0.00000000000E+00  0.11181587504E+04  0.28299179848E+04  0.25996455162E+04 0.  0.
        3    1    3    3  502    0  0.11308306512E+04  0.33193690243E+03 -0.37734791650E+02  0.11791454506E+04  0.10100000352E+00 0. -1.
       -3    1    3    3    0  502 -0.11308306512E+04 -0.33193690243E+03  0.11558935420E+04  0.16507725342E+04  0.10100000352E+00 0.  1.
</event>
<event>
 5   0  0.6780984E-07  0.2599388E+04  0.7818609E-02  0.8368409E-01
       -2   -1    0    0    0  501  0.00000000000E+00  0.00000000000E+00  0.15026616884E+04  0.15026616884E+04  0.25500000920E-02 0.  1.
        2   -1    0    0  501    0  0.00000000000E+00  0.00000000000E+00 -0.11241416023E+04  0.11241416023E+04  0.25500000920E-02 0. -1.
    10030    2    1    2    0    0  0.00000000000E+00  0.00000000000E+00  0.37852008614E+03  0.26268032907E+04  0.25993880188E+04 0.  0.
        2    1    3    3  502    0 -0.11152137712E+03 -0.72649654227E+03  0.12724654904E+04  0.14694906150E+04  0.25500000920E-02 0.  1.
       -2    1    3    3    0  502  0.11152137712E+03  0.72649654227E+03 -0.89394540421E+03  0.11573126756E+04  0.25500000920E-02 0. -1.
</event>
<event>
 5   0  0.7160320E-07  0.2605193E+04  0.7818609E-02  0.8366439E-01
        2   -1    0    0  501    0  0.00000000000E+00  0.00000000000E+00  0.16077343539E+04  0.16077343539E+04  0.25500000920E-02 0.  1.
       -2   -1    0    0    0  501  0.00000000000E+00  0.00000000000E+00 -0.10553716763E+04  0.10553716763E+04  0.25500000920E-02 0. -1.
    10030    2    1    2    0    0  0.00000000000E+00  0.00000000000E+00  0.55236267762E+03  0.26631060302E+04  0.26051927377E+04 0.  0.
        1    1    3    3  502    0 -0.62493999529E+03 -0.63917051045E+03 -0.69233412291E+03  0.11306703662E+04  0.50400001928E-02 0. -1.
       -1    1    3    3    0  502  0.62493999529E+03  0.63917051045E+03  0.12446968005E+04  0.15324356640E+04  0.50400001928E-02 0.  1.
</event>
<event>
 5   0  0.2755061E-07  0.2598517E+04  0.7818609E-02  0.8368705E-01
        1   -1    0    0  501    0  0.00000000000E+00  0.00000000000E+00  0.15180736532E+04  0.15180736532E+04  0.50400001928E-02 0.  1.
       -1   -1    0    0    0  501  0.00000000000E+00  0.00000000000E+00 -0.11119835004E+04  0.11119835004E+04  0.50400001928E-02 0. -1.
    10030    2    1    2    0    0  0.00000000000E+00  0.00000000000E+00  0.40609015278E+03  0.26300571536E+04  0.25985171578E+04 0.  0.
        4    1    3    3  502    0 -0.78123985358E+03  0.56239496868E+03  0.10862460939E+04  0.14513979464E+04  0.12699999809E+01 0.  1.
       -4    1    3    3    0  502  0.78123985358E+03 -0.56239496868E+03 -0.68015594107E+03  0.11786592072E+04  0.12699999809E+01 0. -1.
</event>
<event>
 5   0  0.6780984E-07  0.2600391E+04  0.7818609E-02  0.8368069E-01
        2   -1    0    0  501    0  0.00000000000E+00  0.00000000000E+00  0.17855067263E+04  0.17855067263E+04  0.25500000920E-02 0. -1.
       -2   -1    0    0    0  501  0.00000000000E+00  0.00000000000E+00 -0.94679435929E+03  0.94679435929E+03  0.25500000920E-02 0.  1.
    10030    2    1    2    0    0  0.00000000000E+00  0.00000000000E+00  0.83871236699E+03  0.27323010856E+04  0.26003905068E+04 0.  0.
        2    1    3    3  502    0  0.60836638086E+03  0.66705451963E+03  0.14024665169E+04  0.16679279710E+04  0.25500000920E-02 0. -1.
       -2    1    3    3    0  502 -0.60836638086E+03 -0.66705451963E+03 -0.56375414987E+03  0.10643731146E+04  0.25500000920E-02 0.  1.
</event>
<event>
 5   0  0.2641626E-07  0.2586397E+04  0.7818609E-02  0.8372836E-01
        1   -1    0    0  501    0  0.00000000000E+00  0.00000000000E+00  0.92868217578E+03  0.92868217579E+03  0.50400001928E-02 0. -1.
       -1   -1    0    0    0  501  0.00000000000E+00  0.00000000000E+00 -0.18007912037E+04  0.18007912037E+04  0.50400001928E-02 0.  1.
    10030    2    1    2    0    0  0.00000000000E+00  0.00000000000E+00 -0.87210902791E+03  0.27294733795E+04  0.25863972573E+04 0.  0.
        3    1    3    3  502    0  0.92573704772E+03  0.88734731572E+03 -0.25950268381E+03  0.13083256450E+04  0.10100000352E+00 0.  1.
       -3    1    3    3    0  502 -0.92573704772E+03 -0.88734731572E+03 -0.61260634410E+03  0.14211477345E+04  0.10100000352E+00 0. -1.
</event>
<event>
 5   0  0.2755061E-07  0.2600429E+04  0.7818609E-02  0.8368056E-01
       -1   -1    0    0    0  501  0.00000000000E+00  0.00000000000E+00  0.94442216936E+03  0.94442216938E+03  0.50400001928E-02 0. -1.
        1   -1    0    0  501    0  0.00000000000E+00  0.00000000000E+00 -0.17900443506E+04  0.17900443506E+04  0.50400001928E-02 0.  1.
    10030    2    1    2    0    0  0.00000000000E+00  0.00000000000E+00 -0.84562218120E+03  0.27344665199E+04  0.26004288637E+04 0.  0.
        4    1    3    3  502    0 -0.72467825368E+03 -0.94799687242E+03 -0.96585954524E+03  0.15351686928E+04  0.12699999809E+01 0. -1.
       -4    1    3    3    0  502  0.72467825368E+03  0.94799687242E+03  0.12023736404E+03  0.11992978271E+04  0.12699999809E+01 0.  1.
</event>
<event>
 5   0  0.2793576E-07  0.2599357E+04  0.7818609E-02  0.8368420E-01
       -1   -1    0    0    0  501  0.00000000000E+00  0.00000000000E+00  0.11143556765E+04  0.11143556765E+04  0.50400001928E-02 0.  1.
        1   -1    0    0  501    0  0.00000000000E+00  0.00000000000E+00 -0.15158218081E+04  0.15158218081E+04  0.50400001928E-02 0. -1.
    10030    2    1    2    0    0  0.00000000000E+00  0.00000000000E+00 -0.40146613159E+03  0.26301774846E+04  0.25993573332E+04 0.  0.
        2    1    3    3  502    0 -0.10920025581E+04  0.18572301752E+03  0.48718225956E+03  0.12100864350E+04  0.25500000920E-02 0.  1.
       -2    1    3    3    0  502  0.10920025581E+04 -0.18572301752E+03 -0.88864839115E+03  0.14200910496E+04  0.25500000920E-02 0. -1.
</event>
<event>
 5   0  0.2864801E-07  0.2596710E+04  0.7818609E-02  0.8369319E-01
        1   -1    0    0  501    0  0.00000000000E+00  0.00000000000E+00  0.81342884026E+03  0.81342884028E+03  0.50400001928E-02 0.  1.
       -1   -1    0    0    0  501  0.00000000000E+00  0.00000000000E+00 -0.20723709173E+04  0.20723709173E+04  0.50400001928E-02 0. -1.
    10030    2    1    2    0    0  0.00000000000E+00  0.00000000000E+00 -0.12589420770E+04  0.28857997576E+04  0.25967104358E+04 0.  0.
        5    1    3    3  502    0 -0.50168955213E+02  0.10360171312E+04 -0.14973441533E+04  0.18215131138E+04  0.46999998093E+01 0. -1.
       -5    1    3    3    0  502  0.50168955213E+02 -0.10360171312E+04  0.23840207626E+03  0.10642866438E+04  0.46999998093E+01 0.  1.
</event>
<event>
 5   0  0.6526351E-07  0.2611074E+04  0.7818609E-02  0.8364449E-01
        2   -1    0    0  501    0  0.00000000000E+00  0.00000000000E+00  0.12692697816E+04  0.12692697816E+04  0.25500000920E-02 0.  1.
       -2   -1    0    0    0  501  0.00000000000E+00  0.00000000000E+00 -0.13428400490E+04  0.13428400490E+04  0.25500000920E-02 0. -1.
    10030    2    1    2    0    0  0.00000000000E+00  0.00000000000E+00 -0.73570267476E+02  0.26121098306E+04  0.26110735690E+04 0.  0.
        3    1    3    3  502    0 -0.80782244910E+03 -0.10193880429E+04  0.75941414098E+02  0.13028799637E+04  0.10100000352E+00 0. -1.
       -3    1    3    3    0  502  0.80782244910E+03  0.10193880429E+04 -0.14951168157E+03  0.13092298669E+04  0.10100000352E+00 0.  1.
</event>
<event>
 5   0  0.6768478E-07  0.2604928E+04  0.7818609E-02  0.8366529E-01
        2   -1    0    0  501    0  0.00000000000E+00  0.00000000000E+00  0.22520902584E+04  0.22520902584E+04  0.25500000920E-02 0. -1.
       -2   -1    0    0    0  501  0.00000000000E+00  0.00000000000E+00 -0.75326140258E+03  0.75326140259E+03  0.25500000920E-02 0.  1.
    10030    2    1    2    0    0  0.00000000000E+00  0.00000000000E+00  0.14988288558E+04  0.30053516610E+04  0.26049281501E+04 0.  0.
        4    1    3    3  502    0  0.60570481139E+03  0.57225276254E+03 -0.40549068787E+03  0.92670159902E+03  0.12699999809E+01 0.  1.
       -4    1    3    3    0  502 -0.60570481139E+03 -0.57225276254E+03  0.19043195437E+04  0.20786500620E+04  0.12699999809E+01 0. -1.
</event>
<event>
 5   0  0.6599814E-07  0.2598399E+04  0.7818609E-02  0.8368745E-01
        2   -1    0    0  501    0  0.00000000000E+00  0.00000000000E+00  0.11170408730E+04  0.11170408730E+04  0.25500000920E-02 0. -1.
       -2   -1    0    0    0  501  0.00000000000E+00  0.00000000000E+00 -0.15110630275E+04  0.15110630275E+04  0.25500000920E-02 0.  1.
    10030    2    1    2    0    0  0.00000000000E+00  0.00000000000E+00 -0.39402215455E+03  0.26281039005E+04  0.25983988635E+04 0.  0.
        5    1    3    3  502    0 -0.11929235329E+04 -0.11680936399E+03  0.30990318031E+03  0.12380521209E+04  0.46999998093E+01 0. -1.
       -5    1    3    3    0  502  0.11929235329E+04  0.11680936399E+03 -0.70392533487E+03  0.13900517796E+04  0.46999998093E+01 0.  1.
</event>
<event>
 5   0  0.2793576E-07  0.2599451E+04  0.7818609E-02  0.8368388E-01
        1   -1    0    0  501    0  0.00000000000E+00  0.00000000000E+00  0.21142959378E+04  0.21142959378E+04  0.50400001928E-02 0.  1.
       -1   -1    0    0    0  501  0.00000000000E+00  0.00000000000E+00 -0.79898264742E+03  0.79898264743E+03  0.50400001928E-02 0. -1.
    10030    2    1    2    0    0  0.00000000000E+00  0.00000000000E+00  0.13153132904E+04  0.29132785852E+04  0.25994505310E+04 0.  0.
        2    1    3    3  502    0 -0.23716953588E+03 -0.19755618330E+03 -0.75730835819E+03  0.81779813139E+03  0.25500000920E-02 0. -1.
       -2    1    3    3    0  502  0.23716953588E+03  0.19755618330E+03  0.20726216485E+04  0.20954804538E+04  0.25500000920E-02 0.  1.
</event>
<event>
 5   0  0.2793576E-07  0.2599356E+04  0.7818609E-02  0.8368420E-01
        1   -1    0    0  501    0  0.00000000000E+00  0.00000000000E+00  0.17265176725E+04  0.17265176725E+04  0.50400001928E-02 0.  1.
       -1   -1    0    0    0  501  0.00000000000E+00  0.00000000000E+00 -0.97836404131E+03  0.97836404132E+03  0.50400001928E-02 0. -1.
    10030    2    1    2    0    0  0.00000000000E+00  0.00000000000E+00  0.74815363119E+03  0.27048817138E+04  0.25993559260E+04 0.  0.
        2    1    3    3  502    0 -0.29378528717E+03  0.11979648755E+04 -0.52102143109E+02  0.12345623804E+04  0.25500000920E-02 0. -1.
       -2    1    3    3    0  502  0.29378528717E+03 -0.11979648755E+04  0.80025577430E+03  0.14703193334E+04  0.25500000920E-02 0.  1.
</event>
<event>
 5   0  0.2294625E-07  0.2601370E+04  0.7818609E-02  0.8367736E-01
       -3   -1    0    0    0  501  0.00000000000E+00  0.00000000000E+00  0.27655668157E+04  0.27655668176E+04  0.10100000352E+00 0.  1.
        3   -1    0    0  501    0  0.00000000000E+00  0.00000000000E+00 -0.61173032458E+03  0.61173033292E+03  0.10100000352E+00 0. -1.
    10030    2    1    2    0    0  0.00000000000E+00  0.00000000000E+00  0.21538364911E+04  0.33772971505E+04  0.26013697185E+04 0.  0.
        5    1    3    3  502    0 -0.11111698470E+04  0.67475753170E+03  0.10224082944E+04  0.16538854150E+04  0.46999998093E+01 0. -1.
       -5    1    3    3    0  502  0.11111698470E+04 -0.67475753170E+03  0.11314281968E+04  0.17234117355E+04  0.46999998093E+01 0.  1.
</event>
<event>
 5   0  0.2294625E-07  0.2600243E+04  0.7818609E-02  0.8368119E-01
        3   -1    0    0  501    0  0.00000000000E+00  0.00000000000E+00  0.87859645938E+03  0.87859646518E+03  0.10100000352E+00 0.  1.
       -3   -1    0    0    0  501  0.00000000000E+00  0.00000000000E+00 -0.19238822067E+04  0.19238822094E+04  0.10100000352E+00 0. -1.
    10030    2    1    2    0    0  0.00000000000E+00  0.00000000000E+00 -0.10452857473E+04  0.28024786745E+04  0.26002431478E+04 0.  0.
        1    1    3    3  502    0  0.16597570827E+03 -0.55196810429E+03 -0.17786558662E+04  0.18697147949E+04  0.50400001928E-02 0. -1.
       -1    1    3    3    0  502 -0.16597570827E+03  0.55196810429E+03  0.73337011886E+03  0.93276387964E+03  0.50400001928E-02 0.  1.
</event>
<event>
 5   0  0.2755061E-07  0.2600051E+04  0.7818609E-02  0.8368184E-01
        1   -1    0    0  501    0  0.00000000000E+00  0.00000000000E+00  0.19039544320E+04  0.19039544320E+04  0.50400001928E-02 0.  1.
       -1   -1    0    0    0  501  0.00000000000E+00  0.00000000000E+00 -0.88766092275E+03  0.88766092277E+03  0.50400001928E-02 0. -1.
    10030    2    1    2    0    0  0.00000000000E+00  0.00000000000E+00  0.10162935092E+04  0.27916153547E+04  0.26000507287E+04 0.  0.
        4    1    3    3  502    0 -0.23918349306E+03  0.82824185581E+03  0.15529130878E+04  0.17761570838E+04  0.12699999809E+01 0.  1.
       -4    1    3    3    0  502  0.23918349306E+03 -0.82824185581E+03 -0.53661957859E+03  0.10154582710E+04  0.12699999809E+01 0. -1.
</event>
<event>
 5   0  0.2623263E-07  0.2600070E+04  0.7818609E-02  0.8368177E-01
        1   -1    0    0  501    0  0.00000000000E+00  0.00000000000E+00  0.13404293183E+04  0.13404293183E+04  0.50400001928E-02 0. -1.
       -1   -1    0    0    0  501  0.00000000000E+00  0.00000000000E+00 -0.12608580469E+04  0.12608580469E+04  0.50400001928E-02 0.  1.
    10030    2    1    2    0    0  0.00000000000E+00  0.00000000000E+00  0.79571271410E+02  0.26012873652E+04  0.26000700700E+04 0.  0.
        1    1    3    3  502    0  0.87321697053E+03 -0.95103240250E+03 -0.11234009580E+03  0.12959902798E+04  0.50400001928E-02 0.  1.
       -1    1    3    3    0  502 -0.87321697053E+03  0.95103240250E+03  0.19191136721E+03  0.13052970854E+04  0.50400001928E-02 0. -1.
</event>
<event>
 5   0  0.6768478E-07  0.2599849E+04  0.7818609E-02  0.8368253E-01
        2   -1    0    0  501    0  0.00000000000E+00  0.00000000000E+00  0.17208409770E+04  0.17208409770E+04  0.25500000920E-02 0.  1.
       -2   -1    0    0    0  501  0.00000000000E+00  0.00000000000E+00 -0.98196373692E+03  0.98196373692E+03  0.25500000920E-02 0. -1.
    10030    2    1    2    0    0  0.00000000000E+00  0.00000000000E+00  0.73887724009E+03  0.27028047139E+04  0.25998487929E+04 0.  0.
        4    1    3    3  502    0 -0.12633314816E+02 -0.56251776567E+03  0.15876874497E+04  0.16844402300E+04  0.12699999809E+01 0.  1.
       -4    1    3    3    0  502  0.12633314816E+02  0.56251776567E+03 -0.84881020964E+03  0.10183644840E+04  0.12699999809E+01 0. -1.
</event>
<event>
 5   0  0.6599814E-07  0.2600246E+04  0.7818609E-02  0.8368118E-01
        2   -1    0    0  501    0  0.00000000000E+00  0.00000000000E+00  0.25290288884E+04  0.25290288884E+04  0.25500000920E-02 0. -1.
       -2   -1    0    0    0  501  0.00000000000E+00  0.00000000000E+00 -0.66836717489E+03  0.66836717489E+03  0.25500000920E-02 0.  1.
    10030    2    1    2    0    0  0.00000000000E+00  0.00000000000E+00  0.18606617135E+04  0.31973960633E+04  0.26002460602E+04 0.  0.
        5    1    3    3  502    0  0.20351521234E+03 -0.45529502749E+03  0.24067247382E+04  0.24578563952E+04  0.46999998093E+01 0. -1.
       -5    1    3    3    0  502 -0.20351521234E+03  0.45529502749E+03 -0.54606302474E+03  0.73953966810E+03  0.46999998093E+01 0.  1.
</event>
<event>
 5   0  0.2864801E-07  0.2599195E+04  0.7818609E-02  0.8368475E-01
        1   -1    0    0  501    0  0.00000000000E+00  0.00000000000E+00  0.12581162066E+04  0.12581162066E+04  0.50400001928E-02 0. -1.
       -1   -1    0    0    0  501  0.00000000000E+00  0.00000000000E+00 -0.13424467252E+04  0.13424467253E+04  0.50400001928E-02 0.  1.
    10030    2    1    2    0    0  0.00000000000E+00  0.00000000000E+00 -0.84330518607E+02  0.26005629319E+04  0.25991952459E+04 0.  0.
        5    1    3    3  502    0  0.80390521993E+03 -0.95716616121E+03 -0.39802252382E+03  0.13118211320E+04  0.46999998093E+01 0. -1.
       -5    1    3    3    0  502 -0.80390521993E+03  0.95716616121E+03  0.31369200521E+03  0.12887417999E+04  0.46999998093E+01 0.  1.
</event>
<event>
 5   0  0.7160320E-07  0.2605699E+04  0.7818609E-02  0.8366268E-01
        2   -1    0    0  501    0  0.00000000000E+00  0.00000000000E+00  0.15252622666E+04  0.15252622666E+04  0.25500000920E-02 0. -1.
       -2   -1    0    0    0  501  0.00000000000E+00  0.00000000000E+00 -0.11128685368E+04  0.11128685368E+04  0.25500000920E-02 0.  1.
    10030    2    1    2    0    0  0.00000000000E+00  0.00000000000E+00  0.41239372973E+03  0.26381308034E+04  0.26056986678E+04 0.  0.
        1    1    3    3  502    0  0.10824384377E+04 -0.67411814983E+03  0.47655638962E+03  0.13613281177E+04  0.50400001928E-02 0.  1.
       -1    1    3    3    0  502 -0.10824384377E+04  0.67411814983E+03 -0.64162659892E+02  0.12768026858E+04  0.50400001928E-02 0. -1.
</event>
<event>
 5   0  0.6780984E-07  0.2600465E+04  0.7818609E-02  0.8368043E-01
        2   -1    0    0  501    0  0.00000000000E+00  0.00000000000E+00  0.26375471820E+04  0.26375471820E+04  0.25500000920E-02 0.  1.
       -2   -1    0    0    0  501  0.00000000000E+00  0.00000000000E+00 -0.64097592010E+03  0.64097592010E+03  0.25500000920E-02 0. -1.
    10030    2    1    2    0    0  0.00000000000E+00  0.00000000000E+00  0.19965712619E+04  0.32785231021E+04  0.26004647522E+04 0.  0.
        2    1    3    3  502    0  0.66128884970E+03  0.49481028700E+03 -0.26778370776E+03  0.86824436480E+03  0.25500000920E-02 0. -1.
       -2    1    3    3    0  502 -0.66128884970E+03 -0.49481028700E+03  0.22643549697E+04  0.24102787373E+04  0.25500000920E-02 0.  1.
</event>
<event>
 5   0  0.6780984E-07  0.2599056E+04  0.7818609E-02  0.8368522E-01
       -2   -1    0    0    0  501  0.00000000000E+00  0.00000000000E+00  0.70517171941E+03  0.70517171941E+03  0.25500000920E-02 0. -1.
        2   -1    0    0  501    0  0.00000000000E+00  0.00000000000E+00 -0.23948397403E+04  0.23948397403E+04  0.25500000920E-02 0.  1.
    10030    2    1    2    0    0  0.00000000000E+00  0.00000000000E+00 -0.16896680209E+04  0.31000114597E+04  0.25990561805E+04 0.  0.
        2    1    3    3  502    0  0.60269261392E+03  0.90675409680E+03 -0.16910375755E+04  0.20112308323E+04  0.25500000920E-02 0.  1.
       -2    1    3    3    0  502 -0.60269261392E+03 -0.90675409680E+03  0.13695546426E+01  0.10887806274E+04  0.25500000920E-02 0. -1.
</event>
<event>
 5   0  0.2755061E-07  0.2600407E+04  0.7818609E-02  0.8368063E-01
       -1   -1    0    0    0  501  0.00000000000E+00  0.00000000000E+00  0.13744628718E+04  0.13744628718E+04  0.50400001928E-02 0.  1.
        1   -1    0    0  501    0  0.00000000000E+00  0.00000000000E+00 -0.12299566712E+04  0.12299566712E+04  0.50400001928E-02 0. -1.
    10030    2    1    2    0    0  0.00000000000E+00  0.00000000000E+00  0.14450620055E+03  0.26044195430E+04  0.26004074900E+04 0.  0.
        4    1    3    3  502    0  0.22330859341E+03  0.36540849901E+03  0.13018027116E+04  0.13704313233E+04  0.12699999809E+01 0.  1.
       -4    1    3    3    0  502 -0.22330859341E+03 -0.36540849901E+03 -0.11572965110E+04  0.12339882197E+04  0.12699999809E+01 0. -1.
</event>
<event>
 5   0  0.2623263E-07  0.2600690E+04  0.7818609E-02  0.8367967E-01
        1   -1    0    0  501    0  0.00000000000E+00  0.00000000000E+00  0.15762266815E+04  0.15762266815E+04  0.50400001928E-02 0.  1.
       -1   -1    0    0    0  501  0.00000000000E+00  0.00000000000E+00 -0.10727498323E+04  0.10727498323E+04  0.50400001928E-02 0. -1.
    10030    2    1    2    0    0  0.00000000000E+00  0.00000000000E+00  0.50347684921E+03  0.26489765139E+04  0.26006898380E+04 0.  0.
        1    1    3    3  502    0  0.72928853218E+03 -0.10740373257E+04  0.32713279723E+03  0.13388180635E+04  0.50400001928E-02 0.  1.
       -1    1    3    3    0  502 -0.72928853218E+03  0.10740373257E+04  0.17634405198E+03  0.13101584503E+04  0.50400001928E-02 0. -1.
</event>
<event>
 5   0  0.6599814E-07  0.2598278E+04  0.7818609E-02  0.8368786E-01
        2   -1    0    0  501    0  0.00000000000E+00  0.00000000000E+00  0.14203782508E+04  0.14203782508E+04  0.25500000920E-02 0. -1.
       -2   -1    0    0    0  501  0.00000000000E+00  0.00000000000E+00 -0.11882480084E+04  0.11882480084E+04  0.25500000920E-02 0.  1.
    10030    2    1    2    0    0  0.00000000000E+00  0.00000000000E+00  0.23213024238E+03  0.26086262591E+04  0.25982776046E+04 0.  0.
        5    1    3    3  502    0  0.11980503374E+04 -0.36472824643E+02 -0.38701412513E+03  0.12595463076E+04  0.46999998093E+01 0.  1.
       -5    1    3    3    0  502 -0.11980503374E+04  0.36472824643E+02  0.61914436751E+03  0.13490799516E+04  0.46999998093E+01 0. -1.
</event>
<event>
 5   0  0.2864801E-07  0.2599682E+04  0.7818609E-02  0.8368309E-01
        1   -1    0    0  501    0  0.00000000000E+00  0.00000000000E+00  0.24222088469E+04  0.24222088469E+04  0.50400001928E-02 0.  1.
       -1   -1    0    0    0  501  0.00000000000E+00  0.00000000000E+00 -0.69753981643E+03  0.69753981645E+03  0.50400001928E-02 0. -1.
    10030    2    1    2    0    0  0.00000000000E+00  0.00000000000E+00  0.17246690305E+04  0.31197486633E+04  0.25996823763E+04 0.  0.
        5    1    3    3  502    0  0.40368238548E+02 -0.12991919019E+04  0.86951796657E+03  0.15638455093E+04  0.46999998093E+01 0.  1.
       -5    1    3    3    0  502 -0.40368238548E+02  0.12991919019E+04  0.85515106388E+03  0.15559031541E+04  0.46999998093E+01 0. -1.
</event>
<event>
 5   0  0.6780984E-07  0.2600904E+04  0.7818609E-02  0.8367894E-01
       -2   -1    0    0    0  501  0.00000000000E+00  0.00000000000E+00  0.10084843637E+04  0.10084843637E+04  0.25500000920E-02 0.  1.
        2   -1    0    0  501    0  0.00000000000E+00  0.00000000000E+00 -0.16769478275E+04  0.16769478275E+04  0.25500000920E-02 0. -1.
    10030    2    1    2    0    0  0.00000000000E+00  0.00000000000E+00 -0.66846346376E+03  0.26854321912E+04  0.26009041987E+04 0.  0.
        2    1    3    3  502    0 -0.69215778387E+03 -0.83033213223E+02 -0.14677255901E+04  0.16248677854E+04  0.25500000920E-02 0. -1.
       -2    1    3    3    0  502  0.69215778387E+03  0.83033213223E+02  0.79926212630E+03  0.10605644058E+04  0.25500000920E-02 0.  1.
</event>
<event>
 5   0  0.6768478E-07  0.2600442E+04  0.7818609E-02  0.8368051E-01
        2   -1    0    0  501    0  0.00000000000E+00  0.00000000000E+00  0.15374908964E+04  0.15374908964E+04  0.25500000920E-02 0. -1.
       -2   -1    0    0    0  501  0.00000000000E+00  0.00000000000E+00 -0.10995675955E+04  0.10995675955E+04  0.25500000920E-02 0.  1.
    10030    2    1    2    0    0  0.00000000000E+00  0.00000000000E+00  0.43792330091E+03  0.26370584920E+04  0.26004423994E+04 0.  0.
        4    1    3    3  502    0  0.79752999243E+03 -0.77917736607E+03  0.89726120660E+03  0.14311711087E+04  0.12699999809E+01 0. -1.
       -4    1    3    3    0  502 -0.79752999243E+03  0.77917736607E+03 -0.45933790568E+03  0.12058873833E+04  0.12699999809E+01 0.  1.
</event>
<event>
 5   0  0.2755061E-07  0.2600073E+04  0.7818609E-02  0.8368177E-01
        1   -1    0    0  501    0  0.00000000000E+00  0.00000000000E+00  0.87347156368E+03  0.87347156370E+03  0.50400001928E-02 0.  1.
       -1   -1    0    0    0  501  0.00000000000E+00  0.00000000000E+00 -0.19349163313E+04  0.19349163314E+04  0.50400001928E-02 0. -1.
    10030    2    1    2    0    0  0.00000000000E+00  0.00000000000E+00 -0.10614447677E+04  0.28083878951E+04  0.26000726094E+04 0.  0.
        4    1    3    3  502    0  0.88880255378E+03 -0.86314020931E+03 -0.10532579091E+03  0.12434130994E+04  0.12699999809E+01 0.  1.
       -4    1    3    3    0  502 -0.88880255378E+03  0.86314020931E+03 -0.95611897676E+03  0.15649747957E+04  0.12699999809E+01 0. -1.
</event>
<event>
 5   0  0.6599814E-07  0.2599145E+04  0.7818609E-02  0.8368492E-01
       -2   -1    0    0    0  501  0.00000000000E+00  0.00000000000E+00  0.98971249994E+03  0.98971249994E+03  0.25500000920E-02 0. -1.
        2   -1    0    0  501    0  0.00000000000E+00  0.00000000000E+00 -0.17064439142E+04  0.17064439142E+04  0.25500000920E-02 0.  1.
    10030    2    1    2    0    0  0.00000000000E+00  0.00000000000E+00 -0.71673141421E+03  0.26961564141E+04  0.25991451458E+04 0.  0.
        5    1    3    3  502    0 -0.76845266651E+03 -0.39958521562E+03  0.64665055082E+03  0.10809102045E+04  0.46999998093E+01 0. -1.
       -5    1    3    3    0  502  0.76845266651E+03  0.39958521562E+03 -0.13633819650E+04  0.16152462097E+04  0.46999998093E+01 0.  1.
</event>
<event>
 5   0  0.6526351E-07  0.2598925E+04  0.7818609E-02  0.8368566E-01
        2   -1    0    0  501    0  0.00000000000E+00  0.00000000000E+00  0.15973491348E+04  0.15973491348E+04  0.25500000920E-02 0. -1.
       -2   -1    0    0    0  501  0.00000000000E+00  0.00000000000E+00 -0.10571282686E+04  0.10571282686E+04  0.25500000920E-02 0.  1.
    10030    2    1    2    0    0  0.00000000000E+00  0.00000000000E+00  0.54022086623E+03  0.26544774034E+04  0.25989251049E+04 0.  0.
        3    1    3    3  502    0 -0.72856745769E+03 -0.10364883917E+04  0.56522278219E+03  0.13872979241E+04  0.10100000352E+00 0. -1.
       -3    1    3    3    0  502  0.72856745769E+03  0.10364883917E+04 -0.25001915963E+02  0.12671794792E+04  0.10100000352E+00 0.  1.
</event>
<event>
 5   0  0.6768478E-07  0.2599584E+04  0.7818609E-02  0.8368342E-01
        2   -1    0    0  501    0  0.00000000000E+00  0.00000000000E+00  0.17649483911E+04  0.17649483911E+04  0.25500000920E-02 0.  1.
       -2   -1    0    0    0  501  0.00000000000E+00  0.00000000000E+00 -0.95722905621E+03  0.95722905622E+03  0.25500000920E-02 0. -1.
    10030    2    1    2    0    0  0.00000000000E+00  0.00000000000E+00  0.80771933493E+03  0.27221774474E+04  0.25995844920E+04 0.  0.
        4    1    3    3  502    0 -0.10764407524E+04  0.51357380997E+03 -0.13720380213E+03  0.12005453960E+04  0.12699999809E+01 0. -1.
       -4    1    3    3    0  502  0.10764407524E+04 -0.51357380997E+03  0.94492313706E+03  0.15216320513E+04  0.12699999809E+01 0.  1.
</event>
<event>
 5   0  0.2793576E-07  0.2604496E+04  0.7818609E-02  0.8366676E-01
        1   -1    0    0  501    0  0.00000000000E+00  0.00000000000E+00  0.11478271628E+04  0.11478271628E+04  0.50400001928E-02 0. -1.
       -1   -1    0    0    0  501  0.00000000000E+00  0.00000000000E+00 -0.14774438886E+04  0.14774438886E+04  0.50400001928E-02 0.  1.
    10030    2    1    2    0    0  0.00000000000E+00  0.00000000000E+00 -0.32961672583E+03  0.26252710514E+04  0.26044962867E+04 0.  0.
        2    1    3    3  502    0  0.11164241259E+04  0.34665449180E+03  0.41359632607E+03  0.12400137445E+04  0.25500000920E-02 0.  1.
       -2    1    3    3    0  502 -0.11164241259E+04 -0.34665449180E+03 -0.74321305190E+03  0.13852573068E+04  0.25500000920E-02 0. -1.
</event>
<event>
 5   0  0.6599814E-07  0.2601186E+04  0.7818609E-02  0.8367798E-01
        2   -1    0    0  501    0  0.00000000000E+00  0.00000000000E+00  0.64869984113E+03  0.64869984114E+03  0.25500000920E-02 0.  1.
       -2   -1    0    0    0  501  0.00000000000E+00  0.00000000000E+00 -0.26075888489E+04  0.26075888489E+04  0.25500000920E-02 0. -1.
    10030    2    1    2    0    0  0.00000000000E+00  0.00000000000E+00 -0.19588890077E+04  0.32562886900E+04  0.26011862463E+04 0.  0.
        5    1    3    3  502    0 -0.38957622416E+03 -0.97393035095E+03 -0.19419927153E+04  0.22071854836E+04  0.46999998093E+01 0.  1.
       -5    1    3    3    0  502  0.38957622416E+03  0.97393035095E+03 -0.16896292453E+02  0.10491032064E+04  0.46999998093E+01 0. -1.
</event>
<event>
 5   0  0.2864801E-07  0.2600670E+04  0.7818609E-02  0.8367974E-01
        1   -1    0    0  501    0  0.00000000000E+00  0.00000000000E+00  0.14069991442E+04  0.14069991443E+04  0.50400001928E-02 0.  1.
       -1   -1    0    0    0  501  0.00000000000E+00  0.00000000000E+00 -0.12017567358E+04  0.12017567358E+04  0.50400001928E-02 0. -1.
    10030    2    1    2    0    0  0.00000000000E+00  0.00000000000E+00  0.20524240848E+03  0.26087558800E+04  0.26006696821E+04 0.  0.
        5    1    3    3  502    0  0.14195435019E+03 -0.12525054202E+04 -0.21763271368E+03  0.12791821423E+04  0.46999998093E+01 0. -1.
       -5    1    3    3    0  502 -0.14195435019E+03  0.12525054202E+04  0.42287512216E+03  0.13295737377E+04  0.46999998093E+01 0.  1.
</event>
<event>
 5   0  0.6768478E-07  0.2599575E+04  0.7818609E-02  0.8368345E-01
       -2   -1    0    0    0  501  0.00000000000E+00  0.00000000000E+00  0.67179477520E+03  0.67179477520E+03  0.25500000920E-02 0.  1.
        2   -1    0    0  501    0  0.00000000000E+00  0.00000000000E+00 -0.25148274356E+04  0.25148274356E+04  0.25500000920E-02 0. -1.
    10030    2    1    2    0    0  0.00000000000E+00  0.00000000000E+00 -0.18430326604E+04  0.31866222108E+04  0.25995752974E+04 0.  0.
        4    1    3    3  502    0 -0.78185550743E+03  0.10351772504E+04 -0.82225980647E+03  0.15359045467E+04  0.12699999809E+01 0.  1.
       -4    1    3    3    0  502  0.78185550743E+03 -0.10351772504E+04 -0.10207728539E+04  0.16507176641E+04  0.12699999809E+01 0. -1.
</event>
<event>
 5   0  0.2623263E-07  0.2599794E+04  0.7818609E-02  0.8368271E-01
        1   -1    0    0  501    0  0.00000000000E+00  0.00000000000E+00  0.22704739702E+04  0.22704739702E+04  0.50400001928E-02 0.  1.
       -1   -1    0    0    0  501  0.00000000000E+00  0.00000000000E+00 -0.74422016741E+03  0.74422016743E+03  0.50400001928E-02 0. -1.
    10030    2    1    2    0    0  0.00000000000E+00  0.00000000000E+00  0.15262538028E+04  0.30146941377E+04  0.25997942367E+04 0.  0.
        1    1    3    3  502    0  0.61246162926E+03 -0.11325069779E+04  0.55552729041E+03  0.14022452969E+04  0.50400001928E-02 0. -1.
       -1    1    3    3    0  502 -0.61246162926E+03  0.11325069779E+04  0.97072651241E+03  0.16124488408E+04  0.50400001928E-02 0.  1.
</event>
<event>
 5   0  0.6599814E-07  0.2600180E+04  0.7818609E-02  0.8368140E-01
       -2   -1    0    0    0  501  0.00000000000E+00  0.00000000000E+00  0.15812437331E+04  0.15812437331E+04  0.25500000920E-02 0.  1.
        2   -1    0    0  501    0  0.00000000000E+00  0.00000000000E+00 -0.10689270057E+04  0.10689270057E+04  0.25500000920E-02 0. -1.
    10030    2    1    2    0    0  0.00000000000E+00  0.00000000000E+00  0.51231672740E+03  0.26501707389E+04  0.26001800930E+04 0.  0.
        5    1    3    3  502    0  0.43963860898E+03  0.70228495954E+03 -0.76496441040E+03  0.11276874168E+04  0.46999998093E+01 0. -1.
       -5    1    3    3    0  502 -0.43963860898E+03 -0.70228495954E+03  0.12772811378E+04  0.15224833220E+04  0.46999998093E+01 0.  1.
</event>
<event>
 5   0  0.2864801E-07  0.2598774E+04  0.7818609E-02  0.8368618E-01
        1   -1    0    0  501    0  0.00000000000E+00  0.00000000000E+00  0.14052251463E+04  0.14052251463E+04  0.50400001928E-02 0.  1.
       -1   -1    0    0    0  501  0.00000000000E+00  0.00000000000E+00 -0.12015207491E+04  0.12015207491E+04  0.50400001928E-02 0. -1.
    10030    2    1    2    0    0  0.00000000000E+00  0.00000000000E+00  0.20370439717E+03  0.26067458954E+04  0.25987744577E+04 0.  0.
        5    1    3    3  502    0 -0.10343771562E+04  0.15616148148E+03 -0.67126654757E+03  0.12429575124E+04  0.46999998093E+01 0. -1.
       -5    1    3    3    0  502  0.10343771562E+04 -0.15616148148E+03  0.87497094474E+03  0.13637883831E+04  0.46999998093E+01 0.  1.
</event>
<event>
 5   0  0.2864801E-07  0.2598905E+04  0.7818609E-02  0.8368573E-01
        1   -1    0    0  501    0  0.00000000000E+00  0.00000000000E+00  0.13841948605E+04  0.13841948605E+04  0.50400001928E-02 0.  1.
       -1   -1    0    0    0  501  0.00000000000E+00  0.00000000000E+00 -0.12198985818E+04  0.12198985818E+04  0.50400001928E-02 0. -1.
    10030    2    1    2    0    0  0.00000000000E+00  0.00000000000E+00  0.16429627875E+03  0.26040934423E+04  0.25989054213E+04 0.  0.
        5    1    3    3  502    0 -0.26164416975E+03  0.35899977723E+03  0.13057397054E+04  0.13792450036E+04  0.46999998093E+01 0.  1.
       -5    1    3    3    0  502  0.26164416975E+03 -0.35899977723E+03 -0.11414434266E+04  0.12248484387E+04  0.46999998093E+01 0. -1.
</event>
<event>
 5   0  0.6599814E-07  0.2604177E+04  0.7818609E-02  0.8366784E-01
       -2   -1    0    0    0  501  0.00000000000E+00  0.00000000000E+00  0.12367419140E+04  0.12367419140E+04  0.25500000920E-02 0.  1.
        2   -1    0    0  501    0  0.00000000000E+00  0.00000000000E+00 -0.13708877510E+04  0.13708877510E+04  0.25500000920E-02 0. -1.
    10030    2    1    2    0    0  0.00000000000E+00  0.00000000000E+00 -0.13414583703E+03  0.26076296649E+04  0.26041769072E+04 0.  0.
        5    1    3    3  502    0 -0.32605749484E+03  0.12377627152E+04  0.17207887726E+03  0.12915120050E+04  0.46999998093E+01 0.  1.
       -5    1    3    3    0  502  0.32605749484E+03 -0.12377627152E+04 -0.30622471429E+03  0.13161176599E+04  0.46999998093E+01 0. -1.
</event>
<event>
 5   0  0.2755061E-07  0.2600053E+04  0.7818609E-02  0.8368183E-01
       -1   -1    0    0    0  501  0.00000000000E+00  0.00000000000E+00  0.10028801771E+04  0.10028801771E+04  0.50400001928E-02 0.  1.
        1   -1    0    0  501    0  0.00000000000E+00  0.00000000000E+00 -0.16852153989E+04  0.16852153989E+04  0.50400001928E-02 0. -1.
    10030    2    1    2    0    0  0.00000000000E+00  0.00000000000E+00 -0.68233522179E+03  0.26880955760E+04  0.26000531669E+04 0.  0.
        4    1    3    3  502    0  0.67071870649E+03  0.72243732492E+03  0.53504974918E+03  0.11216323456E+04  0.12699999809E+01 0.  1.
       -4    1    3    3    0  502 -0.67071870649E+03 -0.72243732492E+03 -0.12173849710E+04  0.15664632304E+04  0.12699999809E+01 0. -1.
</event>
<event>
 5   0  0.2755061E-07  0.2600844E+04  0.7818609E-02  0.8367915E-01
        1   -1    0    0  501    0  0.00000000000E+00  0.00000000000E+00  0.12094710359E+04  0.12094710359E+04  0.50400001928E-02 0. -1.
       -1   -1    0    0    0  501  0.00000000000E+00  0.00000000000E+00 -0.13982124005E+04  0.13982124005E+04  0.50400001928E-02 0.  1.
    10030    2    1    2    0    0  0.00000000000E+00  0.00000000000E+00 -0.18874136461E+03  0.26076834364E+04  0.26008440172E+04 0.  0.
        4    1    3    3  502    0  0.45605512712E+03  0.93240672385E+03 -0.87983823814E+03  0.13606930278E+04  0.12699999809E+01 0.  1.
       -4    1    3    3    0  502 -0.45605512712E+03 -0.93240672385E+03  0.69109687353E+03  0.12469904086E+04  0.12699999809E+01 0. -1.
</event>
<event>
 5   0  0.2864801E-07  0.2599271E+04  0.7818609E-02  0.8368449E-01
        1   -1    0    0  501    0  0.00000000000E+00  0.00000000000E+00  0.97351107658E+03  0.97351107660E+03  0.50400001928E-02 0. -1.
       -1   -1    0    0    0  501  0.00000000000E+00  0.00000000000E+00 -0.17350107032E+04  0.17350107032E+04  0.50400001928E-02 0.  1.
    10030    2    1    2    0    0  0.00000000000E+00  0.00000000000E+00 -0.76149962657E+03  0.27085217798E+04  0.25992707728E+04 0.  0.
        5    1    3    3  502    0  0.82853697922E+03 -0.82930515003E+03  0.20391198289E+03  0.11898835004E+04  0.46999998093E+01 0. -1.
       -5    1    3    3    0  502 -0.82853697922E+03  0.82930515003E+03 -0.96541160946E+03  0.15186382793E+04  0.46999998093E+01 0.  1.
</event>
<event>
 5   0  0.2755061E-07  0.2600498E+04  0.7818609E-02  0.8368032E-01
       -1   -1    0    0    0  501  0.00000000000E+00  0.00000000000E+00  0.15747145877E+04  0.15747145877E+04  0.50400001928E-02 0. -1.
        1   -1    0    0  501    0  0.00000000000E+00  0.00000000000E+00 -0.10736216080E+04  0.10736216080E+04  0.50400001928E-02 0.  1.
    10030    2    1    2    0    0  0.00000000000E+00  0.00000000000E+00  0.50109297969E+03  0.26483361958E+04  0.26004981122E+04 0.  0.
        4    1    3    3  502    0 -0.35909804688E+03  0.40247274392E+03 -0.95431090977E+03  0.10961964433E+04  0.12699999809E+01 0.  1.
       -4    1    3    3    0  502  0.35909804688E+03 -0.40247274392E+03  0.14554038895E+04  0.15521397525E+04  0.12699999809E+01 0. -1.
</event>
<event>
 5   0  0.2755061E-07  0.2600047E+04  0.7818609E-02  0.8368185E-01
       -1   -1    0    0    0  501  0.00000000000E+00  0.00000000000E+00  0.11848498072E+04  0.11848498072E+04  0.50400001928E-02 0. -1.
        1   -1    0    0  501    0  0.00000000000E+00  0.00000000000E+00 -0.14263928379E+04  0.14263928379E+04  0.50400001928E-02 0.  1.
    10030    2    1    2    0    0  0.00000000000E+00  0.00000000000E+00 -0.24154303072E+03  0.26112426452E+04  0.26000471373E+04 0.  0.
        4    1    3    3  502    0 -0.76274898629E+03 -0.93313511295E+03 -0.61024316025E+03  0.13508980282E+04  0.12699999809E+01 0. -1.
       -4    1    3    3    0  502  0.76274898629E+03  0.93313511295E+03  0.36870012953E+03  0.12603446170E+04  0.12699999809E+01 0.  1.
</event>
<event>
 5   0  0.2755061E-07  0.2602467E+04  0.7818609E-02  0.8367364E-01
       -1   -1    0    0    0  501  0.00000000000E+00  0.00000000000E+00  0.10067958031E+04  0.10067958031E+04  0.50400001928E-02 0. -1.
        1   -1    0    0  501    0  0.00000000000E+00  0.00000000000E+00 -0.16817797691E+04  0.16817797691E+04  0.50400001928E-02 0.  1.
    10030    2    1    2    0    0  0.00000000000E+00  0.00000000000E+00 -0.67498396606E+03  0.26885755722E+04  0.26024671474E+04 0.  0.
        4    1    3    3  502    0  0.10889936453E+04  0.58044602174E+03  0.88939666656E+02  0.12372294132E+04  0.12699999809E+01 0.  1.
       -4    1    3    3    0  502 -0.10889936453E+04 -0.58044602174E+03 -0.76392363271E+03  0.14513461590E+04  0.12699999809E+01 0. -1.
</event>
<event>
 5   0  0.2623263E-07  0.2599863E+04  0.7818609E-02  0.8368248E-01
        1   -1    0    0  501    0  0.00000000000E+00  0.00000000000E+00  0.13069493663E+04  0.13069493663E+04  0.50400001928E-02 0. -1.
       -1   -1    0    0    0  501  0.00000000000E+00  0.00000000000E+00 -0.12929509782E+04  0.12929509782E+04  0.50400001928E-02 0.  1.
    10030    2    1    2    0    0  0.00000000000E+00  0.00000000000E+00  0.13998388096E+02  0.25999003445E+04  0.25998626591E+04 0.  0.
        1    1    3    3  502    0 -0.87293629218E+03  0.67071052475E+03 -0.68435089048E+03  0.12962278039E+04  0.50400001928E-02 0.  1.
       -1    1    3    3    0  502  0.87293629218E+03 -0.67071052475E+03  0.69834927858E+03  0.13036725406E+04  0.50400001928E-02 0. -1.
</event>
<event>
 5   0  0.6780984E-07  0.2600365E+04  0.7818609E-02  0.8368077E-01
       -2   -1    0    0    0  501  0.00000000000E+00  0.00000000000E+00  0.97046269127E+03  0.97046269127E+03  0.25500000920E-02 0. -1.
        2   -1    0    0  501    0  0.00000000000E+00  0.00000000000E+00 -0.17419261934E+04  0.17419261934E+04  0.25500000920E-02 0.  1.
    10030    2    1    2    0    0  0.00000000000E+00  0.00000000000E+00 -0.77146350218E+03  0.27123888847E+04  0.26003648834E+04 0.  0.
        2    1    3    3  502    0 -0.91481264533E+03  0.87300360667E+03 -0.70285099637E+02  0.12664744248E+04  0.25500000920E-02 0. -1.
       -2    1    3    3    0  502  0.91481264533E+03 -0.87300360667E+03 -0.70117840254E+03  0.14459144600E+04  0.25500000920E-02 0.  1.
</event>
<event>
 5   0  0.2623263E-07  0.2600271E+04  0.7818609E-02  0.8368109E-01
        1   -1    0    0  501    0  0.00000000000E+00  0.00000000000E+00  0.13203682435E+04  0.13203682435E+04  0.50400001928E-02 0.  1.
       -1   -1    0    0    0  501  0.00000000000E+00  0.00000000000E+00 -0.12802125054E+04  0.12802125054E+04  0.50400001928E-02 0. -1.
    10030    2    1    2    0    0  0.00000000000E+00  0.00000000000E+00  0.40155738115E+02  0.26005807489E+04  0.26002707067E+04 0.  0.
        1    1    3    3  502    0  0.13786902529E+03  0.12461721545E+04 -0.32405476005E+03  0.12949765999E+04  0.50400001928E-02 0.  1.
       -1    1    3    3    0  502 -0.13786902529E+03 -0.12461721545E+04  0.36421049816E+03  0.13056041490E+04  0.50400001928E-02 0. -1.
</event>
<event>
 5   0  0.2623263E-07  0.2600249E+04  0.7818609E-02  0.8368116E-01
       -1   -1    0    0    0  501  0.00000000000E+00  0.00000000000E+00  0.10295726844E+04  0.10295726844E+04  0.50400001928E-02 0. -1.
        1   -1    0    0  501    0  0.00000000000E+00  0.00000000000E+00 -0.16417727022E+04  0.16417727022E+04  0.50400001928E-02 0.  1.
    10030    2    1    2    0    0  0.00000000000E+00  0.00000000000E+00 -0.61220001776E+03  0.26713453866E+04  0.26002494712E+04 0.  0.
        1    1    3    3  502    0 -0.12083027320E+04  0.41532663670E+03 -0.59040562903E+02  0.12790533591E+04  0.50400001928E-02 0. -1.
       -1    1    3    3    0  502  0.12083027320E+04 -0.41532663670E+03 -0.55315945486E+03  0.13922920275E+04  0.50400001928E-02 0.  1.
</event>
<event>
 5   0  0.6599814E-07  0.2599865E+04  0.7818609E-02  0.8368247E-01
        2   -1    0    0  501    0  0.00000000000E+00  0.00000000000E+00  0.22666543987E+04  0.22666543987E+04  0.25500000920E-02 0. -1.
       -2   -1    0    0    0  501  0.00000000000E+00  0.00000000000E+00 -0.74551473430E+03  0.74551473430E+03  0.25500000920E-02 0.  1.
    10030    2    1    2    0    0  0.00000000000E+00  0.00000000000E+00  0.15211396644E+04  0.30121691330E+04  0.25998648056E+04 0.  0.
        5    1    3    3  502    0  0.37953488761E+03 -0.43745184598E+03 -0.58777404896E+03  0.82517347940E+03  0.46999998093E+01 0.  1.
       -5    1    3    3    0  502 -0.37953488761E+03  0.43745184598E+03  0.21089137134E+04  0.21869956536E+04  0.46999998093E+01 0. -1.
</event>
<event>
 5   0  0.2294625E-07  0.2596865E+04  0.7818609E-02  0.8369267E-01
        4   -1    0    0  501    0  0.00000000000E+00  0.00000000000E+00  0.13183945627E+04  0.13183951744E+04  0.12699999809E+01 0. -1.
       -4   -1    0    0    0  501  0.00000000000E+00  0.00000000000E+00 -0.12787715740E+04  0.12787722046E+04  0.12699999809E+01 0.  1.
    10030    2    1    2    0    0  0.00000000000E+00  0.00000000000E+00  0.39622988748E+02  0.25971673790E+04  0.25968651127E+04 0.  0.
        4    1    3    3  502    0 -0.11150377486E+04  0.36277228994E+03  0.57756142156E+03  0.13070928519E+04  0.12699999809E+01 0. -1.
       -4    1    3    3    0  502  0.11150377486E+04 -0.36277228994E+03 -0.53793843281E+03  0.12900745271E+04  0.12699999809E+01 0.  1.
</event>
<event>
 5   0  0.2641626E-07  0.2599447E+04  0.7818609E-02  0.8368389E-01
        1   -1    0    0  501    0  0.00000000000E+00  0.00000000000E+00  0.17078813374E+04  0.17078813374E+04  0.50400001928E-02 0.  1.
       -1   -1    0    0    0  501  0.00000000000E+00  0.00000000000E+00 -0.98910892461E+03  0.98910892463E+03  0.50400001928E-02 0. -1.
    10030    2    1    2    0    0  0.00000000000E+00  0.00000000000E+00  0.71877241275E+03  0.26969902620E+04  0.25994466126E+04 0.  0.
        3    1    3    3  502    0 -0.56579102490E+03 -0.78602369768E+03 -0.53993170172E+03  0.11088187363E+04  0.10100000352E+00 0. -1.
       -3    1    3    3    0  502  0.56579102490E+03  0.78602369768E+03  0.12587041145E+04  0.15881715257E+04  0.10100000352E+00 0.  1.
</event>
<event>
 5   0  0.2755061E-07  0.2599878E+04  0.7818609E-02  0.8368242E-01
        1   -1    0    0  501    0  0.00000000000E+00  0.00000000000E+00  0.79911793899E+03  0.79911793900E+03  0.50400001928E-02 0.  1.
       -1   -1    0    0    0  501  0.00000000000E+00  0.00000000000E+00 -0.21146340074E+04  0.21146340074E+04  0.50400001928E-02 0. -1.
    10030    2    1    2    0    0  0.00000000000E+00  0.00000000000E+00 -0.13155160684E+04  0.29137519464E+04  0.25998784354E+04 0.  0.
        4    1    3    3  502    0  0.55664080420E+03 -0.55569102108E+03 -0.18176955258E+04  0.19805706584E+04  0.12699999809E+01 0. -1.
       -4    1    3    3    0  502 -0.55664080420E+03  0.55569102108E+03  0.50217945739E+03  0.93318128793E+03  0.12699999809E+01 0.  1.
</event>
<event>
 5   0  0.2755061E-07  0.2599590E+04  0.7818609E-02  0.8368340E-01
       -1   -1    0    0    0  501  0.00000000000E+00  0.00000000000E+00  0.11899153043E+04  0.11899153043E+04  0.50400001928E-02 0.  1.
        1   -1    0    0  501    0  0.00000000000E+00  0.00000000000E+00 -0.14198213842E+04  0.14198213842E+04  0.50400001928E-02 0. -1.
    10030    2    1    2    0    0  0.00000000000E+00  0.00000000000E+00 -0.22990607992E+03  0.26097366885E+04  0.25995901172E+04 0.  0.
        4    1    3    3  502    0 -0.62548559609E+03 -0.10183868671E+04 -0.62794807582E+03  0.13500609026E+04  0.12699999809E+01 0. -1.
       -4    1    3    3    0  502  0.62548559609E+03  0.10183868671E+04  0.39804199590E+03  0.12596757858E+04  0.12699999809E+01 0.  1.
</event>
<event>
 5   0  0.6768478E-07  0.2595323E+04  0.7818609E-02  0.8369791E-01
       -2   -1    0    0    0  501  0.00000000000E+00  0.00000000000E+00  0.14291403741E+04  0.14291403741E+04  0.25500000920E-02 0. -1.
        2   -1    0    0  501    0  0.00000000000E+00  0.00000000000E+00 -0.11782788495E+04  0.11782788495E+04  0.25500000920E-02 0.  1.
    10030    2    1    2    0    0  0.00000000000E+00  0.00000000000E+00  0.25086152465E+03  0.26074192236E+04  0.25953233908E+04 0.  0.
        4    1    3    3  502    0  0.58518885624E+03 -0.10409957276E+04 -0.38468181042E+03  0.12546313444E+04  0.12699999809E+01 0.  1.
       -4    1    3    3    0  502 -0.58518885624E+03  0.10409957276E+04  0.63554333507E+03  0.13527878791E+04  0.12699999809E+01 0. -1.
</event>
<event>
 5   0  0.2294625E-07  0.2598854E+04  0.7818609E-02  0.8368591E-01
        3   -1    0    0  501    0  0.00000000000E+00  0.00000000000E+00  0.22340759749E+04  0.22340759772E+04  0.10100000352E+00 0.  1.
       -3   -1    0    0    0  501  0.00000000000E+00  0.00000000000E+00 -0.75579820358E+03  0.75579821033E+03  0.10100000352E+00 0. -1.
    10030    2    1    2    0    0  0.00000000000E+00  0.00000000000E+00  0.14782777713E+04  0.29898741875E+04  0.25988540721E+04 0.  0.
        3    1    3    3  502    0  0.12621307743E+04 -0.27711434195E+03  0.89664739911E+03  0.15728137266E+04  0.10100000352E+00 0. -1.
       -3    1    3    3    0  502 -0.12621307743E+04  0.27711434195E+03  0.58163037222E+03  0.14170604610E+04  0.10100000352E+00 0.  1.
</event>
<event>
 5   0  0.2641626E-07  0.2598971E+04  0.7818609E-02  0.8368551E-01
        1   -1    0    0  501    0  0.00000000000E+00  0.00000000000E+00  0.15151766081E+04  0.15151766081E+04  0.50400001928E-02 0.  1.
       -1   -1    0    0    0  501  0.00000000000E+00  0.00000000000E+00 -0.11144988186E+04  0.11144988186E+04  0.50400001928E-02 0. -1.
    10030    2    1    2    0    0  0.00000000000E+00  0.00000000000E+00  0.40067778946E+03  0.26296754268E+04  0.25989709808E+04 0.  0.
        3    1    3    3  502    0  0.86685540956E+03 -0.58182993292E+03  0.98323598432E+03  0.14341259997E+04  0.10100000352E+00 0.  1.
       -3    1    3    3    0  502 -0.86685540956E+03  0.58182993292E+03 -0.58255819486E+03  0.11955494271E+04  0.10100000352E+00 0. -1.
</event>
<event>
 5   0  0.6780984E-07  0.2606033E+04  0.7818609E-02  0.8366155E-01
        2   -1    0    0  501    0  0.00000000000E+00  0.00000000000E+00  0.22248635913E+04  0.22248635913E+04  0.25500000920E-02 0.  1.
       -2   -1    0    0    0  501  0.00000000000E+00  0.00000000000E+00 -0.76312659574E+03  0.76312659574E+03  0.25500000920E-02 0. -1.
    10030    2    1    2    0    0  0.00000000000E+00  0.00000000000E+00  0.14617369956E+04  0.29879901870E+04  0.26060334445E+04 0.  0.
        2    1    3    3  502    0 -0.29502278198E+03 -0.71697517691E+03 -0.46988850569E+03  0.90657986630E+03  0.25500000920E-02 0. -1.
       -2    1    3    3    0  502  0.29502278198E+03  0.71697517691E+03  0.19316255013E+04  0.20814103207E+04  0.25500000920E-02 0.  1.
</event>
<event>
 5   0  0.6599814E-07  0.2600586E+04  0.7818609E-02  0.8368002E-01
        2   -1    0    0  501    0  0.00000000000E+00  0.00000000000E+00  0.11745952903E+04  0.11745952903E+04  0.25500000920E-02 0. -1.
       -2   -1    0    0    0  501  0.00000000000E+00  0.00000000000E+00 -0.14394423464E+04  0.14394423464E+04  0.25500000920E-02 0.  1.
    10030    2    1    2    0    0  0.00000000000E+00  0.00000000000E+00 -0.26484705610E+03  0.26140376366E+04  0.26005862421E+04 0.  0.
        5    1    3    3  502    0  0.19518527956E+03  0.11325917366E+04 -0.74374588830E+03  0.13689563073E+04  0.46999998093E+01 0.  1.
       -5    1    3    3    0  502 -0.19518527956E+03 -0.11325917366E+04  0.47889883220E+03  0.12450813293E+04  0.46999998093E+01 0. -1.
</event>
<event>
 5   0  0.6526351E-07  0.2597970E+04  0.7818609E-02  0.8368891E-01
       -2   -1    0    0    0  501  0.00000000000E+00  0.00000000000E+00  0.20394044687E+04  0.20394044687E+04  0.25500000920E-02 0.  1.
        2   -1    0    0  501    0  0.00000000000E+00  0.00000000000E+00 -0.82737976264E+03  0.82737976265E+03  0.25500000920E-02 0. -1.
    10030    2    1    2    0    0  0.00000000000E+00  0.00000000000E+00  0.12120247060E+04  0.28667842313E+04  0.25979699654E+04 0.  0.
        3    1    3    3  502    0  0.39147158095E+03  0.52576439541E+03  0.18435163504E+04  0.19565865027E+04  0.10100000352E+00 0.  1.
       -3    1    3    3    0  502 -0.39147158095E+03 -0.52576439541E+03 -0.63149164434E+03  0.91019772865E+03  0.10100000352E+00 0. -1.
</event>
<event>
 5   0  0.2793576E-07  0.2599400E+04  0.7818609E-02  0.8368405E-01
        1   -1    0    0  501    0  0.00000000000E+00  0.00000000000E+00  0.10721817804E+04  0.10721817805E+04  0.50400001928E-02 0. -1.
       -1   -1    0    0    0  501  0.00000000000E+00  0.00000000000E+00 -0.15754973116E+04  0.15754973116E+04  0.50400001928E-02 0.  1.
    10030    2    1    2    0    0  0.00000000000E+00  0.00000000000E+00 -0.50331553111E+03  0.26476790920E+04  0.25993995557E+04 0.  0.
        2    1    3    3  502    0 -0.15082175096E+02 -0.41243540656E+03  0.10036647975E+04  0.10852066450E+04  0.25500000920E-02 0. -1.
       -2    1    3    3    0  502  0.15082175096E+02  0.41243540656E+03 -0.15069803287E+04  0.15624724470E+04  0.25500000920E-02 0.  1.
</event>
<event>
 5   0  0.6526351E-07  0.2600583E+04  0.7818609E-02  0.8368003E-01
       -2   -1    0    0    0  501  0.00000000000E+00  0.00000000000E+00  0.81309139198E+03  0.81309139198E+03  0.25500000920E-02 0.  1.
        2   -1    0    0  501    0  0.00000000000E+00  0.00000000000E+00 -0.20794190953E+04  0.20794190953E+04  0.25500000920E-02 0. -1.
    10030    2    1    2    0    0  0.00000000000E+00  0.00000000000E+00 -0.12663277033E+04  0.28925104873E+04  0.26005828322E+04 0.  0.
        3    1    3    3  502    0  0.94035296833E+02 -0.36035016047E+03  0.75250325380E+03  0.83961659844E+03  0.10100000352E+00 0.  1.
       -3    1    3    3    0  502 -0.94035296833E+02  0.36035016047E+03 -0.20188309571E+04  0.20528938889E+04  0.10100000352E+00 0. -1.
</event>
<event>
 5   0  0.2864801E-07  0.2600691E+04  0.7818609E-02  0.8367967E-01
       -1   -1    0    0    0  501  0.00000000000E+00  0.00000000000E+00  0.52438919591E+03  0.52438919594E+03  0.50400001928E-02 0.  1.
        1   -1    0    0  501    0  0.00000000000E+00  0.00000000000E+00 -0.32245093947E+04  0.32245093947E+04  0.50400001928E-02 0. -1.
    10030    2    1    2    0    0  0.00000000000E+00  0.00000000000E+00 -0.27001201988E+04  0.37488985907E+04  0.26006905919E+04 0.  0.
        5    1    3    3  502    0  0.11825313150E+04 -0.69182087841E+02 -0.57685986627E+03  0.13175567796E+04  0.46999998093E+01 0.  1.
       -5    1    3    3    0  502 -0.11825313150E+04  0.69182087841E+02 -0.21232603325E+04  0.24313418110E+04  0.46999998093E+01 0. -1.
</event>
<event>
 5   0  0.2641626E-07  0.2599174E+04  0.7818609E-02  0.8368482E-01
       -1   -1    0    0    0  501  0.00000000000E+00  0.00000000000E+00  0.14157205911E+04  0.14157205911E+04  0.50400001928E-02 0. -1.
        1   -1    0    0  501    0  0.00000000000E+00  0.00000000000E+00 -0.11929796945E+04  0.11929796945E+04  0.50400001928E-02 0.  1.
    10030    2    1    2    0    0  0.00000000000E+00  0.00000000000E+00  0.22274089661E+03  0.26087002857E+04  0.25991736520E+04 0.  0.
        3    1    3    3  502    0  0.54468762776E+03 -0.71858061221E+03 -0.82794613143E+03  0.12241476687E+04  0.10100000352E+00 0.  1.
       -3    1    3    3    0  502 -0.54468762776E+03  0.71858061221E+03  0.10506870280E+04  0.13845526170E+04  0.10100000352E+00 0. -1.
</event>
<event>
 5   0  0.2755061E-07  0.2601909E+04  0.7818609E-02  0.8367553E-01
       -1   -1    0    0    0  501  0.00000000000E+00  0.00000000000E+00  0.80989656718E+03  0.80989656720E+03  0.50400001928E-02 0.  1.
        1   -1    0    0  501    0  0.00000000000E+00  0.00000000000E+00 -0.20897513877E+04  0.20897513877E+04  0.50400001928E-02 0. -1.
    10030    2    1    2    0    0  0.00000000000E+00  0.00000000000E+00 -0.12798548205E+04  0.28996479549E+04  0.26019088955E+04 0.  0.
        4    1    3    3  502    0 -0.48193687633E+03 -0.11418742959E+04 -0.19928189427E+03  0.12553306125E+04  0.12699999809E+01 0.  1.
       -4    1    3    3    0  502  0.48193687633E+03  0.11418742959E+04 -0.10805729262E+04  0.16443173423E+04  0.12699999809E+01 0. -1.
</event>
<event>
 5   0  0.6768478E-07  0.2599920E+04  0.7818609E-02  0.8368228E-01
        2   -1    0    0  501    0  0.00000000000E+00  0.00000000000E+00  0.25164628711E+04  0.25164628711E+04  0.25500000920E-02 0. -1.
       -2   -1    0    0    0  501  0.00000000000E+00  0.00000000000E+00 -0.67153646403E+03  0.67153646404E+03  0.25500000920E-02 0.  1.
    10030    2    1    2    0    0  0.00000000000E+00  0.00000000000E+00  0.18449264071E+04  0.31879993351E+04  0.25999204437E+04 0.  0.
        4    1    3    3  502    0 -0.10641435221E+04 -0.19984319402E+03  0.18046020199E+04  0.21045020316E+04  0.12699999809E+01 0. -1.
       -4    1    3    3    0  502  0.10641435221E+04  0.19984319402E+03  0.40324387180E+02  0.10834973036E+04  0.12699999809E+01 0.  1.
</event>
<event>
 5   0  0.2755061E-07  0.2600608E+04  0.7818609E-02  0.8367995E-01
        1   -1    0    0  501    0  0.00000000000E+00  0.00000000000E+00  0.26130487731E+04  0.26130487731E+04  0.50400001928E-02 0.  1.
       -1   -1    0    0    0  501  0.00000000000E+00  0.00000000000E+00 -0.64705681666E+03  0.64705681668E+03  0.50400001928E-02 0. -1.
    10030    2    1    2    0    0  0.00000000000E+00  0.00000000000E+00  0.19659919564E+04  0.32601055897E+04  0.26006084064E+04 0.  0.
        4    1    3    3  502    0  0.65039260792E+03 -0.84274516845E+03  0.19190529726E+04  0.21945377390E+04  0.12699999809E+01 0.  1.
       -4    1    3    3    0  502 -0.65039260792E+03  0.84274516845E+03  0.46938983783E+02  0.10655678507E+04  0.12699999809E+01 0. -1.
</event>
<event>
 5   0  0.6599814E-07  0.2601122E+04  0.7818609E-02  0.8367820E-01
        2   -1    0    0  501    0  0.00000000000E+00  0.00000000000E+00  0.20537866314E+04  0.20537866314E+04  0.25500000920E-02 0.  1.
       -2   -1    0    0    0  501  0.00000000000E+00  0.00000000000E+00 -0.82358055099E+03  0.82358055100E+03  0.25500000920E-02 0. -1.
    10030    2    1    2    0    0  0.00000000000E+00  0.00000000000E+00  0.12302060805E+04  0.28773671824E+04  0.26011218545E+04 0.  0.
        5    1    3    3  502    0 -0.59417052098E+03 -0.46687286622E+03  0.17860211341E+04  0.19393046338E+04  0.46999998093E+01 0.  1.
       -5    1    3    3    0  502  0.59417052098E+03  0.46687286622E+03 -0.55581505368E+03  0.93806254861E+03  0.46999998093E+01 0. -1.
</event>
<event>
 5   0  0.2641626E-07  0.2598547E+04  0.7818609E-02  0.8368695E-01
        1   -1    0    0  501    0  0.00000000000E+00  0.00000000000E+00  0.10812404476E+04  0.10812404476E+04  0.50400001928E-02 0.  1.
       -1   -1    0    0    0  501  0.00000000000E+00  0.00000000000E+00 -0.15612733998E+04  0.15612733998E+04  0.50400001928E-02 0. -1.
    10030    2    1    2    0    0  0.00000000000E+00  0.00000000000E+00 -0.48003295222E+03  0.26425138475E+04  0.25985472478E+04 0.  0.
        3    1    3    3  502    0 -0.30371610296E+03 -0.12229783943E+04 -0.56190379000E+03  0.13797302285E+04  0.10100000352E+00 0.  1.
       -3    1    3    3    0  502  0.30371610296E+03  0.12229783943E+04  0.81870837781E+02  0.12627836190E+04  0.10100000352E+00 0. -1.
</event>
<event>
 5   0  0.6780984E-07  0.2597926E+04  0.7818609E-02  0.8368906E-01
        2   -1    0    0  501    0  0.00000000000E+00  0.00000000000E+00  0.16559751038E+04  0.16559751038E+04  0.25500000920E-02 0. -1.
       -2   -1    0    0    0  501  0.00000000000E+00  0.00000000000E+00 -0.10189194451E+04  0.10189194451E+04  0.25500000920E-02 0.  1.
    10030    2    1    2    0    0  0.00000000000E+00  0.00000000000E+00  0.63705565877E+03  0.26748945489E+04  0.25979262760E+04 0.  0.
        2    1    3    3  502    0 -0.82907373238E+03 -0.27857866300E+03  0.13073641313E+04  0.15729495532E+04  0.25500000920E-02 0. -1.
       -2    1    3    3    0  502  0.82907373238E+03  0.27857866300E+03 -0.67030847252E+03  0.11019449957E+04  0.25500000920E-02 0.  1.
</event>
<event>
 5   0  0.6768478E-07  0.2600065E+04  0.7818609E-02  0.8368179E-01
        2   -1    0    0  501    0  0.00000000000E+00  0.00000000000E+00  0.10436779897E+04  0.10436779897E+04  0.25500000920E-02 0. -1.
       -2   -1    0    0    0  501  0.00000000000E+00  0.00000000000E+00 -0.16193548147E+04  0.16193548147E+04  0.25500000920E-02 0.  1.
    10030    2    1    2    0    0  0.00000000000E+00  0.00000000000E+00 -0.57567682500E+03  0.26630328043E+04  0.26000653665E+04 0.  0.
        4    1    3    3  502    0 -0.38666712206E+02  0.85475705700E+03  0.71462875816E+03  0.11148096770E+04  0.12699999809E+01 0. -1.
       -4    1    3    3    0  502  0.38666712206E+02 -0.85475705700E+03 -0.12903055832E+04  0.15482231273E+04  0.12699999809E+01 0.  1.
</event>
<event>
 5   0  0.6780984E-07  0.2596845E+04  0.7818609E-02  0.8369274E-01
        2   -1    0    0  501    0  0.00000000000E+00  0.00000000000E+00  0.14890895681E+04  0.14890895681E+04  0.25500000920E-02 0.  1.
       -2   -1    0    0    0  501  0.00000000000E+00  0.00000000000E+00 -0.11321689327E+04  0.11321689327E+04  0.25500000920E-02 0. -1.
    10030    2    1    2    0    0  0.00000000000E+00  0.00000000000E+00  0.35692063535E+03  0.26212585008E+04  0.25968449681E+04 0.  0.
        2    1    3    3  502    0 -0.23571775438E+03  0.11973262660E+04  0.62619308755E+03  0.13715942657E+04  0.25500000920E-02 0.  1.
       -2    1    3    3    0  502  0.23571775438E+03 -0.11973262660E+04 -0.26927245219E+03  0.12496642351E+04  0.25500000920E-02 0. -1.
</event>
<event>
 5   0  0.2755061E-07  0.2599758E+04  0.7818609E-02  0.8368283E-01
        1   -1    0    0  501    0  0.00000000000E+00  0.00000000000E+00  0.21983320270E+04  0.21983320270E+04  0.50400001928E-02 0. -1.
       -1   -1    0    0    0  501  0.00000000000E+00  0.00000000000E+00 -0.76862155204E+03  0.76862155206E+03  0.50400001928E-02 0.  1.
    10030    2    1    2    0    0  0.00000000000E+00  0.00000000000E+00  0.14297104750E+04  0.29669535791E+04  0.25997579691E+04 0.  0.
        4    1    3    3  502    0 -0.11354480913E+04 -0.15922748603E+03  0.14138025174E+04  0.18202842996E+04  0.12699999809E+01 0.  1.
       -4    1    3    3    0  502  0.11354480913E+04  0.15922748603E+03  0.15907957619E+02  0.11466692795E+04  0.12699999809E+01 0. -1.
</event>
<event>
 5   0  0.6599814E-07  0.2600203E+04  0.7818609E-02  0.8368132E-01
        2   -1    0    0  501    0  0.00000000000E+00  0.00000000000E+00  0.24150246049E+04  0.24150246049E+04  0.25500000920E-02 0. -1.
       -2   -1    0    0    0  501  0.00000000000E+00  0.00000000000E+00 -0.69989510817E+03  0.69989510817E+03  0.25500000920E-02 0.  1.
    10030    2    1    2    0    0  0.00000000000E+00  0.00000000000E+00  0.17151294967E+04  0.31149197131E+04  0.26002029975E+04 0.  0.
        5    1    3    3  502    0 -0.11764200433E+04 -0.17013074297E+03  0.14884357378E+04  0.19048285024E+04  0.46999998093E+01 0. -1.
       -5    1    3    3    0  502  0.11764200433E+04  0.17013074297E+03  0.22669375896E+03  0.12100912107E+04  0.46999998093E+01 0.  1.
</event>
<event>
 5   0  0.2793576E-07  0.2599146E+04  0.7818609E-02  0.8368491E-01
       -1   -1    0    0    0  501  0.00000000000E+00  0.00000000000E+00  0.12158278980E+04  0.12158278980E+04  0.50400001928E-02 0. -1.
        1   -1    0    0  501    0  0.00000000000E+00  0.00000000000E+00 -0.13890862027E+04  0.13890862027E+04  0.50400001928E-02 0.  1.
    10030    2    1    2    0    0  0.00000000000E+00  0.00000000000E+00 -0.17325830472E+03  0.26049141007E+04  0.25991458274E+04 0.  0.
        2    1    3    3  502    0  0.38732242460E+03 -0.10057914286E+04  0.64110539039E+03  0.12540538983E+04  0.25500000920E-02 0. -1.
       -2    1    3    3    0  502 -0.38732242460E+03  0.10057914286E+04 -0.81436369511E+03  0.13508602023E+04  0.25500000920E-02 0.  1.
</event>
<event>
 5   0  0.2623263E-07  0.2599917E+04  0.7818609E-02  0.8368229E-01
        1   -1    0    0  501    0  0.00000000000E+00  0.00000000000E+00  0.12910851711E+04  0.12910851712E+04  0.50400001928E-02 0.  1.
       -1   -1    0    0    0  501  0.00000000000E+00  0.00000000000E+00 -0.13088925011E+04  0.13088925011E+04  0.50400001928E-02 0. -1.
    10030    2    1    2    0    0  0.00000000000E+00  0.00000000000E+00 -0.17807329964E+02  0.25999776723E+04  0.25999166901E+04 0.  0.
        1    1    3    3  502    0  0.13384826665E+03 -0.12930140296E+04 -0.18446401266E+02  0.13000541946E+04  0.50400001928E-02 0. -1.
       -1    1    3    3    0  502 -0.13384826665E+03  0.12930140296E+04  0.63907130218E+00  0.12999234776E+04  0.50400001928E-02 0.  1.
</event>
<event>
 5   0  0.2864801E-07  0.2599876E+04  0.7818609E-02  0.8368243E-01
       -1   -1    0    0    0  501  0.00000000000E+00  0.00000000000E+00  0.15178415295E+04  0.15178415295E+04  0.50400001928E-02 0. -1.
        1   -1    0    0  501    0  0.00000000000E+00  0.00000000000E+00 -0.11133167180E+04  0.11133167180E+04  0.50400001928E-02 0.  1.
    10030    2    1    2    0    0  0.00000000000E+00  0.00000000000E+00  0.40452481150E+03  0.26311582475E+04  0.25998756509E+04 0.  0.
        5    1    3    3  502    0 -0.11158063658E+04 -0.19086301862E+03 -0.44446009203E+03  0.12161494156E+04  0.46999998093E+01 0.  1.
       -5    1    3    3    0  502  0.11158063658E+04  0.19086301862E+03  0.84898490352E+03  0.14150088318E+04  0.46999998093E+01 0. -1.
</event>
<event>
 5   0  0.2755061E-07  0.2604089E+04  0.7818609E-02  0.8366813E-01
       -1   -1    0    0    0  501  0.00000000000E+00  0.00000000000E+00  0.81200063769E+03  0.81200063770E+03  0.50400001928E-02 0. -1.
        1   -1    0    0  501    0  0.00000000000E+00  0.00000000000E+00 -0.20878312684E+04  0.20878312684E+04  0.50400001928E-02 0.  1.
    10030    2    1    2    0    0  0.00000000000E+00  0.00000000000E+00 -0.12758306307E+04  0.28998319061E+04  0.26040893390E+04 0.  0.
        4    1    3    3  502    0  0.40928229174E+03  0.47985272557E+03  0.63055022474E+03  0.89183284946E+03  0.12699999809E+01 0. -1.
       -4    1    3    3    0  502 -0.40928229174E+03 -0.47985272557E+03 -0.19063808554E+04  0.20079990566E+04  0.12699999809E+01 0.  1.
</event>
<event>
 5   0  0.7160320E-07  0.2599455E+04  0.7818609E-02  0.8368387E-01
        2   -1    0    0  501    0  0.00000000000E+00  0.00000000000E+00  0.12747678804E+04  0.12747678804E+04  0.25500000920E-02 0. -1.
       -2   -1    0    0    0  501  0.00000000000E+00  0.00000000000E+00 -0.13251753270E+04  0.13251753270E+04  0.25500000920E-02 0.  1.
    10030    2    1    2    0    0  0.00000000000E+00  0.00000000000E+00 -0.50407446662E+02  0.25999432074E+04  0.25994545142E+04 0.  0.
        1    1    3    3  502    0  0.12822851302E+04  0.21173598973E+03 -0.39477299163E+02  0.13002483384E+04  0.50400001928E-02 0.  1.
       -1    1    3    3    0  502 -0.12822851302E+04 -0.21173598973E+03 -0.10930147499E+02  0.12996948690E+04  0.50400001928E-02 0. -1.
</event>
<event>
 5   0  0.2623263E-07  0.2591524E+04  0.7818609E-02  0.8371086E-01
        1   -1    0    0  501    0  0.00000000000E+00  0.00000000000E+00  0.19098641692E+04  0.19098641692E+04  0.50400001928E-02 0.  1.
       -1   -1    0    0    0  501  0.00000000000E+00  0.00000000000E+00 -0.87911937687E+03  0.87911937688E+03  0.50400001928E-02 0. -1.
    10030    2    1    2    0    0  0.00000000000E+00  0.00000000000E+00  0.10307447923E+04  0.27889835461E+04  0.25915235660E+04 0.  0.
        1    1    3    3  502    0  0.43239769713E+02 -0.81254510114E+03  0.16006223618E+04  0.17955754410E+04  0.50400001928E-02 0.  1.
       -1    1    3    3    0  502 -0.43239769713E+02  0.81254510114E+03 -0.56987756949E+03  0.99340810511E+03  0.50400001928E-02 0. -1.
</event>
<event>
 5   0  0.6526351E-07  0.2597913E+04  0.7818609E-02  0.8368911E-01
       -2   -1    0    0    0  501  0.00000000000E+00  0.00000000000E+00  0.81221965066E+03  0.81221965067E+03  0.25500000920E-02 0. -1.
        2   -1    0    0  501    0  0.00000000000E+00  0.00000000000E+00 -0.20773785175E+04  0.20773785175E+04  0.25500000920E-02 0.  1.
    10030    2    1    2    0    0  0.00000000000E+00  0.00000000000E+00 -0.12651588668E+04  0.28895981681E+04  0.25979127420E+04 0.  0.
        3    1    3    3  502    0 -0.24788429744E+03 -0.40074254843E+03 -0.19789612231E+04  0.20342882657E+04  0.10100000352E+00 0.  1.
       -3    1    3    3    0  502  0.24788429744E+03  0.40074254843E+03  0.71380235636E+03  0.85530990242E+03  0.10100000352E+00 0. -1.
</event>
<event>
 5   0  0.7160320E-07  0.2601365E+04  0.7818609E-02  0.8367738E-01
       -2   -1    0    0    0  501  0.00000000000E+00  0.00000000000E+00  0.10415282372E+04  0.10415282372E+04  0.25500000920E-02 0.  1.
        2   -1    0    0  501    0  0.00000000000E+00  0.00000000000E+00 -0.16243193252E+04  0.16243193252E+04  0.25500000920E-02 0. -1.
    10030    2    1    2    0    0  0.00000000000E+00  0.00000000000E+00 -0.58279108797E+03  0.26658475625E+04  0.26013645984E+04 0.  0.
        1    1    3    3  502    0 -0.33215659372E+03 -0.64014708045E+03  0.81786750536E+03  0.10904235616E+04  0.50400001928E-02 0.  1.
       -1    1    3    3    0  502  0.33215659372E+03  0.64014708045E+03 -0.14006585933E+04  0.15754240009E+04  0.50400001928E-02 0. -1.
</event>
<event>
 5   0  0.7160320E-07  0.2600130E+04  0.7818609E-02  0.8368157E-01
       -2   -1    0    0    0  501  0.00000000000E+00  0.00000000000E+00  0.87479423697E+03  0.87479423697E+03  0.25500000920E-02 0. -1.
        2   -1    0    0  501    0  0.00000000000E+00  0.00000000000E+00 -0.19320753535E+04  0.19320753535E+04  0.25500000920E-02 0.  1.
    10030    2    1    2    0    0  0.00000000000E+00  0.00000000000E+00 -0.10572811165E+04  0.28068695904E+04  0.26001295234E+04 0.  0.
        1    1    3    3  502    0 -0.10234372939E+04  0.20109301593E+03 -0.13664319230E+04  0.17190109062E+04  0.50400001928E-02 0.  1.
       -1    1    3    3    0  502  0.10234372939E+04 -0.20109301593E+03  0.30915080646E+03  0.10878586842E+04  0.50400001928E-02 0. -1.
</event>
<event>
 5   0  0.6599814E-07  0.2600119E+04  0.7818609E-02  0.8368161E-01
       -2   -1    0    0    0  501  0.00000000000E+00  0.00000000000E+00  0.79023468080E+03  0.79023468080E+03  0.25500000920E-02 0. -1.
        2   -1    0    0  501    0  0.00000000000E+00  0.00000000000E+00 -0.21388013114E+04  0.21388013114E+04  0.25500000920E-02 0.  1.
    10030    2    1    2    0    0  0.00000000000E+00  0.00000000000E+00 -0.13485666306E+04  0.29290359922E+04  0.26001192062E+04 0.  0.
        5    1    3    3  502    0 -0.12868647417E+04  0.17945743809E+02 -0.46720942482E+03  0.13691784579E+04  0.46999998093E+01 0. -1.
       -5    1    3    3    0  502  0.12868647417E+04 -0.17945743809E+02 -0.88135720578E+03  0.15598575343E+04  0.46999998093E+01 0.  1.
</event>
<event>
 5   0  0.2864801E-07  0.2598472E+04  0.7818609E-02  0.8368721E-01
       -1   -1    0    0    0  501  0.00000000000E+00  0.00000000000E+00  0.95633978490E+03  0.95633978492E+03  0.50400001928E-02 0. -1.
        1   -1    0    0  501    0  0.00000000000E+00  0.00000000000E+00 -0.17650774712E+04  0.17650774712E+04  0.50400001928E-02 0.  1.
    10030    2    1    2    0    0  0.00000000000E+00  0.00000000000E+00 -0.80873768632E+03  0.27214172561E+04  0.25984717118E+04 0.  0.
        5    1    3    3  502    0 -0.83869184761E+03 -0.98999708801E+03 -0.47457384399E+03  0.13815718124E+04  0.46999998093E+01 0.  1.
       -5    1    3    3    0  502  0.83869184761E+03  0.98999708801E+03 -0.33416384233E+03  0.13398454437E+04  0.46999998093E+01 0. -1.
</event>
<event>
 5   0  0.6526351E-07  0.2599570E+04  0.7818609E-02  0.8368347E-01
        2   -1    0    0  501    0  0.00000000000E+00  0.00000000000E+00  0.19497155237E+04  0.19497155237E+04  0.25500000920E-02 0. -1.
       -2   -1    0    0    0  501  0.00000000000E+00  0.00000000000E+00 -0.86650668913E+03  0.86650668914E+03  0.25500000920E-02 0.  1.
    10030    2    1    2    0    0  0.00000000000E+00  0.00000000000E+00  0.10832088345E+04  0.28162222128E+04  0.25995703823E+04 0.  0.
        3    1    3    3  502    0  0.16506727207E+03 -0.68563898046E+03 -0.64122060270E+03  0.95315889933E+03  0.10100000352E+00 0.  1.
       -3    1    3    3    0  502 -0.16506727207E+03  0.68563898046E+03  0.17244294372E+04  0.18630633135E+04  0.10100000352E+00 0. -1.
</event>
<event>
 5   0  0.2793576E-07  0.2583677E+04  0.7818609E-02  0.8373767E-01
       -1   -1    0    0    0  501  0.00000000000E+00  0.00000000000E+00  0.23676563477E+04  0.23676563477E+04  0.50400001928E-02 0.  1.
        1   -1    0    0  501    0  0.00000000000E+00  0.00000000000E+00 -0.70485186273E+03  0.70485186274E+03  0.50400001928E-02 0. -1.
    10030    2    1    2    0    0  0.00000000000E+00  0.00000000000E+00  0.16628044849E+04  0.30725082104E+04  0.25836772143E+04 0.  0.
        2    1    3    3  502    0  0.74329757358E+03 -0.81386875531E+03  0.16326558131E+04  0.19698828995E+04  0.25500000920E-02 0.  1.
       -2    1    3    3    0  502 -0.74329757358E+03  0.81386875531E+03  0.30148671815E+02  0.11026253109E+04  0.25500000920E-02 0. -1.
</event>
<event>
 5   0  0.2623263E-07  0.2599425E+04  0.7818609E-02  0.8368396E-01
        1   -1    0    0  501    0  0.00000000000E+00  0.00000000000E+00  0.24103080239E+04  0.24103080239E+04  0.50400001928E-02 0. -1.
       -1   -1    0    0    0  501  0.00000000000E+00  0.00000000000E+00 -0.70084520064E+03  0.70084520066E+03  0.50400001928E-02 0.  1.
    10030    2    1    2    0    0  0.00000000000E+00  0.00000000000E+00  0.17094628232E+04  0.31111532245E+04  0.25994251754E+04 0.  0.
        1    1    3    3  502    0 -0.23687035405E+03 -0.96719984662E+03  0.18544298453E+04  0.21048736682E+04  0.50400001928E-02 0. -1.
       -1    1    3    3    0  502  0.23687035405E+03  0.96719984662E+03 -0.14496702209E+03  0.10062795563E+04  0.50400001928E-02 0.  1.
</event>
<event>
 5   0  0.2641626E-07  0.2602374E+04  0.7818609E-02  0.8367395E-01
       -1   -1    0    0    0  501  0.00000000000E+00  0.00000000000E+00  0.99259905410E+03  0.99259905411E+03  0.50400001928E-02 0. -1.
        1   -1    0    0  501    0  0.00000000000E+00  0.00000000000E+00 -0.17057119693E+04  0.17057119693E+04  0.50400001928E-02 0.  1.
    10030    2    1    2    0    0  0.00000000000E+00  0.00000000000E+00 -0.71311291517E+03  0.26983110234E+04  0.26023743676E+04 0.  0.
        3    1    3    3  502    0  0.49844643864E+03 -0.28425018428E+02  0.88933570135E+03  0.10198896184E+04  0.10100000352E+00 0. -1.
       -3    1    3    3    0  502 -0.49844643864E+03  0.28425018428E+02 -0.16024486165E+04  0.16784214050E+04  0.10100000352E+00 0.  1.
</event>
<event>
 5   0  0.2641626E-07  0.2599275E+04  0.7818609E-02  0.8368447E-01
        1   -1    0    0  501    0  0.00000000000E+00  0.00000000000E+00  0.26949796144E+04  0.26949796144E+04  0.50400001928E-02 0. -1.
       -1   -1    0    0    0  501  0.00000000000E+00  0.00000000000E+00 -0.62674236091E+03  0.62674236093E+03  0.50400001928E-02 0.  1.
    10030    2    1    2    0    0  0.00000000000E+00  0.00000000000E+00  0.20682372535E+04  0.33217219754E+04  0.25992751960E+04 0.  0.
        3    1    3    3  502    0  0.82601742435E+03 -0.74116167810E+03  0.18984385138E+04  0.21990211957E+04  0.10100000352E+00 0. -1.
       -3    1    3    3    0  502 -0.82601742435E+03  0.74116167810E+03  0.16979873976E+03  0.11227007797E+04  0.10100000352E+00 0.  1.
</event>
<event>
 5   0  0.6780984E-07  0.2584556E+04  0.7818609E-02  0.8373466E-01
        2   -1    0    0  501    0  0.00000000000E+00  0.00000000000E+00  0.18178418965E+04  0.18178418965E+04  0.25500000920E-02 0.  1.
       -2   -1    0    0    0  501  0.00000000000E+00  0.00000000000E+00 -0.91866225862E+03  0.91866225863E+03  0.25500000920E-02 0. -1.
    10030    2    1    2    0    0  0.00000000000E+00  0.00000000000E+00  0.89917963786E+03  0.27365041551E+04  0.25845562423E+04 0.  0.
        2    1    3    3  502    0  0.99956574048E+03 -0.29513494753E+03 -0.35936123572E+03  0.11024412930E+04  0.25500000920E-02 0. -1.
       -2    1    3    3    0  502 -0.99956574048E+03  0.29513494753E+03  0.12585408736E+04  0.16340628621E+04  0.25500000920E-02 0.  1.
</event>
<event>
 5   0  0.2864801E-07  0.2603425E+04  0.7818609E-02  0.8367039E-01
        1   -1    0    0  501    0  0.00000000000E+00  0.00000000000E+00  0.19160041984E+04  0.19160041984E+04  0.50400001928E-02 0.  1.
       -1   -1    0    0    0  501  0.00000000000E+00  0.00000000000E+00 -0.88436950407E+03  0.88436950408E+03  0.50400001928E-02 0. -1.
    10030    2    1    2    0    0  0.00000000000E+00  0.00000000000E+00  0.10316346944E+04  0.28003737025E+04  0.26034251922E+04 0.  0.
        5    1    3    3  502    0 -0.82296590838E+03 -0.92675911341E+03  0.87878698892E+02  0.12425377646E+04  0.46999998093E+01 0.  1.
       -5    1    3    3    0  502  0.82296590838E+03  0.92675911341E+03  0.94375599547E+03  0.15578359380E+04  0.46999998093E+01 0. -1.
</event>
<event>
 5   0  0.6599814E-07  0.2600694E+04  0.7818609E-02  0.8367965E-01
        2   -1    0    0  501    0  0.00000000000E+00  0.00000000000E+00  0.18122198146E+04  0.18122198146E+04  0.25500000920E-02 0. -1.
       -2   -1    0    0    0  501  0.00000000000E+00  0.00000000000E+00 -0.93305606388E+03  0.93305606388E+03  0.25500000920E-02 0.  1.
    10030    2    1    2    0    0  0.00000000000E+00  0.00000000000E+00  0.87916375075E+03  0.27452758785E+04  0.26006942820E+04 0.  0.
        5    1    3    3  502    0  0.78823010468E+03  0.91479612127E+03 -0.69649753496E+02  0.12095585226E+04  0.46999998093E+01 0. -1.
       -5    1    3    3    0  502 -0.78823010468E+03 -0.91479612127E+03  0.94881350425E+03  0.15357173559E+04  0.46999998093E+01 0.  1.
</event>
<event>
 5   0  0.2793576E-07  0.2599622E+04  0.7818609E-02  0.8368330E-01
       -1   -1    0    0    0  501  0.00000000000E+00  0.00000000000E+00  0.10813742692E+04  0.10813742692E+04  0.50400001928E-02 0. -1.
        1   -1    0    0  501    0  0.00000000000E+00  0.00000000000E+00 -0.15623716559E+04  0.15623716559E+04  0.50400001928E-02 0.  1.
    10030    2    1    2    0    0  0.00000000000E+00  0.00000000000E+00 -0.48099738676E+03  0.26437459251E+04  0.25996219014E+04 0.  0.
        2    1    3    3  502    0 -0.64110522394E+03  0.86786624962E+03  0.49657947467E+03  0.11877705629E+04  0.25500000920E-02 0. -1.
       -2    1    3    3    0  502  0.64110522394E+03 -0.86786624962E+03 -0.97757686143E+03  0.14559753622E+04  0.25500000920E-02 0.  1.
</event>
<event>
 5   0  0.2294625E-07  0.2599793E+04  0.7818609E-02  0.8368272E-01
       -4   -1    0    0    0  501  0.00000000000E+00  0.00000000000E+00  0.19242365396E+04  0.19242369587E+04  0.12699999809E+01 0. -1.
        4   -1    0    0  501    0  0.00000000000E+00  0.00000000000E+00 -0.87812961194E+03  0.87813053032E+03  0.12699999809E+01 0.  1.
    10030    2    1    2    0    0  0.00000000000E+00  0.00000000000E+00  0.10461069276E+04  0.28023674890E+04  0.25997930378E+04 0.  0.
        3    1    3    3  502    0 -0.10664129784E+03 -0.47110461022E+03  0.18239102353E+04  0.18867857527E+04  0.10100000352E+00 0. -1.
       -3    1    3    3    0  502  0.10664129784E+03  0.47110461022E+03 -0.77780330765E+03  0.91558173626E+03  0.10100000352E+00 0.  1.
</event>
<event>
 5   0  0.2623263E-07  0.2600231E+04  0.7818609E-02  0.8368123E-01
        1   -1    0    0  501    0  0.00000000000E+00  0.00000000000E+00  0.23720301378E+04  0.23720301378E+04  0.50400001928E-02 0. -1.
       -1   -1    0    0    0  501  0.00000000000E+00  0.00000000000E+00 -0.71259626918E+03  0.71259626920E+03  0.50400001928E-02 0.  1.
    10030    2    1    2    0    0  0.00000000000E+00  0.00000000000E+00  0.16594338686E+04  0.30846264070E+04  0.26002306257E+04 0.  0.
        1    1    3    3  502    0  0.12038006993E+04  0.48721432833E+03  0.90270894689E+03  0.15815806550E+04  0.50400001928E-02 0.  1.
       -1    1    3    3    0  502 -0.12038006993E+04 -0.48721432833E+03  0.75672492175E+03  0.15030457520E+04  0.50400001928E-02 0. -1.
</event>
<event>
 5   0  0.2793576E-07  0.2619610E+04  0.7818609E-02  0.8361570E-01
       -1   -1    0    0    0  501  0.00000000000E+00  0.00000000000E+00  0.83984632681E+03  0.83984632682E+03  0.50400001928E-02 0. -1.
        1   -1    0    0  501    0  0.00000000000E+00  0.00000000000E+00 -0.20427419588E+04  0.20427419588E+04  0.50400001928E-02 0.  1.
    10030    2    1    2    0    0  0.00000000000E+00  0.00000000000E+00 -0.12028956320E+04  0.28825882857E+04  0.26196101472E+04 0.  0.
        2    1    3    3  502    0  0.79438750525E+03  0.97753148732E+02 -0.17423451851E+04  0.19173872667E+04  0.25500000920E-02 0.  1.
       -2    1    3    3    0  502 -0.79438750525E+03 -0.97753148732E+02  0.53944955309E+03  0.96520101892E+03  0.25500000920E-02 0. -1.
</event>
<event>
 5   0  0.7160320E-07  0.2599321E+04  0.7818609E-02  0.8368432E-01
        2   -1    0    0  501    0  0.00000000000E+00  0.00000000000E+00  0.16216332470E+04  0.16216332470E+04  0.25500000920E-02 0.  1.
       -2   -1    0    0    0  501  0.00000000000E+00  0.00000000000E+00 -0.10416151328E+04  0.10416151328E+04  0.25500000920E-02 0. -1.
    10030    2    1    2    0    0  0.00000000000E+00  0.00000000000E+00  0.58001811419E+03  0.26632483798E+04  0.25993212421E+04 0.  0.
        1    1    3    3  502    0 -0.93772093626E+03  0.88037637216E+03  0.99053199686E+02  0.12900366845E+04  0.50400001928E-02 0. -1.
       -1    1    3    3    0  502  0.93772093626E+03 -0.88037637216E+03  0.48096491450E+03  0.13732116952E+04  0.50400001928E-02 0.  1.
</event>
<event>
 5   0  0.7160320E-07  0.2600732E+04  0.7818609E-02  0.8367952E-01
        2   -1    0    0  501    0  0.00000000000E+00  0.00000000000E+00  0.18375753249E+04  0.18375753249E+04  0.25500000920E-02 0. -1.
       -2   -1    0    0    0  501  0.00000000000E+00  0.00000000000E+00 -0.92020837113E+03  0.92020837114E+03  0.25500000920E-02 0.  1.
    10030    2    1    2    0    0  0.00000000000E+00  0.00000000000E+00  0.91736695374E+03  0.27577836960E+04  0.26007323557E+04 0.  0.
        1    1    3    3  502    0  0.65275320117E+03 -0.46962449946E+03 -0.62494642346E+03  0.10184262096E+04  0.50400001928E-02 0.  1.
       -1    1    3    3    0  502 -0.65275320117E+03  0.46962449946E+03  0.15423133772E+04  0.17393574864E+04  0.50400001928E-02 0. -1.
</event>
<event>
 5   0  0.2294625E-07  0.2611612E+04  0.7818609E-02  0.8364267E-01
        3   -1    0    0  501    0  0.00000000000E+00  0.00000000000E+00  0.94261766216E+03  0.94261766757E+03  0.10100000352E+00 0.  1.
       -3   -1    0    0    0  501  0.00000000000E+00  0.00000000000E+00 -0.18089301781E+04  0.18089301809E+04  0.10100000352E+00 0. -1.
    10030    2    1    2    0    0  0.00000000000E+00  0.00000000000E+00 -0.86631251594E+03  0.27515478485E+04  0.26116121816E+04 0.  0.
        5    1    3    3  502    0 -0.30796015574E+03  0.22245819533E+03  0.88309645164E+03  0.96135765410E+03  0.46999998093E+01 0.  1.
       -5    1    3    3    0  502  0.30796015574E+03 -0.22245819533E+03 -0.17494089676E+04  0.17901901944E+04  0.46999998093E+01 0. -1.
</event>
<event>
 5   0  0.2755061E-07  0.2600986E+04  0.7818609E-02  0.8367866E-01
       -1   -1    0    0    0  501  0.00000000000E+00  0.00000000000E+00  0.16255727679E+04  0.16255727679E+04  0.50400001928E-02 0.  1.
        1   -1    0    0  501    0  0.00000000000E+00  0.00000000000E+00 -0.10404223076E+04  0.10404223076E+04  0.50400001928E-02 0. -1.
    10030    2    1    2    0    0  0.00000000000E+00  0.00000000000E+00  0.58515046026E+03  0.26659950755E+04  0.26009860979E+04 0.  0.
        4    1    3    3  502    0  0.10356182987E+04 -0.46492001362E+03  0.94296171371E+03  0.14757487205E+04  0.12699999809E+01 0.  1.
       -4    1    3    3    0  502 -0.10356182987E+04  0.46492001362E+03 -0.35781125345E+03  0.11902463550E+04  0.12699999809E+01 0. -1.
</event>
<event>
 5   0  0.6599814E-07  0.2600200E+04  0.7818609E-02  0.8368133E-01
        2   -1    0    0  501    0  0.00000000000E+00  0.00000000000E+00  0.14366547309E+04  0.14366547309E+04  0.25500000920E-02 0.  1.
       -2   -1    0    0    0  501  0.00000000000E+00  0.00000000000E+00 -0.11765253139E+04  0.11765253139E+04  0.25500000920E-02 0. -1.
    10030    2    1    2    0    0  0.00000000000E+00  0.00000000000E+00  0.26012941695E+03  0.26131800448E+04  0.26002004986E+04 0.  0.
        5    1    3    3  502    0 -0.50038478612E+03  0.10962583486E+04  0.62042578253E+03  0.13554030923E+04  0.46999998093E+01 0.  1.
       -5    1    3    3    0  502  0.50038478612E+03 -0.10962583486E+04 -0.36029636557E+03  0.12577769525E+04  0.46999998093E+01 0. -1.
</event>
<event>
 5   0  0.2864801E-07  0.2600254E+04  0.7818609E-02  0.8368115E-01
        1   -1    0    0  501    0  0.00000000000E+00  0.00000000000E+00  0.16595031190E+04  0.16595031190E+04  0.50400001928E-02 0. -1.
       -1   -1    0    0    0  501  0.00000000000E+00  0.00000000000E+00 -0.10185757312E+04  0.10185757313E+04  0.50400001928E-02 0.  1.
    10030    2    1    2    0    0  0.00000000000E+00  0.00000000000E+00  0.64092738773E+03  0.26780788502E+04  0.26002535284E+04 0.  0.
        5    1    3    3  502    0 -0.37015672663E+03 -0.11940068866E+03  0.15981725696E+04  0.16448252730E+04  0.46999998093E+01 0. -1.
       -5    1    3    3    0  502  0.37015672663E+03  0.11940068866E+03 -0.95724518182E+03  0.10332535772E+04  0.46999998093E+01 0.  1.
</event>
<event>
 5   0  0.2793576E-07  0.2600752E+04  0.7818609E-02  0.8367946E-01
       -1   -1    0    0    0  501  0.00000000000E+00  0.00000000000E+00  0.65623053715E+03  0.65623053717E+03  0.50400001928E-02 0.  1.
        1   -1    0    0  501    0  0.00000000000E+00  0.00000000000E+00 -0.25768044421E+04  0.25768044421E+04  0.50400001928E-02 0. -1.
    10030    2    1    2    0    0  0.00000000000E+00  0.00000000000E+00 -0.19205739049E+04  0.32330349792E+04  0.26007520168E+04 0.  0.
        2    1    3    3  502    0  0.10388022437E+04  0.58986437523E+03 -0.15989237375E+04  0.19958975928E+04  0.25500000920E-02 0. -1.
       -2    1    3    3    0  502 -0.10388022437E+04 -0.58986437523E+03 -0.32165016743E+03  0.12371373864E+04  0.25500000920E-02 0.  1.
</event>
<event>
 5   0  0.6599814E-07  0.2600347E+04  0.7818609E-02  0.8368083E-01
       -2   -1    0    0    0  501  0.00000000000E+00  0.00000000000E+00  0.12781995870E+04  0.12781995870E+04  0.25500000920E-02 0.  1.
        2   -1    0    0  501    0  0.00000000000E+00  0.00000000000E+00 -0.13225255368E+04  0.13225255368E+04  0.25500000920E-02 0. -1.
    10030    2    1    2    0    0  0.00000000000E+00  0.00000000000E+00 -0.44325949772E+02  0.26007251238E+04  0.26003473575E+04 0.  0.
        5    1    3    3  502    0  0.12392215278E+04  0.33878909566E+03 -0.22214566465E+03  0.13037710046E+04  0.46999998093E+01 0. -1.
       -5    1    3    3    0  502 -0.12392215278E+04 -0.33878909566E+03  0.17781971488E+03  0.12969541192E+04  0.46999998093E+01 0.  1.
</event>
<event>
 5   0  0.7160320E-07  0.2598500E+04  0.7818609E-02  0.8368711E-01
        2   -1    0    0  501    0  0.00000000000E+00  0.00000000000E+00  0.18577195277E+04  0.18577195277E+04  0.25500000920E-02 0.  1.
       -2   -1    0    0    0  501  0.00000000000E+00  0.00000000000E+00 -0.90866823598E+03  0.90866823599E+03  0.25500000920E-02 0. -1.
    10030    2    1    2    0    0  0.00000000000E+00  0.00000000000E+00  0.94905129173E+03  0.27663877637E+04  0.25985001260E+04 0.  0.
        1    1    3    3  502    0 -0.67915991553E+03  0.13211844604E+03 -0.69622398123E+03  0.98155046061E+03  0.50400001928E-02 0. -1.
       -1    1    3    3    0  502  0.67915991553E+03 -0.13211844604E+03  0.16452752730E+04  0.17848373031E+04  0.50400001928E-02 0.  1.
</event>
<event>
 5   0  0.2793576E-07  0.2597817E+04  0.7818609E-02  0.8368943E-01
        1   -1    0    0  501    0  0.00000000000E+00  0.00000000000E+00  0.12503107046E+04  0.12503107046E+04  0.50400001928E-02 0.  1.
       -1   -1    0    0    0  501  0.00000000000E+00  0.00000000000E+00 -0.13493948213E+04  0.13493948213E+04  0.50400001928E-02 0. -1.
    10030    2    1    2    0    0  0.00000000000E+00  0.00000000000E+00 -0.99084116684E+02  0.25997055258E+04  0.25978166138E+04 0.  0.
        2    1    3    3  502    0 -0.19086008157E+03 -0.55612382546E+03  0.11095148916E+04  0.12556769388E+04  0.25500000920E-02 0.  1.
       -2    1    3    3    0  502  0.19086008157E+03  0.55612382546E+03 -0.12085990083E+04  0.13440285870E+04  0.25500000920E-02 0. -1.
</event>
<event>
 5   0  0.2864801E-07  0.2599885E+04  0.7818609E-02  0.8368240E-01
        1   -1    0    0  501    0  0.00000000000E+00  0.00000000000E+00  0.25629078536E+04  0.25629078536E+04  0.50400001928E-02 0.  1.
       -1   -1    0    0    0  501  0.00000000000E+00  0.00000000000E+00 -0.65934893217E+03  0.65934893219E+03  0.50400001928E-02 0. -1.
    10030    2    1    2    0    0  0.00000000000E+00  0.00000000000E+00  0.19035589214E+04  0.32222567858E+04  0.25998850410E+04 0.  0.
        5    1    3    3  502    0  0.41731511491E+03  0.11961203723E+03 -0.56684293196E+03  0.71399715972E+03  0.46999998093E+01 0. -1.
       -5    1    3    3    0  502 -0.41731511491E+03 -0.11961203723E+03  0.24704018534E+04  0.25082596261E+04  0.46999998093E+01 0.  1.
</event>
<event>
 5   0  0.2641626E-07  0.2598583E+04  0.7818609E-02  0.8368683E-01
        1   -1    0    0  501    0  0.00000000000E+00  0.00000000000E+00  0.14959194463E+04  0.14959194463E+04  0.50400001928E-02 0. -1.
       -1   -1    0    0    0  501  0.00000000000E+00  0.00000000000E+00 -0.11285084747E+04  0.11285084747E+04  0.50400001928E-02 0.  1.
    10030    2    1    2    0    0  0.00000000000E+00  0.00000000000E+00  0.36741097155E+03  0.26244279210E+04  0.25985825156E+04 0.  0.
        3    1    3    3  502    0 -0.12131192732E+04  0.44528273686E+03  0.47371475133E+02  0.12931276633E+04  0.10100000352E+00 0.  1.
       -3    1    3    3    0  502  0.12131192732E+04 -0.44528273686E+03  0.32003949642E+03  0.13313002577E+04  0.10100000352E+00 0. -1.
</event>
<event>
 5   0  0.2641626E-07  0.2601375E+04  0.7818609E-02  0.8367734E-01
       -1   -1    0    0    0  501  0.00000000000E+00  0.00000000000E+00  0.23660940950E+04  0.23660940950E+04  0.50400001928E-02 0.  1.
        1   -1    0    0  501    0  0.00000000000E+00  0.00000000000E+00 -0.71501283310E+03  0.71501283311E+03  0.50400001928E-02 0. -1.
    10030    2    1    2    0    0  0.00000000000E+00  0.00000000000E+00  0.16510812619E+04  0.30811069281E+04  0.26013747460E+04 0.  0.
        3    1    3    3  502    0 -0.10639633837E+04 -0.63035842958E+03  0.34820850672E+03  0.12847641830E+04  0.10100000352E+00 0. -1.
       -3    1    3    3    0  502  0.10639633837E+04  0.63035842958E+03  0.13028727552E+04  0.17963427451E+04  0.10100000352E+00 0.  1.
</event>
<event>
 5   0  0.2864801E-07  0.2600011E+04  0.7818609E-02  0.8368198E-01
        1   -1    0    0  501    0  0.00000000000E+00  0.00000000000E+00  0.18756013029E+04  0.18756013029E+04  0.50400001928E-02 0.  1.
       -1   -1    0    0    0  501  0.00000000000E+00  0.00000000000E+00 -0.90105191585E+03  0.90105191586E+03  0.50400001928E-02 0. -1.
    10030    2    1    2    0    0  0.00000000000E+00  0.00000000000E+00  0.97454938704E+03  0.27766532188E+04  0.26000108826E+04 0.  0.
        5    1    3    3  502    0 -0.47074964748E+03  0.54415564272E+03 -0.66900374271E+03  0.98249615361E+03  0.46999998093E+01 0. -1.
       -5    1    3    3    0  502  0.47074964748E+03 -0.54415564272E+03  0.16435531298E+04  0.17941570652E+04  0.46999998093E+01 0.  1.
</event>
<event>
 5   0  0.2755061E-07  0.2600425E+04  0.7818609E-02  0.8368057E-01
       -1   -1    0    0    0  501  0.00000000000E+00  0.00000000000E+00  0.82293877067E+03  0.82293877069E+03  0.50400001928E-02 0.  1.
        1   -1    0    0  501    0  0.00000000000E+00  0.00000000000E+00 -0.20542875482E+04  0.20542875482E+04  0.50400001928E-02 0. -1.
    10030    2    1    2    0    0  0.00000000000E+00  0.00000000000E+00 -0.12313487775E+04  0.28772263189E+04  0.26004252495E+04 0.  0.
        4    1    3    3  502    0 -0.80111213944E+03 -0.44515207357E+03 -0.16361319553E+04  0.18753320817E+04  0.12699999809E+01 0. -1.
       -4    1    3    3    0  502  0.80111213944E+03  0.44515207357E+03  0.40478317780E+03  0.10018942372E+04  0.12699999809E+01 0.  1.
</event>
<event>
 5   0  0.2864801E-07  0.2607418E+04  0.7818609E-02  0.8365686E-01
        1   -1    0    0  501    0  0.00000000000E+00  0.00000000000E+00  0.12579037945E+04  0.12579037945E+04  0.50400001928E-02 0. -1.
       -1   -1    0    0    0  501  0.00000000000E+00  0.00000000000E+00 -0.13511821949E+04  0.13511821949E+04  0.50400001928E-02 0.  1.
    10030    2    1    2    0    0  0.00000000000E+00  0.00000000000E+00 -0.93278400460E+02  0.26090859894E+04  0.26074180409E+04 0.  0.
        5    1    3    3  502    0 -0.58632365157E+03 -0.70299718738E+03 -0.97548654645E+03  0.13377505605E+04  0.46999998093E+01 0.  1.
       -5    1    3    3    0  502  0.58632365157E+03  0.70299718738E+03  0.88220814599E+03  0.12713354289E+04  0.46999998093E+01 0. -1.
</event>
<event>
 5   0  0.6768478E-07  0.2598461E+04  0.7818609E-02  0.8368724E-01
       -2   -1    0    0    0  501  0.00000000000E+00  0.00000000000E+00  0.10791414357E+04  0.10791414357E+04  0.25500000920E-02 0.  1.
        2   -1    0    0  501    0  0.00000000000E+00  0.00000000000E+00 -0.15642062994E+04  0.15642062994E+04  0.25500000920E-02 0. -1.
    10030    2    1    2    0    0  0.00000000000E+00  0.00000000000E+00 -0.48506486369E+03  0.26433477351E+04  0.25984609534E+04 0.  0.
        4    1    3    3  502    0 -0.86805804541E+03  0.64100874742E+03  0.49355624977E+03  0.11865986554E+04  0.12699999809E+01 0. -1.
       -4    1    3    3    0  502  0.86805804541E+03 -0.64100874742E+03 -0.97862111345E+03  0.14567490796E+04  0.12699999809E+01 0.  1.
</event>
<event>
 5   0  0.2864801E-07  0.2594964E+04  0.7818609E-02  0.8369914E-01
       -1   -1    0    0    0  501  0.00000000000E+00  0.00000000000E+00  0.14608908207E+04  0.14608908207E+04  0.50400001928E-02 0.  1.
        1   -1    0    0  501    0  0.00000000000E+00  0.00000000000E+00 -0.11523513997E+04  0.11523513998E+04  0.50400001928E-02 0. -1.
    10030    2    1    2    0    0  0.00000000000E+00  0.00000000000E+00  0.30853942096E+03  0.26132422205E+04  0.25949640322E+04 0.  0.
        5    1    3    3  502    0  0.66165127605E+03 -0.92850265989E+03  0.77793627523E+03  0.13802559686E+04  0.46999998093E+01 0.  1.
       -5    1    3    3    0  502 -0.66165127605E+03  0.92850265989E+03 -0.46939685427E+03  0.12329862519E+04  0.46999998093E+01 0. -1.
</event>
<event>
 5   0  0.6526351E-07  0.2600655E+04  0.7818609E-02  0.8367979E-01
       -2   -1    0    0    0  501  0.00000000000E+00  0.00000000000E+00  0.67450154536E+03  0.67450154537E+03  0.25500000920E-02 0.  1.
        2   -1    0    0  501    0  0.00000000000E+00  0.00000000000E+00 -0.25068173965E+04  0.25068173965E+04  0.25500000920E-02 0. -1.
    10030    2    1    2    0    0  0.00000000000E+00  0.00000000000E+00 -0.18323158511E+04  0.31813189419E+04  0.26006554619E+04 0.  0.
        3    1    3    3  502    0 -0.44362929936E+03  0.79066029759E+03 -0.20564331120E+04  0.22474135836E+04  0.10100000352E+00 0. -1.
       -3    1    3    3    0  502  0.44362929936E+03 -0.79066029759E+03  0.22411726084E+03  0.93390535829E+03  0.10100000352E+00 0.  1.
</event>
<event>
 5   0  0.6526351E-07  0.2600343E+04  0.7818609E-02  0.8368085E-01
        2   -1    0    0  501    0  0.00000000000E+00  0.00000000000E+00  0.22882845486E+04  0.22882845486E+04  0.25500000920E-02 0.  1.
       -2   -1    0    0    0  501  0.00000000000E+00  0.00000000000E+00 -0.73873929777E+03  0.73873929778E+03  0.25500000920E-02 0. -1.
    10030    2    1    2    0    0  0.00000000000E+00  0.00000000000E+00  0.15495452508E+04  0.30270238464E+04  0.26003428393E+04 0.  0.
        3    1    3    3  502    0 -0.11069748162E+03 -0.11956273329E+04  0.19428313668E+03  0.12163571018E+04  0.10100000352E+00 0. -1.
       -3    1    3    3    0  502  0.11069748162E+03  0.11956273329E+04  0.13552621141E+04  0.18106667446E+04  0.10100000352E+00 0.  1.
</event>
<event>
 5   0  0.2294625E-07  0.2598725E+04  0.7818609E-02  0.8368635E-01
       -4   -1    0    0    0  501  0.00000000000E+00  0.00000000000E+00  0.95073892140E+03  0.95073976963E+03  0.12699999809E+01 0.  1.
        4   -1    0    0  501    0  0.00000000000E+00  0.00000000000E+00 -0.17758195170E+04  0.17758199711E+04  0.12699999809E+01 0. -1.
    10030    2    1    2    0    0  0.00000000000E+00  0.00000000000E+00 -0.82508059557E+03  0.27265597407E+04  0.25987246931E+04 0.  0.
        5    1    3    3  502    0  0.39410844750E+03  0.29389619794E+02 -0.17112236992E+04  0.17562727171E+04  0.46999998093E+01 0. -1.
       -5    1    3    3    0  502 -0.39410844750E+03 -0.29389619794E+02  0.88614310362E+03  0.97028702363E+03  0.46999998093E+01 0.  1.
</event>
<event>
 5   0  0.6599814E-07  0.2601466E+04  0.7818609E-02  0.8367704E-01
        2   -1    0    0  501    0  0.00000000000E+00  0.00000000000E+00  0.14058131832E+04  0.14058131832E+04  0.25500000920E-02 0. -1.
       -2   -1    0    0    0  501  0.00000000000E+00  0.00000000000E+00 -0.12035068726E+04  0.12035068726E+04  0.25500000920E-02 0.  1.
    10030    2    1    2    0    0  0.00000000000E+00  0.00000000000E+00  0.20230631053E+03  0.26093200558E+04  0.26014656081E+04 0.  0.
        5    1    3    3  502    0  0.83435767186E+03  0.57059602247E+03 -0.71994610486E+03  0.12409984002E+04  0.46999998093E+01 0.  1.
       -5    1    3    3    0  502 -0.83435767186E+03 -0.57059602247E+03  0.92225241539E+03  0.13683216556E+04  0.46999998093E+01 0. -1.
</event>
<event>
 5   0  0.2864801E-07  0.2602746E+04  0.7818609E-02  0.8367269E-01
       -1   -1    0    0    0  501  0.00000000000E+00  0.00000000000E+00  0.14890196202E+04  0.14890196202E+04  0.50400001928E-02 0.  1.
        1   -1    0    0  501    0  0.00000000000E+00  0.00000000000E+00 -0.11373735405E+04  0.11373735405E+04  0.50400001928E-02 0. -1.
    10030    2    1    2    0    0  0.00000000000E+00  0.00000000000E+00  0.35164607970E+03  0.26263931608E+04  0.26027458711E+04 0.  0.
        5    1    3    3  502    0  0.11965986555E+04  0.50490643742E+03  0.92791950489E+02  0.13020796016E+04  0.46999998093E+01 0.  1.
       -5    1    3    3    0  502 -0.11965986555E+04 -0.50490643742E+03  0.25885412921E+03  0.13243135592E+04  0.46999998093E+01 0. -1.
</event>
<event>
 5   0  0.2793576E-07  0.2600530E+04  0.7818609E-02  0.8368021E-01
        1   -1    0    0  501    0  0.00000000000E+00  0.00000000000E+00  0.12710874894E+04  0.12710874894E+04  0.50400001928E-02 0. -1.
       -1   -1    0    0    0  501  0.00000000000E+00  0.00000000000E+00 -0.13301118894E+04  0.13301118894E+04  0.50400001928E-02 0.  1.
    10030    2    1    2    0    0  0.00000000000E+00  0.00000000000E+00 -0.59024400009E+02  0.26011993789E+04  0.26005296247E+04 0.  0.
        2    1    3    3  502    0 -0.74772440918E+03  0.10116162916E+04 -0.35857909868E+03  0.13080666204E+04  0.25500000920E-02 0.  1.
       -2    1    3    3    0  502  0.74772440918E+03 -0.10116162916E+04  0.29955469867E+03  0.12931327585E+04  0.25500000920E-02 0. -1.
</event>
<event>
 5   0  0.6599814E-07  0.2600846E+04  0.7818609E-02  0.8367914E-01
       -2   -1    0    0    0  501  0.00000000000E+00  0.00000000000E+00  0.98130297091E+03  0.98130297091E+03  0.25500000920E-02 0. -1.
        2   -1    0    0  501    0  0.00000000000E+00  0.00000000000E+00 -0.17233204461E+04  0.17233204462E+04  0.25500000920E-02 0.  1.
    10030    2    1    2    0    0  0.00000000000E+00  0.00000000000E+00 -0.74201747524E+03  0.27046234171E+04  0.26008456114E+04 0.  0.
        5    1    3    3  502    0 -0.40997832216E+02 -0.10385823283E+03 -0.17183175109E+04  0.17219478834E+04  0.46999998093E+01 0.  1.
       -5    1    3    3    0  502  0.40997832216E+02  0.10385823283E+03  0.97630003569E+03  0.98267553366E+03  0.46999998093E+01 0. -1.
</event>
<event>
 5   0  0.7160320E-07  0.2599277E+04  0.7818609E-02  0.8368447E-01
        2   -1    0    0  501    0  0.00000000000E+00  0.00000000000E+00  0.27703012692E+04  0.27703012692E+04  0.25500000920E-02 0.  1.
       -2   -1    0    0    0  501  0.00000000000E+00  0.00000000000E+00 -0.60970272960E+03  0.60970272961E+03  0.25500000920E-02 0. -1.
    10030    2    1    2    0    0  0.00000000000E+00  0.00000000000E+00  0.21605985396E+04  0.33800039988E+04  0.25992770115E+04 0.  0.
        1    1    3    3  502    0  0.48695312841E+03  0.68909986785E+03 -0.20507418080E+03  0.86835326728E+03  0.50400001928E-02 0. -1.
       -1    1    3    3    0  502 -0.48695312841E+03 -0.68909986785E+03  0.23656727204E+04  0.25116507315E+04  0.50400001928E-02 0.  1.
</event>
<event>
 5   0  0.2793576E-07  0.2600125E+04  0.7818609E-02  0.8368159E-01
        1   -1    0    0  501    0  0.00000000000E+00  0.00000000000E+00  0.97678083459E+03  0.97678083461E+03  0.50400001928E-02 0.  1.
       -1   -1    0    0    0  501  0.00000000000E+00  0.00000000000E+00 -0.17303400851E+04  0.17303400851E+04  0.50400001928E-02 0. -1.
    10030    2    1    2    0    0  0.00000000000E+00  0.00000000000E+00 -0.75355925051E+03  0.27071209197E+04  0.26001254066E+04 0.  0.
        2    1    3    3  502    0  0.11906689642E+04  0.41374404774E+03 -0.70813097296E+03  0.14457960417E+04  0.25500000920E-02 0.  1.
       -2    1    3    3    0  502 -0.11906689642E+04 -0.41374404774E+03 -0.45428277553E+02  0.12613248780E+04  0.25500000920E-02 0. -1.
</event>
<event>
 5   0  0.7160320E-07  0.2599713E+04  0.7818609E-02  0.8368299E-01
       -2   -1    0    0    0  501  0.00000000000E+00  0.00000000000E+00  0.15618258925E+04  0.15618258925E+04  0.25500000920E-02 0.  1.
        2   -1    0    0  501    0  0.00000000000E+00  0.00000000000E+00 -0.10818281831E+04  0.10818281831E+04  0.25500000920E-02 0. -1.
    10030    2    1    2    0    0  0.00000000000E+00  0.00000000000E+00  0.47999770938E+03  0.26436540757E+04  0.25997132670E+04 0.  0.
        1    1    3    3  502    0  0.25595607547E+03 -0.98310776396E+03  0.10646387304E+04  0.14715536057E+04  0.50400001928E-02 0.  1.
       -1    1    3    3    0  502 -0.25595607547E+03  0.98310776396E+03 -0.58464102105E+03  0.11721004699E+04  0.50400001928E-02 0. -1.
</event>
<event>
 5   0  0.2755061E-07  0.2600241E+04  0.7818609E-02  0.8368119E-01
        1   -1    0    0  501    0  0.00000000000E+00  0.00000000000E+00  0.13716595521E+04  0.13716595521E+04  0.50400001928E-02 0. -1.
       -1   -1    0    0    0  501  0.00000000000E+00  0.00000000000E+00 -0.12323129599E+04  0.12323129599E+04  0.50400001928E-02 0.  1.
    10030    2    1    2    0    0  0.00000000000E+00  0.00000000000E+00  0.13934659219E+03  0.26039725120E+04  0.26002414062E+04 0.  0.
        4    1    3    3  502    0 -0.93454576733E+03  0.89590780074E+03 -0.50020804117E+02  0.12955810559E+04  0.12699999809E+01 0.  1.
       -4    1    3    3    0  502  0.93454576733E+03 -0.89590780074E+03  0.18936739631E+03  0.13083914561E+04  0.12699999809E+01 0. -1.
</event>
<event>
 5   0  0.6526351E-07  0.2584256E+04  0.7818609E-02  0.8373569E-01
        2   -1    0    0  501    0  0.00000000000E+00  0.00000000000E+00  0.12891798096E+04  0.12891798096E+04  0.25500000920E-02 0. -1.
       -2   -1    0    0    0  501  0.00000000000E+00  0.00000000000E+00 -0.12950829160E+04  0.12950829160E+04  0.25500000920E-02 0.  1.
    10030    2    1    2    0    0  0.00000000000E+00  0.00000000000E+00 -0.59031064403E+01  0.25842627256E+04  0.25842559835E+04 0.  0.
        3    1    3    3  502    0 -0.48194861232E+03  0.36404473814E+03  0.11393262189E+04  0.12895221129E+04  0.10100000352E+00 0. -1.
       -3    1    3    3    0  502  0.48194861232E+03 -0.36404473814E+03 -0.11452293254E+04  0.12947406127E+04  0.10100000352E+00 0.  1.
</event>
<event>
 5   0  0.2755061E-07  0.2599871E+04  0.7818609E-02  0.8368245E-01
        1   -1    0    0  501    0  0.00000000000E+00  0.00000000000E+00  0.20415303048E+04  0.20415303048E+04  0.50400001928E-02 0.  1.
       -1   -1    0    0    0  501  0.00000000000E+00  0.00000000000E+00 -0.82772838421E+03  0.82772838422E+03  0.50400001928E-02 0. -1.
    10030    2    1    2    0    0  0.00000000000E+00  0.00000000000E+00  0.12138019206E+04  0.28692586891E+04  0.25998712126E+04 0.  0.
        4    1    3    3  502    0  0.11454423499E+03 -0.63241551856E+03  0.18539189192E+04  0.19621637907E+04  0.12699999809E+01 0.  1.
       -4    1    3    3    0  502 -0.11454423499E+03  0.63241551856E+03 -0.64011699854E+03  0.90709489834E+03  0.12699999809E+01 0. -1.
</event>
<event>
 5   0  0.6526351E-07  0.2599475E+04  0.7818609E-02  0.8368379E-01
        2   -1    0    0  501    0  0.00000000000E+00  0.00000000000E+00  0.22017066533E+04  0.22017066533E+04  0.25500000920E-02 0.  1.
       -2   -1    0    0    0  501  0.00000000000E+00  0.00000000000E+00 -0.76727658923E+03  0.76727658923E+03  0.25500000920E-02 0. -1.
    10030    2    1    2    0    0  0.00000000000E+00  0.00000000000E+00  0.14344300641E+04  0.29689832425E+04  0.25994753097E+04 0.  0.
        3    1    3    3  502    0  0.87122432128E+03 -0.63890206016E+03  0.15424827595E+04  0.18832102204E+04  0.10100000352E+00 0. -1.
       -3    1    3    3    0  502 -0.87122432128E+03  0.63890206016E+03 -0.10805269546E+03  0.10857730222E+04  0.10100000352E+00 0.  1.
</event>
<event>
 5   0  0.6768478E-07  0.2599136E+04  0.7818609E-02  0.8368495E-01
        2   -1    0    0  501    0  0.00000000000E+00  0.00000000000E+00  0.21559664108E+04  0.21559664108E+04  0.25500000920E-02 0.  1.
       -2   -1    0    0    0  501  0.00000000000E+00  0.00000000000E+00 -0.78335058929E+03  0.78335058929E+03  0.25500000920E-02 0. -1.
    10030    2    1    2    0    0  0.00000000000E+00  0.00000000000E+00  0.13726158215E+04  0.29393170001E+04  0.25991364400E+04 0.  0.
        4    1    3    3  502    0 -0.29170906932E+03 -0.87127330979E+03 -0.35303651431E+03  0.98430064249E+03  0.12699999809E+01 0. -1.
       -4    1    3    3    0  502  0.29170906932E+03  0.87127330979E+03  0.17256523358E+04  0.19550163576E+04  0.12699999809E+01 0.  1.
</event>
<event>
 5   0  0.6780984E-07  0.2599802E+04  0.7818609E-02  0.8368268E-01
        2   -1    0    0  501    0  0.00000000000E+00  0.00000000000E+00  0.15455942840E+04  0.15455942840E+04  0.25500000920E-02 0. -1.
       -2   -1    0    0    0  501  0.00000000000E+00  0.00000000000E+00 -0.10932640072E+04  0.10932640072E+04  0.25500000920E-02 0.  1.
    10030    2    1    2    0    0  0.00000000000E+00  0.00000000000E+00  0.45233027676E+03  0.26388582912E+04  0.25998019928E+04 0.  0.
        2    1    3    3  502    0  0.78788541033E+03 -0.15516138755E+03 -0.81139676760E+03  0.11415792528E+04  0.25500000920E-02 0.  1.
       -2    1    3    3    0  502 -0.78788541033E+03  0.15516138755E+03  0.12637270444E+04  0.14972790383E+04  0.25500000920E-02 0. -1.
</event>
<event>
 5   0  0.6780984E-07  0.2591840E+04  0.7818609E-02  0.8370978E-01
       -2   -1    0    0    0  501  0.00000000000E+00  0.00000000000E+00  0.83559570104E+03  0.83559570105E+03  0.25500000920E-02 0.  1.
        2   -1    0    0  501    0  0.00000000000E+00  0.00000000000E+00 -0.20098347065E+04  0.20098347065E+04  0.25500000920E-02 0. -1.
    10030    2    1    2    0    0  0.00000000000E+00  0.00000000000E+00 -0.11742390054E+04  0.28454304075E+04  0.25918404585E+04 0.  0.
        2    1    3    3  502    0  0.68748222704E+03 -0.50541915840E+03  0.48367232749E+03  0.98082580439E+03  0.25500000920E-02 0.  1.
       -2    1    3    3    0  502 -0.68748222704E+03  0.50541915840E+03 -0.16579113329E+04  0.18646046031E+04  0.25500000920E-02 0. -1.
</event>
<event>
 5   0  0.2755061E-07  0.2599491E+04  0.7818609E-02  0.8368374E-01
       -1   -1    0    0    0  501  0.00000000000E+00  0.00000000000E+00  0.11995243664E+04  0.11995243665E+04  0.50400001928E-02 0.  1.
        1   -1    0    0  501    0  0.00000000000E+00  0.00000000000E+00 -0.14083405831E+04  0.14083405831E+04  0.50400001928E-02 0. -1.
    10030    2    1    2    0    0  0.00000000000E+00  0.00000000000E+00 -0.20881621666E+03  0.26078649496E+04  0.25994913700E+04 0.  0.
        4    1    3    3  502    0 -0.10578017087E+02  0.10133636957E+04 -0.92085970352E+03  0.13693071535E+04  0.12699999809E+01 0. -1.
       -4    1    3    3    0  502  0.10578017087E+02 -0.10133636957E+04  0.71204348686E+03  0.12385577961E+04  0.12699999809E+01 0.  1.
</event>
<event>
 5   0  0.6780984E-07  0.2601522E+04  0.7818609E-02  0.8367684E-01
       -2   -1    0    0    0  501  0.00000000000E+00  0.00000000000E+00  0.11091762258E+04  0.11091762258E+04  0.25500000920E-02 0. -1.
        2   -1    0    0  501    0  0.00000000000E+00  0.00000000000E+00 -0.15254379028E+04  0.15254379028E+04  0.25500000920E-02 0.  1.
    10030    2    1    2    0    0  0.00000000000E+00  0.00000000000E+00 -0.41626167696E+03  0.26346141286E+04  0.26015222126E+04 0.  0.
        2    1    3    3  502    0 -0.16758219017E+03  0.12681451637E+04 -0.44714891961E+03  0.13550712538E+04  0.25500000920E-02 0. -1.
       -2    1    3    3    0  502  0.16758219017E+03 -0.12681451637E+04  0.30887242643E+02  0.12795428748E+04  0.25500000920E-02 0.  1.
</event>
<event>
 5   0  0.6599814E-07  0.2597389E+04  0.7818609E-02  0.8369089E-01
        2   -1    0    0  501    0  0.00000000000E+00  0.00000000000E+00  0.16560555125E+04  0.16560555125E+04  0.25500000920E-02 0.  1.
       -2   -1    0    0    0  501  0.00000000000E+00  0.00000000000E+00 -0.10184488807E+04  0.10184488807E+04  0.25500000920E-02 0. -1.
    10030    2    1    2    0    0  0.00000000000E+00  0.00000000000E+00  0.63760663180E+03  0.26745043932E+04  0.25973893686E+04 0.  0.
        5    1    3    3  502    0 -0.77041525480E+03  0.96960663604E+02  0.13906920941E+04  0.15927923988E+04  0.46999998093E+01 0.  1.
       -5    1    3    3    0  502  0.77041525480E+03 -0.96960663604E+02 -0.75308546233E+03  0.10817119943E+04  0.46999998093E+01 0. -1.
</event>
<event>
 5   0  0.6599814E-07  0.2601575E+04  0.7818609E-02  0.8367666E-01
        2   -1    0    0  501    0  0.00000000000E+00  0.00000000000E+00  0.17033273833E+04  0.17033273833E+04  0.25500000920E-02 0.  1.
       -2   -1    0    0    0  501  0.00000000000E+00  0.00000000000E+00 -0.99337845109E+03  0.99337845109E+03  0.25500000920E-02 0. -1.
    10030    2    1    2    0    0  0.00000000000E+00  0.00000000000E+00  0.70994893224E+03  0.26967058344E+04  0.26015754594E+04 0.  0.
        5    1    3    3  502    0  0.10592467617E+04  0.32359923956E+03  0.10620514284E+04  0.15345017096E+04  0.46999998093E+01 0.  1.
       -5    1    3    3    0  502 -0.10592467617E+04 -0.32359923956E+03 -0.35210249617E+03  0.11622041249E+04  0.46999998093E+01 0. -1.
</event>
<event>
 5   0  0.6526351E-07  0.2600080E+04  0.7818609E-02  0.8368174E-01
        2   -1    0    0  501    0  0.00000000000E+00  0.00000000000E+00  0.12285574303E+04  0.12285574303E+04  0.25500000920E-02 0. -1.
       -2   -1    0    0    0  501  0.00000000000E+00  0.00000000000E+00 -0.13756812252E+04  0.13756812252E+04  0.25500000920E-02 0.  1.
    10030    2    1    2    0    0  0.00000000000E+00  0.00000000000E+00 -0.14712379485E+03  0.26042386555E+04  0.26000795303E+04 0.  0.
        3    1    3    3  502    0 -0.91671459038E+03  0.67921736866E+03  0.55065367910E+03  0.12668549083E+04  0.10100000352E+00 0. -1.
       -3    1    3    3    0  502  0.91671459038E+03 -0.67921736866E+03 -0.69777747396E+03  0.13373837473E+04  0.10100000352E+00 0.  1.
</event>
<event>
 5   0  0.2864801E-07  0.2599746E+04  0.7818609E-02  0.8368287E-01
        1   -1    0    0  501    0  0.00000000000E+00  0.00000000000E+00  0.97611671516E+03  0.97611671517E+03  0.50400001928E-02 0. -1.
       -1   -1    0    0    0  501  0.00000000000E+00  0.00000000000E+00 -0.17310122046E+04  0.17310122046E+04  0.50400001928E-02 0.  1.
    10030    2    1    2    0    0  0.00000000000E+00  0.00000000000E+00 -0.75489548947E+03  0.27071289198E+04  0.25997461008E+04 0.  0.
        5    1    3    3  502    0  0.49759243632E+03  0.11905307684E+04 -0.54105568130E+03  0.13991872939E+04  0.46999998093E+01 0.  1.
       -5    1    3    3    0  502 -0.49759243632E+03 -0.11905307684E+04 -0.21383980817E+03  0.13079416259E+04  0.46999998093E+01 0. -1.
</event>
<event>
 5   0  0.2623263E-07  0.2597454E+04  0.7818609E-02  0.8369066E-01
        1   -1    0    0  501    0  0.00000000000E+00  0.00000000000E+00  0.96530125541E+03  0.96530125542E+03  0.50400001928E-02 0.  1.
       -1   -1    0    0    0  501  0.00000000000E+00  0.00000000000E+00 -0.17473223188E+04  0.17473223188E+04  0.50400001928E-02 0. -1.
    10030    2    1    2    0    0  0.00000000000E+00  0.00000000000E+00 -0.78202106342E+03  0.27126235742E+04  0.25974544677E+04 0.  0.
        1    1    3    3  502    0 -0.72459531342E+03 -0.98407754619E+03  0.68077762084E+02  0.12239614238E+04  0.50400001928E-02 0.  1.
       -1    1    3    3    0  502  0.72459531342E+03  0.98407754619E+03 -0.85009882550E+03  0.14886621505E+04  0.50400001928E-02 0. -1.
</event>
<event>
 5   0  0.6526351E-07  0.2599457E+04  0.7818609E-02  0.8368386E-01
        2   -1    0    0  501    0  0.00000000000E+00  0.00000000000E+00  0.18173420419E+04  0.18173420419E+04  0.25500000920E-02 0.  1.
       -2   -1    0    0    0  501  0.00000000000E+00  0.00000000000E+00 -0.92954101763E+03  0.92954101763E+03  0.25500000920E-02 0. -1.
    10030    2    1    2    0    0  0.00000000000E+00  0.00000000000E+00  0.88780102425E+03  0.27468830595E+04  0.25994568440E+04 0.  0.
        3    1    3    3  502    0  0.73676390923E+03 -0.85866131917E+03 -0.23204452547E+03  0.11549740218E+04  0.10100000352E+00 0. -1.
       -3    1    3    3    0  502 -0.73676390923E+03  0.85866131917E+03  0.11198455497E+04  0.15919090377E+04  0.10100000352E+00 0.  1.
</event>
<event>
 5   0  0.2793576E-07  0.2600852E+04  0.7818609E-02  0.8367912E-01
       -1   -1    0    0    0  501  0.00000000000E+00  0.00000000000E+00  0.14656772432E+04  0.14656772432E+04  0.50400001928E-02 0.  1.
        1   -1    0    0  501    0  0.00000000000E+00  0.00000000000E+00 -0.11538059732E+04  0.11538059732E+04  0.50400001928E-02 0. -1.
    10030    2    1    2    0    0  0.00000000000E+00  0.00000000000E+00  0.31187127008E+03  0.26194832164E+04  0.26008515206E+04 0.  0.
        2    1    3    3  502    0 -0.48741055769E+03  0.70585213030E+03  0.11403374863E+04  0.14269428385E+04  0.25500000920E-02 0.  1.
       -2    1    3    3    0  502  0.48741055769E+03 -0.70585213030E+03 -0.82846621623E+03  0.11925403779E+04  0.25500000920E-02 0. -1.
</event>
<event>
 5   0  0.6768478E-07  0.2604531E+04  0.7818609E-02  0.8366664E-01
        2   -1    0    0  501    0  0.00000000000E+00  0.00000000000E+00  0.14201125269E+04  0.14201125269E+04  0.25500000920E-02 0.  1.
       -2   -1    0    0    0  501  0.00000000000E+00  0.00000000000E+00 -0.11941983747E+04  0.11941983747E+04  0.25500000920E-02 0. -1.
    10030    2    1    2    0    0  0.00000000000E+00  0.00000000000E+00  0.22591415216E+03  0.26143109015E+04  0.26045314907E+04 0.  0.
        4    1    3    3  502    0 -0.68149482162E+03 -0.70623309788E+03  0.97214657791E+03  0.13814018106E+04  0.12699999809E+01 0.  1.
       -4    1    3    3    0  502  0.68149482162E+03  0.70623309788E+03 -0.74623242575E+03  0.12329090910E+04  0.12699999809E+01 0. -1.
</event>
<event>
 5   0  0.2755061E-07  0.2600947E+04  0.7818609E-02  0.8367880E-01
        1   -1    0    0  501    0  0.00000000000E+00  0.00000000000E+00  0.19965081631E+04  0.19965081631E+04  0.50400001928E-02 0.  1.
       -1   -1    0    0    0  501  0.00000000000E+00  0.00000000000E+00 -0.84709471286E+03  0.84709471287E+03  0.50400001928E-02 0. -1.
    10030    2    1    2    0    0  0.00000000000E+00  0.00000000000E+00  0.11494134502E+04  0.28436028759E+04  0.26009471422E+04 0.  0.
        4    1    3    3  502    0 -0.29360634666E+03  0.12343204311E+04  0.88678127464E+03  0.15479451719E+04  0.12699999809E+01 0.  1.
       -4    1    3    3    0  502  0.29360634666E+03 -0.12343204311E+04  0.26263217557E+03  0.12956577040E+04  0.12699999809E+01 0. -1.
</event>
<event>
 5   0  0.6768478E-07  0.2599121E+04  0.7818609E-02  0.8368500E-01
        2   -1    0    0  501    0  0.00000000000E+00  0.00000000000E+00  0.15266984107E+04  0.15266984107E+04  0.25500000920E-02 0.  1.
       -2   -1    0    0    0  501  0.00000000000E+00  0.00000000000E+00 -0.11062152614E+04  0.11062152614E+04  0.25500000920E-02 0. -1.
    10030    2    1    2    0    0  0.00000000000E+00  0.00000000000E+00  0.42048314938E+03  0.26329136721E+04  0.25991206832E+04 0.  0.
        4    1    3    3  502    0  0.10021486254E+04 -0.43851048105E+03  0.92097771679E+03  0.14299632433E+04  0.12699999809E+01 0.  1.
       -4    1    3    3    0  502 -0.10021486254E+04  0.43851048105E+03 -0.50049456741E+03  0.12029504288E+04  0.12699999809E+01 0. -1.
</event>
<event>
 5   0  0.7160320E-07  0.2597066E+04  0.7818609E-02  0.8369199E-01
       -2   -1    0    0    0  501  0.00000000000E+00  0.00000000000E+00  0.27562496567E+04  0.27562496567E+04  0.25500000920E-02 0. -1.
        2   -1    0    0  501    0  0.00000000000E+00  0.00000000000E+00 -0.61176878984E+03  0.61176878985E+03  0.25500000920E-02 0.  1.
    10030    2    1    2    0    0  0.00000000000E+00  0.00000000000E+00  0.21444808669E+04  0.33680184466E+04  0.25970656649E+04 0.  0.
        1    1    3    3  502    0 -0.68496480685E+03  0.10656827747E+04  0.14420851888E+04  0.19194963544E+04  0.50400001928E-02 0. -1.
       -1    1    3    3    0  502  0.68496480685E+03 -0.10656827747E+04  0.70239567805E+03  0.14485220921E+04  0.50400001928E-02 0.  1.
</event>
<event>
 5   0  0.6780984E-07  0.2599955E+04  0.7818609E-02  0.8368217E-01
        2   -1    0    0  501    0  0.00000000000E+00  0.00000000000E+00  0.19124428839E+04  0.19124428839E+04  0.25500000920E-02 0.  1.
       -2   -1    0    0    0  501  0.00000000000E+00  0.00000000000E+00 -0.88365560705E+03  0.88365560705E+03  0.25500000920E-02 0. -1.
    10030    2    1    2    0    0  0.00000000000E+00  0.00000000000E+00  0.10287872769E+04  0.27960984910E+04  0.25999545208E+04 0.  0.
        2    1    3    3  502    0  0.33693796283E+02 -0.78708607917E+03  0.16264754112E+04  0.18072249531E+04  0.25500000920E-02 0.  1.
       -2    1    3    3    0  502 -0.33693796283E+02  0.78708607917E+03 -0.59768813433E+03  0.98887353785E+03  0.25500000920E-02 0. -1.
</event>
<event>
 5   0  0.2641626E-07  0.2599905E+04  0.7818609E-02  0.8368233E-01
        1   -1    0    0  501    0  0.00000000000E+00  0.00000000000E+00  0.89532964461E+03  0.89532964462E+03  0.50400001928E-02 0.  1.
       -1   -1    0    0    0  501  0.00000000000E+00  0.00000000000E+00 -0.18874355302E+04  0.18874355302E+04  0.50400001928E-02 0. -1.
    10030    2    1    2    0    0  0.00000000000E+00  0.00000000000E+00 -0.99210588560E+03  0.27827651748E+04  0.25999053694E+04 0.  0.
        3    1    3    3  502    0 -0.12146042908E+04  0.43449271560E+03 -0.66807207749E+03  0.14527105060E+04  0.10100000352E+00 0.  1.
       -3    1    3    3    0  502  0.12146042908E+04 -0.43449271560E+03 -0.32403380812E+03  0.13300546689E+04  0.10100000352E+00 0. -1.
</event>
<event>
 5   0  0.2623263E-07  0.2596213E+04  0.7818609E-02  0.8369489E-01
        1   -1    0    0  501    0  0.00000000000E+00  0.00000000000E+00  0.22218745321E+04  0.22218745321E+04  0.50400001928E-02 0.  1.
       -1   -1    0    0    0  501  0.00000000000E+00  0.00000000000E+00 -0.75840480038E+03  0.75840480040E+03  0.50400001928E-02 0. -1.
    10030    2    1    2    0    0  0.00000000000E+00  0.00000000000E+00  0.14634697317E+04  0.29802793325E+04  0.25962128657E+04 0.  0.
        1    1    3    3  502    0 -0.82600017608E+03 -0.98363215912E+03  0.51614394965E+03  0.13842734889E+04  0.50400001928E-02 0. -1.
       -1    1    3    3    0  502  0.82600017608E+03  0.98363215912E+03  0.94732578202E+03  0.15960058435E+04  0.50400001928E-02 0.  1.
</event>
<event>
 5   0  0.2793576E-07  0.2599511E+04  0.7818609E-02  0.8368367E-01
        1   -1    0    0  501    0  0.00000000000E+00  0.00000000000E+00  0.55068891097E+03  0.55068891099E+03  0.50400001928E-02 0. -1.
       -1   -1    0    0    0  501  0.00000000000E+00  0.00000000000E+00 -0.30677293657E+04  0.30677293657E+04  0.50400001928E-02 0.  1.
    10030    2    1    2    0    0  0.00000000000E+00  0.00000000000E+00 -0.25170404547E+04  0.36184182766E+04  0.25995111414E+04 0.  0.
        2    1    3    3  502    0  0.41038936383E+03  0.90655412698E+03 -0.94667027388E+02  0.99961075483E+03  0.25500000920E-02 0. -1.
       -2    1    3    3    0  502 -0.41038936383E+03 -0.90655412698E+03 -0.24223734273E+04  0.26188075218E+04  0.25500000920E-02 0.  1.
</event>
<event>
 5   0  0.6780984E-07  0.2600008E+04  0.7818609E-02  0.8368198E-01
       -2   -1    0    0    0  501  0.00000000000E+00  0.00000000000E+00  0.86843011988E+03  0.86843011988E+03  0.25500000920E-02 0. -1.
        2   -1    0    0  501    0  0.00000000000E+00  0.00000000000E+00 -0.19460522530E+04  0.19460522530E+04  0.25500000920E-02 0.  1.
    10030    2    1    2    0    0  0.00000000000E+00  0.00000000000E+00 -0.10776221332E+04  0.28144823729E+04  0.26000079934E+04 0.  0.
        2    1    3    3  502    0 -0.12935844110E+04  0.72237541228E+02 -0.65454893275E+03  0.14515554403E+04  0.25500000920E-02 0.  1.
       -2    1    3    3    0  502  0.12935844110E+04 -0.72237541228E+02 -0.42307320041E+03  0.13629269326E+04  0.25500000920E-02 0. -1.
</event>
<event>
 5   0  0.6599814E-07  0.2600808E+04  0.7818609E-02  0.8367927E-01
        2   -1    0    0  501    0  0.00000000000E+00  0.00000000000E+00  0.13376767111E+04  0.13376767111E+04  0.25500000920E-02 0.  1.
       -2   -1    0    0    0  501  0.00000000000E+00  0.00000000000E+00 -0.12641700223E+04  0.12641700223E+04  0.25500000920E-02 0. -1.
    10030    2    1    2    0    0  0.00000000000E+00  0.00000000000E+00  0.73506688744E+02  0.26018467334E+04  0.26008081803E+04 0.  0.
        5    1    3    3  502    0 -0.49219505857E+03  0.28221683299E+03 -0.11338106423E+04  0.12678529012E+04  0.46999998093E+01 0. -1.
       -5    1    3    3    0  502  0.49219505857E+03 -0.28221683299E+03  0.12073173310E+04  0.13339938322E+04  0.46999998093E+01 0.  1.
</event>
<event>
 5   0  0.2623263E-07  0.2602845E+04  0.7818609E-02  0.8367235E-01
       -1   -1    0    0    0  501  0.00000000000E+00  0.00000000000E+00  0.30303722900E+04  0.30303722900E+04  0.50400001928E-02 0.  1.
        1   -1    0    0  501    0  0.00000000000E+00  0.00000000000E+00 -0.55890848061E+03  0.55890848064E+03  0.50400001928E-02 0. -1.
    10030    2    1    2    0    0  0.00000000000E+00  0.00000000000E+00  0.24714638094E+04  0.35892807707E+04  0.26028451912E+04 0.  0.
        1    1    3    3  502    0 -0.51004662337E+03 -0.45507983070E+03 -0.29142971999E+03  0.74308579049E+03  0.50400001928E-02 0. -1.
       -1    1    3    3    0  502  0.51004662337E+03  0.45507983070E+03  0.27628935294E+04  0.28461949802E+04  0.50400001928E-02 0.  1.
</event>
<event>
 5   0  0.7160320E-07  0.2599330E+04  0.7818609E-02  0.8368429E-01
       -2   -1    0    0    0  501  0.00000000000E+00  0.00000000000E+00  0.13472471923E+04  0.13472471923E+04  0.25500000920E-02 0.  1.
        2   -1    0    0  501    0  0.00000000000E+00  0.00000000000E+00 -0.12537635744E+04  0.12537635744E+04  0.25500000920E-02 0. -1.
    10030    2    1    2    0    0  0.00000000000E+00  0.00000000000E+00  0.93483617936E+02  0.26010107667E+04  0.25993302641E+04 0.  0.
        1    1    3    3  502    0 -0.51406447295E+03 -0.80286206060E+03 -0.83716369159E+03  0.12687367013E+04  0.50400001928E-02 0. -1.
       -1    1    3    3    0  502  0.51406447295E+03  0.80286206060E+03  0.93064730952E+03  0.13322740654E+04  0.50400001928E-02 0.  1.
</event>
<event>
 5   0  0.2623263E-07  0.2601737E+04  0.7818609E-02  0.8367611E-01
        1   -1    0    0  501    0  0.00000000000E+00  0.00000000000E+00  0.10599646876E+04  0.10599646877E+04  0.50400001928E-02 0.  1.
       -1   -1    0    0    0  501  0.00000000000E+00  0.00000000000E+00 -0.15965240029E+04  0.15965240029E+04  0.50400001928E-02 0. -1.
    10030    2    1    2    0    0  0.00000000000E+00  0.00000000000E+00 -0.53655931523E+03  0.26564886905E+04  0.26017371628E+04 0.  0.
        1    1    3    3  502    0  0.38640600947E+03 -0.94960026391E+02  0.99630413821E+03  0.10728228869E+04  0.50400001928E-02 0.  1.
       -1    1    3    3    0  502 -0.38640600947E+03  0.94960026391E+02 -0.15328634534E+04  0.15836658037E+04  0.50400001928E-02 0. -1.
</event>
<event>
 5   0  0.6599814E-07  0.2599216E+04  0.7818609E-02  0.8368468E-01
       -2   -1    0    0    0  501  0.00000000000E+00  0.00000000000E+00  0.76290144326E+03  0.76290144326E+03  0.25500000920E-02 0. -1.
        2   -1    0    0  501    0  0.00000000000E+00  0.00000000000E+00 -0.22138913905E+04  0.22138913905E+04  0.25500000920E-02 0.  1.
    10030    2    1    2    0    0  0.00000000000E+00  0.00000000000E+00 -0.14509899473E+04  0.29767928338E+04  0.25992159872E+04 0.  0.
        5    1    3    3  502    0 -0.91511823372E+03 -0.82749637992E+03 -0.25780122066E+03  0.12604265944E+04  0.46999998093E+01 0.  1.
       -5    1    3    3    0  502  0.91511823372E+03  0.82749637992E+03 -0.11931887266E+04  0.17163662394E+04  0.46999998093E+01 0. -1.
</event>
<event>
 5   0  0.7160320E-07  0.2599992E+04  0.7818609E-02  0.8368204E-01
        2   -1    0    0  501    0  0.00000000000E+00  0.00000000000E+00  0.10198399848E+04  0.10198399848E+04  0.25500000920E-02 0. -1.
       -2   -1    0    0    0  501  0.00000000000E+00  0.00000000000E+00 -0.16571119068E+04  0.16571119068E+04  0.25500000920E-02 0.  1.
    10030    2    1    2    0    0  0.00000000000E+00  0.00000000000E+00 -0.63727192202E+03  0.26769518916E+04  0.25999915244E+04 0.  0.
        1    1    3    3  502    0 -0.50099572924E+03 -0.10848200438E+04  0.20853316929E+03  0.12129787017E+04  0.50400001928E-02 0. -1.
       -1    1    3    3    0  502  0.50099572924E+03  0.10848200438E+04 -0.84580509131E+03  0.14639731898E+04  0.50400001928E-02 0.  1.
</event>
<event>
 5   0  0.6599814E-07  0.2608105E+04  0.7818609E-02  0.8365453E-01
        2   -1    0    0  501    0  0.00000000000E+00  0.00000000000E+00  0.22040615754E+04  0.22040615754E+04  0.25500000920E-02 0. -1.
       -2   -1    0    0    0  501  0.00000000000E+00  0.00000000000E+00 -0.77155395631E+03  0.77155395632E+03  0.25500000920E-02 0.  1.
    10030    2    1    2    0    0  0.00000000000E+00  0.00000000000E+00  0.14325076191E+04  0.29756155317E+04  0.26081046209E+04 0.  0.
        5    1    3    3  502    0  0.35492848323E+03 -0.18028618678E+03  0.21330306818E+04  0.21698661979E+04  0.46999998093E+01 0. -1.
       -5    1    3    3    0  502 -0.35492848323E+03  0.18028618678E+03 -0.70052306277E+03  0.80574933374E+03  0.46999998093E+01 0.  1.
</event>
<event>
 5   0  0.6599814E-07  0.2599005E+04  0.7818609E-02  0.8368539E-01
       -2   -1    0    0    0  501  0.00000000000E+00  0.00000000000E+00  0.12432538998E+04  0.12432538998E+04  0.25500000920E-02 0.  1.
        2   -1    0    0  501    0  0.00000000000E+00  0.00000000000E+00 -0.13582961313E+04  0.13582961313E+04  0.25500000920E-02 0. -1.
    10030    2    1    2    0    0  0.00000000000E+00  0.00000000000E+00 -0.11504223146E+03  0.26015500311E+04  0.25990051653E+04 0.  0.
        5    1    3    3  502    0 -0.60770485438E+03 -0.50534600542E+03  0.97499513076E+03  0.12551164768E+04  0.46999998093E+01 0.  1.
       -5    1    3    3    0  502  0.60770485438E+03  0.50534600542E+03 -0.10900373622E+04  0.13464335543E+04  0.46999998093E+01 0. -1.
</event>
<event>
 5   0  0.2294625E-07  0.2598759E+04  0.7818609E-02  0.8368623E-01
        4   -1    0    0  501    0  0.00000000000E+00  0.00000000000E+00  0.12123033643E+04  0.12123040295E+04  0.12699999809E+01 0. -1.
       -4   -1    0    0    0  501  0.00000000000E+00  0.00000000000E+00 -0.13927090242E+04  0.13927096033E+04  0.12699999809E+01 0.  1.
    10030    2    1    2    0    0  0.00000000000E+00  0.00000000000E+00 -0.18040565994E+03  0.26050136328E+04  0.25987592857E+04 0.  0.
        5    1    3    3  502    0 -0.12675903584E+04 -0.18557219605E+03 -0.30784978619E+03  0.13175795754E+04  0.46999998093E+01 0. -1.
       -5    1    3    3    0  502  0.12675903584E+04  0.18557219605E+03  0.12744412625E+03  0.12874340573E+04  0.46999998093E+01 0.  1.
</event>
<event>
 5   0  0.6526351E-07  0.2592364E+04  0.7818609E-02  0.8370800E-01
        2   -1    0    0  501    0  0.00000000000E+00  0.00000000000E+00  0.17614330445E+04  0.17614330445E+04  0.25500000920E-02 0.  1.
       -2   -1    0    0    0  501  0.00000000000E+00  0.00000000000E+00 -0.95381872578E+03  0.95381872578E+03  0.25500000920E-02 0. -1.
    10030    2    1    2    0    0  0.00000000000E+00  0.00000000000E+00  0.80761431873E+03  0.27152517703E+04  0.25923640347E+04 0.  0.
        3    1    3    3  502    0  0.83715340499E+03  0.36282420791E+03  0.13681131503E+04  0.16444454480E+04  0.10100000352E+00 0.  1.
       -3    1    3    3    0  502 -0.83715340499E+03 -0.36282420791E+03 -0.56049883159E+03  0.10708063222E+04  0.10100000352E+00 0. -1.
</event>
<event>
 5   0  0.2793576E-07  0.2600475E+04  0.7818609E-02  0.8368040E-01
        1   -1    0    0  501    0  0.00000000000E+00  0.00000000000E+00  0.17608115962E+04  0.17608115962E+04  0.50400001928E-02 0. -1.
       -1   -1    0    0    0  501  0.00000000000E+00  0.00000000000E+00 -0.96013518991E+03  0.96013518992E+03  0.50400001928E-02 0.  1.
    10030    2    1    2    0    0  0.00000000000E+00  0.00000000000E+00  0.80067640631E+03  0.27209467861E+04  0.26004747077E+04 0.  0.
        2    1    3    3  502    0 -0.93338215084E+03 -0.90512277333E+03  0.38678828799E+03  0.13564861422E+04  0.25500000920E-02 0. -1.
       -2    1    3    3    0  502  0.93338215084E+03  0.90512277333E+03  0.41388811832E+03  0.13644606439E+04  0.25500000920E-02 0.  1.
</event>
<event>
 5   0  0.6768478E-07  0.2599324E+04  0.7818609E-02  0.8368431E-01
        2   -1    0    0  501    0  0.00000000000E+00  0.00000000000E+00  0.17818691767E+04  0.17818691767E+04  0.25500000920E-02 0. -1.
       -2   -1    0    0    0  501  0.00000000000E+00  0.00000000000E+00 -0.94794889938E+03  0.94794889939E+03  0.25500000920E-02 0.  1.
    10030    2    1    2    0    0  0.00000000000E+00  0.00000000000E+00  0.83392027730E+03  0.27298180761E+04  0.25993237004E+04 0.  0.
        4    1    3    3  502    0  0.69662814516E+03 -0.73000542683E+03 -0.44325861646E+03  0.11021245437E+04  0.12699999809E+01 0.  1.
       -4    1    3    3    0  502 -0.69662814516E+03  0.73000542683E+03  0.12771788938E+04  0.16276935324E+04  0.12699999809E+01 0. -1.
</event>
<event>
 5   0  0.2641626E-07  0.2596844E+04  0.7818609E-02  0.8369274E-01
       -1   -1    0    0    0  501  0.00000000000E+00  0.00000000000E+00  0.98444934626E+03  0.98444934627E+03  0.50400001928E-02 0.  1.
        1   -1    0    0  501    0  0.00000000000E+00  0.00000000000E+00 -0.17125300333E+04  0.17125300334E+04  0.50400001928E-02 0. -1.
    10030    2    1    2    0    0  0.00000000000E+00  0.00000000000E+00 -0.72808068709E+03  0.26969793796E+04  0.25968435238E+04 0.  0.
        3    1    3    3  502    0  0.29793664917E+03  0.44544809463E+03 -0.15923150246E+04  0.16800766053E+04  0.10100000352E+00 0. -1.
       -3    1    3    3    0  502 -0.29793664917E+03 -0.44544809463E+03  0.86423433755E+03  0.10169027743E+04  0.10100000352E+00 0.  1.
</event>
<event>
 5   0  0.6526351E-07  0.2600272E+04  0.7818609E-02  0.8368109E-01
       -2   -1    0    0    0  501  0.00000000000E+00  0.00000000000E+00  0.12629744985E+04  0.12629744985E+04  0.25500000920E-02 0.  1.
        2   -1    0    0  501    0  0.00000000000E+00  0.00000000000E+00 -0.13383912492E+04  0.13383912492E+04  0.25500000920E-02 0. -1.
    10030    2    1    2    0    0  0.00000000000E+00  0.00000000000E+00 -0.75416750671E+02  0.26013657477E+04  0.26002723063E+04 0.  0.
        3    1    3    3  502    0  0.65901428062E+03 -0.76961296703E+03  0.77734279502E+03  0.12770535511E+04  0.10100000352E+00 0.  1.
       -3    1    3    3    0  502 -0.65901428062E+03  0.76961296703E+03 -0.85275954569E+03  0.13243121966E+04  0.10100000352E+00 0. -1.
</event>
<event>
 5   0  0.2755061E-07  0.2600456E+04  0.7818609E-02  0.8368046E-01
       -1   -1    0    0    0  501  0.00000000000E+00  0.00000000000E+00  0.88671578010E+03  0.88671578012E+03  0.50400001928E-02 0. -1.
        1   -1    0    0  501    0  0.00000000000E+00  0.00000000000E+00 -0.19065780220E+04  0.19065780220E+04  0.50400001928E-02 0.  1.
    10030    2    1    2    0    0  0.00000000000E+00  0.00000000000E+00 -0.10198622419E+04  0.27932938021E+04  0.26004559739E+04 0.  0.
        4    1    3    3  502    0 -0.11214518570E+02 -0.11576706072E+04  0.12578758517E+03  0.11645390203E+04  0.12699999809E+01 0. -1.
       -4    1    3    3    0  502  0.11214518570E+02  0.11576706072E+04 -0.11456498270E+04  0.16287547818E+04  0.12699999809E+01 0.  1.
</event>
<event>
 5   0  0.7160320E-07  0.2599149E+04  0.7818609E-02  0.8368490E-01
       -2   -1    0    0    0  501  0.00000000000E+00  0.00000000000E+00  0.12682591843E+04  0.12682591843E+04  0.25500000920E-02 0.  1.
        2   -1    0    0  501    0  0.00000000000E+00  0.00000000000E+00 -0.13316632979E+04  0.13316632979E+04  0.25500000920E-02 0. -1.
    10030    2    1    2    0    0  0.00000000000E+00  0.00000000000E+00 -0.63404113666E+02  0.25999224822E+04  0.25991492516E+04 0.  0.
        1    1    3    3  502    0 -0.66750127060E+03 -0.44304019781E+03 -0.10552618842E+04  0.13249227175E+04  0.50400001928E-02 0. -1.
       -1    1    3    3    0  502  0.66750127060E+03  0.44304019781E+03  0.99185777050E+03  0.12749997647E+04  0.50400001928E-02 0.  1.
</event>
<event>
 5   0  0.2864801E-07  0.2599925E+04  0.7818609E-02  0.8368227E-01
        1   -1    0    0  501    0  0.00000000000E+00  0.00000000000E+00  0.21078803344E+04  0.21078803344E+04  0.50400001928E-02 0. -1.
       -1   -1    0    0    0  501  0.00000000000E+00  0.00000000000E+00 -0.80170732994E+03  0.80170732996E+03  0.50400001928E-02 0.  1.
    10030    2    1    2    0    0  0.00000000000E+00  0.00000000000E+00  0.13061730044E+04  0.29095876643E+04  0.25999254718E+04 0.  0.
        5    1    3    3  502    0  0.69517017447E+03  0.34072575297E+03  0.18217472124E+04  0.19794293638E+04  0.46999998093E+01 0. -1.
       -5    1    3    3    0  502 -0.69517017447E+03 -0.34072575297E+03 -0.51557420797E+03  0.93015830058E+03  0.46999998093E+01 0.  1.
</event>
<event>
 5   0  0.2755061E-07  0.2601552E+04  0.7818609E-02  0.8367674E-01
       -1   -1    0    0    0  501  0.00000000000E+00  0.00000000000E+00  0.14415298829E+04  0.14415298829E+04  0.50400001928E-02 0.  1.
        1   -1    0    0  501    0  0.00000000000E+00  0.00000000000E+00 -0.11737658654E+04  0.11737658654E+04  0.50400001928E-02 0. -1.
    10030    2    1    2    0    0  0.00000000000E+00  0.00000000000E+00  0.26776401754E+03  0.26152957483E+04  0.26015522832E+04 0.  0.
        4    1    3    3  502    0  0.10585685136E+04 -0.32657043285E+03 -0.55148306472E+03  0.12374775671E+04  0.12699999809E+01 0. -1.
       -4    1    3    3    0  502 -0.10585685136E+04  0.32657043285E+03  0.81924708226E+03  0.13778181812E+04  0.12699999809E+01 0.  1.
</event>
<event>
 5   0  0.6526351E-07  0.2601814E+04  0.7818609E-02  0.8367585E-01
       -2   -1    0    0    0  501  0.00000000000E+00  0.00000000000E+00  0.22561895485E+04  0.22561895485E+04  0.25500000920E-02 0.  1.
        2   -1    0    0  501    0  0.00000000000E+00  0.00000000000E+00 -0.75009624315E+03  0.75009624315E+03  0.25500000920E-02 0. -1.
    10030    2    1    2    0    0  0.00000000000E+00  0.00000000000E+00  0.15060933054E+04  0.30062857917E+04  0.26018142164E+04 0.  0.
        3    1    3    3  502    0 -0.36288400784E+03  0.10085919544E+04  0.16048130374E+04  0.19298620233E+04  0.10100000352E+00 0.  1.
       -3    1    3    3    0  502  0.36288400784E+03 -0.10085919544E+04 -0.98719732041E+02  0.10764237684E+04  0.10100000352E+00 0. -1.
</event>
<event>
 5   0  0.2864801E-07  0.2598090E+04  0.7818609E-02  0.8368850E-01
       -1   -1    0    0    0  501  0.00000000000E+00  0.00000000000E+00  0.83896400337E+03  0.83896400338E+03  0.50400001928E-02 0. -1.
        1   -1    0    0  501    0  0.00000000000E+00  0.00000000000E+00 -0.20114307203E+04  0.20114307203E+04  0.50400001928E-02 0.  1.
    10030    2    1    2    0    0  0.00000000000E+00  0.00000000000E+00 -0.11724667170E+04  0.28503947237E+04  0.25980900444E+04 0.  0.
        5    1    3    3  502    0 -0.24075274433E+02  0.55662276872E+03 -0.18736868571E+04  0.19547718675E+04  0.46999998093E+01 0.  1.
       -5    1    3    3    0  502  0.24075274433E+02 -0.55662276872E+03  0.70122014018E+03  0.89562285617E+03  0.46999998093E+01 0. -1.
</event>
<event>
 5   0  0.2641626E-07  0.2601310E+04  0.7818609E-02  0.8367756E-01
       -1   -1    0    0    0  501  0.00000000000E+00  0.00000000000E+00  0.98278782883E+03  0.98278782884E+03  0.50400001928E-02 0. -1.
        1   -1    0    0  501    0  0.00000000000E+00  0.00000000000E+00 -0.17213308613E+04  0.17213308613E+04  0.50400001928E-02 0.  1.
    10030    2    1    2    0    0  0.00000000000E+00  0.00000000000E+00 -0.73854303247E+03  0.27041186901E+04  0.26013096854E+04 0.  0.
        3    1    3    3  502    0  0.10385078069E+03  0.12651647012E+04 -0.66380005038E+03  0.14325003396E+04  0.10100000352E+00 0. -1.
       -3    1    3    3    0  502 -0.10385078069E+03 -0.12651647012E+04 -0.74742982096E+02  0.12716183505E+04  0.10100000352E+00 0.  1.
</event>
<event>
 5   0  0.2793576E-07  0.2599994E+04  0.7818609E-02  0.8368203E-01
        1   -1    0    0  501    0  0.00000000000E+00  0.00000000000E+00  0.15031180576E+04  0.15031180577E+04  0.50400001928E-02 0.  1.
       -1   -1    0    0    0  501  0.00000000000E+00  0.00000000000E+00 -0.11243240481E+04  0.11243240481E+04  0.50400001928E-02 0. -1.
    10030    2    1    2    0    0  0.00000000000E+00  0.00000000000E+00  0.37879400951E+03  0.26274421058E+04  0.25999936765E+04 0.  0.
        2    1    3    3  502    0  0.95388488749E+00  0.12386578188E+04 -0.20937973864E+03  0.12562300653E+04  0.25500000920E-02 0. -1.
       -2    1    3    3    0  502 -0.95388488749E+00 -0.12386578188E+04  0.58817374815E+03  0.13712120405E+04  0.25500000920E-02 0.  1.
</event>
<event>
 5   0  0.6780984E-07  0.2599962E+04  0.7818609E-02  0.8368214E-01
       -2   -1    0    0    0  501  0.00000000000E+00  0.00000000000E+00  0.94822898693E+03  0.94822898694E+03  0.25500000920E-02 0. -1.
        2   -1    0    0  501    0  0.00000000000E+00  0.00000000000E+00 -0.17822174598E+04  0.17822174598E+04  0.25500000920E-02 0.  1.
    10030    2    1    2    0    0  0.00000000000E+00  0.00000000000E+00 -0.83398847287E+03  0.27304464467E+04  0.25999617354E+04 0.  0.
        2    1    3    3  502    0  0.91302802996E+03 -0.61752493888E+03 -0.11407804753E+04  0.15862967335E+04  0.25500000920E-02 0. -1.
       -2    1    3    3    0  502 -0.91302802996E+03  0.61752493888E+03  0.30679200248E+03  0.11441497133E+04  0.25500000920E-02 0.  1.
</event>
<event>
 5   0  0.2793576E-07  0.2599884E+04  0.7818609E-02  0.8368241E-01
       -1   -1    0    0    0  501  0.00000000000E+00  0.00000000000E+00  0.10040701822E+04  0.10040701822E+04  0.50400001928E-02 0. -1.
        1   -1    0    0  501    0  0.00000000000E+00  0.00000000000E+00 -0.16829989430E+04  0.16829989430E+04  0.50400001928E-02 0.  1.
    10030    2    1    2    0    0  0.00000000000E+00  0.00000000000E+00 -0.67892876078E+03  0.26870691252E+04  0.25998838861E+04 0.  0.
        2    1    3    3  502    0 -0.81901198525E+02  0.63485143434E+03 -0.15088228551E+04  0.16389907132E+04  0.25500000920E-02 0.  1.
       -2    1    3    3    0  502  0.81901198525E+02 -0.63485143434E+03  0.82989409428E+03  0.10480784120E+04  0.25500000920E-02 0. -1.
</event>
<event>
 5   0  0.2793576E-07  0.2599989E+04  0.7818609E-02  0.8368205E-01
       -1   -1    0    0    0  501  0.00000000000E+00  0.00000000000E+00  0.14238172012E+04  0.14238172012E+04  0.50400001928E-02 0. -1.
        1   -1    0    0  501    0  0.00000000000E+00  0.00000000000E+00 -0.11869403547E+04  0.11869403547E+04  0.50400001928E-02 0.  1.
    10030    2    1    2    0    0  0.00000000000E+00  0.00000000000E+00  0.23687684649E+03  0.26107575559E+04  0.25999893029E+04 0.  0.
        2    1    3    3  502    0 -0.65965945444E+03 -0.73261713160E+03 -0.73248358219E+03  0.12281737074E+04  0.25500000920E-02 0.  1.
       -2    1    3    3    0  502  0.65965945444E+03  0.73261713160E+03  0.96936042868E+03  0.13825838485E+04  0.25500000920E-02 0. -1.
</event>
<event>
 5   0  0.2641626E-07  0.2600475E+04  0.7818609E-02  0.8368040E-01
        1   -1    0    0  501    0  0.00000000000E+00  0.00000000000E+00  0.13149513012E+04  0.13149513012E+04  0.50400001928E-02 0.  1.
       -1   -1    0    0    0  501  0.00000000000E+00  0.00000000000E+00 -0.12856880433E+04  0.12856880433E+04  0.50400001928E-02 0. -1.
    10030    2    1    2    0    0  0.00000000000E+00  0.00000000000E+00  0.29263257893E+02  0.26006393444E+04  0.26004746993E+04 0.  0.
        3    1    3    3  502    0 -0.64149478320E+03 -0.97271580093E+03  0.59166518746E+03  0.13068126455E+04  0.10100000352E+00 0.  1.
       -3    1    3    3    0  502  0.64149478320E+03  0.97271580093E+03 -0.56240192957E+03  0.12938266989E+04  0.10100000352E+00 0. -1.
</event>
<event>
 5   0  0.7160320E-07  0.2599873E+04  0.7818609E-02  0.8368244E-01
        2   -1    0    0  501    0  0.00000000000E+00  0.00000000000E+00  0.12409635357E+04  0.12409635357E+04  0.25500000920E-02 0. -1.
       -2   -1    0    0    0  501  0.00000000000E+00  0.00000000000E+00 -0.13617115296E+04  0.13617115296E+04  0.25500000920E-02 0.  1.
    10030    2    1    2    0    0  0.00000000000E+00  0.00000000000E+00 -0.12074799390E+03  0.26026750653E+04  0.25998725772E+04 0.  0.
        1    1    3    3  502    0 -0.11538099984E+04 -0.59845270561E+03 -0.40074041527E+02  0.13003957405E+04  0.50400001928E-02 0. -1.
       -1    1    3    3    0  502  0.11538099984E+04  0.59845270561E+03 -0.80673952373E+02  0.13022793248E+04  0.50400001928E-02 0.  1.
</event>
<event>
 5   0  0.6768478E-07  0.2598657E+04  0.7818609E-02  0.8368658E-01
       -2   -1    0    0    0  501  0.00000000000E+00  0.00000000000E+00  0.21440054716E+04  0.21440054716E+04  0.25500000920E-02 0. -1.
        2   -1    0    0  501    0  0.00000000000E+00  0.00000000000E+00 -0.78743010817E+03  0.78743010818E+03  0.25500000920E-02 0.  1.
    10030    2    1    2    0    0  0.00000000000E+00  0.00000000000E+00  0.13565753634E+04  0.29314355797E+04  0.25986569303E+04 0.  0.
        4    1    3    3  502    0 -0.78171901353E+03 -0.97527001877E+03  0.27784042505E+03  0.12804035068E+04  0.12699999809E+01 0.  1.
       -4    1    3    3    0  502  0.78171901353E+03  0.97527001877E+03  0.10787349383E+04  0.16510320729E+04  0.12699999809E+01 0. -1.
</event>
<event>
 5   0  0.2623263E-07  0.2599640E+04  0.7818609E-02  0.8368324E-01
        1   -1    0    0  501    0  0.00000000000E+00  0.00000000000E+00  0.12419286703E+04  0.12419286703E+04  0.50400001928E-02 0. -1.
       -1   -1    0    0    0  501  0.00000000000E+00  0.00000000000E+00 -0.13604095494E+04  0.13604095494E+04  0.50400001928E-02 0.  1.
    10030    2    1    2    0    0  0.00000000000E+00  0.00000000000E+00 -0.11848087906E+03  0.26023382197E+04  0.25996396849E+04 0.  0.
        1    1    3    3  502    0  0.48245464988E+03  0.87531777409E+03 -0.89111927112E+03  0.13390434086E+04  0.50400001928E-02 0.  1.
       -1    1    3    3    0  502 -0.48245464988E+03 -0.87531777409E+03  0.77263839206E+03  0.12632948111E+04  0.50400001928E-02 0. -1.
</event>
<event>
 5   0  0.7160320E-07  0.2599866E+04  0.7818609E-02  0.8368247E-01
        2   -1    0    0  501    0  0.00000000000E+00  0.00000000000E+00  0.12450982413E+04  0.12450982413E+04  0.25500000920E-02 0. -1.
       -2   -1    0    0    0  501  0.00000000000E+00  0.00000000000E+00 -0.13571826690E+04  0.13571826690E+04  0.25500000920E-02 0.  1.
    10030    2    1    2    0    0  0.00000000000E+00  0.00000000000E+00 -0.11208442765E+03  0.26022809103E+04  0.25998659614E+04 0.  0.
        1    1    3    3  502    0  0.11415938989E+04 -0.34029424641E+03 -0.57689943194E+03  0.13235746140E+04  0.50400001928E-02 0.  1.
       -1    1    3    3    0  502 -0.11415938989E+04  0.34029424641E+03  0.46481500429E+03  0.12787062964E+04  0.50400001928E-02 0. -1.
</event>
<event>
 5   0  0.6768478E-07  0.2600123E+04  0.7818609E-02  0.8368159E-01
        2   -1    0    0  501    0  0.00000000000E+00  0.00000000000E+00  0.21522075060E+04  0.21522075060E+04  0.25500000920E-02 0.  1.
       -2   -1    0    0    0  501  0.00000000000E+00  0.00000000000E+00 -0.78531473660E+03  0.78531473661E+03  0.25500000920E-02 0. -1.
    10030    2    1    2    0    0  0.00000000000E+00  0.00000000000E+00  0.13668927694E+04  0.29375222426E+04  0.26001232822E+04 0.  0.
        4    1    3    3  502    0 -0.54154205160E+02 -0.47578757712E+02 -0.78305443557E+03  0.78636650367E+03  0.12699999809E+01 0. -1.
       -4    1    3    3    0  502  0.54154205160E+02  0.47578757712E+02  0.21499472050E+04  0.21511557390E+04  0.12699999809E+01 0.  1.
</event>
<event>
 5   0  0.6599814E-07  0.2599921E+04  0.7818609E-02  0.8368228E-01
        2   -1    0    0  501    0  0.00000000000E+00  0.00000000000E+00  0.83209871428E+03  0.83209871428E+03  0.25500000920E-02 0.  1.
       -2   -1    0    0    0  501  0.00000000000E+00  0.00000000000E+00 -0.20308855817E+04  0.20308855817E+04  0.25500000920E-02 0. -1.
    10030    2    1    2    0    0  0.00000000000E+00  0.00000000000E+00 -0.11987868675E+04  0.28629842960E+04  0.25999209845E+04 0.  0.
        5    1    3    3  502    0  0.52563689824E+03  0.11584445100E+04 -0.89402345000E+03  0.15548594311E+04  0.46999998093E+01 0. -1.
       -5    1    3    3    0  502 -0.52563689824E+03 -0.11584445100E+04 -0.30476341746E+03  0.13081248649E+04  0.46999998093E+01 0.  1.
</event>
<event>
 5   0  0.7160320E-07  0.2599195E+04  0.7818609E-02  0.8368475E-01
       -2   -1    0    0    0  501  0.00000000000E+00  0.00000000000E+00  0.99460402595E+03  0.99460402595E+03  0.25500000920E-02 0.  1.
        2   -1    0    0  501    0  0.00000000000E+00  0.00000000000E+00 -0.16981165881E+04  0.16981165881E+04  0.25500000920E-02 0. -1.
    10030    2    1    2    0    0  0.00000000000E+00  0.00000000000E+00 -0.70351256215E+03  0.26927206141E+04  0.25991949485E+04 0.  0.
        1    1    3    3  502    0  0.59869015376E+03  0.10845622876E+04 -0.75863285809E+03  0.14526627514E+04  0.50400001928E-02 0. -1.
       -1    1    3    3    0  502 -0.59869015376E+03 -0.10845622876E+04  0.55120295943E+02  0.12400578627E+04  0.50400001928E-02 0.  1.
</event>
<event>
 5   0  0.6599814E-07  0.2601152E+04  0.7818609E-02  0.8367810E-01
       -2   -1    0    0    0  501  0.00000000000E+00  0.00000000000E+00  0.88447299982E+03  0.88447299982E+03  0.25500000920E-02 0.  1.
        2   -1    0    0  501    0  0.00000000000E+00  0.00000000000E+00 -0.19124363423E+04  0.19124363423E+04  0.25500000920E-02 0. -1.
    10030    2    1    2    0    0  0.00000000000E+00  0.00000000000E+00 -0.10279633425E+04  0.27969093421E+04  0.26011522897E+04 0.  0.
        5    1    3    3  502    0  0.10084558652E+04 -0.54212434616E+03  0.14936977656E+03  0.11546494961E+04  0.46999998093E+01 0.  1.
       -5    1    3    3    0  502 -0.10084558652E+04  0.54212434616E+03 -0.11773331190E+04  0.16422598460E+04  0.46999998093E+01 0. -1.
</event>
<event>
 5   0  0.7160320E-07  0.2600767E+04  0.7818609E-02  0.8367941E-01
       -2   -1    0    0    0  501  0.00000000000E+00  0.00000000000E+00  0.94411002342E+03  0.94411002343E+03  0.25500000920E-02 0.  1.
        2   -1    0    0  501    0  0.00000000000E+00  0.00000000000E+00 -0.17911019259E+04  0.17911019259E+04  0.25500000920E-02 0. -1.
    10030    2    1    2    0    0  0.00000000000E+00  0.00000000000E+00 -0.84699190252E+03  0.27352119494E+04  0.26007670263E+04 0.  0.
        1    1    3    3  502    0 -0.48807329594E+03 -0.66932236260E+03  0.63071382316E+03  0.10411569978E+04  0.50400001928E-02 0.  1.
       -1    1    3    3    0  502  0.48807329594E+03  0.66932236260E+03 -0.14777057257E+04  0.16940549516E+04  0.50400001928E-02 0. -1.
</event>
<event>
 5   0  0.2755061E-07  0.2600131E+04  0.7818609E-02  0.8368157E-01
        1   -1    0    0  501    0  0.00000000000E+00  0.00000000000E+00  0.19151238458E+04  0.19151238459E+04  0.50400001928E-02 0.  1.
       -1   -1    0    0    0  501  0.00000000000E+00  0.00000000000E+00 -0.88253870306E+03  0.88253870308E+03  0.50400001928E-02 0. -1.
    10030    2    1    2    0    0  0.00000000000E+00  0.00000000000E+00  0.10325851428E+04  0.27976625489E+04  0.26001314699E+04 0.  0.
        4    1    3    3  502    0  0.10359358513E+04  0.73047708168E+03  0.20554507117E+03  0.12841379381E+04  0.12699999809E+01 0. -1.
       -4    1    3    3    0  502 -0.10359358513E+04 -0.73047708168E+03  0.82704007162E+03  0.15135246109E+04  0.12699999809E+01 0.  1.
</event>
<event>
 5   0  0.2641626E-07  0.2602825E+04  0.7818609E-02  0.8367242E-01
        1   -1    0    0  501    0  0.00000000000E+00  0.00000000000E+00  0.17974332682E+04  0.17974332682E+04  0.50400001928E-02 0.  1.
       -1   -1    0    0    0  501  0.00000000000E+00  0.00000000000E+00 -0.94227389069E+03  0.94227389070E+03  0.50400001928E-02 0. -1.
    10030    2    1    2    0    0  0.00000000000E+00  0.00000000000E+00  0.85515937752E+03  0.27397071589E+04  0.26028249568E+04 0.  0.
        3    1    3    3  502    0  0.69710273623E+03  0.62499665084E+03 -0.52389481904E+03  0.10728647771E+04  0.10100000352E+00 0. -1.
       -3    1    3    3    0  502 -0.69710273623E+03 -0.62499665084E+03  0.13790541966E+04  0.16668423818E+04  0.10100000352E+00 0.  1.
</event>
<event>
 5   0  0.7160320E-07  0.2599030E+04  0.7818609E-02  0.8368531E-01
        2   -1    0    0  501    0  0.00000000000E+00  0.00000000000E+00  0.10489644996E+04  0.10489644996E+04  0.25500000920E-02 0. -1.
       -2   -1    0    0    0  501  0.00000000000E+00  0.00000000000E+00 -0.16099109327E+04  0.16099109327E+04  0.25500000920E-02 0.  1.
    10030    2    1    2    0    0  0.00000000000E+00  0.00000000000E+00 -0.56094643310E+03  0.26588754323E+04  0.25990301391E+04 0.  0.
        1    1    3    3  502    0 -0.52490076372E+03  0.30365584561E+03 -0.14562909687E+04  0.15775015277E+04  0.50400001928E-02 0.  1.
       -1    1    3    3    0  502  0.52490076372E+03 -0.30365584561E+03  0.89534453556E+03  0.10813739047E+04  0.50400001928E-02 0. -1.
</event>
<event>
 5   0  0.2793576E-07  0.2595205E+04  0.7818609E-02  0.8369832E-01
       -1   -1    0    0    0  501  0.00000000000E+00  0.00000000000E+00  0.92155738800E+03  0.92155738801E+03  0.50400001928E-02 0.  1.
        1   -1    0    0  501    0  0.00000000000E+00  0.00000000000E+00 -0.18270946385E+04  0.18270946385E+04  0.50400001928E-02 0. -1.
    10030    2    1    2    0    0  0.00000000000E+00  0.00000000000E+00 -0.90553725049E+03  0.27486520265E+04  0.25952052425E+04 0.  0.
        2    1    3    3  502    0  0.41392397824E+03 -0.11926949967E+04 -0.77036221566E+03  0.14789565099E+04  0.25500000920E-02 0.  1.
       -2    1    3    3    0  502 -0.41392397824E+03  0.11926949967E+04 -0.13517503482E+03  0.12696955166E+04  0.25500000920E-02 0. -1.
</event>
<event>
 5   0  0.6780984E-07  0.2599189E+04  0.7818609E-02  0.8368477E-01
        2   -1    0    0  501    0  0.00000000000E+00  0.00000000000E+00  0.12688762791E+04  0.12688762791E+04  0.25500000920E-02 0. -1.
       -2   -1    0    0    0  501  0.00000000000E+00  0.00000000000E+00 -0.13310567556E+04  0.13310567556E+04  0.25500000920E-02 0.  1.
    10030    2    1    2    0    0  0.00000000000E+00  0.00000000000E+00 -0.62180476479E+02  0.25999330347E+04  0.25991893685E+04 0.  0.
        2    1    3    3  502    0  0.14752504745E+03  0.28739984986E+03  0.12280725412E+04  0.12698521488E+04  0.25500000920E-02 0. -1.
       -2    1    3    3    0  502 -0.14752504745E+03 -0.28739984986E+03 -0.12902530177E+04  0.13300808859E+04  0.25500000920E-02 0.  1.
</event>
<event>
 5   0  0.2755061E-07  0.2599962E+04  0.7818609E-02  0.8368214E-01
       -1   -1    0    0    0  501  0.00000000000E+00  0.00000000000E+00  0.95921599589E+03  0.95921599590E+03  0.50400001928E-02 0.  1.
        1   -1    0    0  501    0  0.00000000000E+00  0.00000000000E+00 -0.17618046394E+04  0.17618046394E+04  0.50400001928E-02 0. -1.
    10030    2    1    2    0    0  0.00000000000E+00  0.00000000000E+00 -0.80258864356E+03  0.27210206353E+04  0.25999624550E+04 0.  0.
        4    1    3    3  502    0 -0.86527843392E+03  0.24840673522E+03 -0.13827976852E+04  0.16500132501E+04  0.12699999809E+01 0. -1.
       -4    1    3    3    0  502  0.86527843392E+03 -0.24840673522E+03  0.58020904168E+03  0.10710073852E+04  0.12699999809E+01 0.  1.
</event>
<event>
 5   0  0.6599814E-07  0.2599360E+04  0.7818609E-02  0.8368418E-01
       -2   -1    0    0    0  501  0.00000000000E+00  0.00000000000E+00  0.60681630375E+03  0.60681630376E+03  0.25500000920E-02 0. -1.
        2   -1    0    0  501    0  0.00000000000E+00  0.00000000000E+00 -0.27836573904E+04  0.27836573904E+04  0.25500000920E-02 0.  1.
    10030    2    1    2    0    0  0.00000000000E+00  0.00000000000E+00 -0.21768410867E+04  0.33904736942E+04  0.25993604510E+04 0.  0.
        5    1    3    3  502    0 -0.12451126548E+04 -0.29460806343E+03 -0.13859927797E+04  0.18862920001E+04  0.46999998093E+01 0.  1.
       -5    1    3    3    0  502  0.12451126548E+04  0.29460806343E+03 -0.79084830693E+03  0.15041816941E+04  0.46999998093E+01 0. -1.
</event>
<event>
 5   0  0.2623263E-07  0.2600013E+04  0.7818609E-02  0.8368197E-01
        1   -1    0    0  501    0  0.00000000000E+00  0.00000000000E+00  0.10554874930E+04  0.10554874930E+04  0.50400001928E-02 0. -1.
       -1   -1    0    0    0  501  0.00000000000E+00  0.00000000000E+00 -0.16011721916E+04  0.16011721916E+04  0.50400001928E-02 0.  1.
    10030    2    1    2    0    0  0.00000000000E+00  0.00000000000E+00 -0.54568469859E+03  0.26566596845E+04  0.26000132479E+04 0.  0.
        1    1    3    3  502    0 -0.57911873027E+03 -0.67231543401E+03  0.69792555429E+03  0.11289316303E+04  0.50400001928E-02 0. -1.
       -1    1    3    3    0  502  0.57911873027E+03  0.67231543401E+03 -0.12436102529E+04  0.15277280542E+04  0.50400001928E-02 0.  1.
</event>
<event>
 5   0  0.7160320E-07  0.2600278E+04  0.7818609E-02  0.8368107E-01
        2   -1    0    0  501    0  0.00000000000E+00  0.00000000000E+00  0.12072186182E+04  0.12072186182E+04  0.25500000920E-02 0. -1.
       -2   -1    0    0    0  501  0.00000000000E+00  0.00000000000E+00 -0.14002116781E+04  0.14002116781E+04  0.25500000920E-02 0.  1.
    10030    2    1    2    0    0  0.00000000000E+00  0.00000000000E+00 -0.19299305990E+03  0.26074302964E+04  0.26002781446E+04 0.  0.
        1    1    3    3  502    0 -0.10025594603E+04  0.24634426360E+03  0.69596233929E+03  0.12450600569E+04  0.50400001928E-02 0. -1.
       -1    1    3    3    0  502  0.10025594603E+04 -0.24634426360E+03 -0.88895539919E+03  0.13623702395E+04  0.50400001928E-02 0.  1.
</event>
<event>
 5   0  0.2793576E-07  0.2603685E+04  0.7818609E-02  0.8366951E-01
        1   -1    0    0  501    0  0.00000000000E+00  0.00000000000E+00  0.18189979430E+04  0.18189979430E+04  0.50400001928E-02 0. -1.
       -1   -1    0    0    0  501  0.00000000000E+00  0.00000000000E+00 -0.93171808995E+03  0.93171808996E+03  0.50400001928E-02 0.  1.
    10030    2    1    2    0    0  0.00000000000E+00  0.00000000000E+00  0.88727985307E+03  0.27507160330E+04  0.26036845347E+04 0.  0.
        2    1    3    3  502    0  0.91489842794E+03 -0.24349003684E+03 -0.50039011585E+03  0.10708486352E+04  0.25500000920E-02 0.  1.
       -2    1    3    3    0  502 -0.91489842794E+03  0.24349003684E+03  0.13876699689E+04  0.16798673978E+04  0.25500000920E-02 0. -1.
</event>
<event>
 5   0  0.2793576E-07  0.2604744E+04  0.7818609E-02  0.8366592E-01
        1   -1    0    0  501    0  0.00000000000E+00  0.00000000000E+00  0.17372840349E+04  0.17372840349E+04  0.50400001928E-02 0. -1.
       -1   -1    0    0    0  501  0.00000000000E+00  0.00000000000E+00 -0.97633589162E+03  0.97633589163E+03  0.50400001928E-02 0.  1.
    10030    2    1    2    0    0  0.00000000000E+00  0.00000000000E+00  0.76094814329E+03  0.27136199266E+04  0.26047439469E+04 0.  0.
        2    1    3    3  502    0  0.63586287069E+03  0.18282211457E+03 -0.78821245621E+03  0.10290891079E+04  0.25500000920E-02 0.  1.
       -2    1    3    3    0  502 -0.63586287069E+03 -0.18282211457E+03  0.15491605995E+04  0.16845308186E+04  0.25500000920E-02 0. -1.
</event>
<event>
 5   0  0.2641626E-07  0.2600708E+04  0.7818609E-02  0.8367961E-01
       -1   -1    0    0    0  501  0.00000000000E+00  0.00000000000E+00  0.17891327160E+04  0.17891327160E+04  0.50400001928E-02 0. -1.
        1   -1    0    0  501    0  0.00000000000E+00  0.00000000000E+00 -0.94510652839E+03  0.94510652840E+03  0.50400001928E-02 0.  1.
    10030    2    1    2    0    0  0.00000000000E+00  0.00000000000E+00  0.84402618764E+03  0.27342392444E+04  0.26007083728E+04 0.  0.
        3    1    3    3  502    0  0.12512925948E+04  0.21642570197E+02  0.79330196725E+03  0.14817319529E+04  0.10100000352E+00 0. -1.
       -3    1    3    3    0  502 -0.12512925948E+04 -0.21642570197E+02  0.50724220387E+02  0.12525072916E+04  0.10100000352E+00 0.  1.
</event>
<event>
 5   0  0.2864801E-07  0.2601884E+04  0.7818609E-02  0.8367561E-01
        1   -1    0    0  501    0  0.00000000000E+00  0.00000000000E+00  0.11150582839E+04  0.11150582839E+04  0.50400001928E-02 0. -1.
       -1   -1    0    0    0  501  0.00000000000E+00  0.00000000000E+00 -0.15178133579E+04  0.15178133580E+04  0.50400001928E-02 0.  1.
    10030    2    1    2    0    0  0.00000000000E+00  0.00000000000E+00 -0.40275507403E+03  0.26328716419E+04  0.26018842082E+04 0.  0.
        5    1    3    3  502    0  0.11401011748E+04 -0.62423402889E+03 -0.25614659337E+03  0.13248139412E+04  0.46999998093E+01 0.  1.
       -5    1    3    3    0  502 -0.11401011748E+04  0.62423402889E+03 -0.14660848066E+03  0.13080577006E+04  0.46999998093E+01 0. -1.
</event>
<event>
 5   0  0.2755061E-07  0.2599790E+04  0.7818609E-02  0.8368273E-01
        1   -1    0    0  501    0  0.00000000000E+00  0.00000000000E+00  0.17526728067E+04  0.17526728067E+04  0.50400001928E-02 0.  1.
       -1   -1    0    0    0  501  0.00000000000E+00  0.00000000000E+00 -0.96408561044E+03  0.96408561046E+03  0.50400001928E-02 0. -1.
    10030    2    1    2    0    0  0.00000000000E+00  0.00000000000E+00  0.78858719623E+03  0.27167584171E+04  0.25997897090E+04 0.  0.
        4    1    3    3  502    0 -0.27461821833E+03 -0.10074142440E+03 -0.92924551612E+03  0.97419856423E+03  0.12699999809E+01 0. -1.
       -4    1    3    3    0  502  0.27461821833E+03  0.10074142440E+03  0.17178327123E+04  0.17425598529E+04  0.12699999809E+01 0.  1.
</event>
<event>
 5   0  0.6768478E-07  0.2599289E+04  0.7818609E-02  0.8368443E-01
       -2   -1    0    0    0  501  0.00000000000E+00  0.00000000000E+00  0.87874491213E+03  0.87874491213E+03  0.25500000920E-02 0.  1.
        2   -1    0    0  501    0  0.00000000000E+00  0.00000000000E+00 -0.19221453758E+04  0.19221453758E+04  0.25500000920E-02 0. -1.
    10030    2    1    2    0    0  0.00000000000E+00  0.00000000000E+00 -0.10434004637E+04  0.28008902879E+04  0.25992887253E+04 0.  0.
        4    1    3    3  502    0 -0.12125021998E+04 -0.42495187087E+03 -0.31073996305E+03  0.13218572595E+04  0.12699999809E+01 0.  1.
       -4    1    3    3    0  502  0.12125021998E+04  0.42495187087E+03 -0.73266050063E+03  0.14790330284E+04  0.12699999809E+01 0. -1.
</event>
<event>
 5   0  0.7160320E-07  0.2601402E+04  0.7818609E-02  0.8367725E-01
        2   -1    0    0  501    0  0.00000000000E+00  0.00000000000E+00  0.16852903637E+04  0.16852903637E+04  0.25500000920E-02 0.  1.
       -2   -1    0    0    0  501  0.00000000000E+00  0.00000000000E+00 -0.10038765531E+04  0.10038765531E+04  0.25500000920E-02 0. -1.
    10030    2    1    2    0    0  0.00000000000E+00  0.00000000000E+00  0.68141381058E+03  0.26891669167E+04  0.26014022997E+04 0.  0.
        1    1    3    3  502    0  0.97926778285E+03 -0.82262300365E+03  0.58566011057E+03  0.14066526799E+04  0.50400001928E-02 0.  1.
       -1    1    3    3    0  502 -0.97926778285E+03  0.82262300365E+03  0.95753700012E+02  0.12825142369E+04  0.50400001928E-02 0. -1.
</event>
<event>
 5   0  0.6599814E-07  0.2599725E+04  0.7818609E-02  0.8368295E-01
       -2   -1    0    0    0  501  0.00000000000E+00  0.00000000000E+00  0.93861560681E+03  0.93861560682E+03  0.25500000920E-02 0.  1.
        2   -1    0    0  501    0  0.00000000000E+00  0.00000000000E+00 -0.18001426043E+04  0.18001426043E+04  0.25500000920E-02 0. -1.
    10030    2    1    2    0    0  0.00000000000E+00  0.00000000000E+00 -0.86152699748E+03  0.27387582111E+04  0.25997245569E+04 0.  0.
        5    1    3    3  502    0 -0.11003503151E+04 -0.62112523523E+03 -0.75212239723E+03  0.14704684846E+04  0.46999998093E+01 0.  1.
       -5    1    3    3    0  502  0.11003503151E+04  0.62112523523E+03 -0.10940460025E+03  0.12682897265E+04  0.46999998093E+01 0. -1.
</event>
<event>
 5   0  0.6780984E-07  0.2599001E+04  0.7818609E-02  0.8368540E-01
       -2   -1    0    0    0  501  0.00000000000E+00  0.00000000000E+00  0.19358321241E+04  0.19358321241E+04  0.25500000920E-02 0. -1.
        2   -1    0    0  501    0  0.00000000000E+00  0.00000000000E+00 -0.87233909096E+03  0.87233909096E+03  0.25500000920E-02 0.  1.
    10030    2    1    2    0    0  0.00000000000E+00  0.00000000000E+00  0.10634930332E+04  0.28081712151E+04  0.25990013739E+04 0.  0.
        2    1    3    3  502    0 -0.11414994388E+04 -0.46349630524E+03  0.97835545921E+03  0.15732225521E+04  0.25500000920E-02 0.  1.
       -2    1    3    3    0  502  0.11414994388E+04  0.46349630524E+03  0.85137573953E+02  0.12349486630E+04  0.25500000920E-02 0. -1.
</event>
<event>
 5   0  0.2793576E-07  0.2599569E+04  0.7818609E-02  0.8368348E-01
       -1   -1    0    0    0  501  0.00000000000E+00  0.00000000000E+00  0.85971344968E+03  0.85971344970E+03  0.50400001928E-02 0. -1.
        1   -1    0    0  501    0  0.00000000000E+00  0.00000000000E+00 -0.19651190320E+04  0.19651190320E+04  0.50400001928E-02 0.  1.
    10030    2    1    2    0    0  0.00000000000E+00  0.00000000000E+00 -0.11054055823E+04  0.28248324817E+04  0.25995686273E+04 0.  0.
        2    1    3    3  502    0 -0.17151250495E+03  0.12826374075E+04 -0.42022004775E+03  0.13605734625E+04  0.25500000920E-02 0. -1.
       -2    1    3    3    0  502  0.17151250495E+03 -0.12826374075E+04 -0.68518553452E+03  0.14642590191E+04  0.25500000920E-02 0.  1.
</event>
<event>
 5   0  0.2623263E-07  0.2584674E+04  0.7818609E-02  0.8373426E-01
        1   -1    0    0  501    0  0.00000000000E+00  0.00000000000E+00  0.10589626839E+04  0.10589626839E+04  0.50400001928E-02 0. -1.
       -1   -1    0    0    0  501  0.00000000000E+00  0.00000000000E+00 -0.15771418487E+04  0.15771418487E+04  0.50400001928E-02 0.  1.
    10030    2    1    2    0    0  0.00000000000E+00  0.00000000000E+00 -0.51817916478E+03  0.26361045326E+04  0.25846735693E+04 0.  0.
        1    1    3    3  502    0 -0.19173295866E+03  0.12491555222E+04 -0.53461947996E+03  0.13722131884E+04  0.50400001928E-02 0.  1.
       -1    1    3    3    0  502  0.19173295866E+03 -0.12491555222E+04  0.16440315184E+02  0.12638913442E+04  0.50400001928E-02 0. -1.
</event>
<event>
 5   0  0.6599814E-07  0.2606346E+04  0.7818609E-02  0.8366049E-01
       -2   -1    0    0    0  501  0.00000000000E+00  0.00000000000E+00  0.83748839659E+03  0.83748839659E+03  0.25500000920E-02 0. -1.
        2   -1    0    0  501    0  0.00000000000E+00  0.00000000000E+00 -0.20278008731E+04  0.20278008731E+04  0.25500000920E-02 0.  1.
    10030    2    1    2    0    0  0.00000000000E+00  0.00000000000E+00 -0.11903124765E+04  0.28652892697E+04  0.26063458725E+04 0.  0.
        5    1    3    3  502    0 -0.21869184412E+03  0.46923752755E+03 -0.19098936091E+04  0.19788192610E+04  0.46999998093E+01 0.  1.
       -5    1    3    3    0  502  0.21869184412E+03 -0.46923752755E+03  0.71958113254E+03  0.88647000866E+03  0.46999998093E+01 0. -1.
</event>
<event>
 5   0  0.7160320E-07  0.2599212E+04  0.7818609E-02  0.8368469E-01
       -2   -1    0    0    0  501  0.00000000000E+00  0.00000000000E+00  0.13212842972E+04  0.13212842972E+04  0.25500000920E-02 0.  1.
        2   -1    0    0  501    0  0.00000000000E+00  0.00000000000E+00 -0.12782836234E+04  0.12782836234E+04  0.25500000920E-02 0. -1.
    10030    2    1    2    0    0  0.00000000000E+00  0.00000000000E+00  0.43000673737E+02  0.25995679206E+04  0.25992122491E+04 0.  0.
        1    1    3    3  502    0  0.35379685326E+03  0.60466986423E+03 -0.10732627226E+04  0.12816749704E+04  0.50400001928E-02 0. -1.
       -1    1    3    3    0  502 -0.35379685326E+03 -0.60466986423E+03  0.11162633963E+04  0.13178929502E+04  0.50400001928E-02 0.  1.
</event>
<event>
 5   0  0.2864801E-07  0.2600318E+04  0.7818609E-02  0.8368093E-01
        1   -1    0    0  501    0  0.00000000000E+00  0.00000000000E+00  0.18515776594E+04  0.18515776594E+04  0.50400001928E-02 0.  1.
       -1   -1    0    0    0  501  0.00000000000E+00  0.00000000000E+00 -0.91295860211E+03  0.91295860213E+03  0.50400001928E-02 0. -1.
    10030    2    1    2    0    0  0.00000000000E+00  0.00000000000E+00  0.93861905724E+03  0.27645362615E+04  0.26003182510E+04 0.  0.
        5    1    3    3  502    0 -0.48772369474E+03  0.65987795998E+03  0.15415025811E+04  0.17463005531E+04  0.46999998093E+01 0.  1.
       -5    1    3    3    0  502  0.48772369474E+03 -0.65987795998E+03 -0.60288352382E+03  0.10182357084E+04  0.46999998093E+01 0. -1.
</event>
<event>
 5   0  0.2641626E-07  0.2599472E+04  0.7818609E-02  0.8368380E-01
        1   -1    0    0  501    0  0.00000000000E+00  0.00000000000E+00  0.19129807535E+04  0.19129807535E+04  0.50400001928E-02 0.  1.
       -1   -1    0    0    0  501  0.00000000000E+00  0.00000000000E+00 -0.88307958287E+03  0.88307958289E+03  0.50400001928E-02 0. -1.
    10030    2    1    2    0    0  0.00000000000E+00  0.00000000000E+00  0.10299011707E+04  0.27960603364E+04  0.25994724433E+04 0.  0.
        3    1    3    3  502    0 -0.97940462052E+02  0.84514001807E+03  0.15718374980E+04  0.17873240094E+04  0.10100000352E+00 0.  1.
       -3    1    3    3    0  502  0.97940462052E+02 -0.84514001807E+03 -0.54193632738E+03  0.10087363270E+04  0.10100000352E+00 0. -1.
</event>
<event>
 5   0  0.6599814E-07  0.2599594E+04  0.7818609E-02  0.8368339E-01
       -2   -1    0    0    0  501  0.00000000000E+00  0.00000000000E+00  0.70829478088E+03  0.70829478089E+03  0.25500000920E-02 0. -1.
        2   -1    0    0  501    0  0.00000000000E+00  0.00000000000E+00 -0.23852663236E+04  0.23852663236E+04  0.25500000920E-02 0.  1.
    10030    2    1    2    0    0  0.00000000000E+00  0.00000000000E+00 -0.16769715427E+04  0.30935611045E+04  0.25995935744E+04 0.  0.
        5    1    3    3  502    0 -0.42975231599E+03 -0.56203572405E+03 -0.21360293727E+04  0.22501588343E+04  0.46999998093E+01 0.  1.
       -5    1    3    3    0  502  0.42975231599E+03  0.56203572405E+03  0.45905782999E+03  0.84340227026E+03  0.46999998093E+01 0. -1.
</event>
<event>
 5   0  0.2641626E-07  0.2603491E+04  0.7818609E-02  0.8367016E-01
        1   -1    0    0  501    0  0.00000000000E+00  0.00000000000E+00  0.13573006504E+04  0.13573006504E+04  0.50400001928E-02 0. -1.
       -1   -1    0    0    0  501  0.00000000000E+00  0.00000000000E+00 -0.12484640659E+04  0.12484640659E+04  0.50400001928E-02 0.  1.
    10030    2    1    2    0    0  0.00000000000E+00  0.00000000000E+00  0.10883658447E+03  0.26057647163E+04  0.26034908017E+04 0.  0.
        3    1    3    3  502    0 -0.95804136003E+03 -0.86102396374E+03 -0.13372345368E+03  0.12950241256E+04  0.10100000352E+00 0.  1.
       -3    1    3    3    0  502  0.95804136003E+03  0.86102396374E+03  0.24256003815E+03  0.13107405906E+04  0.10100000352E+00 0. -1.
</event>
<event>
 5   0  0.6599814E-07  0.2599799E+04  0.7818609E-02  0.8368269E-01
       -2   -1    0    0    0  501  0.00000000000E+00  0.00000000000E+00  0.75116584679E+03  0.75116584680E+03  0.25500000920E-02 0.  1.
        2   -1    0    0  501    0  0.00000000000E+00  0.00000000000E+00 -0.22494883397E+04  0.22494883397E+04  0.25500000920E-02 0. -1.
    10030    2    1    2    0    0  0.00000000000E+00  0.00000000000E+00 -0.14983224929E+04  0.30006541865E+04  0.25997990796E+04 0.  0.
        5    1    3    3  502    0 -0.10902000044E+04  0.49541653936E+03 -0.16547676475E+03  0.12088747854E+04  0.46999998093E+01 0. -1.
       -5    1    3    3    0  502  0.10902000044E+04 -0.49541653936E+03 -0.13328457282E+04  0.17917794011E+04  0.46999998093E+01 0.  1.
</event>
<event>
 5   0  0.2793576E-07  0.2600824E+04  0.7818609E-02  0.8367921E-01
        1   -1    0    0  501    0  0.00000000000E+00  0.00000000000E+00  0.12573711741E+04  0.12573711741E+04  0.50400001928E-02 0.  1.
       -1   -1    0    0    0  501  0.00000000000E+00  0.00000000000E+00 -0.13449263733E+04  0.13449263733E+04  0.50400001928E-02 0. -1.
    10030    2    1    2    0    0  0.00000000000E+00  0.00000000000E+00 -0.87555199145E+02  0.26022975474E+04  0.26008242179E+04 0.  0.
        2    1    3    3  502    0  0.10529648475E+04  0.71816734008E+03  0.21438475354E+03  0.12924628122E+04  0.25500000920E-02 0.  1.
       -2    1    3    3    0  502 -0.10529648475E+04 -0.71816734008E+03 -0.30193995269E+03  0.13098347352E+04  0.25500000920E-02 0. -1.
</event>
<event>
 5   0  0.7160320E-07  0.2600373E+04  0.7818609E-02  0.8368075E-01
       -2   -1    0    0    0  501  0.00000000000E+00  0.00000000000E+00  0.98185255294E+03  0.98185255294E+03  0.25500000920E-02 0. -1.
        2   -1    0    0  501    0  0.00000000000E+00  0.00000000000E+00 -0.17217295995E+04  0.17217295995E+04  0.25500000920E-02 0.  1.
    10030    2    1    2    0    0  0.00000000000E+00  0.00000000000E+00 -0.73987704653E+03  0.27035821524E+04  0.26003727446E+04 0.  0.
        1    1    3    3  502    0 -0.64574129459E+03 -0.10672018904E+04 -0.75135453444E+03  0.14561714634E+04  0.50400001928E-02 0.  1.
       -1    1    3    3    0  502  0.64574129459E+03  0.10672018904E+04  0.11477487914E+02  0.12474106890E+04  0.50400001928E-02 0. -1.
</event>
<event>
 5   0  0.2793576E-07  0.2600259E+04  0.7818609E-02  0.8368113E-01
        1   -1    0    0  501    0  0.00000000000E+00  0.00000000000E+00  0.97863544151E+03  0.97863544153E+03  0.50400001928E-02 0. -1.
       -1   -1    0    0    0  501  0.00000000000E+00  0.00000000000E+00 -0.17272381390E+04  0.17272381390E+04  0.50400001928E-02 0.  1.
    10030    2    1    2    0    0  0.00000000000E+00  0.00000000000E+00 -0.74860269747E+03  0.27058735805E+04  0.26002588016E+04 0.  0.
        2    1    3    3  502    0  0.48873990862E+03  0.66165757689E+03  0.67340880884E+03  0.10630789581E+04  0.25500000920E-02 0. -1.
       -2    1    3    3    0  502 -0.48873990862E+03 -0.66165757689E+03 -0.14220115063E+04  0.16427946224E+04  0.25500000920E-02 0.  1.
</event>
<event>
 5   0  0.6768478E-07  0.2599330E+04  0.7818609E-02  0.8368429E-01
       -2   -1    0    0    0  501  0.00000000000E+00  0.00000000000E+00  0.80784982011E+03  0.80784982011E+03  0.25500000920E-02 0.  1.
        2   -1    0    0  501    0  0.00000000000E+00  0.00000000000E+00 -0.20908946373E+04  0.20908946373E+04  0.25500000920E-02 0. -1.
    10030    2    1    2    0    0  0.00000000000E+00  0.00000000000E+00 -0.12830448171E+04  0.28987444574E+04  0.25993298033E+04 0.  0.
        4    1    3    3  502    0 -0.16792421213E+01 -0.12541510554E+04 -0.10217177846E+04  0.16176546399E+04  0.12699999809E+01 0. -1.
       -4    1    3    3    0  502  0.16792421213E+01  0.12541510554E+04 -0.26132703255E+03  0.12810898175E+04  0.12699999809E+01 0.  1.
</event>
<event>
 5   0  0.2755061E-07  0.2600947E+04  0.7818609E-02  0.8367879E-01
       -1   -1    0    0    0  501  0.00000000000E+00  0.00000000000E+00  0.12476538437E+04  0.12476538437E+04  0.50400001928E-02 0. -1.
        1   -1    0    0  501    0  0.00000000000E+00  0.00000000000E+00 -0.13555296786E+04  0.13555296786E+04  0.50400001928E-02 0.  1.
    10030    2    1    2    0    0  0.00000000000E+00  0.00000000000E+00 -0.10787583490E+03  0.26031835223E+04  0.26009473765E+04 0.  0.
        4    1    3    3  502    0 -0.88040984710E+03  0.84326890811E+03  0.39922751314E+03  0.12828126014E+04  0.12699999809E+01 0. -1.
       -4    1    3    3    0  502  0.88040984710E+03 -0.84326890811E+03 -0.50710334803E+03  0.13203709209E+04  0.12699999809E+01 0.  1.
</event>
<event>
 5   0  0.2793576E-07  0.2599705E+04  0.7818609E-02  0.8368301E-01
       -1   -1    0    0    0  501  0.00000000000E+00  0.00000000000E+00  0.81831670255E+03  0.81831670257E+03  0.50400001928E-02 0. -1.
        1   -1    0    0  501    0  0.00000000000E+00  0.00000000000E+00 -0.20647460926E+04  0.20647460926E+04  0.50400001928E-02 0.  1.
    10030    2    1    2    0    0  0.00000000000E+00  0.00000000000E+00 -0.12464293900E+04  0.28830627951E+04  0.25997047633E+04 0.  0.
        2    1    3    3  502    0  0.40072707205E+03  0.19974413507E+03 -0.19765247176E+04  0.20266055031E+04  0.25500000920E-02 0.  1.
       -2    1    3    3    0  502 -0.40072707205E+03 -0.19974413507E+03  0.73009532759E+03  0.85645729207E+03  0.25500000920E-02 0. -1.
</event>
<event>
 5   0  0.2864801E-07  0.2599442E+04  0.7818609E-02  0.8368391E-01
       -1   -1    0    0    0  501  0.00000000000E+00  0.00000000000E+00  0.10650926514E+04  0.10650926514E+04  0.50400001928E-02 0.  1.
        1   -1    0    0  501    0  0.00000000000E+00  0.00000000000E+00 -0.15860348411E+04  0.15860348411E+04  0.50400001928E-02 0. -1.
    10030    2    1    2    0    0  0.00000000000E+00  0.00000000000E+00 -0.52094218970E+03  0.26511274925E+04  0.25994415201E+04 0.  0.
        5    1    3    3  502    0 -0.29362383379E+03  0.12733798427E+03  0.10242672152E+04  0.10731147824E+04  0.46999998093E+01 0.  1.
       -5    1    3    3    0  502  0.29362383379E+03 -0.12733798427E+03 -0.15452094049E+04  0.15780127101E+04  0.46999998093E+01 0. -1.
</event>
<event>
 5   0  0.2793576E-07  0.2601845E+04  0.7818609E-02  0.8367575E-01
        1   -1    0    0  501    0  0.00000000000E+00  0.00000000000E+00  0.15736522502E+04  0.15736522502E+04  0.50400001928E-02 0.  1.
       -1   -1    0    0    0  501  0.00000000000E+00  0.00000000000E+00 -0.10754598546E+04  0.10754598546E+04  0.50400001928E-02 0. -1.
    10030    2    1    2    0    0  0.00000000000E+00  0.00000000000E+00  0.49819239565E+03  0.26491121048E+04  0.26018453607E+04 0.  0.
        2    1    3    3  502    0  0.47686944565E+03 -0.82456916189E+02  0.14785914007E+04  0.15557750935E+04  0.25500000920E-02 0.  1.
       -2    1    3    3    0  502 -0.47686944565E+03  0.82456916189E+02 -0.98039900507E+03  0.10933370113E+04  0.25500000920E-02 0. -1.
</event>
<event>
 5   0  0.2641626E-07  0.2597940E+04  0.7818609E-02  0.8368901E-01
        1   -1    0    0  501    0  0.00000000000E+00  0.00000000000E+00  0.18565920699E+04  0.18565920699E+04  0.50400001928E-02 0.  1.
       -1   -1    0    0    0  501  0.00000000000E+00  0.00000000000E+00 -0.90882832958E+03  0.90882832960E+03  0.50400001928E-02 0. -1.
    10030    2    1    2    0    0  0.00000000000E+00  0.00000000000E+00  0.94776374029E+03  0.27654203995E+04  0.25979403146E+04 0.  0.
        3    1    3    3  502    0 -0.62000468023E+03 -0.48432447903E+02 -0.74006361727E+03  0.96666730229E+03  0.10100000352E+00 0. -1.
       -3    1    3    3    0  502  0.62000468023E+03  0.48432447903E+02  0.16878273576E+04  0.17987530972E+04  0.10100000352E+00 0.  1.
</event>
<event>
 5   0  0.2864801E-07  0.2599655E+04  0.7818609E-02  0.8368319E-01
        1   -1    0    0  501    0  0.00000000000E+00  0.00000000000E+00  0.21685246323E+04  0.21685246323E+04  0.50400001928E-02 0. -1.
       -1   -1    0    0    0  501  0.00000000000E+00  0.00000000000E+00 -0.77912466571E+03  0.77912466573E+03  0.50400001928E-02 0.  1.
    10030    2    1    2    0    0  0.00000000000E+00  0.00000000000E+00  0.13893999666E+04  0.29476492980E+04  0.25996546149E+04 0.  0.
        5    1    3    3  502    0  0.11362757634E+04 -0.27656968950E+03  0.51373948713E+02  0.11705873638E+04  0.46999998093E+01 0.  1.
       -5    1    3    3    0  502 -0.11362757634E+04  0.27656968950E+03  0.13380260179E+04  0.17770619342E+04  0.46999998093E+01 0. -1.
</event>
<event>
 5   0  0.2864801E-07  0.2599643E+04  0.7818609E-02  0.8368323E-01
       -1   -1    0    0    0  501  0.00000000000E+00  0.00000000000E+00  0.92057938934E+03  0.92057938935E+03  0.50400001928E-02 0.  1.
        1   -1    0    0  501    0  0.00000000000E+00  0.00000000000E+00 -0.18352961544E+04  0.18352961544E+04  0.50400001928E-02 0. -1.
    10030    2    1    2    0    0  0.00000000000E+00  0.00000000000E+00 -0.91471676505E+03  0.27558755438E+04  0.25996429086E+04 0.  0.
        5    1    3    3  502    0 -0.24544366526E+03 -0.85830532847E+03  0.54418607610E+03  0.10455100215E+04  0.46999998093E+01 0.  1.
       -5    1    3    3    0  502  0.24544366526E+03  0.85830532847E+03 -0.14589028411E+04  0.17103655222E+04  0.46999998093E+01 0. -1.
</event>
<event>
 5   0  0.2864801E-07  0.2600438E+04  0.7818609E-02  0.8368052E-01
       -1   -1    0    0    0  501  0.00000000000E+00  0.00000000000E+00  0.10081730570E+04  0.10081730571E+04  0.50400001928E-02 0.  1.
        1   -1    0    0  501    0  0.00000000000E+00  0.00000000000E+00 -0.16768649780E+04  0.16768649780E+04  0.50400001928E-02 0. -1.
    10030    2    1    2    0    0  0.00000000000E+00  0.00000000000E+00 -0.66869192094E+03  0.26850380350E+04  0.26004384947E+04 0.  0.
        5    1    3    3  502    0 -0.70554910866E+03 -0.10888901524E+04 -0.42114440709E+03  0.13641356275E+04  0.46999998093E+01 0.  1.
       -5    1    3    3    0  502  0.70554910866E+03  0.10888901524E+04 -0.24754751386E+03  0.13209024075E+04  0.46999998093E+01 0. -1.
</event>
<event>
 5   0  0.6768478E-07  0.2599037E+04  0.7818609E-02  0.8368528E-01
       -2   -1    0    0    0  501  0.00000000000E+00  0.00000000000E+00  0.89050942838E+03  0.89050942838E+03  0.25500000920E-02 0.  1.
        2   -1    0    0  501    0  0.00000000000E+00  0.00000000000E+00 -0.18963851924E+04  0.18963851924E+04  0.25500000920E-02 0. -1.
    10030    2    1    2    0    0  0.00000000000E+00  0.00000000000E+00 -0.10058757640E+04  0.27868946207E+04  0.25990374323E+04 0.  0.
        4    1    3    3  502    0  0.55099401328E+03  0.70433493268E+03 -0.15139929578E+04  0.17583681040E+04  0.12699999809E+01 0. -1.
       -4    1    3    3    0  502 -0.55099401328E+03 -0.70433493268E+03  0.50811719381E+03  0.10285265167E+04  0.12699999809E+01 0.  1.
</event>
<event>
 5   0  0.2755061E-07  0.2601486E+04  0.7818609E-02  0.8367697E-01
       -1   -1    0    0    0  501  0.00000000000E+00  0.00000000000E+00  0.13119770165E+04  0.13119770165E+04  0.50400001928E-02 0. -1.
        1   -1    0    0  501    0  0.00000000000E+00  0.00000000000E+00 -0.12896049901E+04  0.12896049901E+04  0.50400001928E-02 0.  1.
    10030    2    1    2    0    0  0.00000000000E+00  0.00000000000E+00  0.22372026335E+02  0.26015820066E+04  0.26014858119E+04 0.  0.
        4    1    3    3  502    0  0.82540752878E+03 -0.21206430117E+03  0.99390319203E+03  0.13092417746E+04  0.12699999809E+01 0. -1.
       -4    1    3    3    0  502 -0.82540752878E+03  0.21206430117E+03 -0.97153116570E+03  0.12923402320E+04  0.12699999809E+01 0.  1.
</event>
<event>
 5   0  0.6526351E-07  0.2599954E+04  0.7818609E-02  0.8368217E-01
       -2   -1    0    0    0  501  0.00000000000E+00  0.00000000000E+00  0.12783016989E+04  0.12783016989E+04  0.25500000920E-02 0. -1.
        2   -1    0    0  501    0  0.00000000000E+00  0.00000000000E+00 -0.13220195486E+04  0.13220195486E+04  0.25500000920E-02 0.  1.
    10030    2    1    2    0    0  0.00000000000E+00  0.00000000000E+00 -0.43717849698E+02  0.26003212475E+04  0.25999537188E+04 0.  0.
        3    1    3    3  502    0  0.15683649057E+03 -0.82891338417E+03  0.96734344568E+03  0.12835296784E+04  0.10100000352E+00 0. -1.
       -3    1    3    3    0  502 -0.15683649057E+03  0.82891338417E+03 -0.10110612954E+04  0.13167915691E+04  0.10100000352E+00 0.  1.
</event>
<event>
 5   0  0.7160320E-07  0.2601306E+04  0.7818609E-02  0.8367758E-01
        2   -1    0    0  501    0  0.00000000000E+00  0.00000000000E+00  0.10540888775E+04  0.10540888775E+04  0.25500000920E-02 0.  1.
       -2   -1    0    0    0  501  0.00000000000E+00  0.00000000000E+00 -0.16048909209E+04  0.16048909209E+04  0.25500000920E-02 0. -1.
    10030    2    1    2    0    0  0.00000000000E+00  0.00000000000E+00 -0.55080204336E+03  0.26589797985E+04  0.26013055717E+04 0.  0.
        1    1    3    3  502    0  0.59371455977E+03  0.89995801784E+03  0.46824262650E+03  0.11754456898E+04  0.50400001928E-02 0.  1.
       -1    1    3    3    0  502 -0.59371455977E+03 -0.89995801784E+03 -0.10190446699E+04  0.14835341087E+04  0.50400001928E-02 0. -1.
</event>
<event>
 5   0  0.2755061E-07  0.2599508E+04  0.7818609E-02  0.8368368E-01
        1   -1    0    0  501    0  0.00000000000E+00  0.00000000000E+00  0.97567917188E+03  0.97567917189E+03  0.50400001928E-02 0.  1.
       -1   -1    0    0    0  501  0.00000000000E+00  0.00000000000E+00 -0.17314713286E+04  0.17314713286E+04  0.50400001928E-02 0. -1.
    10030    2    1    2    0    0  0.00000000000E+00  0.00000000000E+00 -0.75579215673E+03  0.27071505005E+04  0.25995080396E+04 0.  0.
        4    1    3    3  502    0  0.10820475168E+04  0.53368685704E+03  0.12555846389E+03  0.12130189737E+04  0.12699999809E+01 0.  1.
       -4    1    3    3    0  502 -0.10820475168E+04 -0.53368685704E+03 -0.88135062062E+03  0.14941315268E+04  0.12699999809E+01 0. -1.
</event>
<event>
 5   0  0.7160320E-07  0.2599746E+04  0.7818609E-02  0.8368288E-01
       -2   -1    0    0    0  501  0.00000000000E+00  0.00000000000E+00  0.12174759660E+04  0.12174759660E+04  0.25500000920E-02 0. -1.
        2   -1    0    0  501    0  0.00000000000E+00  0.00000000000E+00 -0.13878460637E+04  0.13878460637E+04  0.25500000920E-02 0.  1.
    10030    2    1    2    0    0  0.00000000000E+00  0.00000000000E+00 -0.17037009771E+03  0.26053220298E+04  0.25997455469E+04 0.  0.
        1    1    3    3  502    0  0.64665907720E+03  0.56096270546E+02 -0.12138132329E+04  0.13764655165E+04  0.50400001928E-02 0.  1.
       -1    1    3    3    0  502 -0.64665907720E+03 -0.56096270546E+02  0.10434431352E+04  0.12288565132E+04  0.50400001928E-02 0. -1.
</event>
<event>
 5   0  0.6526351E-07  0.2600274E+04  0.7818609E-02  0.8368108E-01
        2   -1    0    0  501    0  0.00000000000E+00  0.00000000000E+00  0.16455218984E+04  0.16455218984E+04  0.25500000920E-02 0.  1.
       -2   -1    0    0    0  501  0.00000000000E+00  0.00000000000E+00 -0.10272464833E+04  0.10272464833E+04  0.25500000920E-02 0. -1.
    10030    2    1    2    0    0  0.00000000000E+00  0.00000000000E+00  0.61827541517E+03  0.26727683817E+04  0.26002742804E+04 0.  0.
        3    1    3    3  502    0 -0.53891896713E+03  0.17668387577E+03 -0.89339585712E+03  0.10582093426E+04  0.10100000352E+00 0. -1.
       -3    1    3    3    0  502  0.53891896713E+03 -0.17668387577E+03  0.15116712723E+04  0.16145590391E+04  0.10100000352E+00 0.  1.
</event>
<event>
 5   0  0.2793576E-07  0.2600417E+04  0.7818609E-02  0.8368060E-01
       -1   -1    0    0    0  501  0.00000000000E+00  0.00000000000E+00  0.87179849362E+03  0.87179849363E+03  0.50400001928E-02 0.  1.
        1   -1    0    0  501    0  0.00000000000E+00  0.00000000000E+00 -0.19391434534E+04  0.19391434534E+04  0.50400001928E-02 0. -1.
    10030    2    1    2    0    0  0.00000000000E+00  0.00000000000E+00 -0.10673449598E+04  0.28109419471E+04  0.26004171524E+04 0.  0.
        2    1    3    3  502    0 -0.17821178345E+03 -0.11671754838E+04  0.54913209806E+02  0.11819786421E+04  0.25500000920E-02 0.  1.
       -2    1    3    3    0  502  0.17821178345E+03  0.11671754838E+04 -0.11222581696E+04  0.16289633050E+04  0.25500000920E-02 0. -1.
</event>
<event>
 5   0  0.6526351E-07  0.2601161E+04  0.7818609E-02  0.8367807E-01
        2   -1    0    0  501    0  0.00000000000E+00  0.00000000000E+00  0.16685597508E+04  0.16685597508E+04  0.25500000920E-02 0. -1.
       -2   -1    0    0    0  501  0.00000000000E+00  0.00000000000E+00 -0.10137543480E+04  0.10137543480E+04  0.25500000920E-02 0.  1.
    10030    2    1    2    0    0  0.00000000000E+00  0.00000000000E+00  0.65480540284E+03  0.26823140988E+04  0.26011610501E+04 0.  0.
        3    1    3    3  502    0  0.47641864946E+03  0.15533194442E+03  0.15650160762E+04  0.16432827120E+04  0.10100000352E+00 0. -1.
       -3    1    3    3    0  502 -0.47641864946E+03 -0.15533194442E+03 -0.91021067339E+03  0.10390313868E+04  0.10100000352E+00 0.  1.
</event>
<event>
 5   0  0.2755061E-07  0.2600078E+04  0.7818609E-02  0.8368175E-01
       -1   -1    0    0    0  501  0.00000000000E+00  0.00000000000E+00  0.17788159970E+04  0.17788159971E+04  0.50400001928E-02 0. -1.
        1   -1    0    0  501    0  0.00000000000E+00  0.00000000000E+00 -0.95012723675E+03  0.95012723676E+03  0.50400001928E-02 0.  1.
    10030    2    1    2    0    0  0.00000000000E+00  0.00000000000E+00  0.82868876030E+03  0.27289432338E+04  0.26000780973E+04 0.  0.
        4    1    3    3  502    0  0.58717839195E+03  0.92123103030E+01 -0.80298314988E+03  0.99480997307E+03  0.12699999809E+01 0.  1.
       -4    1    3    3    0  502 -0.58717839195E+03 -0.92123103030E+01  0.16316719102E+04  0.17341332607E+04  0.12699999809E+01 0. -1.
</event>
<event>
 5   0  0.2793576E-07  0.2603135E+04  0.7818609E-02  0.8367137E-01
       -1   -1    0    0    0  501  0.00000000000E+00  0.00000000000E+00  0.75327941317E+03  0.75327941318E+03  0.50400001928E-02 0.  1.
        1   -1    0    0  501    0  0.00000000000E+00  0.00000000000E+00 -0.22489374727E+04  0.22489374727E+04  0.50400001928E-02 0. -1.
    10030    2    1    2    0    0  0.00000000000E+00  0.00000000000E+00 -0.14956580595E+04  0.30022168859E+04  0.26031352632E+04 0.  0.
        2    1    3    3  502    0  0.16474028553E+03  0.39103624429E+03  0.67126936891E+03  0.79413554993E+03  0.25500000920E-02 0.  1.
       -2    1    3    3    0  502 -0.16474028553E+03 -0.39103624429E+03 -0.21669274284E+04  0.22080813359E+04  0.25500000920E-02 0. -1.
</event>
<event>
 5   0  0.2623263E-07  0.2599330E+04  0.7818609E-02  0.8368429E-01
       -1   -1    0    0    0  501  0.00000000000E+00  0.00000000000E+00  0.12259586697E+04  0.12259586697E+04  0.50400001928E-02 0.  1.
        1   -1    0    0  501    0  0.00000000000E+00  0.00000000000E+00 -0.13778024420E+04  0.13778024420E+04  0.50400001928E-02 0. -1.
    10030    2    1    2    0    0  0.00000000000E+00  0.00000000000E+00 -0.15184377226E+03  0.26037611117E+04  0.25993297974E+04 0.  0.
        1    1    3    3  502    0  0.19856861582E+02 -0.54043794738E+03 -0.12597409052E+04  0.13709174366E+04  0.50400001928E-02 0. -1.
       -1    1    3    3    0  502 -0.19856861582E+02  0.54043794738E+03  0.11078971329E+04  0.12328436750E+04  0.50400001928E-02 0.  1.
</event>
<event>
 5   0  0.7160320E-07  0.2593856E+04  0.7818609E-02  0.8370291E-01
        2   -1    0    0  501    0  0.00000000000E+00  0.00000000000E+00  0.21789100748E+04  0.21789100748E+04  0.25500000920E-02 0.  1.
       -2   -1    0    0    0  501  0.00000000000E+00  0.00000000000E+00 -0.77195574548E+03  0.77195574548E+03  0.25500000920E-02 0. -1.
    10030    2    1    2    0    0  0.00000000000E+00  0.00000000000E+00  0.14069543293E+04  0.29508658203E+04  0.25938559337E+04 0.  0.
        1    1    3    3  502    0  0.71943376695E+03 -0.10750882940E+04  0.80911435571E+03  0.15258000608E+04  0.50400001928E-02 0.  1.
       -1    1    3    3    0  502 -0.71943376695E+03  0.10750882940E+04  0.59783997363E+03  0.14250657595E+04  0.50400001928E-02 0. -1.
</event>
<event>
 5   0  0.2623263E-07  0.2603874E+04  0.7818609E-02  0.8366887E-01
       -1   -1    0    0    0  501  0.00000000000E+00  0.00000000000E+00  0.82731727039E+03  0.82731727040E+03  0.50400001928E-02 0. -1.
        1   -1    0    0  501    0  0.00000000000E+00  0.00000000000E+00 -0.20488384598E+04  0.20488384598E+04  0.50400001928E-02 0.  1.
    10030    2    1    2    0    0  0.00000000000E+00  0.00000000000E+00 -0.12215211894E+04  0.28761557302E+04  0.26038736083E+04 0.  0.
        1    1    3    3  502    0  0.93327221002E+03  0.81550240399E+03 -0.17031864756E+03  0.12510194366E+04  0.50400001928E-02 0. -1.
       -1    1    3    3    0  502 -0.93327221002E+03 -0.81550240399E+03 -0.10512025419E+04  0.16251362937E+04  0.50400001928E-02 0.  1.
</event>
<event>
 5   0  0.2755061E-07  0.2600160E+04  0.7818609E-02  0.8368147E-01
        1   -1    0    0  501    0  0.00000000000E+00  0.00000000000E+00  0.18395678995E+04  0.18395678995E+04  0.50400001928E-02 0. -1.
       -1   -1    0    0    0  501  0.00000000000E+00  0.00000000000E+00 -0.91880726037E+03  0.91880726039E+03  0.50400001928E-02 0.  1.
    10030    2    1    2    0    0  0.00000000000E+00  0.00000000000E+00  0.92076063914E+03  0.27583751599E+04  0.26001602582E+04 0.  0.
        4    1    3    3  502    0 -0.69864003476E+03 -0.79644539181E+03 -0.33898375715E+03  0.11123555011E+04  0.12699999809E+01 0.  1.
       -4    1    3    3    0  502  0.69864003476E+03  0.79644539181E+03  0.12597443963E+04  0.16460196588E+04  0.12699999809E+01 0. -1.
</event>
<event>
 5   0  0.6780984E-07  0.2598375E+04  0.7818609E-02  0.8368753E-01
        2   -1    0    0  501    0  0.00000000000E+00  0.00000000000E+00  0.25003482942E+04  0.25003482942E+04  0.25500000920E-02 0. -1.
       -2   -1    0    0    0  501  0.00000000000E+00  0.00000000000E+00 -0.67506106586E+03  0.67506106587E+03  0.25500000920E-02 0.  1.
    10030    2    1    2    0    0  0.00000000000E+00  0.00000000000E+00  0.18252872284E+04  0.31754093601E+04  0.25983747109E+04 0.  0.
        2    1    3    3  502    0 -0.46220096009E+03  0.18339890808E+03  0.23794510284E+04  0.24308541880E+04  0.25500000920E-02 0. -1.
       -2    1    3    3    0  502  0.46220096009E+03 -0.18339890808E+03 -0.55416380002E+03  0.74455517207E+03  0.25500000920E-02 0.  1.
</event>
<event>
 5   0  0.6780984E-07  0.2600510E+04  0.7818609E-02  0.8368028E-01
       -2   -1    0    0    0  501  0.00000000000E+00  0.00000000000E+00  0.96913023939E+03  0.96913023940E+03  0.25500000920E-02 0.  1.
        2   -1    0    0  501    0  0.00000000000E+00  0.00000000000E+00 -0.17445152350E+04  0.17445152350E+04  0.25500000920E-02 0. -1.
    10030    2    1    2    0    0  0.00000000000E+00  0.00000000000E+00 -0.77538499561E+03  0.27136454744E+04  0.26005095403E+04 0.  0.
        2    1    3    3  502    0 -0.89127304388E+03 -0.89832150243E+03 -0.75837476078E+02  0.12677146695E+04  0.25500000920E-02 0. -1.
       -2    1    3    3    0  502  0.89127304388E+03  0.89832150243E+03 -0.69954751953E+03  0.14459308049E+04  0.25500000920E-02 0.  1.
</event>
<event>
 5   0  0.6599814E-07  0.2599631E+04  0.7818609E-02  0.8368326E-01
       -2   -1    0    0    0  501  0.00000000000E+00  0.00000000000E+00  0.77024476523E+03  0.77024476524E+03  0.25500000920E-02 0.  1.
        2   -1    0    0  501    0  0.00000000000E+00  0.00000000000E+00 -0.21934858130E+04  0.21934858130E+04  0.25500000920E-02 0. -1.
    10030    2    1    2    0    0  0.00000000000E+00  0.00000000000E+00 -0.14232410477E+04  0.29637305782E+04  0.25996314855E+04 0.  0.
        5    1    3    3  502    0 -0.11578274818E+04  0.46062291244E+03 -0.29001338540E+03  0.12794013439E+04  0.46999998093E+01 0.  1.
       -5    1    3    3    0  502  0.11578274818E+04 -0.46062291244E+03 -0.11332276623E+04  0.16843292343E+04  0.46999998093E+01 0. -1.
</event>
<event>
 5   0  0.7160320E-07  0.2599521E+04  0.7818609E-02  0.8368364E-01
       -2   -1    0    0    0  501  0.00000000000E+00  0.00000000000E+00  0.10059410988E+04  0.10059410988E+04  0.25500000920E-02 0.  1.
        2   -1    0    0  501    0  0.00000000000E+00  0.00000000000E+00 -0.16793999920E+04  0.16793999920E+04  0.25500000920E-02 0. -1.
    10030    2    1    2    0    0  0.00000000000E+00  0.00000000000E+00 -0.67345889321E+03  0.26853410908E+04  0.25995210892E+04 0.  0.
        1    1    3    3  502    0 -0.98620051932E+03 -0.50973481044E+03 -0.10350318064E+04  0.15177983666E+04  0.50400001928E-02 0. -1.
       -1    1    3    3    0  502  0.98620051932E+03  0.50973481044E+03  0.36157291319E+03  0.11675427242E+04  0.50400001928E-02 0.  1.
</event>
<event>
 5   0  0.2641626E-07  0.2600254E+04  0.7818609E-02  0.8368115E-01
       -1   -1    0    0    0  501  0.00000000000E+00  0.00000000000E+00  0.19965118237E+04  0.19965118237E+04  0.50400001928E-02 0.  1.
        1   -1    0    0  501    0  0.00000000000E+00  0.00000000000E+00 -0.84664204588E+03  0.84664204589E+03  0.50400001928E-02 0. -1.
    10030    2    1    2    0    0  0.00000000000E+00  0.00000000000E+00  0.11498697778E+04  0.28431538696E+04  0.26002544914E+04 0.  0.
        3    1    3    3  502    0  0.35741627570E+03 -0.10114591166E+03 -0.78738747204E+03  0.87060664534E+03  0.10100000352E+00 0. -1.
       -3    1    3    3    0  502 -0.35741627570E+03  0.10114591166E+03  0.19372572498E+04  0.19725472242E+04  0.10100000352E+00 0.  1.
</event>
<event>
 5   0  0.6768478E-07  0.2595335E+04  0.7818609E-02  0.8369788E-01
       -2   -1    0    0    0  501  0.00000000000E+00  0.00000000000E+00  0.20478421742E+04  0.20478421742E+04  0.25500000920E-02 0.  1.
        2   -1    0    0  501    0  0.00000000000E+00  0.00000000000E+00 -0.82230008421E+03  0.82230008422E+03  0.25500000920E-02 0. -1.
    10030    2    1    2    0    0  0.00000000000E+00  0.00000000000E+00  0.12255420900E+04  0.28701422584E+04  0.25953348857E+04 0.  0.
        4    1    3    3  502    0 -0.25103503998E+03 -0.12673321642E+04  0.47828080067E+03  0.13776442004E+04  0.12699999809E+01 0.  1.
       -4    1    3    3    0  502  0.25103503998E+03  0.12673321642E+04  0.74726128930E+03  0.14924980580E+04  0.12699999809E+01 0. -1.
</event>
<event>
 5   0  0.6599814E-07  0.2598520E+04  0.7818609E-02  0.8368704E-01
       -2   -1    0    0    0  501  0.00000000000E+00  0.00000000000E+00  0.10809112290E+04  0.10809112290E+04  0.25500000920E-02 0.  1.
        2   -1    0    0  501    0  0.00000000000E+00  0.00000000000E+00 -0.15617161282E+04  0.15617161282E+04  0.25500000920E-02 0. -1.
    10030    2    1    2    0    0  0.00000000000E+00  0.00000000000E+00 -0.48080489916E+03  0.26426273572E+04  0.25985199630E+04 0.  0.
        5    1    3    3  502    0 -0.88425918492E+03 -0.59291171044E+03  0.51695021880E+03  0.11835194216E+04  0.46999998093E+01 0.  1.
       -5    1    3    3    0  502  0.88425918492E+03  0.59291171044E+03 -0.99775511795E+03  0.14591079357E+04  0.46999998093E+01 0. -1.
</event>
<event>
 5   0  0.6526351E-07  0.2599063E+04  0.7818609E-02  0.8368520E-01
       -2   -1    0    0    0  501  0.00000000000E+00  0.00000000000E+00  0.80510449596E+03  0.80510449596E+03  0.25500000920E-02 0. -1.
        2   -1    0    0  501    0  0.00000000000E+00  0.00000000000E+00 -0.20975929384E+04  0.20975929384E+04  0.25500000920E-02 0.  1.
    10030    2    1    2    0    0  0.00000000000E+00  0.00000000000E+00 -0.12924884424E+04  0.29026974343E+04  0.25990625274E+04 0.  0.
        3    1    3    3  502    0 -0.25798558873E-01  0.25732499175E+03 -0.20688551446E+04  0.20847968178E+04  0.10100000352E+00 0.  1.
       -3    1    3    3    0  502  0.25798558873E-01 -0.25732499175E+03  0.77636670219E+03  0.81790061652E+03  0.10100000352E+00 0. -1.
</event>
<event>
 5   0  0.2623263E-07  0.2600163E+04  0.7818609E-02  0.8368146E-01
       -1   -1    0    0    0  501  0.00000000000E+00  0.00000000000E+00  0.11376364108E+04  0.11376364108E+04  0.50400001928E-02 0.  1.
        1   -1    0    0  501    0  0.00000000000E+00  0.00000000000E+00 -0.14857220356E+04  0.14857220356E+04  0.50400001928E-02 0. -1.
    10030    2    1    2    0    0  0.00000000000E+00  0.00000000000E+00 -0.34808562479E+03  0.26233584463E+04  0.26001626749E+04 0.  0.
        1    1    3    3  502    0 -0.10085506978E+04  0.72594942617E+02  0.65041715925E+03  0.12022840832E+04  0.50400001928E-02 0.  1.
       -1    1    3    3    0  502  0.10085506978E+04 -0.72594942617E+02 -0.99850278404E+03  0.14210743631E+04  0.50400001928E-02 0. -1.
</event>
<event>
 5   0  0.2793576E-07  0.2598969E+04  0.7818609E-02  0.8368552E-01
        1   -1    0    0  501    0  0.00000000000E+00  0.00000000000E+00  0.25617538830E+04  0.25617538830E+04  0.50400001928E-02 0.  1.
       -1   -1    0    0    0  501  0.00000000000E+00  0.00000000000E+00 -0.65918113360E+03  0.65918113362E+03  0.50400001928E-02 0. -1.
    10030    2    1    2    0    0  0.00000000000E+00  0.00000000000E+00  0.19025727494E+04  0.32209350166E+04  0.25989688945E+04 0.  0.
        2    1    3    3  502    0  0.14325892150E+03  0.22012931301E+03  0.25285179525E+04  0.25421217652E+04  0.25500000920E-02 0.  1.
       -2    1    3    3    0  502 -0.14325892150E+03 -0.22012931301E+03 -0.62594520309E+03  0.67881325143E+03  0.25500000920E-02 0. -1.
</event>
<event>
 5   0  0.2793576E-07  0.2598852E+04  0.7818609E-02  0.8368591E-01
       -1   -1    0    0    0  501  0.00000000000E+00  0.00000000000E+00  0.11759194757E+04  0.11759194758E+04  0.50400001928E-02 0. -1.
        1   -1    0    0  501    0  0.00000000000E+00  0.00000000000E+00 -0.14359047867E+04  0.14359047867E+04  0.50400001928E-02 0.  1.
    10030    2    1    2    0    0  0.00000000000E+00  0.00000000000E+00 -0.25998531092E+03  0.26118242624E+04  0.25988523652E+04 0.  0.
        2    1    3    3  502    0 -0.59494096964E+02 -0.11510478632E+04 -0.73303579092E+03  0.13659400433E+04  0.25500000920E-02 0.  1.
       -2    1    3    3    0  502  0.59494096964E+02  0.11510478632E+04  0.47305048000E+03  0.12458842192E+04  0.25500000920E-02 0. -1.
</event>
<event>
 5   0  0.6780984E-07  0.2594657E+04  0.7818609E-02  0.8370018E-01
        2   -1    0    0  501    0  0.00000000000E+00  0.00000000000E+00  0.12879772584E+04  0.12879772584E+04  0.25500000920E-02 0. -1.
       -2   -1    0    0    0  501  0.00000000000E+00  0.00000000000E+00 -0.13067474781E+04  0.13067474781E+04  0.25500000920E-02 0.  1.
    10030    2    1    2    0    0  0.00000000000E+00  0.00000000000E+00 -0.18770219718E+02  0.25947247366E+04  0.25946568439E+04 0.  0.
        2    1    3    3  502    0 -0.13652213051E+03 -0.76213036483E+02 -0.12972908192E+04  0.13066790687E+04  0.25500000920E-02 0.  1.
       -2    1    3    3    0  502  0.13652213051E+03  0.76213036483E+02  0.12785205995E+04  0.12880456678E+04  0.25500000920E-02 0. -1.
</event>
<event>
 5   0  0.6768478E-07  0.2599684E+04  0.7818609E-02  0.8368309E-01
        2   -1    0    0  501    0  0.00000000000E+00  0.00000000000E+00  0.17498190454E+04  0.17498190454E+04  0.25500000920E-02 0. -1.
       -2   -1    0    0    0  501  0.00000000000E+00  0.00000000000E+00 -0.96557906608E+03  0.96557906608E+03  0.25500000920E-02 0.  1.
    10030    2    1    2    0    0  0.00000000000E+00  0.00000000000E+00  0.78423997928E+03  0.27153981114E+04  0.25996835497E+04 0.  0.
        4    1    3    3  502    0  0.30113462826E+02  0.12983933366E+04  0.44793001721E+03  0.13738176700E+04  0.12699999809E+01 0.  1.
       -4    1    3    3    0  502 -0.30113462826E+02 -0.12983933366E+04  0.33630996207E+03  0.13415804414E+04  0.12699999809E+01 0. -1.
</event>
<event>
 5   0  0.6599814E-07  0.2592115E+04  0.7818609E-02  0.8370884E-01
        2   -1    0    0  501    0  0.00000000000E+00  0.00000000000E+00  0.93147094048E+03  0.93147094048E+03  0.25500000920E-02 0. -1.
       -2   -1    0    0    0  501  0.00000000000E+00  0.00000000000E+00 -0.18033467213E+04  0.18033467213E+04  0.25500000920E-02 0.  1.
    10030    2    1    2    0    0  0.00000000000E+00  0.00000000000E+00 -0.87187578084E+03  0.27348176618E+04  0.25921150179E+04 0.  0.
        5    1    3    3  502    0 -0.69934581802E+02  0.66202907069E+03 -0.16091685335E+04  0.17414415854E+04  0.46999998093E+01 0.  1.
       -5    1    3    3    0  502  0.69934581802E+02 -0.66202907069E+03  0.73729275262E+03  0.99337607644E+03  0.46999998093E+01 0. -1.
</event>
<event>
 5   0  0.2623263E-07  0.2613114E+04  0.7818609E-02  0.8363760E-01
       -1   -1    0    0    0  501  0.00000000000E+00  0.00000000000E+00  0.13284292493E+04  0.13284292493E+04  0.50400001928E-02 0. -1.
        1   -1    0    0  501    0  0.00000000000E+00  0.00000000000E+00 -0.12850451292E+04  0.12850451292E+04  0.50400001928E-02 0.  1.
    10030    2    1    2    0    0  0.00000000000E+00  0.00000000000E+00  0.43384120105E+02  0.26134743785E+04  0.26131142618E+04 0.  0.
        1    1    3    3  502    0  0.10953528883E+04 -0.55052805168E+03 -0.43026893384E+03  0.12992345597E+04  0.50400001928E-02 0. -1.
       -1    1    3    3    0  502 -0.10953528883E+04  0.55052805168E+03  0.47365305395E+03  0.13142398188E+04  0.50400001928E-02 0.  1.
</event>
<event>
 5   0  0.2755061E-07  0.2600323E+04  0.7818609E-02  0.8368091E-01
        1   -1    0    0  501    0  0.00000000000E+00  0.00000000000E+00  0.12217698036E+04  0.12217698036E+04  0.50400001928E-02 0. -1.
       -1   -1    0    0    0  501  0.00000000000E+00  0.00000000000E+00 -0.13835832009E+04  0.13835832009E+04  0.50400001928E-02 0.  1.
    10030    2    1    2    0    0  0.00000000000E+00  0.00000000000E+00 -0.16181339731E+03  0.26053530045E+04  0.26003231919E+04 0.  0.
        4    1    3    3  502    0 -0.83685181276E+03 -0.62823867357E+03  0.69221646367E+03  0.12546593294E+04  0.12699999809E+01 0. -1.
       -4    1    3    3    0  502  0.83685181276E+03  0.62823867357E+03 -0.85402986098E+03  0.13506936751E+04  0.12699999809E+01 0.  1.
</event>
<event>
 5   0  0.6780984E-07  0.2599553E+04  0.7818609E-02  0.8368353E-01
        2   -1    0    0  501    0  0.00000000000E+00  0.00000000000E+00  0.24072504724E+04  0.24072504724E+04  0.25500000920E-02 0. -1.
       -2   -1    0    0    0  501  0.00000000000E+00  0.00000000000E+00 -0.70180455530E+03  0.70180455530E+03  0.25500000920E-02 0.  1.
    10030    2    1    2    0    0  0.00000000000E+00  0.00000000000E+00  0.17054459171E+04  0.31090550277E+04  0.25995533057E+04 0.  0.
        2    1    3    3  502    0 -0.75058366754E+03  0.31371395724E+03  0.20651271998E+04  0.22195816363E+04  0.25500000920E-02 0. -1.
       -2    1    3    3    0  502  0.75058366754E+03 -0.31371395724E+03 -0.35968128265E+03  0.88947339142E+03  0.25500000920E-02 0.  1.
</event>
<event>
 5   0  0.7160320E-07  0.2600927E+04  0.7818609E-02  0.8367886E-01
       -2   -1    0    0    0  501  0.00000000000E+00  0.00000000000E+00  0.98429232441E+03  0.98429232441E+03  0.25500000920E-02 0. -1.
        2   -1    0    0  501    0  0.00000000000E+00  0.00000000000E+00 -0.17181943353E+04  0.17181943353E+04  0.25500000920E-02 0.  1.
    10030    2    1    2    0    0  0.00000000000E+00  0.00000000000E+00 -0.73390201094E+03  0.27024866598E+04  0.26009271394E+04 0.  0.
        1    1    3    3  502    0  0.39390182710E+03 -0.54771349902E+03  0.78824208142E+03  0.10375327972E+04  0.50400001928E-02 0. -1.
       -1    1    3    3    0  502 -0.39390182710E+03  0.54771349902E+03 -0.15221440924E+04  0.16649538625E+04  0.50400001928E-02 0.  1.
</event>
<event>
 5   0  0.7160320E-07  0.2600807E+04  0.7818609E-02  0.8367927E-01
       -2   -1    0    0    0  501  0.00000000000E+00  0.00000000000E+00  0.17133624957E+04  0.17133624958E+04  0.25500000920E-02 0. -1.
        2   -1    0    0  501    0  0.00000000000E+00  0.00000000000E+00 -0.98697731048E+03  0.98697731048E+03  0.25500000920E-02 0.  1.
    10030    2    1    2    0    0  0.00000000000E+00  0.00000000000E+00  0.72638518527E+03  0.27003398062E+04  0.26008074961E+04 0.  0.
        1    1    3    3  502    0 -0.83161173674E+02  0.71633062641E+03 -0.76034990351E+03  0.10479395607E+04  0.50400001928E-02 0.  1.
       -1    1    3    3    0  502  0.83161173674E+02 -0.71633062641E+03  0.14867350888E+04  0.16524002455E+04  0.50400001928E-02 0. -1.
</event>
<event>
 5   0  0.2793576E-07  0.2597340E+04  0.7818609E-02  0.8369105E-01
       -1   -1    0    0    0  501  0.00000000000E+00  0.00000000000E+00  0.13504755871E+04  0.13504755871E+04  0.50400001928E-02 0.  1.
        1   -1    0    0  501    0  0.00000000000E+00  0.00000000000E+00 -0.12488520074E+04  0.12488520074E+04  0.50400001928E-02 0. -1.
    10030    2    1    2    0    0  0.00000000000E+00  0.00000000000E+00  0.10162357964E+03  0.25993275945E+04  0.25973402919E+04 0.  0.
        2    1    3    3  502    0  0.11124973813E+04 -0.66925859393E+03  0.82246952551E+02  0.13008927896E+04  0.25500000920E-02 0. -1.
       -2    1    3    3    0  502 -0.11124973813E+04  0.66925859393E+03  0.19376627093E+02  0.12984348049E+04  0.25500000920E-02 0.  1.
</event>
<event>
 5   0  0.6599814E-07  0.2599884E+04  0.7818609E-02  0.8368240E-01
        2   -1    0    0  501    0  0.00000000000E+00  0.00000000000E+00  0.19241172838E+04  0.19241172838E+04  0.25500000920E-02 0. -1.
       -2   -1    0    0    0  501  0.00000000000E+00  0.00000000000E+00 -0.87824667148E+03  0.87824667148E+03  0.25500000920E-02 0.  1.
    10030    2    1    2    0    0  0.00000000000E+00  0.00000000000E+00  0.10458706123E+04  0.28023639553E+04  0.25998843051E+04 0.  0.
        5    1    3    3  502    0  0.16634692129E+03  0.78440330568E+03 -0.57991459631E+03  0.98958722364E+03  0.46999998093E+01 0.  1.
       -5    1    3    3    0  502 -0.16634692129E+03 -0.78440330568E+03  0.16257852086E+04  0.18127767316E+04  0.46999998093E+01 0. -1.
</event>
<event>
 5   0  0.2755061E-07  0.2600009E+04  0.7818609E-02  0.8368198E-01
       -1   -1    0    0    0  501  0.00000000000E+00  0.00000000000E+00  0.83439773557E+03  0.83439773559E+03  0.50400001928E-02 0. -1.
        1   -1    0    0  501    0  0.00000000000E+00  0.00000000000E+00 -0.20254274430E+04  0.20254274430E+04  0.50400001928E-02 0.  1.
    10030    2    1    2    0    0  0.00000000000E+00  0.00000000000E+00 -0.11910297075E+04  0.28598251786E+04  0.26000092862E+04 0.  0.
        4    1    3    3  502    0  0.10886995394E+04 -0.65521966617E+03 -0.89760698065E+03  0.15557247195E+04  0.12699999809E+01 0.  1.
       -4    1    3    3    0  502 -0.10886995394E+04  0.65521966617E+03 -0.29342272681E+03  0.13041004592E+04  0.12699999809E+01 0. -1.
</event>
<event>
 5   0  0.2623263E-07  0.2612480E+04  0.7818609E-02  0.8363974E-01
       -1   -1    0    0    0  501  0.00000000000E+00  0.00000000000E+00  0.16107381781E+04  0.16107381781E+04  0.50400001928E-02 0.  1.
        1   -1    0    0  501    0  0.00000000000E+00  0.00000000000E+00 -0.10593047671E+04  0.10593047671E+04  0.50400001928E-02 0. -1.
    10030    2    1    2    0    0  0.00000000000E+00  0.00000000000E+00  0.55143341103E+03  0.26700429452E+04  0.26124797649E+04 0.  0.
        1    1    3    3  502    0  0.81030826624E+03  0.21824120576E+03  0.12987894692E+04  0.15463126448E+04  0.50400001928E-02 0.  1.
       -1    1    3    3    0  502 -0.81030826624E+03 -0.21824120576E+03 -0.74735605816E+03  0.11237303004E+04  0.50400001928E-02 0. -1.
</event>
<event>
 5   0  0.2623263E-07  0.2600130E+04  0.7818609E-02  0.8368157E-01
        1   -1    0    0  501    0  0.00000000000E+00  0.00000000000E+00  0.11102434487E+04  0.11102434487E+04  0.50400001928E-02 0. -1.
       -1   -1    0    0    0  501  0.00000000000E+00  0.00000000000E+00 -0.15223403849E+04  0.15223403849E+04  0.50400001928E-02 0.  1.
    10030    2    1    2    0    0  0.00000000000E+00  0.00000000000E+00 -0.41209693620E+03  0.26325838336E+04  0.26001295653E+04 0.  0.
        1    1    3    3  502    0 -0.12658860321E+04  0.29548863119E+03 -0.18611872894E+03  0.13131721740E+04  0.50400001928E-02 0.  1.
       -1    1    3    3    0  502  0.12658860321E+04 -0.29548863119E+03 -0.22597820726E+03  0.13194116596E+04  0.50400001928E-02 0. -1.
</event>
<event>
 5   0  0.2793576E-07  0.2607984E+04  0.7818609E-02  0.8365494E-01
        1   -1    0    0  501    0  0.00000000000E+00  0.00000000000E+00  0.10458682509E+04  0.10458682509E+04  0.50400001928E-02 0.  1.
       -1   -1    0    0    0  501  0.00000000000E+00  0.00000000000E+00 -0.16258213550E+04  0.16258213550E+04  0.50400001928E-02 0. -1.
    10030    2    1    2    0    0  0.00000000000E+00  0.00000000000E+00 -0.57995310407E+03  0.26716896059E+04  0.26079838472E+04 0.  0.
        2    1    3    3  502    0  0.42520589767E+03  0.10511745342E+04 -0.94962095661E+03  0.14790361449E+04  0.25500000920E-02 0. -1.
       -2    1    3    3    0  502 -0.42520589767E+03 -0.10511745342E+04  0.36966785254E+03  0.11926534610E+04  0.25500000920E-02 0.  1.
</event>
<event>
 5   0  0.2641626E-07  0.2601994E+04  0.7818609E-02  0.8367524E-01
        1   -1    0    0  501    0  0.00000000000E+00  0.00000000000E+00  0.21235909044E+04  0.21235909045E+04  0.50400001928E-02 0.  1.
       -1   -1    0    0    0  501  0.00000000000E+00  0.00000000000E+00 -0.79704279670E+03  0.79704279671E+03  0.50400001928E-02 0. -1.
    10030    2    1    2    0    0  0.00000000000E+00  0.00000000000E+00  0.13265481078E+04  0.29206337012E+04  0.26019937229E+04 0.  0.
        3    1    3    3  502    0  0.23006841850E+03  0.12593906075E+04  0.40341392721E+03  0.13422887120E+04  0.10100000352E+00 0.  1.
       -3    1    3    3    0  502 -0.23006841850E+03 -0.12593906075E+04  0.92313418054E+03  0.15783449892E+04  0.10100000352E+00 0. -1.
</event>
<event>
 5   0  0.6526351E-07  0.2600127E+04  0.7818609E-02  0.8368158E-01
       -2   -1    0    0    0  501  0.00000000000E+00  0.00000000000E+00  0.10710462244E+04  0.10710462244E+04  0.25500000920E-02 0. -1.
        2   -1    0    0  501    0  0.00000000000E+00  0.00000000000E+00 -0.15780510854E+04  0.15780510854E+04  0.25500000920E-02 0.  1.
    10030    2    1    2    0    0  0.00000000000E+00  0.00000000000E+00 -0.50700486100E+03  0.26490973097E+04  0.26001274252E+04 0.  0.
        3    1    3    3  502    0  0.77695373172E+03  0.35758835962E+03  0.74403879109E+03  0.11336314520E+04  0.10100000352E+00 0. -1.
       -3    1    3    3    0  502 -0.77695373172E+03 -0.35758835962E+03 -0.12510436521E+04  0.15154658577E+04  0.10100000352E+00 0.  1.
</event>
<event>
 5   0  0.2641626E-07  0.2602424E+04  0.7818609E-02  0.8367378E-01
       -1   -1    0    0    0  501  0.00000000000E+00  0.00000000000E+00  0.99282226157E+03  0.99282226158E+03  0.50400001928E-02 0. -1.
        1   -1    0    0  501    0  0.00000000000E+00  0.00000000000E+00 -0.17053931672E+04  0.17053931672E+04  0.50400001928E-02 0.  1.
    10030    2    1    2    0    0  0.00000000000E+00  0.00000000000E+00 -0.71257090562E+03  0.26982154288E+04  0.26024237173E+04 0.  0.
        3    1    3    3  502    0  0.12333501407E+04  0.20395579711E+03  0.18118417808E+02  0.12502315082E+04  0.10100000352E+00 0.  1.
       -3    1    3    3    0  502 -0.12333501407E+04 -0.20395579711E+03 -0.73068932343E+03  0.14479839206E+04  0.10100000352E+00 0. -1.
</event>
<event>
 5   0  0.6768478E-07  0.2598649E+04  0.7818609E-02  0.8368660E-01
        2   -1    0    0  501    0  0.00000000000E+00  0.00000000000E+00  0.14435441787E+04  0.14435441787E+04  0.25500000920E-02 0. -1.
       -2   -1    0    0    0  501  0.00000000000E+00  0.00000000000E+00 -0.11695137197E+04  0.11695137197E+04  0.25500000920E-02 0.  1.
    10030    2    1    2    0    0  0.00000000000E+00  0.00000000000E+00  0.27403045901E+03  0.26130578983E+04  0.25986494353E+04 0.  0.
        4    1    3    3  502    0 -0.24008296531E+03  0.36738999832E+03 -0.10927242364E+04  0.11775666057E+04  0.12699999809E+01 0.  1.
       -4    1    3    3    0  502  0.24008296531E+03 -0.36738999832E+03  0.13667546954E+04  0.14354912927E+04  0.12699999809E+01 0. -1.
</event>
<event>
 5   0  0.6526351E-07  0.2601700E+04  0.7818609E-02  0.8367624E-01
        2   -1    0    0  501    0  0.00000000000E+00  0.00000000000E+00  0.21655720382E+04  0.21655720382E+04  0.25500000920E-02 0.  1.
       -2   -1    0    0    0  501  0.00000000000E+00  0.00000000000E+00 -0.78141489297E+03  0.78141489297E+03  0.25500000920E-02 0. -1.
    10030    2    1    2    0    0  0.00000000000E+00  0.00000000000E+00  0.13841571453E+04  0.29469869312E+04  0.26016996310E+04 0.  0.
        3    1    3    3  502    0 -0.88499234517E+03 -0.95338175459E+03  0.70099840024E+03  0.14776829796E+04  0.10100000352E+00 0.  1.
       -3    1    3    3    0  502  0.88499234517E+03  0.95338175459E+03  0.68315874504E+03  0.14693039516E+04  0.10100000352E+00 0. -1.
</event>
<event>
 5   0  0.6780984E-07  0.2600729E+04  0.7818609E-02  0.8367954E-01
        2   -1    0    0  501    0  0.00000000000E+00  0.00000000000E+00  0.16492310741E+04  0.16492310741E+04  0.25500000920E-02 0. -1.
       -2   -1    0    0    0  501  0.00000000000E+00  0.00000000000E+00 -0.10252948955E+04  0.10252948955E+04  0.25500000920E-02 0.  1.
    10030    2    1    2    0    0  0.00000000000E+00  0.00000000000E+00  0.62393617860E+03  0.26745259697E+04  0.26007292838E+04 0.  0.
        2    1    3    3  502    0 -0.24063136866E+03 -0.78806328257E+03 -0.72255965980E+03  0.10959195476E+04  0.25500000920E-02 0.  1.
       -2    1    3    3    0  502  0.24063136866E+03  0.78806328257E+03  0.13464958384E+04  0.15786064221E+04  0.25500000920E-02 0. -1.
</event>
<event>
 5   0  0.2864801E-07  0.2600495E+04  0.7818609E-02  0.8368033E-01
       -1   -1    0    0    0  501  0.00000000000E+00  0.00000000000E+00  0.12370569646E+04  0.12370569646E+04  0.50400001928E-02 0. -1.
        1   -1    0    0  501    0  0.00000000000E+00  0.00000000000E+00 -0.13666658124E+04  0.13666658124E+04  0.50400001928E-02 0.  1.
    10030    2    1    2    0    0  0.00000000000E+00  0.00000000000E+00 -0.12960884776E+03  0.26037227770E+04  0.26004949233E+04 0.  0.
        5    1    3    3  502    0 -0.37306072517E+02 -0.11261101511E+04 -0.71453636557E+03  0.13342039286E+04  0.46999998093E+01 0.  1.
       -5    1    3    3    0  502  0.37306072517E+02  0.11261101511E+04  0.58492751781E+03  0.12695188484E+04  0.46999998093E+01 0. -1.
</event>
<event>
 5   0  0.2623263E-07  0.2600522E+04  0.7818609E-02  0.8368024E-01
        1   -1    0    0  501    0  0.00000000000E+00  0.00000000000E+00  0.23229336315E+04  0.23229336315E+04  0.50400001928E-02 0. -1.
       -1   -1    0    0    0  501  0.00000000000E+00  0.00000000000E+00 -0.72782054528E+03  0.72782054530E+03  0.50400001928E-02 0.  1.
    10030    2    1    2    0    0  0.00000000000E+00  0.00000000000E+00  0.15951130862E+04  0.30507541768E+04  0.26005221186E+04 0.  0.
        1    1    3    3  502    0 -0.24962082059E+03 -0.95064876093E+03 -0.20107752156E+03  0.10032326701E+04  0.50400001928E-02 0.  1.
       -1    1    3    3    0  502  0.24962082059E+03  0.95064876093E+03  0.17961906078E+04  0.20475215066E+04  0.50400001928E-02 0. -1.
</event>
<event>
 5   0  0.6768478E-07  0.2599178E+04  0.7818609E-02  0.8368481E-01
       -2   -1    0    0    0  501  0.00000000000E+00  0.00000000000E+00  0.14250052814E+04  0.14250052814E+04  0.25500000920E-02 0. -1.
        2   -1    0    0  501    0  0.00000000000E+00  0.00000000000E+00 -0.11852106229E+04  0.11852106229E+04  0.25500000920E-02 0.  1.
    10030    2    1    2    0    0  0.00000000000E+00  0.00000000000E+00  0.23979465845E+03  0.26102159043E+04  0.25991778679E+04 0.  0.
        4    1    3    3  502    0 -0.98137699738E+03 -0.78372317084E+03 -0.21559769231E+03  0.12742867799E+04  0.12699999809E+01 0. -1.
       -4    1    3    3    0  502  0.98137699738E+03  0.78372317084E+03  0.45539235076E+03  0.13359291244E+04  0.12699999809E+01 0.  1.
</event>
<event>
 5   0  0.6768478E-07  0.2598527E+04  0.7818609E-02  0.8368702E-01
       -2   -1    0    0    0  501  0.00000000000E+00  0.00000000000E+00  0.91567472995E+03  0.91567472995E+03  0.25500000920E-02 0. -1.
        2   -1    0    0  501    0  0.00000000000E+00  0.00000000000E+00 -0.18435423883E+04  0.18435423883E+04  0.25500000920E-02 0.  1.
    10030    2    1    2    0    0  0.00000000000E+00  0.00000000000E+00 -0.92786765830E+03  0.27592171182E+04  0.25985266429E+04 0.  0.
        4    1    3    3  502    0 -0.97326087768E+03 -0.67328171440E+03  0.10545212609E+03  0.11881358368E+04  0.12699999809E+01 0. -1.
       -4    1    3    3    0  502  0.97326087768E+03  0.67328171440E+03 -0.10333197844E+04  0.15710812814E+04  0.12699999809E+01 0.  1.
</event>
<event>
 5   0  0.6599814E-07  0.2599610E+04  0.7818609E-02  0.8368334E-01
       -2   -1    0    0    0  501  0.00000000000E+00  0.00000000000E+00  0.17054960008E+04  0.17054960008E+04  0.25500000920E-02 0.  1.
        2   -1    0    0  501    0  0.00000000000E+00  0.00000000000E+00 -0.99061717105E+03  0.99061717105E+03  0.25500000920E-02 0. -1.
    10030    2    1    2    0    0  0.00000000000E+00  0.00000000000E+00  0.71487882975E+03  0.26961131719E+04  0.25996104505E+04 0.  0.
        5    1    3    3  502    0  0.10217255455E+04  0.27780269404E+03  0.11393318048E+04  0.15553766356E+04  0.46999998093E+01 0.  1.
       -5    1    3    3    0  502 -0.10217255455E+04 -0.27780269404E+03 -0.42445297509E+03  0.11407365362E+04  0.46999998093E+01 0. -1.
</event>
<event>
 5   0  0.6526351E-07  0.2601791E+04  0.7818609E-02  0.8367593E-01
       -2   -1    0    0    0  501  0.00000000000E+00  0.00000000000E+00  0.66334682491E+03  0.66334682492E+03  0.25500000920E-02 0.  1.
        2   -1    0    0  501    0  0.00000000000E+00  0.00000000000E+00 -0.25511984437E+04  0.25511984437E+04  0.25500000920E-02 0. -1.
    10030    2    1    2    0    0  0.00000000000E+00  0.00000000000E+00 -0.18878516188E+04  0.32145452686E+04  0.26017912194E+04 0.  0.
        3    1    3    3  502    0  0.69955069321E+03  0.10904904551E+04 -0.79884502399E+03  0.15220689826E+04  0.10100000352E+00 0.  1.
       -3    1    3    3    0  502 -0.69955069321E+03 -0.10904904551E+04 -0.10890065948E+04  0.16924762860E+04  0.10100000352E+00 0. -1.
</event>
<event>
 5   0  0.6768478E-07  0.2600627E+04  0.7818609E-02  0.8367988E-01
        2   -1    0    0  501    0  0.00000000000E+00  0.00000000000E+00  0.12321274547E+04  0.12321274547E+04  0.25500000920E-02 0.  1.
       -2   -1    0    0    0  501  0.00000000000E+00  0.00000000000E+00 -0.13722725023E+04  0.13722725023E+04  0.25500000920E-02 0. -1.
    10030    2    1    2    0    0  0.00000000000E+00  0.00000000000E+00 -0.14014504761E+03  0.26043999569E+04  0.26006265594E+04 0.  0.
        4    1    3    3  502    0  0.12841380399E+04 -0.81709639867E+02  0.11761884086E+03  0.12921001414E+04  0.12699999809E+01 0. -1.
       -4    1    3    3    0  502 -0.12841380399E+04  0.81709639867E+02 -0.25776388846E+03  0.13122998155E+04  0.12699999809E+01 0.  1.
</event>
<event>
 5   0  0.2864801E-07  0.2599617E+04  0.7818609E-02  0.8368331E-01
        1   -1    0    0  501    0  0.00000000000E+00  0.00000000000E+00  0.14491660519E+04  0.14491660519E+04  0.50400001928E-02 0. -1.
       -1   -1    0    0    0  501  0.00000000000E+00  0.00000000000E+00 -0.11658441258E+04  0.11658441258E+04  0.50400001928E-02 0.  1.
    10030    2    1    2    0    0  0.00000000000E+00  0.00000000000E+00  0.28332192611E+03  0.26150101777E+04  0.25996166863E+04 0.  0.
        5    1    3    3  502    0 -0.11574202707E+04 -0.54081786343E+01 -0.45330454667E+03  0.12430438582E+04  0.46999998093E+01 0.  1.
       -5    1    3    3    0  502  0.11574202707E+04  0.54081786343E+01  0.73662647277E+03  0.13719663195E+04  0.46999998093E+01 0. -1.
</event>
<event>
 5   0  0.2793576E-07  0.2600106E+04  0.7818609E-02  0.8368165E-01
       -1   -1    0    0    0  501  0.00000000000E+00  0.00000000000E+00  0.88606333230E+03  0.88606333232E+03  0.50400001928E-02 0. -1.
        1   -1    0    0  501    0  0.00000000000E+00  0.00000000000E+00 -0.19074690353E+04  0.19074690354E+04  0.50400001928E-02 0.  1.
    10030    2    1    2    0    0  0.00000000000E+00  0.00000000000E+00 -0.10214057030E+04  0.27935323677E+04  0.26001064361E+04 0.  0.
        2    1    3    3  502    0  0.70222549632E+03 -0.93856020399E+03  0.93371312697E+02  0.11758971495E+04  0.25500000920E-02 0. -1.
       -2    1    3    3    0  502 -0.70222549632E+03  0.93856020399E+03 -0.11147770157E+04  0.16176352182E+04  0.25500000920E-02 0.  1.
</event>
<event>
 5   0  0.6768478E-07  0.2599125E+04  0.7818609E-02  0.8368499E-01
       -2   -1    0    0    0  501  0.00000000000E+00  0.00000000000E+00  0.13496567035E+04  0.13496567035E+04  0.25500000920E-02 0. -1.
        2   -1    0    0  501    0  0.00000000000E+00  0.00000000000E+00 -0.12513271343E+04  0.12513271343E+04  0.25500000920E-02 0.  1.
    10030    2    1    2    0    0  0.00000000000E+00  0.00000000000E+00  0.98329569250E+02  0.26009838378E+04  0.25991245104E+04 0.  0.
        4    1    3    3  502    0 -0.12814529017E+04 -0.36469862602E+02  0.26241075378E+03  0.13085536316E+04  0.12699999809E+01 0. -1.
       -4    1    3    3    0  502  0.12814529017E+04  0.36469862602E+02 -0.16408118453E+03  0.12924302063E+04  0.12699999809E+01 0.  1.
</event>
<event>
 5   0  0.6526351E-07  0.2599790E+04  0.7818609E-02  0.8368273E-01
       -2   -1    0    0    0  501  0.00000000000E+00  0.00000000000E+00  0.79055540372E+03  0.79055540372E+03  0.25500000920E-02 0.  1.
        2   -1    0    0  501    0  0.00000000000E+00  0.00000000000E+00 -0.21373922270E+04  0.21373922270E+04  0.25500000920E-02 0. -1.
    10030    2    1    2    0    0  0.00000000000E+00  0.00000000000E+00 -0.13468368233E+04  0.29279476307E+04  0.25997899722E+04 0.  0.
        3    1    3    3  502    0 -0.58976504713E+03 -0.45165430835E+03 -0.18747958786E+04  0.20165996186E+04  0.10100000352E+00 0. -1.
       -3    1    3    3    0  502  0.58976504713E+03  0.45165430835E+03  0.52795905527E+03  0.91134801218E+03  0.10100000352E+00 0.  1.
</event>
<event>
 5   0  0.2294625E-07  0.2597770E+04  0.7818609E-02  0.8368959E-01
       -3   -1    0    0    0  501  0.00000000000E+00  0.00000000000E+00  0.13748355258E+04  0.13748355295E+04  0.10100000352E+00 0.  1.
        3   -1    0    0  501    0  0.00000000000E+00  0.00000000000E+00 -0.12271301603E+04  0.12271301645E+04  0.10100000352E+00 0. -1.
    10030    2    1    2    0    0  0.00000000000E+00  0.00000000000E+00  0.14770536547E+03  0.26019656940E+04  0.25977699278E+04 0.  0.
        1    1    3    3  502    0 -0.54857320867E+03  0.11444087747E+04  0.35088237587E+03  0.13167089468E+04  0.50400001928E-02 0.  1.
       -1    1    3    3    0  502  0.54857320867E+03 -0.11444087747E+04 -0.20317701040E+03  0.12852567473E+04  0.50400001928E-02 0. -1.
</event>
<event>
 5   0  0.6780984E-07  0.2599747E+04  0.7818609E-02  0.8368287E-01
       -2   -1    0    0    0  501  0.00000000000E+00  0.00000000000E+00  0.92905187551E+03  0.92905187551E+03  0.25500000920E-02 0.  1.
        2   -1    0    0  501    0  0.00000000000E+00  0.00000000000E+00 -0.18187048171E+04  0.18187048171E+04  0.25500000920E-02 0. -1.
    10030    2    1    2    0    0  0.00000000000E+00  0.00000000000E+00 -0.88965294157E+03  0.27477566926E+04  0.25997470041E+04 0.  0.
        2    1    3    3  502    0  0.66907592029E+03  0.62302070983E+03  0.53182346923E+03  0.10576642163E+04  0.25500000920E-02 0.  1.
       -2    1    3    3    0  502 -0.66907592029E+03 -0.62302070983E+03 -0.14214764108E+04  0.16900924763E+04  0.25500000920E-02 0. -1.
</event>
<event>
 5   0  0.6768478E-07  0.2600843E+04  0.7818609E-02  0.8367915E-01
        2   -1    0    0  501    0  0.00000000000E+00  0.00000000000E+00  0.13706805840E+04  0.13706805840E+04  0.25500000920E-02 0. -1.
       -2   -1    0    0    0  501  0.00000000000E+00  0.00000000000E+00 -0.12337642412E+04  0.12337642412E+04  0.25500000920E-02 0.  1.
    10030    2    1    2    0    0  0.00000000000E+00  0.00000000000E+00  0.13691634282E+03  0.26044448252E+04  0.26008434714E+04 0.  0.
        4    1    3    3  502    0  0.42229492377E+03  0.10409595836E+03 -0.11587697541E+04  0.12377067209E+04  0.12699999809E+01 0.  1.
       -4    1    3    3    0  502 -0.42229492377E+03 -0.10409595836E+03  0.12956860969E+04  0.13667381043E+04  0.12699999809E+01 0. -1.
</event>
<event>
 5   0  0.2623263E-07  0.2600596E+04  0.7818609E-02  0.8367999E-01
        1   -1    0    0  501    0  0.00000000000E+00  0.00000000000E+00  0.16256950101E+04  0.16256950101E+04  0.50400001928E-02 0. -1.
       -1   -1    0    0    0  501  0.00000000000E+00  0.00000000000E+00 -0.10400316840E+04  0.10400316840E+04  0.50400001928E-02 0.  1.
    10030    2    1    2    0    0  0.00000000000E+00  0.00000000000E+00  0.58566332611E+03  0.26657266941E+04  0.26005955618E+04 0.  0.
        1    1    3    3  502    0  0.59256068143E+03  0.21221166305E+03 -0.87347479321E+03  0.10766244310E+04  0.50400001928E-02 0.  1.
       -1    1    3    3    0  502 -0.59256068143E+03 -0.21221166305E+03  0.14591381193E+04  0.15891022630E+04  0.50400001928E-02 0. -1.
</event>
<event>
 5   0  0.6780984E-07  0.2600210E+04  0.7818609E-02  0.8368130E-01
       -2   -1    0    0    0  501  0.00000000000E+00  0.00000000000E+00  0.13186151844E+04  0.13186151844E+04  0.25500000920E-02 0.  1.
        2   -1    0    0  501    0  0.00000000000E+00  0.00000000000E+00 -0.12818544526E+04  0.12818544526E+04  0.25500000920E-02 0. -1.
    10030    2    1    2    0    0  0.00000000000E+00  0.00000000000E+00  0.36760731836E+02  0.26004696370E+04  0.26002097957E+04 0.  0.
        2    1    3    3  502    0  0.10124267360E+04  0.46801035955E+03  0.68645247427E+03  0.13096788125E+04  0.25500000920E-02 0.  1.
       -2    1    3    3    0  502 -0.10124267360E+04 -0.46801035955E+03 -0.64969174243E+03  0.12907908245E+04  0.25500000920E-02 0. -1.
</event>
<event>
 5   0  0.2864801E-07  0.2600009E+04  0.7818609E-02  0.8368198E-01
       -1   -1    0    0    0  501  0.00000000000E+00  0.00000000000E+00  0.12700237803E+04  0.12700237804E+04  0.50400001928E-02 0.  1.
        1   -1    0    0  501    0  0.00000000000E+00  0.00000000000E+00 -0.13306931747E+04  0.13306931747E+04  0.50400001928E-02 0. -1.
    10030    2    1    2    0    0  0.00000000000E+00  0.00000000000E+00 -0.60669394318E+02  0.26007169550E+04  0.26000092124E+04 0.  0.
        5    1    3    3  502    0 -0.10813076632E+03 -0.96203466996E+03 -0.89820381285E+03  0.13206040846E+04  0.46999998093E+01 0. -1.
       -5    1    3    3    0  502  0.10813076632E+03  0.96203466996E+03  0.83753441853E+03  0.12801128704E+04  0.46999998093E+01 0.  1.
</event>
<event>
 5   0  0.2641626E-07  0.2601096E+04  0.7818609E-02  0.8367829E-01
        1   -1    0    0  501    0  0.00000000000E+00  0.00000000000E+00  0.25158627114E+04  0.25158627114E+04  0.50400001928E-02 0. -1.
       -1   -1    0    0    0  501  0.00000000000E+00  0.00000000000E+00 -0.67230414831E+03  0.67230414833E+03  0.50400001928E-02 0.  1.
    10030    2    1    2    0    0  0.00000000000E+00  0.00000000000E+00  0.18435585631E+04  0.31881668597E+04  0.26010958748E+04 0.  0.
        3    1    3    3  502    0 -0.63104120435E+03 -0.83460032249E+03  0.18685526729E+04  0.21415554631E+04  0.10100000352E+00 0. -1.
       -3    1    3    3    0  502  0.63104120435E+03  0.83460032249E+03 -0.24994109799E+02  0.10466113967E+04  0.10100000352E+00 0.  1.
</event>
<event>
 5   0  0.6599814E-07  0.2600686E+04  0.7818609E-02  0.8367968E-01
        2   -1    0    0  501    0  0.00000000000E+00  0.00000000000E+00  0.18832701152E+04  0.18832701152E+04  0.25500000920E-02 0.  1.
       -2   -1    0    0    0  501  0.00000000000E+00  0.00000000000E+00 -0.89784898173E+03  0.89784898174E+03  0.25500000920E-02 0. -1.
    10030    2    1    2    0    0  0.00000000000E+00  0.00000000000E+00  0.98542113343E+03  0.27811190969E+04  0.26006861827E+04 0.  0.
        5    1    3    3  502    0  0.54685759686E+02  0.99634838567E+03 -0.39890361782E+03  0.10746379968E+04  0.46999998093E+01 0. -1.
       -5    1    3    3    0  502 -0.54685759686E+02 -0.99634838567E+03  0.13843247513E+04  0.17064811001E+04  0.46999998093E+01 0.  1.
</event>
<event>
 5   0  0.2864801E-07  0.2600084E+04  0.7818609E-02  0.8368173E-01
       -1   -1    0    0    0  501  0.00000000000E+00  0.00000000000E+00  0.79013541170E+03  0.79013541172E+03  0.50400001928E-02 0.  1.
        1   -1    0    0  501    0  0.00000000000E+00  0.00000000000E+00 -0.21390123902E+04  0.21390123902E+04  0.50400001928E-02 0. -1.
    10030    2    1    2    0    0  0.00000000000E+00  0.00000000000E+00 -0.13488769785E+04  0.29291478020E+04  0.26000841799E+04 0.  0.
        5    1    3    3  502    0 -0.11859028880E+04  0.47637442429E+03 -0.40597430997E+03  0.13409457417E+04  0.46999998093E+01 0.  1.
       -5    1    3    3    0  502  0.11859028880E+04 -0.47637442429E+03 -0.94290266856E+03  0.15882020603E+04  0.46999998093E+01 0. -1.
</event>
<event>
 5   0  0.6526351E-07  0.2597463E+04  0.7818609E-02  0.8369064E-01
        2   -1    0    0  501    0  0.00000000000E+00  0.00000000000E+00  0.21801893448E+04  0.21801893448E+04  0.25500000920E-02 0.  1.
       -2   -1    0    0    0  501  0.00000000000E+00  0.00000000000E+00 -0.77364991849E+03  0.77364991850E+03  0.25500000920E-02 0. -1.
    10030    2    1    2    0    0  0.00000000000E+00  0.00000000000E+00  0.14065394263E+04  0.29538392633E+04  0.25974628459E+04 0.  0.
        3    1    3    3  502    0  0.15810670575E+03 -0.55907694888E+02 -0.76128538026E+03  0.77953758162E+03  0.10100000352E+00 0. -1.
       -3    1    3    3    0  502 -0.15810670575E+03  0.55907694888E+02  0.21678248066E+04  0.21743016817E+04  0.10100000352E+00 0.  1.
</event>
<event>
 5   0  0.2623263E-07  0.2599236E+04  0.7818609E-02  0.8368461E-01
        1   -1    0    0  501    0  0.00000000000E+00  0.00000000000E+00  0.17614936062E+04  0.17614936062E+04  0.50400001928E-02 0.  1.
       -1   -1    0    0    0  501  0.00000000000E+00  0.00000000000E+00 -0.95884906558E+03  0.95884906559E+03  0.50400001928E-02 0. -1.
    10030    2    1    2    0    0  0.00000000000E+00  0.00000000000E+00  0.80264454059E+03  0.27203426718E+04  0.25992356556E+04 0.  0.
        1    1    3    3  502    0  0.67443643363E+03  0.83009379094E+03  0.11740216950E+04  0.15881584131E+04  0.50400001928E-02 0.  1.
       -1    1    3    3    0  502 -0.67443643363E+03 -0.83009379094E+03 -0.37137715439E+03  0.11321842587E+04  0.50400001928E-02 0. -1.
</event>
<event>
 5   0  0.2864801E-07  0.2599917E+04  0.7818609E-02  0.8368229E-01
       -1   -1    0    0    0  501  0.00000000000E+00  0.00000000000E+00  0.21177834437E+04  0.21177834438E+04  0.50400001928E-02 0.  1.
        1   -1    0    0  501    0  0.00000000000E+00  0.00000000000E+00 -0.79795341065E+03  0.79795341067E+03  0.50400001928E-02 0. -1.
    10030    2    1    2    0    0  0.00000000000E+00  0.00000000000E+00  0.13198300331E+04  0.29157368544E+04  0.25999173233E+04 0.  0.
        5    1    3    3  502    0  0.96443621483E+03 -0.77090286002E+03  0.20376082044E+03  0.12513868283E+04  0.46999998093E+01 0. -1.
       -5    1    3    3    0  502 -0.96443621483E+03  0.77090286002E+03  0.11160692127E+04  0.16643500261E+04  0.46999998093E+01 0.  1.
</event>
<event>
 5   0  0.6526351E-07  0.2600525E+04  0.7818609E-02  0.8368023E-01
       -2   -1    0    0    0  501  0.00000000000E+00  0.00000000000E+00  0.10170633027E+04  0.10170633027E+04  0.25500000920E-02 0. -1.
        2   -1    0    0  501    0  0.00000000000E+00  0.00000000000E+00 -0.16623176732E+04  0.16623176732E+04  0.25500000920E-02 0.  1.
    10030    2    1    2    0    0  0.00000000000E+00  0.00000000000E+00 -0.64525437054E+03  0.26793809760E+04  0.26005247954E+04 0.  0.
        3    1    3    3  502    0  0.11860907891E+04  0.44060189871E+03 -0.13975480876E+02  0.12653603113E+04  0.10100000352E+00 0. -1.
       -3    1    3    3    0  502 -0.11860907891E+04 -0.44060189871E+03 -0.63127888966E+03  0.14140206646E+04  0.10100000352E+00 0.  1.
</event>
<event>
 5   0  0.6599814E-07  0.2598394E+04  0.7818609E-02  0.8368747E-01
        2   -1    0    0  501    0  0.00000000000E+00  0.00000000000E+00  0.17865199717E+04  0.17865199717E+04  0.25500000920E-02 0.  1.
       -2   -1    0    0    0  501  0.00000000000E+00  0.00000000000E+00 -0.94480464096E+03  0.94480464097E+03  0.25500000920E-02 0. -1.
    10030    2    1    2    0    0  0.00000000000E+00  0.00000000000E+00  0.84171533075E+03  0.27313246127E+04  0.25983936272E+04 0.  0.
        5    1    3    3  502    0 -0.98453856084E+03  0.23466456549E+03  0.12770887900E+04  0.16295280003E+04  0.46999998093E+01 0.  1.
       -5    1    3    3    0  502  0.98453856084E+03 -0.23466456549E+03 -0.43537345927E+03  0.11017966124E+04  0.46999998093E+01 0. -1.
</event>
<event>
 5   0  0.6599814E-07  0.2600184E+04  0.7818609E-02  0.8368139E-01
       -2   -1    0    0    0  501  0.00000000000E+00  0.00000000000E+00  0.98054399755E+03  0.98054399755E+03  0.25500000920E-02 0.  1.
        2   -1    0    0  501    0  0.00000000000E+00  0.00000000000E+00 -0.17237774529E+04  0.17237774529E+04  0.25500000920E-02 0. -1.
    10030    2    1    2    0    0  0.00000000000E+00  0.00000000000E+00 -0.74323345540E+03  0.27043214505E+04  0.26001843278E+04 0.  0.
        5    1    3    3  502    0  0.23518771711E+02 -0.12938449831E+04 -0.50164198347E+03  0.13878957967E+04  0.46999998093E+01 0.  1.
       -5    1    3    3    0  502 -0.23518771711E+02  0.12938449831E+04 -0.24159147193E+03  0.13164256538E+04  0.46999998093E+01 0. -1.
</event>
<event>
 5   0  0.2755061E-07  0.2599269E+04  0.7818609E-02  0.8368450E-01
        1   -1    0    0  501    0  0.00000000000E+00  0.00000000000E+00  0.26630495521E+04  0.26630495521E+04  0.50400001928E-02 0. -1.
       -1   -1    0    0    0  501  0.00000000000E+00  0.00000000000E+00 -0.63425380423E+03  0.63425380425E+03  0.50400001928E-02 0.  1.
    10030    2    1    2    0    0  0.00000000000E+00  0.00000000000E+00  0.20287957479E+04  0.32973033563E+04  0.25992685966E+04 0.  0.
        4    1    3    3  502    0 -0.13187985179E+01 -0.14400006732E+03  0.26528966195E+04  0.26568025605E+04  0.12699999809E+01 0. -1.
       -4    1    3    3    0  502  0.13187985179E+01  0.14400006732E+03 -0.62410087165E+03  0.64050079587E+03  0.12699999809E+01 0.  1.
</event>
<event>
 5   0  0.2294625E-07  0.2600221E+04  0.7818609E-02  0.8368126E-01
        3   -1    0    0  501    0  0.00000000000E+00  0.00000000000E+00  0.14690884369E+04  0.14690884403E+04  0.10100000352E+00 0.  1.
       -3   -1    0    0    0  501  0.00000000000E+00  0.00000000000E+00 -0.11505687391E+04  0.11505687436E+04  0.10100000352E+00 0. -1.
    10030    2    1    2    0    0  0.00000000000E+00  0.00000000000E+00  0.31851969774E+03  0.26196571839E+04  0.26002209451E+04 0.  0.
        2    1    3    3  502    0  0.12161757492E+03 -0.74212334516E+03 -0.90920954045E+03  0.11799152014E+04  0.25500000920E-02 0. -1.
       -2    1    3    3    0  502 -0.12161757492E+03  0.74212334516E+03  0.12277292382E+04  0.14397419825E+04  0.25500000920E-02 0.  1.
</event>
<event>
 5   0  0.2755061E-07  0.2599377E+04  0.7818609E-02  0.8368413E-01
        1   -1    0    0  501    0  0.00000000000E+00  0.00000000000E+00  0.14700958060E+04  0.14700958060E+04  0.50400001928E-02 0.  1.
       -1   -1    0    0    0  501  0.00000000000E+00  0.00000000000E+00 -0.11490339443E+04  0.11490339444E+04  0.50400001928E-02 0. -1.
    10030    2    1    2    0    0  0.00000000000E+00  0.00000000000E+00  0.32106186164E+03  0.26191297503E+04  0.25993768350E+04 0.  0.
        4    1    3    3  502    0 -0.50853196792E+02  0.75030595807E+03  0.12286065485E+04  0.14404932288E+04  0.12699999809E+01 0.  1.
       -4    1    3    3    0  502  0.50853196792E+02 -0.75030595807E+03 -0.90754468686E+03  0.11786365215E+04  0.12699999809E+01 0. -1.
</event>
<event>
 5   0  0.2641626E-07  0.2602779E+04  0.7818609E-02  0.8367258E-01
        1   -1    0    0  501    0  0.00000000000E+00  0.00000000000E+00  0.11740740638E+04  0.11740740638E+04  0.50400001928E-02 0. -1.
       -1   -1    0    0    0  501  0.00000000000E+00  0.00000000000E+00 -0.14425112046E+04  0.14425112046E+04  0.50400001928E-02 0.  1.
    10030    2    1    2    0    0  0.00000000000E+00  0.00000000000E+00 -0.26843714081E+03  0.26165852685E+04  0.26027792777E+04 0.  0.
        3    1    3    3  502    0  0.60011850005E+03  0.44447843672E+03  0.93722631368E+03  0.11983724246E+04  0.10100000352E+00 0. -1.
       -3    1    3    3    0  502 -0.60011850005E+03 -0.44447843672E+03 -0.12056634545E+04  0.14182128439E+04  0.10100000352E+00 0.  1.
</event>
<event>
 5   0  0.2623263E-07  0.2600155E+04  0.7818609E-02  0.8368148E-01
        1   -1    0    0  501    0  0.00000000000E+00  0.00000000000E+00  0.10960869381E+04  0.10960869381E+04  0.50400001928E-02 0. -1.
       -1   -1    0    0    0  501  0.00000000000E+00  0.00000000000E+00 -0.15420327251E+04  0.15420327251E+04  0.50400001928E-02 0.  1.
    10030    2    1    2    0    0  0.00000000000E+00  0.00000000000E+00 -0.44594578701E+03  0.26381196632E+04  0.26001553247E+04 0.  0.
        1    1    3    3  502    0  0.82407179068E+03 -0.98743148429E+03 -0.41571146582E+03  0.13516402166E+04  0.50400001928E-02 0.  1.
       -1    1    3    3    0  502 -0.82407179068E+03  0.98743148429E+03 -0.30234321188E+02  0.12864794466E+04  0.50400001928E-02 0. -1.
</event>
<event>
 5   0  0.6526351E-07  0.2597500E+04  0.7818609E-02  0.8369051E-01
        2   -1    0    0  501    0  0.00000000000E+00  0.00000000000E+00  0.22854899187E+04  0.22854899187E+04  0.25500000920E-02 0. -1.
       -2   -1    0    0    0  501  0.00000000000E+00  0.00000000000E+00 -0.73802628698E+03  0.73802628698E+03  0.25500000920E-02 0.  1.
    10030    2    1    2    0    0  0.00000000000E+00  0.00000000000E+00  0.15474636317E+04  0.30235162057E+04  0.25975000586E+04 0.  0.
        3    1    3    3  502    0  0.12796439847E+04 -0.21038041800E+03  0.69139934683E+03  0.14696195817E+04  0.10100000352E+00 0. -1.
       -3    1    3    3    0  502 -0.12796439847E+04  0.21038041800E+03  0.85606428489E+03  0.15538966240E+04  0.10100000352E+00 0.  1.
</event>
<event>
 5   0  0.6599814E-07  0.2601007E+04  0.7818609E-02  0.8367859E-01
        2   -1    0    0  501    0  0.00000000000E+00  0.00000000000E+00  0.18467733914E+04  0.18467733914E+04  0.25500000920E-02 0.  1.
       -2   -1    0    0    0  501  0.00000000000E+00  0.00000000000E+00 -0.91581830796E+03  0.91581830796E+03  0.25500000920E-02 0. -1.
    10030    2    1    2    0    0  0.00000000000E+00  0.00000000000E+00  0.93095508346E+03  0.27625916994E+04  0.26010066378E+04 0.  0.
        5    1    3    3  502    0  0.34696853311E+03  0.25639811114E+03 -0.83758879076E+03  0.94218057015E+03  0.46999998093E+01 0. -1.
       -5    1    3    3    0  502 -0.34696853311E+03 -0.25639811114E+03  0.17685438742E+04  0.18204111292E+04  0.46999998093E+01 0.  1.
</event>
<event>
 5   0  0.6599814E-07  0.2599796E+04  0.7818609E-02  0.8368270E-01
       -2   -1    0    0    0  501  0.00000000000E+00  0.00000000000E+00  0.99622619451E+03  0.99622619451E+03  0.25500000920E-02 0. -1.
        2   -1    0    0  501    0  0.00000000000E+00  0.00000000000E+00 -0.16961363458E+04  0.16961363458E+04  0.25500000920E-02 0.  1.
    10030    2    1    2    0    0  0.00000000000E+00  0.00000000000E+00 -0.69991015128E+03  0.26923625403E+04  0.25997964975E+04 0.  0.
        5    1    3    3  502    0  0.29988616575E+03  0.27913703249E+03  0.92760735370E+03  0.10140644397E+04  0.46999998093E+01 0. -1.
       -5    1    3    3    0  502 -0.29988616575E+03 -0.27913703249E+03 -0.16275175050E+04  0.16782981006E+04  0.46999998093E+01 0.  1.
</event>
<event>
 5   0  0.2623263E-07  0.2601670E+04  0.7818609E-02  0.8367634E-01
       -1   -1    0    0    0  501  0.00000000000E+00  0.00000000000E+00  0.19419458312E+04  0.19419458312E+04  0.50400001928E-02 0.  1.
        1   -1    0    0  501    0  0.00000000000E+00  0.00000000000E+00 -0.87137975617E+03  0.87137975618E+03  0.50400001928E-02 0. -1.
    10030    2    1    2    0    0  0.00000000000E+00  0.00000000000E+00  0.10705660750E+04  0.28133255873E+04  0.26016704517E+04 0.  0.
        1    1    3    3  502    0  0.45660382247E+03 -0.11387232518E+04  0.10028913605E+04  0.15846036653E+04  0.50400001928E-02 0.  1.
       -1    1    3    3    0  502 -0.45660382247E+03  0.11387232518E+04  0.67674714441E+02  0.12287219221E+04  0.50400001928E-02 0. -1.
</event>
<event>
 5   0  0.7160320E-07  0.2599637E+04  0.7818609E-02  0.8368324E-01
       -2   -1    0    0    0  501  0.00000000000E+00  0.00000000000E+00  0.74713666589E+03  0.74713666589E+03  0.25500000920E-02 0.  1.
        2   -1    0    0  501    0  0.00000000000E+00  0.00000000000E+00 -0.22613379375E+04  0.22613379375E+04  0.25500000920E-02 0. -1.
    10030    2    1    2    0    0  0.00000000000E+00  0.00000000000E+00 -0.15142012716E+04  0.30084746034E+04  0.25996372724E+04 0.  0.
        1    1    3    3  502    0  0.32774965993E+03  0.95190593481E+03  0.19438386666E+03  0.10253437648E+04  0.50400001928E-02 0.  1.
       -1    1    3    3    0  502 -0.32774965993E+03 -0.95190593481E+03 -0.17085851382E+04  0.19831308386E+04  0.50400001928E-02 0. -1.
</event>
<event>
 5   0  0.7160320E-07  0.2604988E+04  0.7818609E-02  0.8366509E-01
        2   -1    0    0  501    0  0.00000000000E+00  0.00000000000E+00  0.20485582427E+04  0.20485582427E+04  0.25500000920E-02 0. -1.
       -2   -1    0    0    0  501  0.00000000000E+00  0.00000000000E+00 -0.82813903992E+03  0.82813903992E+03  0.25500000920E-02 0.  1.
    10030    2    1    2    0    0  0.00000000000E+00  0.00000000000E+00  0.12204192028E+04  0.28766972826E+04  0.26049883349E+04 0.  0.
        1    1    3    3  502    0  0.16097600620E+02  0.82201372708E+02  0.20455808632E+04  0.20472951097E+04  0.50400001928E-02 0. -1.
       -1    1    3    3    0  502 -0.16097600620E+02 -0.82201372708E+02 -0.82516166045E+03  0.82940217285E+03  0.50400001928E-02 0.  1.
</event>
<event>
 5   0  0.2641626E-07  0.2595049E+04  0.7818609E-02  0.8369885E-01
        1   -1    0    0  501    0  0.00000000000E+00  0.00000000000E+00  0.18511844636E+04  0.18511844636E+04  0.50400001928E-02 0. -1.
       -1   -1    0    0    0  501  0.00000000000E+00  0.00000000000E+00 -0.90945543081E+03  0.90945543083E+03  0.50400001928E-02 0.  1.
    10030    2    1    2    0    0  0.00000000000E+00  0.00000000000E+00  0.94172903279E+03  0.27606398944E+04  0.25950489505E+04 0.  0.
        3    1    3    3  502    0  0.37297380210E+03 -0.11892954685E+04  0.85448075571E+03  0.15111818357E+04  0.10100000352E+00 0.  1.
       -3    1    3    3    0  502 -0.37297380210E+03  0.11892954685E+04  0.87248277078E+02  0.12494580587E+04  0.10100000352E+00 0. -1.
</event>
<event>
 5   0  0.6768478E-07  0.2594910E+04  0.7818609E-02  0.8369932E-01
        2   -1    0    0  501    0  0.00000000000E+00  0.00000000000E+00  0.10807624182E+04  0.10807624182E+04  0.25500000920E-02 0. -1.
       -2   -1    0    0    0  501  0.00000000000E+00  0.00000000000E+00 -0.15575949137E+04  0.15575949137E+04  0.25500000920E-02 0.  1.
    10030    2    1    2    0    0  0.00000000000E+00  0.00000000000E+00 -0.47683249542E+03  0.26383573319E+04  0.25949104382E+04 0.  0.
        4    1    3    3  502    0 -0.12142394488E+04  0.44006981413E+03 -0.36438391809E+03  0.13419449069E+04  0.12699999809E+01 0.  1.
       -4    1    3    3    0  502  0.12142394488E+04 -0.44006981413E+03 -0.11244857733E+03  0.12964124251E+04  0.12699999809E+01 0. -1.
</event>
<event>
 5   0  0.2793576E-07  0.2599877E+04  0.7818609E-02  0.8368243E-01
       -1   -1    0    0    0  501  0.00000000000E+00  0.00000000000E+00  0.22561752688E+04  0.22561752688E+04  0.50400001928E-02 0. -1.
        1   -1    0    0  501    0  0.00000000000E+00  0.00000000000E+00 -0.74898428681E+03  0.74898428683E+03  0.50400001928E-02 0.  1.
    10030    2    1    2    0    0  0.00000000000E+00  0.00000000000E+00  0.15071909820E+04  0.30051595556E+04  0.25998767853E+04 0.  0.
        2    1    3    3  502    0 -0.70372778776E+03 -0.99537172738E+03  0.12754648092E+04  0.17643152083E+04  0.25500000920E-02 0. -1.
       -2    1    3    3    0  502  0.70372778776E+03  0.99537172738E+03  0.23172617277E+03  0.12408443472E+04  0.25500000920E-02 0.  1.
</event>
<event>
 5   0  0.6780984E-07  0.2599501E+04  0.7818609E-02  0.8368371E-01
       -2   -1    0    0    0  501  0.00000000000E+00  0.00000000000E+00  0.10892681321E+04  0.10892681321E+04  0.25500000920E-02 0. -1.
        2   -1    0    0  501    0  0.00000000000E+00  0.00000000000E+00 -0.15509045604E+04  0.15509045604E+04  0.25500000920E-02 0.  1.
    10030    2    1    2    0    0  0.00000000000E+00  0.00000000000E+00 -0.46163642832E+03  0.26401726926E+04  0.25995006549E+04 0.  0.
        2    1    3    3  502    0  0.48692126585E+03 -0.71670919280E+03 -0.12147830124E+04  0.14921334235E+04  0.25500000920E-02 0.  1.
       -2    1    3    3    0  502 -0.48692126585E+03  0.71670919280E+03  0.75314658411E+03  0.11480392691E+04  0.25500000920E-02 0. -1.
</event>
<event>
 5   0  0.2623263E-07  0.2605111E+04  0.7818609E-02  0.8366467E-01
       -1   -1    0    0    0  501  0.00000000000E+00  0.00000000000E+00  0.97190659000E+03  0.97190659001E+03  0.50400001928E-02 0.  1.
        1   -1    0    0  501    0  0.00000000000E+00  0.00000000000E+00 -0.17456929299E+04  0.17456929299E+04  0.50400001928E-02 0. -1.
    10030    2    1    2    0    0  0.00000000000E+00  0.00000000000E+00 -0.77378633986E+03  0.27175995199E+04  0.26051107175E+04 0.  0.
        1    1    3    3  502    0  0.32029696898E+03 -0.17013335651E+03  0.91817257992E+03  0.98720635831E+03  0.50400001928E-02 0.  1.
       -1    1    3    3    0  502 -0.32029696898E+03  0.17013335651E+03 -0.16919589198E+04  0.17303931616E+04  0.50400001928E-02 0. -1.
</event>
<event>
 5   0  0.6780984E-07  0.2600774E+04  0.7818609E-02  0.8367938E-01
        2   -1    0    0  501    0  0.00000000000E+00  0.00000000000E+00  0.26548675572E+04  0.26548675572E+04  0.25500000920E-02 0. -1.
       -2   -1    0    0    0  501  0.00000000000E+00  0.00000000000E+00 -0.63694584705E+03  0.63694584705E+03  0.25500000920E-02 0.  1.
    10030    2    1    2    0    0  0.00000000000E+00  0.00000000000E+00  0.20179217102E+04  0.32918134043E+04  0.26007743962E+04 0.  0.
        2    1    3    3  502    0  0.80164276536E+03  0.94995568066E+03  0.14925197497E+04  0.19423341942E+04  0.25500000920E-02 0. -1.
       -2    1    3    3    0  502 -0.80164276536E+03 -0.94995568066E+03  0.52540196043E+03  0.13494792101E+04  0.25500000920E-02 0.  1.
</event>
<event>
 5   0  0.6599814E-07  0.2602118E+04  0.7818609E-02  0.8367482E-01
        2   -1    0    0  501    0  0.00000000000E+00  0.00000000000E+00  0.85741155899E+03  0.85741155900E+03  0.25500000920E-02 0.  1.
       -2   -1    0    0    0  501  0.00000000000E+00  0.00000000000E+00 -0.19742617943E+04  0.19742617943E+04  0.25500000920E-02 0. -1.
    10030    2    1    2    0    0  0.00000000000E+00  0.00000000000E+00 -0.11168502353E+04  0.28316733533E+04  0.26021182778E+04 0.  0.
        5    1    3    3  502    0 -0.12187793214E+04  0.45359944866E+03 -0.51548115709E+03  0.13988989983E+04  0.46999998093E+01 0. -1.
       -5    1    3    3    0  502  0.12187793214E+04 -0.45359944866E+03 -0.60136907818E+03  0.14327743550E+04  0.46999998093E+01 0.  1.
</event>
<event>
 5   0  0.6599814E-07  0.2597075E+04  0.7818609E-02  0.8369195E-01
        2   -1    0    0  501    0  0.00000000000E+00  0.00000000000E+00  0.25397210285E+04  0.25397210285E+04  0.25500000920E-02 0. -1.
       -2   -1    0    0    0  501  0.00000000000E+00  0.00000000000E+00 -0.66393118082E+03  0.66393118082E+03  0.25500000920E-02 0.  1.
    10030    2    1    2    0    0  0.00000000000E+00  0.00000000000E+00  0.18757898476E+04  0.32036522093E+04  0.25970752637E+04 0.  0.
        5    1    3    3  502    0 -0.10847197663E+04 -0.17428889897E+03  0.83984889518E+02  0.11018480582E+04  0.46999998093E+01 0.  1.
       -5    1    3    3    0  502  0.10847197663E+04  0.17428889897E+03  0.17918049581E+04  0.21018041511E+04  0.46999998093E+01 0. -1.
</event>
<event>
 5   0  0.6599814E-07  0.2598598E+04  0.7818609E-02  0.8368677E-01
        2   -1    0    0  501    0  0.00000000000E+00  0.00000000000E+00  0.16370818400E+04  0.16370818400E+04  0.25500000920E-02 0. -1.
       -2   -1    0    0    0  501  0.00000000000E+00  0.00000000000E+00 -0.10312120080E+04  0.10312120080E+04  0.25500000920E-02 0.  1.
    10030    2    1    2    0    0  0.00000000000E+00  0.00000000000E+00  0.60586983195E+03  0.26682938480E+04  0.25985984311E+04 0.  0.
        5    1    3    3  502    0 -0.75121607820E+03  0.65819664541E+03  0.11562516589E+04  0.15279032721E+04  0.46999998093E+01 0. -1.
       -5    1    3    3    0  502  0.75121607820E+03 -0.65819664541E+03 -0.55038182696E+03  0.11403905759E+04  0.46999998093E+01 0.  1.
</event>
<event>
 5   0  0.2623263E-07  0.2599294E+04  0.7818609E-02  0.8368441E-01
       -1   -1    0    0    0  501  0.00000000000E+00  0.00000000000E+00  0.54447146420E+03  0.54447146422E+03  0.50400001928E-02 0.  1.
        1   -1    0    0  501    0  0.00000000000E+00  0.00000000000E+00 -0.31022421491E+04  0.31022421491E+04  0.50400001928E-02 0. -1.
    10030    2    1    2    0    0  0.00000000000E+00  0.00000000000E+00 -0.25577706849E+04  0.36467136134E+04  0.25992940005E+04 0.  0.
        1    1    3    3  502    0  0.67072171312E+03  0.10957775724E+04 -0.10036533677E+04  0.16303116840E+04  0.50400001928E-02 0. -1.
       -1    1    3    3    0  502 -0.67072171312E+03 -0.10957775724E+04 -0.15541173173E+04  0.20164019293E+04  0.50400001928E-02 0.  1.
</event>
<event>
 5   0  0.2641626E-07  0.2597961E+04  0.7818609E-02  0.8368894E-01
        1   -1    0    0  501    0  0.00000000000E+00  0.00000000000E+00  0.17354299614E+04  0.17354299614E+04  0.50400001928E-02 0. -1.
       -1   -1    0    0    0  501  0.00000000000E+00  0.00000000000E+00 -0.97229560215E+03  0.97229560217E+03  0.50400001928E-02 0.  1.
    10030    2    1    2    0    0  0.00000000000E+00  0.00000000000E+00  0.76313435925E+03  0.27077255636E+04  0.25979614465E+04 0.  0.
        3    1    3    3  502    0 -0.55314627115E+03 -0.56325692386E+03  0.14567135749E+04  0.16568776687E+04  0.10100000352E+00 0. -1.
       -3    1    3    3    0  502  0.55314627115E+03  0.56325692386E+03 -0.69357921565E+03  0.10508478949E+04  0.10100000352E+00 0.  1.
</event>
<event>
 5   0  0.2641626E-07  0.2600374E+04  0.7818609E-02  0.8368074E-01
        1   -1    0    0  501    0  0.00000000000E+00  0.00000000000E+00  0.16750885885E+04  0.16750885885E+04  0.50400001928E-02 0. -1.
       -1   -1    0    0    0  501  0.00000000000E+00  0.00000000000E+00 -0.10091920350E+04  0.10091920350E+04  0.50400001928E-02 0.  1.
    10030    2    1    2    0    0  0.00000000000E+00  0.00000000000E+00  0.66589655346E+03  0.26842806235E+04  0.26003738665E+04 0.  0.
        3    1    3    3  502    0 -0.44884217074E+03 -0.80072576498E+03 -0.61755907269E+03  0.11063454539E+04  0.10100000352E+00 0.  1.
       -3    1    3    3    0  502  0.44884217074E+03  0.80072576498E+03  0.12834556261E+04  0.15779351696E+04  0.10100000352E+00 0. -1.
</event>
<event>
 5   0  0.7160320E-07  0.2599690E+04  0.7818609E-02  0.8368307E-01
        2   -1    0    0  501    0  0.00000000000E+00  0.00000000000E+00  0.21797812444E+04  0.21797812444E+04  0.25500000920E-02 0.  1.
       -2   -1    0    0    0  501  0.00000000000E+00  0.00000000000E+00 -0.77512219103E+03  0.77512219103E+03  0.25500000920E-02 0. -1.
    10030    2    1    2    0    0  0.00000000000E+00  0.00000000000E+00  0.14046590534E+04  0.29549034354E+04  0.25996898385E+04 0.  0.
        1    1    3    3  502    0  0.38744462713E+03  0.42546266275E+03 -0.62245724435E+03  0.84769383480E+03  0.50400001928E-02 0. -1.
       -1    1    3    3    0  502 -0.38744462713E+03 -0.42546266275E+03  0.20271162977E+04  0.21072096006E+04  0.50400001928E-02 0.  1.
</event>
<event>
 5   0  0.2864801E-07  0.2600683E+04  0.7818609E-02  0.8367969E-01
       -1   -1    0    0    0  501  0.00000000000E+00  0.00000000000E+00  0.91231128180E+03  0.91231128181E+03  0.50400001928E-02 0. -1.
        1   -1    0    0  501    0  0.00000000000E+00  0.00000000000E+00 -0.18534106115E+04  0.18534106115E+04  0.50400001928E-02 0.  1.
    10030    2    1    2    0    0  0.00000000000E+00  0.00000000000E+00 -0.94109932971E+03  0.27657218933E+04  0.26006825340E+04 0.  0.
        5    1    3    3  502    0  0.43307527781E+03  0.10703181733E+03  0.82837666260E+03  0.94087193141E+03  0.46999998093E+01 0. -1.
       -5    1    3    3    0  502 -0.43307527781E+03 -0.10703181733E+03 -0.17694759923E+04  0.18248499619E+04  0.46999998093E+01 0.  1.
</event>
<event>
 5   0  0.7160320E-07  0.2599764E+04  0.7818609E-02  0.8368281E-01
        2   -1    0    0  501    0  0.00000000000E+00  0.00000000000E+00  0.22266464753E+04  0.22266464753E+04  0.25500000920E-02 0.  1.
       -2   -1    0    0    0  501  0.00000000000E+00  0.00000000000E+00 -0.75885133735E+03  0.75885133736E+03  0.25500000920E-02 0. -1.
    10030    2    1    2    0    0  0.00000000000E+00  0.00000000000E+00  0.14677951379E+04  0.29854978127E+04  0.25997643398E+04 0.  0.
        1    1    3    3  502    0 -0.73926742729E+03  0.63681959434E+03 -0.25239203236E+03  0.10078478371E+04  0.50400001928E-02 0. -1.
       -1    1    3    3    0  502  0.73926742729E+03 -0.63681959434E+03  0.17201871703E+04  0.19776499755E+04  0.50400001928E-02 0.  1.
</event>
<event>
 5   0  0.6526351E-07  0.2600098E+04  0.7818609E-02  0.8368168E-01
       -2   -1    0    0    0  501  0.00000000000E+00  0.00000000000E+00  0.81092932167E+03  0.81092932167E+03  0.25500000920E-02 0. -1.
        2   -1    0    0  501    0  0.00000000000E+00  0.00000000000E+00 -0.20841857784E+04  0.20841857784E+04  0.25500000920E-02 0.  1.
    10030    2    1    2    0    0  0.00000000000E+00  0.00000000000E+00 -0.12732564567E+04  0.28951151001E+04  0.26000979670E+04 0.  0.
        3    1    3    3  502    0 -0.11104119335E+04  0.39219983891E+03 -0.23421966028E+02  0.11778726478E+04  0.10100000352E+00 0. -1.
       -3    1    3    3    0  502  0.11104119335E+04 -0.39219983891E+03 -0.12498344907E+04  0.17172424523E+04  0.10100000352E+00 0.  1.
</event>
<event>
 5   0  0.6780984E-07  0.2599820E+04  0.7818609E-02  0.8368262E-01
        2   -1    0    0  501    0  0.00000000000E+00  0.00000000000E+00  0.16031144758E+04  0.16031144758E+04  0.25500000920E-02 0.  1.
       -2   -1    0    0    0  501  0.00000000000E+00  0.00000000000E+00 -0.10540518435E+04  0.10540518435E+04  0.25500000920E-02 0. -1.
    10030    2    1    2    0    0  0.00000000000E+00  0.00000000000E+00  0.54906263227E+03  0.26571663193E+04  0.25998198157E+04 0.  0.
        2    1    3    3  502    0  0.12396461530E+04  0.30264664693E+03  0.52788664335E+03  0.13809351490E+04  0.25500000920E-02 0.  1.
       -2    1    3    3    0  502 -0.12396461530E+04 -0.30264664693E+03  0.21175988919E+02  0.12762311703E+04  0.25500000920E-02 0. -1.
</event>
<event>
 5   0  0.2793576E-07  0.2600027E+04  0.7818609E-02  0.8368192E-01
        1   -1    0    0  501    0  0.00000000000E+00  0.00000000000E+00  0.15133468942E+04  0.15133468942E+04  0.50400001928E-02 0.  1.
       -1   -1    0    0    0  501  0.00000000000E+00  0.00000000000E+00 -0.11167530072E+04  0.11167530073E+04  0.50400001928E-02 0. -1.
    10030    2    1    2    0    0  0.00000000000E+00  0.00000000000E+00  0.39659388695E+03  0.26300999014E+04  0.26000266884E+04 0.  0.
        2    1    3    3  502    0  0.12137422212E+04 -0.41423304961E+03 -0.16944575869E+02  0.12825935901E+04  0.25500000920E-02 0.  1.
       -2    1    3    3    0  502 -0.12137422212E+04  0.41423304961E+03  0.41353846282E+03  0.13475063113E+04  0.25500000920E-02 0. -1.
</event>
<event>
 5   0  0.6599814E-07  0.2599274E+04  0.7818609E-02  0.8368448E-01
        2   -1    0    0  501    0  0.00000000000E+00  0.00000000000E+00  0.16022565650E+04  0.16022565650E+04  0.25500000920E-02 0. -1.
       -2   -1    0    0    0  501  0.00000000000E+00  0.00000000000E+00 -0.10541737320E+04  0.10541737320E+04  0.25500000920E-02 0.  1.
    10030    2    1    2    0    0  0.00000000000E+00  0.00000000000E+00  0.54808283298E+03  0.26564302970E+04  0.25992743470E+04 0.  0.
        5    1    3    3  502    0  0.72203022918E+02  0.27620033931E+03 -0.10217243273E+04  0.10608687926E+04  0.46999998093E+01 0.  1.
       -5    1    3    3    0  502 -0.72203022918E+02 -0.27620033931E+03  0.15698071603E+04  0.15955615045E+04  0.46999998093E+01 0. -1.
</event>
<event>
 5   0  0.2294625E-07  0.2598738E+04  0.7818609E-02  0.8368630E-01
       -3   -1    0    0    0  501  0.00000000000E+00  0.00000000000E+00  0.77456617133E+03  0.77456617792E+03  0.10100000352E+00 0.  1.
        3   -1    0    0  501    0  0.00000000000E+00  0.00000000000E+00 -0.21797483779E+04  0.21797483802E+04  0.10100000352E+00 0. -1.
    10030    2    1    2    0    0  0.00000000000E+00  0.00000000000E+00 -0.14051822065E+04  0.29543145581E+04  0.25987376695E+04 0.  0.
        5    1    3    3  502    0 -0.91783956855E+03 -0.91142142538E+03 -0.56234708022E+03  0.14104519903E+04  0.46999998093E+01 0. -1.
       -5    1    3    3    0  502  0.91783956855E+03  0.91142142538E+03 -0.84283512632E+03  0.15438625679E+04  0.46999998093E+01 0.  1.
</event>
<event>
 5   0  0.6599814E-07  0.2601870E+04  0.7818609E-02  0.8367566E-01
       -2   -1    0    0    0  501  0.00000000000E+00  0.00000000000E+00  0.91320973391E+03  0.91320973391E+03  0.25500000920E-02 0.  1.
        2   -1    0    0  501    0  0.00000000000E+00  0.00000000000E+00 -0.18532782249E+04  0.18532782249E+04  0.25500000920E-02 0. -1.
    10030    2    1    2    0    0  0.00000000000E+00  0.00000000000E+00 -0.94006849098E+03  0.27664879588E+04  0.26018698773E+04 0.  0.
        5    1    3    3  502    0  0.51304586531E+03 -0.28289207173E+03 -0.17050595253E+04  0.18029126598E+04  0.46999998093E+01 0. -1.
       -5    1    3    3    0  502 -0.51304586531E+03  0.28289207173E+03  0.76499103434E+03  0.96357529896E+03  0.46999998093E+01 0.  1.
</event>
<event>
 5   0  0.7160320E-07  0.2599744E+04  0.7818609E-02  0.8368288E-01
        2   -1    0    0  501    0  0.00000000000E+00  0.00000000000E+00  0.10851836914E+04  0.10851836914E+04  0.25500000920E-02 0. -1.
       -2   -1    0    0    0  501  0.00000000000E+00  0.00000000000E+00 -0.15570335220E+04  0.15570335220E+04  0.25500000920E-02 0.  1.
    10030    2    1    2    0    0  0.00000000000E+00  0.00000000000E+00 -0.47184983060E+03  0.26422172134E+04  0.25997441298E+04 0.  0.
        1    1    3    3  502    0 -0.12967194962E+04 -0.89814726079E+02 -0.24702340848E+03  0.13230905869E+04  0.50400001928E-02 0. -1.
       -1    1    3    3    0  502  0.12967194962E+04  0.89814726079E+02 -0.22482642213E+03  0.13191266265E+04  0.50400001928E-02 0.  1.
</event>
<event>
 5   0  0.6768478E-07  0.2607473E+04  0.7818609E-02  0.8365667E-01
        2   -1    0    0  501    0  0.00000000000E+00  0.00000000000E+00  0.20779464681E+04  0.20779464681E+04  0.25500000920E-02 0. -1.
       -2   -1    0    0    0  501  0.00000000000E+00  0.00000000000E+00 -0.81798487792E+03  0.81798487792E+03  0.25500000920E-02 0.  1.
    10030    2    1    2    0    0  0.00000000000E+00  0.00000000000E+00  0.12599615902E+04  0.28959313460E+04  0.26074729437E+04 0.  0.
        4    1    3    3  502    0  0.75954194024E+03  0.89268984052E+02  0.18026553475E+04  0.19581728282E+04  0.12699999809E+01 0. -1.
       -4    1    3    3    0  502 -0.75954194024E+03 -0.89268984052E+02 -0.54269375733E+03  0.93775851776E+03  0.12699999809E+01 0.  1.
</event>
<event>
 5   0  0.2793576E-07  0.2598646E+04  0.7818609E-02  0.8368661E-01
       -1   -1    0    0    0  501  0.00000000000E+00  0.00000000000E+00  0.10085478230E+04  0.10085478230E+04  0.50400001928E-02 0.  1.
        1   -1    0    0  501    0  0.00000000000E+00  0.00000000000E+00 -0.16739322659E+04  0.16739322659E+04  0.50400001928E-02 0. -1.
    10030    2    1    2    0    0  0.00000000000E+00  0.00000000000E+00 -0.66538444295E+03  0.26824800889E+04  0.25986463727E+04 0.  0.
        2    1    3    3  502    0 -0.22430522889E+03  0.66301154054E+03 -0.14626962818E+04  0.16215355536E+04  0.25500000920E-02 0. -1.
       -2    1    3    3    0  502  0.22430522889E+03 -0.66301154054E+03  0.79731183888E+03  0.10609445353E+04  0.25500000920E-02 0.  1.
</event>
<event>
 5   0  0.2793576E-07  0.2600366E+04  0.7818609E-02  0.8368077E-01
       -1   -1    0    0    0  501  0.00000000000E+00  0.00000000000E+00  0.64577225822E+03  0.64577225824E+03  0.50400001928E-02 0. -1.
        1   -1    0    0  501    0  0.00000000000E+00  0.00000000000E+00 -0.26177590411E+04  0.26177590411E+04  0.50400001928E-02 0.  1.
    10030    2    1    2    0    0  0.00000000000E+00  0.00000000000E+00 -0.19719867829E+04  0.32635312993E+04  0.26003662569E+04 0.  0.
        2    1    3    3  502    0 -0.86920898215E+03 -0.68707377323E+03 -0.18398563864E+04  0.21477118398E+04  0.25500000920E-02 0.  1.
       -2    1    3    3    0  502  0.86920898215E+03  0.68707377323E+03 -0.13213039650E+03  0.11158194595E+04  0.25500000920E-02 0. -1.
</event>
<event>
 5   0  0.6599814E-07  0.2600166E+04  0.7818609E-02  0.8368145E-01
        2   -1    0    0  501    0  0.00000000000E+00  0.00000000000E+00  0.17907772424E+04  0.17907772424E+04  0.25500000920E-02 0. -1.
       -2   -1    0    0    0  501  0.00000000000E+00  0.00000000000E+00 -0.94384488606E+03  0.94384488606E+03  0.25500000920E-02 0.  1.
    10030    2    1    2    0    0  0.00000000000E+00  0.00000000000E+00  0.84693235635E+03  0.27346221285E+04  0.26001661042E+04 0.  0.
        5    1    3    3  502    0  0.31081025187E+03 -0.68859335743E+03  0.15362087592E+04  0.17119355322E+04  0.46999998093E+01 0. -1.
       -5    1    3    3    0  502 -0.31081025187E+03  0.68859335743E+03 -0.68927640289E+03  0.10226865962E+04  0.46999998093E+01 0.  1.
</event>
<event>
 5   0  0.6526351E-07  0.2596866E+04  0.7818609E-02  0.8369267E-01
        2   -1    0    0  501    0  0.00000000000E+00  0.00000000000E+00  0.19542721344E+04  0.19542721344E+04  0.25500000920E-02 0. -1.
       -2   -1    0    0    0  501  0.00000000000E+00  0.00000000000E+00 -0.86268859040E+03  0.86268859040E+03  0.25500000920E-02 0.  1.
    10030    2    1    2    0    0  0.00000000000E+00  0.00000000000E+00  0.10915835440E+04  0.28169607248E+04  0.25968660134E+04 0.  0.
        3    1    3    3  502    0 -0.95868202496E+03 -0.83732957350E+03  0.26767087390E+03  0.13007074024E+04  0.10100000352E+00 0. -1.
       -3    1    3    3    0  502  0.95868202496E+03  0.83732957350E+03  0.82391267010E+03  0.15162533224E+04  0.10100000352E+00 0.  1.
</event>
<event>
 5   0  0.2793576E-07  0.2600260E+04  0.7818609E-02  0.8368113E-01
        1   -1    0    0  501    0  0.00000000000E+00  0.00000000000E+00  0.13658130549E+04  0.13658130549E+04  0.50400001928E-02 0.  1.
       -1   -1    0    0    0  501  0.00000000000E+00  0.00000000000E+00 -0.12376055407E+04  0.12376055407E+04  0.50400001928E-02 0. -1.
    10030    2    1    2    0    0  0.00000000000E+00  0.00000000000E+00  0.12820751421E+03  0.26034185955E+04  0.26002598364E+04 0.  0.
        2    1    3    3  502    0 -0.96352504803E+03  0.37316593390E+03  0.85417862447E+03  0.13406171918E+04  0.25500000920E-02 0.  1.
       -2    1    3    3    0  502  0.96352504803E+03 -0.37316593390E+03 -0.72597111026E+03  0.12628014038E+04  0.25500000920E-02 0. -1.
</event>
<event>
 5   0  0.6768478E-07  0.2599682E+04  0.7818609E-02  0.8368309E-01
        2   -1    0    0  501    0  0.00000000000E+00  0.00000000000E+00  0.11930060609E+04  0.11930060609E+04  0.25500000920E-02 0.  1.
       -2   -1    0    0    0  501  0.00000000000E+00  0.00000000000E+00 -0.14162434510E+04  0.14162434510E+04  0.25500000920E-02 0. -1.
    10030    2    1    2    0    0  0.00000000000E+00  0.00000000000E+00 -0.22323739015E+03  0.26092495119E+04  0.25996823042E+04 0.  0.
        4    1    3    3  502    0 -0.28357584548E+03 -0.61206791891E+03  0.10035702238E+04  0.12092134652E+04  0.12699999809E+01 0.  1.
       -4    1    3    3    0  502  0.28357584548E+03  0.61206791891E+03 -0.12268076139E+04  0.14000360467E+04  0.12699999809E+01 0. -1.
</event>
<event>
 5   0  0.2755061E-07  0.2602461E+04  0.7818609E-02  0.8367366E-01
        1   -1    0    0  501    0  0.00000000000E+00  0.00000000000E+00  0.18515980521E+04  0.18515980521E+04  0.50400001928E-02 0.  1.
       -1   -1    0    0    0  501  0.00000000000E+00  0.00000000000E+00 -0.91445385777E+03  0.91445385778E+03  0.50400001928E-02 0. -1.
    10030    2    1    2    0    0  0.00000000000E+00  0.00000000000E+00  0.93714419437E+03  0.27660519099E+04  0.26024611289E+04 0.  0.
        4    1    3    3  502    0  0.27752731536E+03 -0.55114455939E+02 -0.88136071165E+03  0.92566588517E+03  0.12699999809E+01 0. -1.
       -4    1    3    3    0  502 -0.27752731536E+03  0.55114455939E+02  0.18185049060E+04  0.18403860248E+04  0.12699999809E+01 0.  1.
</event>
<event>
 5   0  0.2641626E-07  0.2600010E+04  0.7818609E-02  0.8368198E-01
        1   -1    0    0  501    0  0.00000000000E+00  0.00000000000E+00  0.98565939778E+03  0.98565939779E+03  0.50400001928E-02 0. -1.
       -1   -1    0    0    0  501  0.00000000000E+00  0.00000000000E+00 -0.17146015579E+04  0.17146015579E+04  0.50400001928E-02 0.  1.
    10030    2    1    2    0    0  0.00000000000E+00  0.00000000000E+00 -0.72894216008E+03  0.27002609556E+04  0.26000101069E+04 0.  0.
        3    1    3    3  502    0 -0.42038170578E+03  0.10123496861E+04 -0.10903037597E+04  0.15460708147E+04  0.10100000352E+00 0.  1.
       -3    1    3    3    0  502  0.42038170578E+03 -0.10123496861E+04  0.36136159961E+03  0.11541901409E+04  0.10100000352E+00 0. -1.
</event>
<event>
 5   0  0.6526351E-07  0.2600205E+04  0.7818609E-02  0.8368132E-01
       -2   -1    0    0    0  501  0.00000000000E+00  0.00000000000E+00  0.10392444288E+04  0.10392444288E+04  0.25500000920E-02 0. -1.
        2   -1    0    0  501    0  0.00000000000E+00  0.00000000000E+00 -0.16264380637E+04  0.16264380637E+04  0.25500000920E-02 0.  1.
    10030    2    1    2    0    0  0.00000000000E+00  0.00000000000E+00 -0.58719363496E+03  0.26656824925E+04  0.26002051431E+04 0.  0.
        3    1    3    3  502    0  0.38818361712E+03  0.10002844665E+04  0.45906464835E+03  0.11670457987E+04  0.10100000352E+00 0. -1.
       -3    1    3    3    0  502 -0.38818361712E+03 -0.10002844665E+04 -0.10462582833E+04  0.14986366939E+04  0.10100000352E+00 0.  1.
</event>
<event>
 5   0  0.2793576E-07  0.2600119E+04  0.7818609E-02  0.8368161E-01
       -1   -1    0    0    0  501  0.00000000000E+00  0.00000000000E+00  0.68303257781E+03  0.68303257783E+03  0.50400001928E-02 0. -1.
        1   -1    0    0  501    0  0.00000000000E+00  0.00000000000E+00 -0.24744864357E+04  0.24744864357E+04  0.50400001928E-02 0.  1.
    10030    2    1    2    0    0  0.00000000000E+00  0.00000000000E+00 -0.17914538579E+04  0.31575190135E+04  0.26001191118E+04 0.  0.
        2    1    3    3  502    0  0.99609612590E+03  0.78677367588E+03 -0.12369090554E+04  0.17723330162E+04  0.25500000920E-02 0.  1.
       -2    1    3    3    0  502 -0.99609612590E+03 -0.78677367588E+03 -0.55454480249E+03  0.13851859973E+04  0.25500000920E-02 0. -1.
</event>
<event>
 5   0  0.7160320E-07  0.2598979E+04  0.7818609E-02  0.8368548E-01
        2   -1    0    0  501    0  0.00000000000E+00  0.00000000000E+00  0.17636834595E+04  0.17636834595E+04  0.25500000920E-02 0. -1.
       -2   -1    0    0    0  501  0.00000000000E+00  0.00000000000E+00 -0.95746916782E+03  0.95746916782E+03  0.25500000920E-02 0.  1.
    10030    2    1    2    0    0  0.00000000000E+00  0.00000000000E+00  0.80621429166E+03  0.27211526273E+04  0.25989786719E+04 0.  0.
        1    1    3    3  502    0 -0.75298601984E+02 -0.86564013181E+03 -0.60858142998E+03  0.10608364974E+04  0.50400001928E-02 0.  1.
       -1    1    3    3    0  502  0.75298601984E+02  0.86564013181E+03  0.14147957216E+04  0.16603161299E+04  0.50400001928E-02 0. -1.
</event>
<event>
 5   0  0.6526351E-07  0.2599307E+04  0.7818609E-02  0.8368437E-01
       -2   -1    0    0    0  501  0.00000000000E+00  0.00000000000E+00  0.78983523233E+03  0.78983523233E+03  0.25500000920E-02 0.  1.
        2   -1    0    0  501    0  0.00000000000E+00  0.00000000000E+00 -0.21385461097E+04  0.21385461097E+04  0.25500000920E-02 0. -1.
    10030    2    1    2    0    0  0.00000000000E+00  0.00000000000E+00 -0.13487108774E+04  0.29283813420E+04  0.25993068795E+04 0.  0.
        3    1    3    3  502    0  0.97775138404E+03 -0.85085019189E+03 -0.56655889710E+03  0.14145433228E+04  0.10100000352E+00 0. -1.
       -3    1    3    3    0  502 -0.97775138404E+03  0.85085019189E+03 -0.78215198028E+03  0.15138380192E+04  0.10100000352E+00 0.  1.
</event>
<event>
 5   0  0.2623263E-07  0.2601527E+04  0.7818609E-02  0.8367683E-01
        1   -1    0    0  501    0  0.00000000000E+00  0.00000000000E+00  0.18467194368E+04  0.18467194368E+04  0.50400001928E-02 0.  1.
       -1   -1    0    0    0  501  0.00000000000E+00  0.00000000000E+00 -0.91621152354E+03  0.91621152356E+03  0.50400001928E-02 0. -1.
    10030    2    1    2    0    0  0.00000000000E+00  0.00000000000E+00  0.93050791325E+03  0.27629309604E+04  0.26015269584E+04 0.  0.
        1    1    3    3  502    0  0.72685649234E+03  0.47256994065E+03 -0.56462179242E+03  0.10346209343E+04  0.50400001928E-02 0. -1.
       -1    1    3    3    0  502 -0.72685649234E+03 -0.47256994065E+03  0.14951297057E+04  0.17283100260E+04  0.50400001928E-02 0.  1.
</event>
<event>
 5   0  0.2623263E-07  0.2601645E+04  0.7818609E-02  0.8367643E-01
        1   -1    0    0  501    0  0.00000000000E+00  0.00000000000E+00  0.27603606590E+04  0.27603606591E+04  0.50400001928E-02 0. -1.
       -1   -1    0    0    0  501  0.00000000000E+00  0.00000000000E+00 -0.61301362627E+03  0.61301362629E+03  0.50400001928E-02 0.  1.
    10030    2    1    2    0    0  0.00000000000E+00  0.00000000000E+00  0.21473470328E+04  0.33733742853E+04  0.26016446317E+04 0.  0.
        1    1    3    3  502    0  0.42860130891E+03  0.19033870810E+03  0.26469373317E+04  0.26881601782E+04  0.50400001928E-02 0. -1.
       -1    1    3    3    0  502 -0.42860130891E+03 -0.19033870810E+03 -0.49959029892E+03  0.68521410713E+03  0.50400001928E-02 0.  1.
</event>
<event>
 5   0  0.7160320E-07  0.2600623E+04  0.7818609E-02  0.8367990E-01
        2   -1    0    0  501    0  0.00000000000E+00  0.00000000000E+00  0.16466089323E+04  0.16466089323E+04  0.25500000920E-02 0.  1.
       -2   -1    0    0    0  501  0.00000000000E+00  0.00000000000E+00 -0.10268433366E+04  0.10268433366E+04  0.25500000920E-02 0. -1.
    10030    2    1    2    0    0  0.00000000000E+00  0.00000000000E+00  0.61976559576E+03  0.26734522689E+04  0.26006225486E+04 0.  0.
        1    1    3    3  502    0 -0.75795541882E+03 -0.84034091195E+03 -0.34847388927E+03  0.11841044366E+04  0.50400001928E-02 0. -1.
       -1    1    3    3    0  502  0.75795541882E+03  0.84034091195E+03  0.96823948503E+03  0.14893478323E+04  0.50400001928E-02 0.  1.
</event>
<event>
 5   0  0.2793576E-07  0.2599302E+04  0.7818609E-02  0.8368438E-01
        1   -1    0    0  501    0  0.00000000000E+00  0.00000000000E+00  0.14028237585E+04  0.14028237585E+04  0.50400001928E-02 0. -1.
       -1   -1    0    0    0  501  0.00000000000E+00  0.00000000000E+00 -0.12040665852E+04  0.12040665852E+04  0.50400001928E-02 0.  1.
    10030    2    1    2    0    0  0.00000000000E+00  0.00000000000E+00  0.19875717329E+03  0.26068903438E+04  0.25993023776E+04 0.  0.
        2    1    3    3  502    0  0.93103680705E+03 -0.85116444853E+03  0.41299378471E+03  0.13273561394E+04  0.25500000920E-02 0. -1.
       -2    1    3    3    0  502 -0.93103680705E+03  0.85116444853E+03 -0.21423661141E+03  0.12795342044E+04  0.25500000920E-02 0.  1.
</event>
<event>
 5   0  0.2623263E-07  0.2598433E+04  0.7818609E-02  0.8368734E-01
        1   -1    0    0  501    0  0.00000000000E+00  0.00000000000E+00  0.27884667106E+04  0.27884667106E+04  0.50400001928E-02 0.  1.
       -1   -1    0    0    0  501  0.00000000000E+00  0.00000000000E+00 -0.60533768109E+03  0.60533768111E+03  0.50400001928E-02 0. -1.
    10030    2    1    2    0    0  0.00000000000E+00  0.00000000000E+00  0.21831290295E+04  0.33938043917E+04  0.25984333530E+04 0.  0.
        1    1    3    3  502    0 -0.15092282832E+03  0.67350349784E+03 -0.34607880115E+03  0.77211087179E+03  0.50400001928E-02 0. -1.
       -1    1    3    3    0  502  0.15092282832E+03 -0.67350349784E+03  0.25292078307E+04  0.26216935199E+04  0.50400001928E-02 0.  1.
</event>
<event>
 5   0  0.6526351E-07  0.2593842E+04  0.7818609E-02  0.8370296E-01
        2   -1    0    0  501    0  0.00000000000E+00  0.00000000000E+00  0.19881637141E+04  0.19881637141E+04  0.25500000920E-02 0.  1.
       -2   -1    0    0    0  501  0.00000000000E+00  0.00000000000E+00 -0.84600890228E+03  0.84600890228E+03  0.25500000920E-02 0. -1.
    10030    2    1    2    0    0  0.00000000000E+00  0.00000000000E+00  0.11421548118E+04  0.28341726164E+04  0.25938420933E+04 0.  0.
        3    1    3    3  502    0  0.99283022242E+03 -0.59422117956E+03  0.12111840129E+04  0.16750454872E+04  0.10100000352E+00 0.  1.
       -3    1    3    3    0  502 -0.99283022242E+03  0.59422117956E+03 -0.69029201113E+02  0.11591271292E+04  0.10100000352E+00 0. -1.
</event>
<event>
 5   0  0.2755061E-07  0.2598682E+04  0.7818609E-02  0.8368649E-01
       -1   -1    0    0    0  501  0.00000000000E+00  0.00000000000E+00  0.93549416488E+03  0.93549416489E+03  0.50400001928E-02 0. -1.
        1   -1    0    0  501    0  0.00000000000E+00  0.00000000000E+00 -0.18047009414E+04  0.18047009414E+04  0.50400001928E-02 0.  1.
    10030    2    1    2    0    0  0.00000000000E+00  0.00000000000E+00 -0.86920677654E+03  0.27401951063E+04  0.25986821276E+04 0.  0.
        4    1    3    3  502    0  0.29566416425E+03  0.93386218722E+03  0.46556442893E+03  0.10845587735E+04  0.12699999809E+01 0. -1.
       -4    1    3    3    0  502 -0.29566416425E+03 -0.93386218722E+03 -0.13347712055E+04  0.16556363328E+04  0.12699999809E+01 0.  1.
</event>
<event>
 5   0  0.2623263E-07  0.2600150E+04  0.7818609E-02  0.8368150E-01
        1   -1    0    0  501    0  0.00000000000E+00  0.00000000000E+00  0.10587892302E+04  0.10587892302E+04  0.50400001928E-02 0. -1.
       -1   -1    0    0    0  501  0.00000000000E+00  0.00000000000E+00 -0.15963473383E+04  0.15963473383E+04  0.50400001928E-02 0.  1.
    10030    2    1    2    0    0  0.00000000000E+00  0.00000000000E+00 -0.53755810812E+03  0.26551365686E+04  0.26001502799E+04 0.  0.
        1    1    3    3  502    0 -0.10635455071E+03  0.35332148227E+03 -0.15417562694E+04  0.15852948478E+04  0.50400001928E-02 0.  1.
       -1    1    3    3    0  502  0.10635455071E+03 -0.35332148227E+03  0.10041981613E+04  0.10698417207E+04  0.50400001928E-02 0. -1.
</event>
<event>
 5   0  0.2623263E-07  0.2600182E+04  0.7818609E-02  0.8368139E-01
       -1   -1    0    0    0  501  0.00000000000E+00  0.00000000000E+00  0.91773529109E+03  0.91773529111E+03  0.50400001928E-02 0. -1.
        1   -1    0    0  501    0  0.00000000000E+00  0.00000000000E+00 -0.18417474752E+04  0.18417474752E+04  0.50400001928E-02 0.  1.
    10030    2    1    2    0    0  0.00000000000E+00  0.00000000000E+00 -0.92401218407E+03  0.27594827663E+04  0.26001820361E+04 0.  0.
        1    1    3    3  502    0  0.10056152280E+04  0.52107726404E+03 -0.11394335163E+04  0.16065778039E+04  0.50400001928E-02 0.  1.
       -1    1    3    3    0  502 -0.10056152280E+04 -0.52107726404E+03  0.21542133224E+03  0.11529049624E+04  0.50400001928E-02 0. -1.
</event>
<event>
 5   0  0.6780984E-07  0.2599807E+04  0.7818609E-02  0.8368267E-01
       -2   -1    0    0    0  501  0.00000000000E+00  0.00000000000E+00  0.92372033521E+03  0.92372033521E+03  0.25500000920E-02 0. -1.
        2   -1    0    0  501    0  0.00000000000E+00  0.00000000000E+00 -0.18292865579E+04  0.18292865579E+04  0.25500000920E-02 0.  1.
    10030    2    1    2    0    0  0.00000000000E+00  0.00000000000E+00 -0.90556622271E+03  0.27530068931E+04  0.25998070640E+04 0.  0.
        2    1    3    3  502    0 -0.10897180190E+04 -0.37231971365E+03 -0.10913451781E+04  0.15865502286E+04  0.25500000920E-02 0.  1.
       -2    1    3    3    0  502  0.10897180190E+04  0.37231971365E+03  0.18577895539E+03  0.11664566646E+04  0.25500000920E-02 0. -1.
</event>
<event>
 5   0  0.6768478E-07  0.2599173E+04  0.7818609E-02  0.8368482E-01
       -2   -1    0    0    0  501  0.00000000000E+00  0.00000000000E+00  0.10487800798E+04  0.10487800798E+04  0.25500000920E-02 0.  1.
        2   -1    0    0  501    0  0.00000000000E+00  0.00000000000E+00 -0.16103710821E+04  0.16103710821E+04  0.25500000920E-02 0. -1.
    10030    2    1    2    0    0  0.00000000000E+00  0.00000000000E+00 -0.56159100235E+03  0.26591511619E+04  0.25991730316E+04 0.  0.
        4    1    3    3  502    0  0.10316466371E+04  0.45456308747E+03  0.38065378740E+03  0.11898828947E+04  0.12699999809E+01 0.  1.
       -4    1    3    3    0  502 -0.10316466371E+04 -0.45456308747E+03 -0.94224478975E+03  0.14692682672E+04  0.12699999809E+01 0. -1.
</event>
<event>
 5   0  0.6526351E-07  0.2602569E+04  0.7818609E-02  0.8367329E-01
        2   -1    0    0  501    0  0.00000000000E+00  0.00000000000E+00  0.22406559432E+04  0.22406559432E+04  0.25500000920E-02 0. -1.
       -2   -1    0    0    0  501  0.00000000000E+00  0.00000000000E+00 -0.75573473200E+03  0.75573473200E+03  0.25500000920E-02 0.  1.
    10030    2    1    2    0    0  0.00000000000E+00  0.00000000000E+00  0.14849212112E+04  0.29963906752E+04  0.26025691297E+04 0.  0.
        3    1    3    3  502    0  0.12084192824E+04  0.12263725708E+03  0.12800476109E+04  0.17646073090E+04  0.10100000352E+00 0.  1.
       -3    1    3    3    0  502 -0.12084192824E+04 -0.12263725708E+03  0.20487360033E+03  0.12317833662E+04  0.10100000352E+00 0. -1.
</event>
<event>
 5   0  0.2641626E-07  0.2600097E+04  0.7818609E-02  0.8368168E-01
       -1   -1    0    0    0  501  0.00000000000E+00  0.00000000000E+00  0.15274261807E+04  0.15274261807E+04  0.50400001928E-02 0. -1.
        1   -1    0    0  501    0  0.00000000000E+00  0.00000000000E+00 -0.11065187638E+04  0.11065187638E+04  0.50400001928E-02 0.  1.
    10030    2    1    2    0    0  0.00000000000E+00  0.00000000000E+00  0.42090741687E+03  0.26339449445E+04  0.26000967130E+04 0.  0.
        3    1    3    3  502    0  0.10379455706E+04  0.38951556146E+03  0.89831635273E+03  0.14268937101E+04  0.10100000352E+00 0. -1.
       -3    1    3    3    0  502 -0.10379455706E+04 -0.38951556146E+03 -0.47740893585E+03  0.12070512344E+04  0.10100000352E+00 0.  1.
</event>
<event>
 5   0  0.6599814E-07  0.2602787E+04  0.7818609E-02  0.8367255E-01
        2   -1    0    0  501    0  0.00000000000E+00  0.00000000000E+00  0.13629486848E+04  0.13629486848E+04  0.25500000920E-02 0. -1.
       -2   -1    0    0    0  501  0.00000000000E+00  0.00000000000E+00 -0.12426179720E+04  0.12426179720E+04  0.25500000920E-02 0.  1.
    10030    2    1    2    0    0  0.00000000000E+00  0.00000000000E+00  0.12033071287E+03  0.26055666568E+04  0.26027866072E+04 0.  0.
        5    1    3    3  502    0  0.33739615366E+03  0.11720416113E+04  0.51461580806E+03  0.13237708348E+04  0.46999998093E+01 0. -1.
       -5    1    3    3    0  502 -0.33739615366E+03 -0.11720416113E+04 -0.39428509519E+03  0.12817958220E+04  0.46999998093E+01 0.  1.
</event>
<event>
 5   0  0.6780984E-07  0.2600666E+04  0.7818609E-02  0.8367975E-01
        2   -1    0    0  501    0  0.00000000000E+00  0.00000000000E+00  0.12656850059E+04  0.12656850059E+04  0.25500000920E-02 0. -1.
       -2   -1    0    0    0  501  0.00000000000E+00  0.00000000000E+00 -0.13359291589E+04  0.13359291589E+04  0.25500000920E-02 0.  1.
    10030    2    1    2    0    0  0.00000000000E+00  0.00000000000E+00 -0.70244153037E+02  0.26016141648E+04  0.26006656881E+04 0.  0.
        2    1    3    3  502    0  0.10951184592E+04 -0.48716041379E+03  0.46929965939E+03  0.12871875849E+04  0.25500000920E-02 0. -1.
       -2    1    3    3    0  502 -0.10951184592E+04  0.48716041379E+03 -0.53954381243E+03  0.13144265799E+04  0.25500000920E-02 0.  1.
</event>
<event>
 5   0  0.2641626E-07  0.2599620E+04  0.7818609E-02  0.8368330E-01
        1   -1    0    0  501    0  0.00000000000E+00  0.00000000000E+00  0.15957049246E+04  0.15957049246E+04  0.50400001928E-02 0.  1.
       -1   -1    0    0    0  501  0.00000000000E+00  0.00000000000E+00 -0.10587836868E+04  0.10587836869E+04  0.50400001928E-02 0. -1.
    10030    2    1    2    0    0  0.00000000000E+00  0.00000000000E+00  0.53692123778E+03  0.26544886115E+04  0.25996202363E+04 0.  0.
        3    1    3    3  502    0 -0.72040335372E+03  0.88653134617E+03 -0.36477968287E+03  0.11991593084E+04  0.10100000352E+00 0. -1.
       -3    1    3    3    0  502  0.72040335372E+03 -0.88653134617E+03  0.90170092066E+03  0.14553293031E+04  0.10100000352E+00 0.  1.
</event>
<event>
 5   0  0.6599814E-07  0.2599549E+04  0.7818609E-02  0.8368354E-01
       -2   -1    0    0    0  501  0.00000000000E+00  0.00000000000E+00  0.12531750744E+04  0.12531750744E+04  0.25500000920E-02 0.  1.
        2   -1    0    0  501    0  0.00000000000E+00  0.00000000000E+00 -0.13481066121E+04  0.13481066121E+04  0.25500000920E-02 0. -1.
    10030    2    1    2    0    0  0.00000000000E+00  0.00000000000E+00 -0.94931537672E+02  0.26012816865E+04  0.25995488869E+04 0.  0.
        5    1    3    3  502    0  0.34761799731E+03 -0.10770921295E+04 -0.68697375345E+03  0.13239791371E+04  0.46999998093E+01 0. -1.
       -5    1    3    3    0  502 -0.34761799731E+03  0.10770921295E+04  0.59204221577E+03  0.12773025494E+04  0.46999998093E+01 0.  1.
</event>
<event>
 5   0  0.2294625E-07  0.2599344E+04  0.7818609E-02  0.8368424E-01
        3   -1    0    0  501    0  0.00000000000E+00  0.00000000000E+00  0.10307519863E+04  0.10307519913E+04  0.10100000352E+00 0. -1.
       -3   -1    0    0    0  501  0.00000000000E+00  0.00000000000E+00 -0.16387524689E+04  0.16387524720E+04  0.10100000352E+00 0.  1.
    10030    2    1    2    0    0  0.00000000000E+00  0.00000000000E+00 -0.60800048259E+03  0.26695044633E+04  0.25993440505E+04 0.  0.
        4    1    3    3  502    0 -0.15118974440E+02 -0.12576257347E+04  0.32399765332E+02  0.12581345038E+04  0.12699999809E+01 0.  1.
       -4    1    3    3    0  502  0.15118974440E+02  0.12576257347E+04 -0.64040024793E+03  0.14113699595E+04  0.12699999809E+01 0. -1.
</event>
<event>
 5   0  0.6599814E-07  0.2600580E+04  0.7818609E-02  0.8368004E-01
       -2   -1    0    0    0  501  0.00000000000E+00  0.00000000000E+00  0.76608360368E+03  0.76608360369E+03  0.25500000920E-02 0. -1.
        2   -1    0    0  501    0  0.00000000000E+00  0.00000000000E+00 -0.22070101481E+04  0.22070101481E+04  0.25500000920E-02 0.  1.
    10030    2    1    2    0    0  0.00000000000E+00  0.00000000000E+00 -0.14409265445E+04  0.29730937518E+04  0.26005801566E+04 0.  0.
        5    1    3    3  502    0  0.77472413234E+03 -0.10432988302E+04 -0.77238042297E+03  0.15117088139E+04  0.46999998093E+01 0. -1.
       -5    1    3    3    0  502 -0.77472413234E+03  0.10432988302E+04 -0.66854612149E+03  0.14613849379E+04  0.46999998093E+01 0.  1.
</event>
<event>
 5   0  0.7160320E-07  0.2601008E+04  0.7818609E-02  0.8367859E-01
        2   -1    0    0  501    0  0.00000000000E+00  0.00000000000E+00  0.13753919435E+04  0.13753919435E+04  0.25500000920E-02 0.  1.
       -2   -1    0    0    0  501  0.00000000000E+00  0.00000000000E+00 -0.12296938860E+04  0.12296938860E+04  0.25500000920E-02 0. -1.
    10030    2    1    2    0    0  0.00000000000E+00  0.00000000000E+00  0.14569805755E+03  0.26050858295E+04  0.26010083151E+04 0.  0.
        1    1    3    3  502    0  0.77081383311E+03  0.63670736502E+03 -0.76017643949E+03  0.12559532050E+04  0.50400001928E-02 0. -1.
       -1    1    3    3    0  502 -0.77081383311E+03 -0.63670736502E+03  0.90587449704E+03  0.13491326245E+04  0.50400001928E-02 0.  1.
</event>
<event>
 5   0  0.6768478E-07  0.2600327E+04  0.7818609E-02  0.8368090E-01
        2   -1    0    0  501    0  0.00000000000E+00  0.00000000000E+00  0.14296421288E+04  0.14296421288E+04  0.25500000920E-02 0. -1.
       -2   -1    0    0    0  501  0.00000000000E+00  0.00000000000E+00 -0.11824114423E+04  0.11824114423E+04  0.25500000920E-02 0.  1.
    10030    2    1    2    0    0  0.00000000000E+00  0.00000000000E+00  0.24723068645E+03  0.26120535711E+04  0.26003270652E+04 0.  0.
        4    1    3    3  502    0  0.15080634273E+03 -0.11070932899E+04 -0.54423286022E+03  0.12428150001E+04  0.12699999809E+01 0.  1.
       -4    1    3    3    0  502 -0.15080634273E+03  0.11070932899E+04  0.79146354667E+03  0.13692385709E+04  0.12699999809E+01 0. -1.
</event>
<event>
 5   0  0.2641626E-07  0.2598641E+04  0.7818609E-02  0.8368663E-01
        1   -1    0    0  501    0  0.00000000000E+00  0.00000000000E+00  0.23474768474E+04  0.23474768474E+04  0.50400001928E-02 0.  1.
       -1   -1    0    0    0  501  0.00000000000E+00  0.00000000000E+00 -0.71916964743E+03  0.71916964745E+03  0.50400001928E-02 0. -1.
    10030    2    1    2    0    0  0.00000000000E+00  0.00000000000E+00  0.16283072000E+04  0.30666464949E+04  0.25986412578E+04 0.  0.
        3    1    3    3  502    0 -0.42003516693E+02 -0.37269913926E+03 -0.65389981004E+03  0.75382618394E+03  0.10100000352E+00 0. -1.
       -3    1    3    3    0  502  0.42003516693E+02  0.37269913926E+03  0.22822070100E+04  0.23128203109E+04  0.10100000352E+00 0.  1.
</event>
<event>
 5   0  0.2755061E-07  0.2599839E+04  0.7818609E-02  0.8368256E-01
        1   -1    0    0  501    0  0.00000000000E+00  0.00000000000E+00  0.91830057990E+03  0.91830057991E+03  0.50400001928E-02 0. -1.
       -1   -1    0    0    0  501  0.00000000000E+00  0.00000000000E+00 -0.18401283359E+04  0.18401283360E+04  0.50400001928E-02 0.  1.
    10030    2    1    2    0    0  0.00000000000E+00  0.00000000000E+00 -0.92182775605E+03  0.27584289159E+04  0.25998391627E+04 0.  0.
        4    1    3    3  502    0 -0.56641842695E+03 -0.11697041635E+04 -0.49000231644E+03  0.13889354008E+04  0.12699999809E+01 0.  1.
       -4    1    3    3    0  502  0.56641842695E+03  0.11697041635E+04 -0.43182543960E+03  0.13694935151E+04  0.12699999809E+01 0. -1.
</event>
<event>
 5   0  0.7160320E-07  0.2599391E+04  0.7818609E-02  0.8368408E-01
        2   -1    0    0  501    0  0.00000000000E+00  0.00000000000E+00  0.18830247411E+04  0.18830247411E+04  0.25500000920E-02 0. -1.
       -2   -1    0    0    0  501  0.00000000000E+00  0.00000000000E+00 -0.89707185113E+03  0.89707185113E+03  0.25500000920E-02 0.  1.
    10030    2    1    2    0    0  0.00000000000E+00  0.00000000000E+00  0.98595288995E+03  0.27800965922E+04  0.25993910750E+04 0.  0.
        1    1    3    3  502    0  0.17813034874E+02 -0.47392936208E+03  0.17871742098E+04  0.18490316386E+04  0.50400001928E-02 0. -1.
       -1    1    3    3    0  502 -0.17813034874E+02  0.47392936208E+03 -0.80122131983E+03  0.93106495360E+03  0.50400001928E-02 0.  1.
</event>
<event>
 5   0  0.2623263E-07  0.2595086E+04  0.7818609E-02  0.8369872E-01
       -1   -1    0    0    0  501  0.00000000000E+00  0.00000000000E+00  0.10965051925E+04  0.10965051925E+04  0.50400001928E-02 0.  1.
        1   -1    0    0  501    0  0.00000000000E+00  0.00000000000E+00 -0.15354401416E+04  0.15354401416E+04  0.50400001928E-02 0. -1.
    10030    2    1    2    0    0  0.00000000000E+00  0.00000000000E+00 -0.43893494910E+03  0.26319453341E+04  0.25950861935E+04 0.  0.
        1    1    3    3  502    0 -0.10902684971E+04 -0.85121472993E+02  0.48879735920E+03  0.11978538806E+04  0.50400001928E-02 0.  1.
       -1    1    3    3    0  502  0.10902684971E+04  0.85121472993E+02 -0.92773230831E+03  0.14340914534E+04  0.50400001928E-02 0. -1.
</event>
<event>
 5   0  0.6768478E-07  0.2600525E+04  0.7818609E-02  0.8368023E-01
       -2   -1    0    0    0  501  0.00000000000E+00  0.00000000000E+00  0.99499678653E+03  0.99499678653E+03  0.25500000920E-02 0. -1.
        2   -1    0    0  501    0  0.00000000000E+00  0.00000000000E+00 -0.16991835961E+04  0.16991835961E+04  0.25500000920E-02 0.  1.
    10030    2    1    2    0    0  0.00000000000E+00  0.00000000000E+00 -0.70418680953E+03  0.26941803826E+04  0.26005247300E+04 0.  0.
        4    1    3    3  502    0 -0.96559065276E+02 -0.41484103520E+03  0.92067172662E+03  0.10144233725E+04  0.12699999809E+01 0. -1.
       -4    1    3    3    0  502  0.96559065276E+02  0.41484103520E+03 -0.16248585361E+04  0.16797570101E+04  0.12699999809E+01 0.  1.
</event>
<event>
 5   0  0.6599814E-07  0.2600865E+04  0.7818609E-02  0.8367908E-01
        2   -1    0    0  501    0  0.00000000000E+00  0.00000000000E+00  0.15105420327E+04  0.15105420327E+04  0.25500000920E-02 0. -1.
       -2   -1    0    0    0  501  0.00000000000E+00  0.00000000000E+00 -0.11195479192E+04  0.11195479192E+04  0.25500000920E-02 0.  1.
    10030    2    1    2    0    0  0.00000000000E+00  0.00000000000E+00  0.39099411353E+03  0.26300899519E+04  0.26008646175E+04 0.  0.
        5    1    3    3  502    0 -0.57239805692E+03 -0.91313769776E+03  0.93143993794E+03  0.14244516273E+04  0.46999998093E+01 0. -1.
       -5    1    3    3    0  502  0.57239805692E+03  0.91313769776E+03 -0.54044582440E+03  0.12056383246E+04  0.46999998093E+01 0.  1.
</event>
<event>
 5   0  0.6599814E-07  0.2599658E+04  0.7818609E-02  0.8368317E-01
       -2   -1    0    0    0  501  0.00000000000E+00  0.00000000000E+00  0.80381723076E+03  0.80381723076E+03  0.25500000920E-02 0. -1.
        2   -1    0    0  501    0  0.00000000000E+00  0.00000000000E+00 -0.21019150358E+04  0.21019150358E+04  0.25500000920E-02 0.  1.
    10030    2    1    2    0    0  0.00000000000E+00  0.00000000000E+00 -0.12980978050E+04  0.29057322666E+04  0.25996580724E+04 0.  0.
        5    1    3    3  502    0  0.79982332395E+02  0.50312461184E+03  0.68757022296E+03  0.85574905786E+03  0.46999998093E+01 0. -1.
       -5    1    3    3    0  502 -0.79982332395E+02 -0.50312461184E+03 -0.19856680280E+04  0.20499832087E+04  0.46999998093E+01 0.  1.
</event>
<event>
 5   0  0.2755061E-07  0.2600111E+04  0.7818609E-02  0.8368164E-01
        1   -1    0    0  501    0  0.00000000000E+00  0.00000000000E+00  0.19658126565E+04  0.19658126565E+04  0.50400001928E-02 0.  1.
       -1   -1    0    0    0  501  0.00000000000E+00  0.00000000000E+00 -0.85976873009E+03  0.85976873011E+03  0.50400001928E-02 0. -1.
    10030    2    1    2    0    0  0.00000000000E+00  0.00000000000E+00  0.11060439264E+04  0.28255813866E+04  0.26001109602E+04 0.  0.
        4    1    3    3  502    0 -0.11676642755E+04  0.56988156334E+03  0.60085945285E+03  0.14315161723E+04  0.12699999809E+01 0.  1.
       -4    1    3    3    0  502  0.11676642755E+04 -0.56988156334E+03  0.50518447354E+03  0.13940652143E+04  0.12699999809E+01 0. -1.
</event>
<event>
 5   0  0.2755061E-07  0.2601249E+04  0.7818609E-02  0.8367777E-01
        1   -1    0    0  501    0  0.00000000000E+00  0.00000000000E+00  0.15533683844E+04  0.15533683844E+04  0.50400001928E-02 0. -1.
       -1   -1    0    0    0  501  0.00000000000E+00  0.00000000000E+00 -0.10890038310E+04  0.10890038310E+04  0.50400001928E-02 0.  1.
    10030    2    1    2    0    0  0.00000000000E+00  0.00000000000E+00  0.46436455345E+03  0.26423722154E+04  0.26012490243E+04 0.  0.
        4    1    3    3  502    0 -0.39708467227E+03  0.99310236317E+03  0.98394544251E+03  0.14532992766E+04  0.12699999809E+01 0. -1.
       -4    1    3    3    0  502  0.39708467227E+03 -0.99310236317E+03 -0.51958088905E+03  0.11890729388E+04  0.12699999809E+01 0.  1.
</event>
<event>
 5   0  0.2623263E-07  0.2598426E+04  0.7818609E-02  0.8368736E-01
       -1   -1    0    0    0  501  0.00000000000E+00  0.00000000000E+00  0.13583538702E+04  0.13583538702E+04  0.50400001928E-02 0.  1.
        1   -1    0    0  501    0  0.00000000000E+00  0.00000000000E+00 -0.12426470892E+04  0.12426470892E+04  0.50400001928E-02 0. -1.
    10030    2    1    2    0    0  0.00000000000E+00  0.00000000000E+00  0.11570678100E+03  0.26010009595E+04  0.25984260490E+04 0.  0.
        1    1    3    3  502    0  0.10265306945E+04 -0.11470104362E+03  0.84669071333E+03  0.13355922881E+04  0.50400001928E-02 0.  1.
       -1    1    3    3    0  502 -0.10265306945E+04  0.11470104362E+03 -0.73098393233E+03  0.12654086713E+04  0.50400001928E-02 0. -1.
</event>
<event>
 5   0  0.6599814E-07  0.2599893E+04  0.7818609E-02  0.8368238E-01
        2   -1    0    0  501    0  0.00000000000E+00  0.00000000000E+00  0.17384516963E+04  0.17384516963E+04  0.25500000920E-02 0. -1.
       -2   -1    0    0    0  501  0.00000000000E+00  0.00000000000E+00 -0.97204920410E+03  0.97204920410E+03  0.25500000920E-02 0.  1.
    10030    2    1    2    0    0  0.00000000000E+00  0.00000000000E+00  0.76640249224E+03  0.27105009004E+04  0.25998927576E+04 0.  0.
        5    1    3    3  502    0 -0.11384734602E+04  0.19589239703E+02  0.10370454539E+04  0.15401269173E+04  0.46999998093E+01 0. -1.
       -5    1    3    3    0  502  0.11384734602E+04 -0.19589239703E+02 -0.27064296165E+03  0.11703739832E+04  0.46999998093E+01 0.  1.
</event>
<event>
 5   0  0.6768478E-07  0.2599956E+04  0.7818609E-02  0.8368216E-01
       -2   -1    0    0    0  501  0.00000000000E+00  0.00000000000E+00  0.80142815815E+03  0.80142815815E+03  0.25500000920E-02 0. -1.
        2   -1    0    0  501    0  0.00000000000E+00  0.00000000000E+00 -0.21086641744E+04  0.21086641744E+04  0.25500000920E-02 0.  1.
    10030    2    1    2    0    0  0.00000000000E+00  0.00000000000E+00 -0.13072360163E+04  0.29100923326E+04  0.25999560346E+04 0.  0.
        4    1    3    3  502    0 -0.97865914390E+03  0.83601974137E+03 -0.44955630670E+03  0.13633800694E+04  0.12699999809E+01 0. -1.
       -4    1    3    3    0  502  0.97865914390E+03 -0.83601974137E+03 -0.85767970960E+03  0.15467122632E+04  0.12699999809E+01 0.  1.
</event>
<event>
 5   0  0.7160320E-07  0.2599575E+04  0.7818609E-02  0.8368346E-01
        2   -1    0    0  501    0  0.00000000000E+00  0.00000000000E+00  0.14932502628E+04  0.14932502628E+04  0.25500000920E-02 0.  1.
       -2   -1    0    0    0  501  0.00000000000E+00  0.00000000000E+00 -0.11313892792E+04  0.11313892792E+04  0.25500000920E-02 0. -1.
    10030    2    1    2    0    0  0.00000000000E+00  0.00000000000E+00  0.36186098362E+03  0.26246395420E+04  0.25995748410E+04 0.  0.
        1    1    3    3  502    0 -0.95624636823E+03 -0.67319137252E+03  0.75372194132E+03  0.13912909493E+04  0.50400001928E-02 0.  1.
       -1    1    3    3    0  502  0.95624636823E+03  0.67319137252E+03 -0.39186095770E+03  0.12333485926E+04  0.50400001928E-02 0. -1.
</event>
<event>
 5   0  0.7160320E-07  0.2600663E+04  0.7818609E-02  0.8367976E-01
        2   -1    0    0  501    0  0.00000000000E+00  0.00000000000E+00  0.19817660962E+04  0.19817660962E+04  0.25500000920E-02 0.  1.
       -2   -1    0    0    0  501  0.00000000000E+00  0.00000000000E+00 -0.85320943321E+03  0.85320943322E+03  0.25500000920E-02 0. -1.
    10030    2    1    2    0    0  0.00000000000E+00  0.00000000000E+00  0.11285566630E+04  0.28349755294E+04  0.26006626292E+04 0.  0.
        1    1    3    3  502    0  0.82350309760E+02  0.74828827804E+03 -0.59150489718E+03  0.95738966152E+03  0.50400001928E-02 0. -1.
       -1    1    3    3    0  502 -0.82350309760E+02 -0.74828827804E+03  0.17200615602E+04  0.18775858679E+04  0.50400001928E-02 0.  1.
</event>
<event>
 5   0  0.2793576E-07  0.2601156E+04  0.7818609E-02  0.8367808E-01
       -1   -1    0    0    0  501  0.00000000000E+00  0.00000000000E+00  0.22144134735E+04  0.22144134735E+04  0.50400001928E-02 0. -1.
        1   -1    0    0  501    0  0.00000000000E+00  0.00000000000E+00 -0.76386084037E+03  0.76386084039E+03  0.50400001928E-02 0.  1.
    10030    2    1    2    0    0  0.00000000000E+00  0.00000000000E+00  0.14505526331E+04  0.29782743139E+04  0.26011564635E+04 0.  0.
        2    1    3    3  502    0 -0.63009651536E+03  0.39793121166E+03 -0.49515342206E+03  0.89473335652E+03  0.25500000920E-02 0.  1.
       -2    1    3    3    0  502  0.63009651536E+03 -0.39793121166E+03  0.19457060552E+04  0.20835409574E+04  0.25500000920E-02 0. -1.
</event>
<event>
 5   0  0.2864801E-07  0.2598933E+04  0.7818609E-02  0.8368564E-01
       -1   -1    0    0    0  501  0.00000000000E+00  0.00000000000E+00  0.78949327228E+03  0.78949327230E+03  0.50400001928E-02 0. -1.
        1   -1    0    0  501    0  0.00000000000E+00  0.00000000000E+00 -0.21388566157E+04  0.21388566157E+04  0.50400001928E-02 0.  1.
    10030    2    1    2    0    0  0.00000000000E+00  0.00000000000E+00 -0.13493633434E+04  0.29283498880E+04  0.25989327875E+04 0.  0.
        5    1    3    3  502    0  0.49458744498E+01  0.10566066969E+04  0.17759844177E+03  0.10714501715E+04  0.46999998093E+01 0. -1.
       -5    1    3    3    0  502 -0.49458744498E+01 -0.10566066969E+04 -0.15269617852E+04  0.18568997164E+04  0.46999998093E+01 0.  1.
</event>
<event>
 5   0  0.6599814E-07  0.2599872E+04  0.7818609E-02  0.8368245E-01
        2   -1    0    0  501    0  0.00000000000E+00  0.00000000000E+00  0.82886034088E+03  0.82886034089E+03  0.25500000920E-02 0.  1.
       -2   -1    0    0    0  501  0.00000000000E+00  0.00000000000E+00 -0.20387433192E+04  0.20387433192E+04  0.25500000920E-02 0. -1.
    10030    2    1    2    0    0  0.00000000000E+00  0.00000000000E+00 -0.12098829783E+04  0.28676036601E+04  0.25998719065E+04 0.  0.
        5    1    3    3  502    0 -0.11762473253E+04 -0.46883581189E+03 -0.92923715357E+03  0.15706268068E+04  0.46999998093E+01 0. -1.
       -5    1    3    3    0  502  0.11762473253E+04  0.46883581189E+03 -0.28064582472E+03  0.12969768532E+04  0.46999998093E+01 0.  1.
</event>
<event>
 5   0  0.2755061E-07  0.2600108E+04  0.7818609E-02  0.8368164E-01
       -1   -1    0    0    0  501  0.00000000000E+00  0.00000000000E+00  0.15236600273E+04  0.15236600273E+04  0.50400001928E-02 0. -1.
        1   -1    0    0  501    0  0.00000000000E+00  0.00000000000E+00 -0.11092637952E+04  0.11092637952E+04  0.50400001928E-02 0.  1.
    10030    2    1    2    0    0  0.00000000000E+00  0.00000000000E+00  0.41439623208E+03  0.26329238226E+04  0.26001083859E+04 0.  0.
        4    1    3    3  502    0  0.16530620494E+03 -0.25501964014E+03 -0.10727874688E+04  0.11150048091E+04  0.12699999809E+01 0.  1.
       -4    1    3    3    0  502 -0.16530620494E+03  0.25501964014E+03  0.14871837009E+04  0.15179190134E+04  0.12699999809E+01 0. -1.
</event>
<event>
 5   0  0.6780984E-07  0.2599767E+04  0.7818609E-02  0.8368280E-01
       -2   -1    0    0    0  501  0.00000000000E+00  0.00000000000E+00  0.11578343342E+04  0.11578343342E+04  0.25500000920E-02 0.  1.
        2   -1    0    0  501    0  0.00000000000E+00  0.00000000000E+00 -0.14593595374E+04  0.14593595374E+04  0.25500000920E-02 0. -1.
    10030    2    1    2    0    0  0.00000000000E+00  0.00000000000E+00 -0.30152520322E+03  0.26171938715E+04  0.25997665882E+04 0.  0.
        2    1    3    3  502    0 -0.85853545345E+03  0.95773219868E+03  0.38547134318E+02  0.12867866843E+04  0.25500000920E-02 0. -1.
       -2    1    3    3    0  502  0.85853545345E+03 -0.95773219868E+03 -0.34007233754E+03  0.13304071873E+04  0.25500000920E-02 0.  1.
</event>
<event>
 5   0  0.2623263E-07  0.2598694E+04  0.7818609E-02  0.8368645E-01
       -1   -1    0    0    0  501  0.00000000000E+00  0.00000000000E+00  0.11396079568E+04  0.11396079568E+04  0.50400001928E-02 0.  1.
        1   -1    0    0  501    0  0.00000000000E+00  0.00000000000E+00 -0.14814765063E+04  0.14814765063E+04  0.50400001928E-02 0. -1.
    10030    2    1    2    0    0  0.00000000000E+00  0.00000000000E+00 -0.34186854949E+03  0.26210844631E+04  0.25986938368E+04 0.  0.
        1    1    3    3  502    0  0.73847555680E+03  0.20396244834E+03 -0.12294313908E+04  0.14486022135E+04  0.50400001928E-02 0. -1.
       -1    1    3    3    0  502 -0.73847555680E+03 -0.20396244834E+03  0.88756284129E+03  0.11724822496E+04  0.50400001928E-02 0.  1.
</event>
<event>
 5   0  0.6526351E-07  0.2600149E+04  0.7818609E-02  0.8368151E-01
       -2   -1    0    0    0  501  0.00000000000E+00  0.00000000000E+00  0.12271307476E+04  0.12271307476E+04  0.25500000920E-02 0.  1.
        2   -1    0    0  501    0  0.00000000000E+00  0.00000000000E+00 -0.13773538186E+04  0.13773538186E+04  0.25500000920E-02 0. -1.
    10030    2    1    2    0    0  0.00000000000E+00  0.00000000000E+00 -0.15022307105E+03  0.26044845662E+04  0.26001486274E+04 0.  0.
        3    1    3    3  502    0  0.71279453022E+03  0.10599154465E+04 -0.31778897448E+03  0.13162395825E+04  0.10100000352E+00 0. -1.
       -3    1    3    3    0  502 -0.71279453022E+03 -0.10599154465E+04  0.16756590344E+03  0.12882449838E+04  0.10100000352E+00 0.  1.
</event>
<event>
 5   0  0.6599814E-07  0.2599645E+04  0.7818609E-02  0.8368322E-01
       -2   -1    0    0    0  501  0.00000000000E+00  0.00000000000E+00  0.96632174387E+03  0.96632174387E+03  0.25500000920E-02 0. -1.
        2   -1    0    0  501    0  0.00000000000E+00  0.00000000000E+00 -0.17484219025E+04  0.17484219025E+04  0.25500000920E-02 0.  1.
    10030    2    1    2    0    0  0.00000000000E+00  0.00000000000E+00 -0.78210015867E+03  0.27147436464E+04  0.25996446695E+04 0.  0.
        5    1    3    3  502    0  0.30015257194E+03  0.11875217843E+04  0.63199242832E+02  0.12265055193E+04  0.46999998093E+01 0.  1.
       -5    1    3    3    0  502 -0.30015257194E+03 -0.11875217843E+04 -0.84529940150E+03  0.14882381271E+04  0.46999998093E+01 0. -1.
</event>
<event>
 5   0  0.2623263E-07  0.2598840E+04  0.7818609E-02  0.8368595E-01
        1   -1    0    0  501    0  0.00000000000E+00  0.00000000000E+00  0.21210014411E+04  0.21210014411E+04  0.50400001928E-02 0.  1.
       -1   -1    0    0    0  501  0.00000000000E+00  0.00000000000E+00 -0.79608275978E+03  0.79608275980E+03  0.50400001928E-02 0. -1.
    10030    2    1    2    0    0  0.00000000000E+00  0.00000000000E+00  0.13249186813E+04  0.29170842009E+04  0.25988402650E+04 0.  0.
        1    1    3    3  502    0 -0.26597267450E+03 -0.21242107051E+03 -0.74515100456E+03  0.81921559702E+03  0.50400001928E-02 0. -1.
       -1    1    3    3    0  502  0.26597267450E+03  0.21242107051E+03  0.20700696859E+04  0.20978686039E+04  0.50400001928E-02 0.  1.
</event>
<event>
 5   0  0.2755061E-07  0.2599465E+04  0.7818609E-02  0.8368383E-01
        1   -1    0    0  501    0  0.00000000000E+00  0.00000000000E+00  0.13930656286E+04  0.13930656287E+04  0.50400001928E-02 0.  1.
       -1   -1    0    0    0  501  0.00000000000E+00  0.00000000000E+00 -0.12126522561E+04  0.12126522561E+04  0.50400001928E-02 0. -1.
    10030    2    1    2    0    0  0.00000000000E+00  0.00000000000E+00  0.18041337256E+03  0.26057178847E+04  0.25994646968E+04 0.  0.
        4    1    3    3  502    0  0.67717747098E+00 -0.12538188943E+04  0.43343405061E+03  0.13266231444E+04  0.12699999809E+01 0.  1.
       -4    1    3    3    0  502 -0.67717747098E+00  0.12538188943E+04 -0.25302067805E+03  0.12790947403E+04  0.12699999809E+01 0. -1.
</event>
<event>
 5   0  0.2294625E-07  0.2599022E+04  0.7818609E-02  0.8368533E-01
        3   -1    0    0  501    0  0.00000000000E+00  0.00000000000E+00  0.11303155417E+04  0.11303155462E+04  0.10100000352E+00 0.  1.
       -3   -1    0    0    0  501  0.00000000000E+00  0.00000000000E+00 -0.14940332708E+04  0.14940332743E+04  0.10100000352E+00 0. -1.
    10030    2    1    2    0    0  0.00000000000E+00  0.00000000000E+00 -0.36371772919E+03  0.26243488204E+04  0.25990221516E+04 0.  0.
        2    1    3    3  502    0  0.30440252504E+03  0.27354781830E+03 -0.14272633004E+04  0.14847793893E+04  0.25500000920E-02 0. -1.
       -2    1    3    3    0  502 -0.30440252504E+03 -0.27354781830E+03  0.10635455713E+04  0.11395694311E+04  0.25500000920E-02 0.  1.
</event>
<event>
 5   0  0.2864801E-07  0.2599531E+04  0.7818609E-02  0.8368361E-01
       -1   -1    0    0    0  501  0.00000000000E+00  0.00000000000E+00  0.18052361881E+04  0.18052361881E+04  0.50400001928E-02 0. -1.
        1   -1    0    0  501    0  0.00000000000E+00  0.00000000000E+00 -0.93582762925E+03  0.93582762927E+03  0.50400001928E-02 0.  1.
    10030    2    1    2    0    0  0.00000000000E+00  0.00000000000E+00  0.86940855882E+03  0.27410638173E+04  0.25995306516E+04 0.  0.
        5    1    3    3  502    0  0.97670939353E+03 -0.34808636265E+03 -0.39170297368E+03  0.11084126780E+04  0.46999998093E+01 0.  1.
       -5    1    3    3    0  502 -0.97670939353E+03  0.34808636265E+03  0.12611115325E+04  0.16326511393E+04  0.46999998093E+01 0. -1.
</event>
<event>
 5   0  0.6599814E-07  0.2599552E+04  0.7818609E-02  0.8368353E-01
       -2   -1    0    0    0  501  0.00000000000E+00  0.00000000000E+00  0.10257468013E+04  0.10257468013E+04  0.25500000920E-02 0.  1.
        2   -1    0    0  501    0  0.00000000000E+00  0.00000000000E+00 -0.16470127217E+04  0.16470127217E+04  0.25500000920E-02 0. -1.
    10030    2    1    2    0    0  0.00000000000E+00  0.00000000000E+00 -0.62126592036E+03  0.26727595230E+04  0.25995522930E+04 0.  0.
        5    1    3    3  502    0 -0.85552045556E+03  0.97498599536E+03 -0.39593319215E+03  0.13562072569E+04  0.46999998093E+01 0. -1.
       -5    1    3    3    0  502  0.85552045556E+03 -0.97498599536E+03 -0.22533272821E+03  0.13165522661E+04  0.46999998093E+01 0.  1.
</event>
<event>
 5   0  0.6599814E-07  0.2600043E+04  0.7818609E-02  0.8368187E-01
        2   -1    0    0  501    0  0.00000000000E+00  0.00000000000E+00  0.28873417278E+04  0.28873417278E+04  0.25500000920E-02 0. -1.
       -2   -1    0    0    0  501  0.00000000000E+00  0.00000000000E+00 -0.58533266746E+03  0.58533266746E+03  0.25500000920E-02 0.  1.
    10030    2    1    2    0    0  0.00000000000E+00  0.00000000000E+00  0.23020090604E+04  0.34726743953E+04  0.26000426423E+04 0.  0.
        5    1    3    3  502    0 -0.10096942891E+04 -0.60733025670E+03  0.41738347520E+03  0.12500254612E+04  0.46999998093E+01 0.  1.
       -5    1    3    3    0  502  0.10096942891E+04  0.60733025670E+03  0.18846255852E+04  0.22226489342E+04  0.46999998093E+01 0. -1.
</event>
<event>
 5   0  0.6526351E-07  0.2599706E+04  0.7818609E-02  0.8368301E-01
       -2   -1    0    0    0  501  0.00000000000E+00  0.00000000000E+00  0.79185755395E+03  0.79185755396E+03  0.25500000920E-02 0.  1.
        2   -1    0    0  501    0  0.00000000000E+00  0.00000000000E+00 -0.21337399061E+04  0.21337399061E+04  0.25500000920E-02 0. -1.
    10030    2    1    2    0    0  0.00000000000E+00  0.00000000000E+00 -0.13418823521E+04  0.29255974600E+04  0.25997061855E+04 0.  0.
        3    1    3    3  502    0  0.85835264388E+03 -0.44093236835E+03 -0.16509891177E+04  0.19123168387E+04  0.10100000352E+00 0. -1.
       -3    1    3    3    0  502 -0.85835264388E+03  0.44093236835E+03  0.30910676561E+03  0.10132806213E+04  0.10100000352E+00 0.  1.
</event>
<event>
 5   0  0.6599814E-07  0.2601557E+04  0.7818609E-02  0.8367672E-01
       -2   -1    0    0    0  501  0.00000000000E+00  0.00000000000E+00  0.80315082351E+03  0.80315082351E+03  0.25500000920E-02 0. -1.
        2   -1    0    0  501    0  0.00000000000E+00  0.00000000000E+00 -0.21067335841E+04  0.21067335841E+04  0.25500000920E-02 0.  1.
    10030    2    1    2    0    0  0.00000000000E+00  0.00000000000E+00 -0.13035827606E+04  0.29098844076E+04  0.26015570822E+04 0.  0.
        5    1    3    3  502    0  0.48676425885E+03 -0.36080402833E+03 -0.19392440193E+04  0.20317008754E+04  0.46999998093E+01 0.  1.
       -5    1    3    3    0  502 -0.48676425885E+03  0.36080402833E+03  0.63566125869E+03  0.87818353227E+03  0.46999998093E+01 0. -1.
</event>
<event>
 5   0  0.2793576E-07  0.2595768E+04  0.7818609E-02  0.8369640E-01
        1   -1    0    0  501    0  0.00000000000E+00  0.00000000000E+00  0.18851529117E+04  0.18851529117E+04  0.50400001928E-02 0.  1.
       -1   -1    0    0    0  501  0.00000000000E+00  0.00000000000E+00 -0.89356270732E+03  0.89356270734E+03  0.50400001928E-02 0. -1.
    10030    2    1    2    0    0  0.00000000000E+00  0.00000000000E+00  0.99159020441E+03  0.27787156191E+04  0.25957675856E+04 0.  0.
        2    1    3    3  502    0  0.76754829568E+03 -0.95270926974E+01  0.16161125805E+04  0.17891453336E+04  0.25500000920E-02 0.  1.
       -2    1    3    3    0  502 -0.76754829568E+03  0.95270926974E+01 -0.62452237612E+03  0.98957028551E+03  0.25500000920E-02 0. -1.
</event>
<event>
 5   0  0.6526351E-07  0.2600352E+04  0.7818609E-02  0.8368082E-01
        2   -1    0    0  501    0  0.00000000000E+00  0.00000000000E+00  0.16776682169E+04  0.16776682169E+04  0.25500000920E-02 0. -1.
       -2   -1    0    0    0  501  0.00000000000E+00  0.00000000000E+00 -0.10076231079E+04  0.10076231079E+04  0.25500000920E-02 0.  1.
    10030    2    1    2    0    0  0.00000000000E+00  0.00000000000E+00  0.67004510892E+03  0.26852913248E+04  0.26003517168E+04 0.  0.
        3    1    3    3  502    0  0.55578071571E+03  0.20005127466E+03 -0.86106194637E+03  0.10441936612E+04  0.10100000352E+00 0.  1.
       -3    1    3    3    0  502 -0.55578071571E+03 -0.20005127466E+03  0.15311070553E+04  0.16410976636E+04  0.10100000352E+00 0. -1.
</event>
<event>
 5   0  0.6780984E-07  0.2600681E+04  0.7818609E-02  0.8367970E-01
       -2   -1    0    0    0  501  0.00000000000E+00  0.00000000000E+00  0.82531652424E+03  0.82531652424E+03  0.25500000920E-02 0. -1.
        2   -1    0    0  501    0  0.00000000000E+00  0.00000000000E+00 -0.20487718452E+04  0.20487718452E+04  0.25500000920E-02 0.  1.
    10030    2    1    2    0    0  0.00000000000E+00  0.00000000000E+00 -0.12234553210E+04  0.28740883694E+04  0.26006808787E+04 0.  0.
        2    1    3    3  502    0  0.12210855107E+04 -0.43955469155E+03 -0.52176235810E+03  0.13987473359E+04  0.25500000920E-02 0. -1.
       -2    1    3    3    0  502 -0.12210855107E+04  0.43955469155E+03 -0.70169296286E+03  0.14753410336E+04  0.25500000920E-02 0.  1.
</event>
<event>
 5   0  0.6526351E-07  0.2599702E+04  0.7818609E-02  0.8368303E-01
       -2   -1    0    0    0  501  0.00000000000E+00  0.00000000000E+00  0.87362300170E+03  0.87362300171E+03  0.25500000920E-02 0. -1.
        2   -1    0    0  501    0  0.00000000000E+00  0.00000000000E+00 -0.19340288037E+04  0.19340288037E+04  0.25500000920E-02 0.  1.
    10030    2    1    2    0    0  0.00000000000E+00  0.00000000000E+00 -0.10604058020E+04  0.28076518054E+04  0.25997015590E+04 0.  0.
        3    1    3    3  502    0  0.84335880251E+03 -0.87450678501E+03 -0.31070043853E+02  0.12153112954E+04  0.10100000352E+00 0. -1.
       -3    1    3    3    0  502 -0.84335880251E+03  0.87450678501E+03 -0.10293357582E+04  0.15923405101E+04  0.10100000352E+00 0.  1.
</event>
<event>
 5   0  0.2793576E-07  0.2601809E+04  0.7818609E-02  0.8367587E-01
        1   -1    0    0  501    0  0.00000000000E+00  0.00000000000E+00  0.16813816437E+04  0.16813816437E+04  0.50400001928E-02 0.  1.
       -1   -1    0    0    0  501  0.00000000000E+00  0.00000000000E+00 -0.10065247908E+04  0.10065247908E+04  0.50400001928E-02 0. -1.
    10030    2    1    2    0    0  0.00000000000E+00  0.00000000000E+00  0.67485685296E+03  0.26879064345E+04  0.26018088379E+04 0.  0.
        2    1    3    3  502    0  0.34825317075E+03 -0.11486627537E+04  0.85567173634E+03  0.14740693719E+04  0.25500000920E-02 0.  1.
       -2    1    3    3    0  502 -0.34825317075E+03  0.11486627537E+04 -0.18081488338E+03  0.12138370627E+04  0.25500000920E-02 0. -1.
</event>
<event>
 5   0  0.6780984E-07  0.2599506E+04  0.7818609E-02  0.8368369E-01
       -2   -1    0    0    0  501  0.00000000000E+00  0.00000000000E+00  0.12491113835E+04  0.12491113835E+04  0.25500000920E-02 0. -1.
        2   -1    0    0  501    0  0.00000000000E+00  0.00000000000E+00 -0.13524478642E+04  0.13524478642E+04  0.25500000920E-02 0.  1.
    10030    2    1    2    0    0  0.00000000000E+00  0.00000000000E+00 -0.10333648073E+03  0.26015592477E+04  0.25995061244E+04 0.  0.
        2    1    3    3  502    0 -0.78142164327E+03 -0.35639310993E+03 -0.10280012511E+04  0.13395605270E+04  0.25500000920E-02 0.  1.
       -2    1    3    3    0  502  0.78142164327E+03  0.35639310993E+03  0.92466477036E+03  0.12619987207E+04  0.25500000920E-02 0. -1.
</event>
<event>
 5   0  0.2755061E-07  0.2599334E+04  0.7818609E-02  0.8368427E-01
        1   -1    0    0  501    0  0.00000000000E+00  0.00000000000E+00  0.15680922610E+04  0.15680922610E+04  0.50400001928E-02 0.  1.
       -1   -1    0    0    0  501  0.00000000000E+00  0.00000000000E+00 -0.10771906921E+04  0.10771906921E+04  0.50400001928E-02 0. -1.
    10030    2    1    2    0    0  0.00000000000E+00  0.00000000000E+00  0.49090156890E+03  0.26452829532E+04  0.25993340593E+04 0.  0.
        4    1    3    3  502    0 -0.85949802672E+03  0.85242572334E+03 -0.23595064937E+03  0.12333048259E+04  0.12699999809E+01 0. -1.
       -4    1    3    3    0  502  0.85949802672E+03 -0.85242572334E+03  0.72685221827E+03  0.14119781273E+04  0.12699999809E+01 0.  1.
</event>
<event>
 5   0  0.2755061E-07  0.2595940E+04  0.7818609E-02  0.8369582E-01
        1   -1    0    0  501    0  0.00000000000E+00  0.00000000000E+00  0.11909118715E+04  0.11909118715E+04  0.50400001928E-02 0. -1.
       -1   -1    0    0    0  501  0.00000000000E+00  0.00000000000E+00 -0.14146524281E+04  0.14146524281E+04  0.50400001928E-02 0.  1.
    10030    2    1    2    0    0  0.00000000000E+00  0.00000000000E+00 -0.22374055655E+03  0.26055642996E+04  0.25959401924E+04 0.  0.
        4    1    3    3  502    0 -0.36859026527E+03 -0.11927431315E+04 -0.46847579145E+03  0.13334039679E+04  0.12699999809E+01 0. -1.
       -4    1    3    3    0  502  0.36859026527E+03  0.11927431315E+04  0.24473523490E+03  0.12721603317E+04  0.12699999809E+01 0.  1.
</event>
<event>
 5   0  0.6768478E-07  0.2599028E+04  0.7818609E-02  0.8368531E-01
        2   -1    0    0  501    0  0.00000000000E+00  0.00000000000E+00  0.16205217745E+04  0.16205217745E+04  0.25500000920E-02 0. -1.
       -2   -1    0    0    0  501  0.00000000000E+00  0.00000000000E+00 -0.10420944901E+04  0.10420944901E+04  0.25500000920E-02 0.  1.
    10030    2    1    2    0    0  0.00000000000E+00  0.00000000000E+00  0.57842728444E+03  0.26626162646E+04  0.25990281355E+04 0.  0.
        4    1    3    3  502    0  0.73326316320E+03 -0.92009975521E+03 -0.27608075875E+03  0.12085034647E+04  0.12699999809E+01 0.  1.
       -4    1    3    3    0  502 -0.73326316320E+03  0.92009975521E+03  0.85450804319E+03  0.14541127999E+04  0.12699999809E+01 0. -1.
</event>
<event>
 5   0  0.2641626E-07  0.2599663E+04  0.7818609E-02  0.8368316E-01
       -1   -1    0    0    0  501  0.00000000000E+00  0.00000000000E+00  0.75230789949E+03  0.75230789951E+03  0.50400001928E-02 0. -1.
        1   -1    0    0  501    0  0.00000000000E+00  0.00000000000E+00 -0.22458386905E+04  0.22458386905E+04  0.50400001928E-02 0.  1.
    10030    2    1    2    0    0  0.00000000000E+00  0.00000000000E+00 -0.14935307910E+04  0.29981465900E+04  0.25996631996E+04 0.  0.
        3    1    3    3  502    0 -0.83144648479E+03 -0.92888761521E+03 -0.32235310206E+03  0.12876517353E+04  0.10100000352E+00 0. -1.
       -3    1    3    3    0  502  0.83144648479E+03  0.92888761521E+03 -0.11711776889E+04  0.17104948547E+04  0.10100000352E+00 0.  1.
</event>
<event>
 5   0  0.2793576E-07  0.2599821E+04  0.7818609E-02  0.8368262E-01
       -1   -1    0    0    0  501  0.00000000000E+00  0.00000000000E+00  0.15856476512E+04  0.15856476512E+04  0.50400001928E-02 0.  1.
        1   -1    0    0  501    0  0.00000000000E+00  0.00000000000E+00 -0.10656639413E+04  0.10656639414E+04  0.50400001928E-02 0. -1.
    10030    2    1    2    0    0  0.00000000000E+00  0.00000000000E+00  0.51998370988E+03  0.26513115926E+04  0.25998211674E+04 0.  0.
        2    1    3    3  502    0 -0.48997534015E+03  0.58010208012E+03  0.13359581810E+04  0.15366777537E+04  0.25500000920E-02 0.  1.
       -2    1    3    3    0  502  0.48997534015E+03 -0.58010208012E+03 -0.81597447111E+03  0.11146338389E+04  0.25500000920E-02 0. -1.
</event>
<event>
 5   0  0.6526351E-07  0.2596120E+04  0.7818609E-02  0.8369520E-01
        2   -1    0    0  501    0  0.00000000000E+00  0.00000000000E+00  0.19400248802E+04  0.19400248802E+04  0.25500000920E-02 0. -1.
       -2   -1    0    0    0  501  0.00000000000E+00  0.00000000000E+00 -0.86852450962E+03  0.86852450962E+03  0.25500000920E-02 0.  1.
    10030    2    1    2    0    0  0.00000000000E+00  0.00000000000E+00  0.10715003706E+04  0.28085493898E+04  0.25961195332E+04 0.  0.
        3    1    3    3  502    0 -0.54279090320E+03 -0.10220339805E+04  0.11719003667E+04  0.16469747726E+04  0.10100000352E+00 0. -1.
       -3    1    3    3    0  502  0.54279090320E+03  0.10220339805E+04 -0.10039999614E+03  0.11615746172E+04  0.10100000352E+00 0.  1.
</event>
<event>
 5   0  0.6526351E-07  0.2600876E+04  0.7818609E-02  0.8367904E-01
       -2   -1    0    0    0  501  0.00000000000E+00  0.00000000000E+00  0.13418416211E+04  0.13418416211E+04  0.25500000920E-02 0. -1.
        2   -1    0    0  501    0  0.00000000000E+00  0.00000000000E+00 -0.12603120488E+04  0.12603120488E+04  0.25500000920E-02 0.  1.
    10030    2    1    2    0    0  0.00000000000E+00  0.00000000000E+00  0.81529572292E+02  0.26021536700E+04  0.26008761314E+04 0.  0.
        3    1    3    3  502    0  0.10988245880E+04  0.35841745361E+03 -0.55556540496E+03  0.12823928710E+04  0.10100000352E+00 0.  1.
       -3    1    3    3    0  502 -0.10988245880E+04 -0.35841745361E+03  0.63709497725E+03  0.13197607990E+04  0.10100000352E+00 0. -1.
</event>
<event>
 5   0  0.6768478E-07  0.2603897E+04  0.7818609E-02  0.8366879E-01
        2   -1    0    0  501    0  0.00000000000E+00  0.00000000000E+00  0.26080409277E+04  0.26080409277E+04  0.25500000920E-02 0. -1.
       -2   -1    0    0    0  501  0.00000000000E+00  0.00000000000E+00 -0.64993984577E+03  0.64993984577E+03  0.25500000920E-02 0.  1.
    10030    2    1    2    0    0  0.00000000000E+00  0.00000000000E+00  0.19581010819E+04  0.32579807735E+04  0.26038968630E+04 0.  0.
        4    1    3    3  502    0 -0.76044785421E+03  0.29178965627E+03  0.22498882125E+04  0.23927851396E+04  0.12699999809E+01 0. -1.
       -4    1    3    3    0  502  0.76044785421E+03 -0.29178965627E+03 -0.29178713056E+03  0.86519563391E+03  0.12699999809E+01 0.  1.
</event>
<event>
 5   0  0.2623263E-07  0.2601208E+04  0.7818609E-02  0.8367791E-01
        1   -1    0    0  501    0  0.00000000000E+00  0.00000000000E+00  0.18351262158E+04  0.18351262158E+04  0.50400001928E-02 0. -1.
       -1   -1    0    0    0  501  0.00000000000E+00  0.00000000000E+00 -0.92177336369E+03  0.92177336371E+03  0.50400001928E-02 0.  1.
    10030    2    1    2    0    0  0.00000000000E+00  0.00000000000E+00  0.91335285214E+03  0.27568995795E+04  0.26012077693E+04 0.  0.
        1    1    3    3  502    0  0.12263941491E+04  0.43254410886E+03  0.47874200062E+03  0.13857600508E+04  0.50400001928E-02 0.  1.
       -1    1    3    3    0  502 -0.12263941491E+04 -0.43254410886E+03  0.43461085152E+03  0.13711395288E+04  0.50400001928E-02 0. -1.
</event>
<event>
 5   0  0.6768478E-07  0.2599980E+04  0.7818609E-02  0.8368208E-01
        2   -1    0    0  501    0  0.00000000000E+00  0.00000000000E+00  0.28473597958E+04  0.28473597958E+04  0.25500000920E-02 0.  1.
       -2   -1    0    0    0  501  0.00000000000E+00  0.00000000000E+00 -0.59352319394E+03  0.59352319395E+03  0.25500000920E-02 0. -1.
    10030    2    1    2    0    0  0.00000000000E+00  0.00000000000E+00  0.22538366018E+04  0.34408829897E+04  0.25999800617E+04 0.  0.
        4    1    3    3  502    0  0.51647668585E+03  0.74666053730E+03  0.23582900902E+04  0.25270108602E+04  0.12699999809E+01 0.  1.
       -4    1    3    3    0  502 -0.51647668585E+03 -0.74666053730E+03 -0.10445348839E+03  0.91387212953E+03  0.12699999809E+01 0. -1.
</event>
<event>
 5   0  0.2641626E-07  0.2600744E+04  0.7818609E-02  0.8367949E-01
       -1   -1    0    0    0  501  0.00000000000E+00  0.00000000000E+00  0.10392885880E+04  0.10392885880E+04  0.50400001928E-02 0. -1.
        1   -1    0    0  501    0  0.00000000000E+00  0.00000000000E+00 -0.16270428003E+04  0.16270428003E+04  0.50400001928E-02 0.  1.
    10030    2    1    2    0    0  0.00000000000E+00  0.00000000000E+00 -0.58775421227E+03  0.26663313884E+04  0.26007437510E+04 0.  0.
        3    1    3    3  502    0 -0.24487621464E+03  0.26296794378E+03 -0.15751342288E+04  0.16156003061E+04  0.10100000352E+00 0.  1.
       -3    1    3    3    0  502  0.24487621464E+03 -0.26296794378E+03  0.98738001657E+03  0.10507310823E+04  0.10100000352E+00 0. -1.
</event>
<event>
 5   0  0.6526351E-07  0.2599529E+04  0.7818609E-02  0.8368361E-01
       -2   -1    0    0    0  501  0.00000000000E+00  0.00000000000E+00  0.12154708377E+04  0.12154708377E+04  0.25500000920E-02 0.  1.
        2   -1    0    0  501    0  0.00000000000E+00  0.00000000000E+00 -0.13899042767E+04  0.13899042767E+04  0.25500000920E-02 0. -1.
    10030    2    1    2    0    0  0.00000000000E+00  0.00000000000E+00 -0.17443343899E+03  0.26053751144E+04  0.25995292770E+04 0.  0.
        3    1    3    3  502    0 -0.11259725748E+04 -0.50990363158E+03  0.31564759833E+03  0.12757152383E+04  0.10100000352E+00 0.  1.
       -3    1    3    3    0  502  0.11259725748E+04  0.50990363158E+03 -0.49008103732E+03  0.13296598761E+04  0.10100000352E+00 0. -1.
</event>
<event>
 5   0  0.6526351E-07  0.2599751E+04  0.7818609E-02  0.8368286E-01
       -2   -1    0    0    0  501  0.00000000000E+00  0.00000000000E+00  0.11684507979E+04  0.11684507979E+04  0.25500000920E-02 0.  1.
        2   -1    0    0  501    0  0.00000000000E+00  0.00000000000E+00 -0.14460825295E+04  0.14460825295E+04  0.25500000920E-02 0. -1.
    10030    2    1    2    0    0  0.00000000000E+00  0.00000000000E+00 -0.27763173156E+03  0.26145333274E+04  0.25997509769E+04 0.  0.
        3    1    3    3  502    0 -0.27267988695E+03 -0.73555595983E+03 -0.11811838239E+04  0.14179534995E+04  0.10100000352E+00 0. -1.
       -3    1    3    3    0  502  0.27267988695E+03  0.73555595983E+03  0.90355209234E+03  0.11965798279E+04  0.10100000352E+00 0.  1.
</event>
<event>
 5   0  0.2623263E-07  0.2600069E+04  0.7818609E-02  0.8368178E-01
        1   -1    0    0  501    0  0.00000000000E+00  0.00000000000E+00  0.13852904812E+04  0.13852904812E+04  0.50400001928E-02 0. -1.
       -1   -1    0    0    0  501  0.00000000000E+00  0.00000000000E+00 -0.12200252587E+04  0.12200252587E+04  0.50400001928E-02 0.  1.
    10030    2    1    2    0    0  0.00000000000E+00  0.00000000000E+00  0.16526522255E+03  0.26053157399E+04  0.26000687512E+04 0.  0.
        1    1    3    3  502    0 -0.17679126030E+03  0.12446704599E+04 -0.24913928372E+03  0.12816122995E+04  0.50400001928E-02 0. -1.
       -1    1    3    3    0  502  0.17679126030E+03 -0.12446704599E+04  0.41440450628E+03  0.13237034405E+04  0.50400001928E-02 0.  1.
</event>
<event>
 5   0  0.2623263E-07  0.2603124E+04  0.7818609E-02  0.8367141E-01
        1   -1    0    0  501    0  0.00000000000E+00  0.00000000000E+00  0.20112083293E+04  0.20112083293E+04  0.50400001928E-02 0.  1.
       -1   -1    0    0    0  501  0.00000000000E+00  0.00000000000E+00 -0.84231158317E+03  0.84231158319E+03  0.50400001928E-02 0. -1.
    10030    2    1    2    0    0  0.00000000000E+00  0.00000000000E+00  0.11688967462E+04  0.28535199125E+04  0.26031243320E+04 0.  0.
        1    1    3    3  502    0  0.81577161402E+03  0.88802096822E+03  0.11214692501E+04  0.16467415842E+04  0.50400001928E-02 0.  1.
       -1    1    3    3    0  502 -0.81577161402E+03 -0.88802096822E+03  0.47427496038E+02  0.12067783283E+04  0.50400001928E-02 0. -1.
</event>
<event>
 5   0  0.7160320E-07  0.2599318E+04  0.7818609E-02  0.8368433E-01
        2   -1    0    0  501    0  0.00000000000E+00  0.00000000000E+00  0.12180574342E+04  0.12180574342E+04  0.25500000920E-02 0.  1.
       -2   -1    0    0    0  501  0.00000000000E+00  0.00000000000E+00 -0.13867270800E+04  0.13867270800E+04  0.25500000920E-02 0. -1.
    10030    2    1    2    0    0  0.00000000000E+00  0.00000000000E+00 -0.16866964579E+03  0.26047845142E+04  0.25993177790E+04 0.  0.
        1    1    3    3  502    0  0.47384362816E+03 -0.24016857111E+03  0.11042898304E+04  0.12254243167E+04  0.50400001928E-02 0.  1.
       -1    1    3    3    0  502 -0.47384362816E+03  0.24016857111E+03 -0.12729594762E+04  0.13793601975E+04  0.50400001928E-02 0. -1.
</event>
<event>
 5   0  0.2755061E-07  0.2601360E+04  0.7818609E-02  0.8367739E-01
       -1   -1    0    0    0  501  0.00000000000E+00  0.00000000000E+00  0.71689364059E+03  0.71689364061E+03  0.50400001928E-02 0. -1.
        1   -1    0    0  501    0  0.00000000000E+00  0.00000000000E+00 -0.23598597135E+04  0.23598597135E+04  0.50400001928E-02 0.  1.
    10030    2    1    2    0    0  0.00000000000E+00  0.00000000000E+00 -0.16429660729E+04  0.30767533541E+04  0.26013599684E+04 0.  0.
        4    1    3    3  502    0  0.26930846232E+03 -0.69544687230E+03  0.43890322752E+03  0.86533869444E+03  0.12699999809E+01 0. -1.
       -4    1    3    3    0  502 -0.26930846232E+03  0.69544687230E+03 -0.20818693005E+04  0.22114146597E+04  0.12699999809E+01 0.  1.
</event>
<event>
 5   0  0.6599814E-07  0.2600827E+04  0.7818609E-02  0.8367920E-01
       -2   -1    0    0    0  501  0.00000000000E+00  0.00000000000E+00  0.10221271005E+04  0.10221271006E+04  0.25500000920E-02 0. -1.
        2   -1    0    0  501    0  0.00000000000E+00  0.00000000000E+00 -0.16544665107E+04  0.16544665107E+04  0.25500000920E-02 0.  1.
    10030    2    1    2    0    0  0.00000000000E+00  0.00000000000E+00 -0.63233941018E+03  0.26765936113E+04  0.26008268359E+04 0.  0.
        5    1    3    3  502    0 -0.94977423003E+03  0.88375189346E+03 -0.22432598854E+03  0.13165989277E+04  0.46999998093E+01 0.  1.
       -5    1    3    3    0  502  0.94977423003E+03 -0.88375189346E+03 -0.40801342164E+03  0.13599946836E+04  0.46999998093E+01 0. -1.
</event>
<event>
 5   0  0.2793576E-07  0.2588368E+04  0.7818609E-02  0.8372163E-01
        1   -1    0    0  501    0  0.00000000000E+00  0.00000000000E+00  0.17785468130E+04  0.17785468130E+04  0.50400001928E-02 0. -1.
       -1   -1    0    0    0  501  0.00000000000E+00  0.00000000000E+00 -0.94173052944E+03  0.94173052946E+03  0.50400001928E-02 0.  1.
    10030    2    1    2    0    0  0.00000000000E+00  0.00000000000E+00  0.83681628358E+03  0.27202773425E+04  0.25883676956E+04 0.  0.
        2    1    3    3  502    0 -0.14212567086E+03  0.88262339223E+03  0.14018799851E+04  0.16626759310E+04  0.25500000920E-02 0. -1.
       -2    1    3    3    0  502  0.14212567086E+03 -0.88262339223E+03 -0.56506370152E+03  0.10576014115E+04  0.25500000920E-02 0.  1.
</event>
<event>
 5   0  0.2864801E-07  0.2600008E+04  0.7818609E-02  0.8368199E-01
        1   -1    0    0  501    0  0.00000000000E+00  0.00000000000E+00  0.11277070341E+04  0.11277070341E+04  0.50400001928E-02 0.  1.
       -1   -1    0    0    0  501  0.00000000000E+00  0.00000000000E+00 -0.14986251012E+04  0.14986251012E+04  0.50400001928E-02 0. -1.
    10030    2    1    2    0    0  0.00000000000E+00  0.00000000000E+00 -0.37091806710E+03  0.26263321353E+04  0.26000077447E+04 0.  0.
        5    1    3    3  502    0  0.70171001085E+03  0.44152162593E+03 -0.11969211437E+04  0.14560153158E+04  0.46999998093E+01 0. -1.
       -5    1    3    3    0  502 -0.70171001085E+03 -0.44152162593E+03  0.82600307660E+03  0.11703168195E+04  0.46999998093E+01 0.  1.
</event>
<event>
 5   0  0.2623263E-07  0.2599645E+04  0.7818609E-02  0.8368322E-01
        1   -1    0    0  501    0  0.00000000000E+00  0.00000000000E+00  0.14112040733E+04  0.14112040733E+04  0.50400001928E-02 0. -1.
       -1   -1    0    0    0  501  0.00000000000E+00  0.00000000000E+00 -0.11972320734E+04  0.11972320734E+04  0.50400001928E-02 0.  1.
    10030    2    1    2    0    0  0.00000000000E+00  0.00000000000E+00  0.21397199993E+03  0.26084361467E+04  0.25996451901E+04 0.  0.
        1    1    3    3  502    0  0.10795380351E+03  0.84463603626E+03 -0.87841172832E+03  0.12233851486E+04  0.50400001928E-02 0.  1.
       -1    1    3    3    0  502 -0.10795380351E+03 -0.84463603626E+03  0.10923837282E+04  0.13850509981E+04  0.50400001928E-02 0. -1.
</event>
<event>
 5   0  0.6599814E-07  0.2599146E+04  0.7818609E-02  0.8368491E-01
       -2   -1    0    0    0  501  0.00000000000E+00  0.00000000000E+00  0.73394369381E+03  0.73394369382E+03  0.25500000920E-02 0.  1.
        2   -1    0    0  501    0  0.00000000000E+00  0.00000000000E+00 -0.23011171453E+04  0.23011171453E+04  0.25500000920E-02 0. -1.
    10030    2    1    2    0    0  0.00000000000E+00  0.00000000000E+00 -0.15671734515E+04  0.30350608391E+04  0.25991463349E+04 0.  0.
        5    1    3    3  502    0 -0.47524935670E+03 -0.44345967131E+03 -0.20976416839E+04  0.21960512642E+04  0.46999998093E+01 0. -1.
       -5    1    3    3    0  502  0.47524935670E+03  0.44345967131E+03  0.53046823242E+03  0.83900957487E+03  0.46999998093E+01 0.  1.
</event>
<event>
 5   0  0.2793576E-07  0.2600136E+04  0.7818609E-02  0.8368155E-01
        1   -1    0    0  501    0  0.00000000000E+00  0.00000000000E+00  0.19667944275E+04  0.19667944275E+04  0.50400001928E-02 0.  1.
       -1   -1    0    0    0  501  0.00000000000E+00  0.00000000000E+00 -0.85935605275E+03  0.85935605276E+03  0.50400001928E-02 0. -1.
    10030    2    1    2    0    0  0.00000000000E+00  0.00000000000E+00  0.11074383747E+04  0.28261504803E+04  0.26001359163E+04 0.  0.
        2    1    3    3  502    0 -0.10528801039E+04  0.32872263698E+03  0.13016948660E+04  0.17061725029E+04  0.25500000920E-02 0.  1.
       -2    1    3    3    0  502  0.10528801039E+04 -0.32872263698E+03 -0.19425649131E+03  0.11199779774E+04  0.25500000920E-02 0. -1.
</event>
<event>
 5   0  0.2641626E-07  0.2600855E+04  0.7818609E-02  0.8367911E-01
       -1   -1    0    0    0  501  0.00000000000E+00  0.00000000000E+00  0.78871655905E+03  0.78871655906E+03  0.50400001928E-02 0. -1.
        1   -1    0    0  501    0  0.00000000000E+00  0.00000000000E+00 -0.21441317559E+04  0.21441317559E+04  0.50400001928E-02 0.  1.
    10030    2    1    2    0    0  0.00000000000E+00  0.00000000000E+00 -0.13554151968E+04  0.29328483149E+04  0.26008554136E+04 0.  0.
        3    1    3    3  502    0  0.41999721250E+03 -0.10637765118E+03  0.70493657151E+03  0.82743546168E+03  0.10100000352E+00 0. -1.
       -3    1    3    3    0  502 -0.41999721250E+03  0.10637765118E+03 -0.20603517683E+04  0.21054128533E+04  0.10100000352E+00 0.  1.
</event>
<event>
 5   0  0.6526351E-07  0.2600502E+04  0.7818609E-02  0.8368031E-01
       -2   -1    0    0    0  501  0.00000000000E+00  0.00000000000E+00  0.69204415659E+03  0.69204415659E+03  0.25500000920E-02 0. -1.
        2   -1    0    0  501    0  0.00000000000E+00  0.00000000000E+00 -0.24429846628E+04  0.24429846628E+04  0.25500000920E-02 0.  1.
    10030    2    1    2    0    0  0.00000000000E+00  0.00000000000E+00 -0.17509405062E+04  0.31350288194E+04  0.26005024595E+04 0.  0.
        3    1    3    3  502    0  0.55402419483E+03  0.47548999291E+03  0.42161112611E+03  0.84308332547E+03  0.10100000352E+00 0. -1.
       -3    1    3    3    0  502 -0.55402419483E+03 -0.47548999291E+03 -0.21725516323E+04  0.22919454939E+04  0.10100000352E+00 0.  1.
</event>
<event>
 5   0  0.6599814E-07  0.2598361E+04  0.7818609E-02  0.8368758E-01
        2   -1    0    0  501    0  0.00000000000E+00  0.00000000000E+00  0.24049947657E+04  0.24049947657E+04  0.25500000920E-02 0. -1.
       -2   -1    0    0    0  501  0.00000000000E+00  0.00000000000E+00 -0.70181876992E+03  0.70181876993E+03  0.25500000920E-02 0.  1.
    10030    2    1    2    0    0  0.00000000000E+00  0.00000000000E+00  0.17031759958E+04  0.31068135357E+04  0.25983613822E+04 0.  0.
        5    1    3    3  502    0  0.94853383944E+03  0.66270793027E+03  0.14527480294E+03  0.11662011421E+04  0.46999998093E+01 0.  1.
       -5    1    3    3    0  502 -0.94853383944E+03 -0.66270793027E+03  0.15579011929E+04  0.19406123936E+04  0.46999998093E+01 0. -1.
</event>
<event>
 5   0  0.7160320E-07  0.2600392E+04  0.7818609E-02  0.8368068E-01
       -2   -1    0    0    0  501  0.00000000000E+00  0.00000000000E+00  0.86485062454E+03  0.86485062454E+03  0.25500000920E-02 0. -1.
        2   -1    0    0  501    0  0.00000000000E+00  0.00000000000E+00 -0.19546843409E+04  0.19546843409E+04  0.25500000920E-02 0.  1.
    10030    2    1    2    0    0  0.00000000000E+00  0.00000000000E+00 -0.10898337164E+04  0.28195349655E+04  0.26003922574E+04 0.  0.
        1    1    3    3  502    0 -0.21731598901E+03  0.86472902842E+03  0.48115569252E+03  0.10131600723E+04  0.50400001928E-02 0. -1.
       -1    1    3    3    0  502  0.21731598901E+03 -0.86472902842E+03 -0.15709894089E+04  0.18063748931E+04  0.50400001928E-02 0.  1.
</event>
<event>
 5   0  0.2755061E-07  0.2599730E+04  0.7818609E-02  0.8368293E-01
       -1   -1    0    0    0  501  0.00000000000E+00  0.00000000000E+00  0.12016984262E+04  0.12016984262E+04  0.50400001928E-02 0. -1.
        1   -1    0    0  501    0  0.00000000000E+00  0.00000000000E+00 -0.14060503547E+04  0.14060503547E+04  0.50400001928E-02 0.  1.
    10030    2    1    2    0    0  0.00000000000E+00  0.00000000000E+00 -0.20435192851E+03  0.26077487809E+04  0.25997296001E+04 0.  0.
        4    1    3    3  502    0 -0.11929073646E+04  0.22775570169E+03  0.36266068472E+03  0.12674482338E+04  0.12699999809E+01 0. -1.
       -4    1    3    3    0  502  0.11929073646E+04 -0.22775570169E+03 -0.56701261323E+03  0.13403005471E+04  0.12699999809E+01 0.  1.
</event>
<event>
 5   0  0.2641626E-07  0.2599512E+04  0.7818609E-02  0.8368367E-01
        1   -1    0    0  501    0  0.00000000000E+00  0.00000000000E+00  0.13882659673E+04  0.13882659673E+04  0.50400001928E-02 0. -1.
       -1   -1    0    0    0  501  0.00000000000E+00  0.00000000000E+00 -0.12168887985E+04  0.12168887985E+04  0.50400001928E-02 0.  1.
    10030    2    1    2    0    0  0.00000000000E+00  0.00000000000E+00  0.17137716882E+03  0.26051547658E+04  0.25995117272E+04 0.  0.
        3    1    3    3  502    0 -0.97274836449E+03  0.62286904639E+03 -0.51155818773E+03  0.12632881774E+04  0.10100000352E+00 0.  1.
       -3    1    3    3    0  502  0.97274836449E+03 -0.62286904639E+03  0.68293535655E+03  0.13418665884E+04  0.10100000352E+00 0. -1.
</event>
<event>
 5   0  0.2623263E-07  0.2600061E+04  0.7818609E-02  0.8368180E-01
        1   -1    0    0  501    0  0.00000000000E+00  0.00000000000E+00  0.20985146063E+04  0.20985146063E+04  0.50400001928E-02 0.  1.
       -1   -1    0    0    0  501  0.00000000000E+00  0.00000000000E+00 -0.80536954415E+03  0.80536954417E+03  0.50400001928E-02 0. -1.
    10030    2    1    2    0    0  0.00000000000E+00  0.00000000000E+00  0.12931450622E+04  0.29038841505E+04  0.26000613469E+04 0.  0.
        1    1    3    3  502    0 -0.10059604397E+04 -0.77461276611E+03  0.95868907022E+03  0.15909324552E+04  0.50400001928E-02 0.  1.
       -1    1    3    3    0  502  0.10059604397E+04  0.77461276611E+03  0.33445599195E+03  0.13129516953E+04  0.50400001928E-02 0. -1.
</event>
<event>
 5   0  0.6780984E-07  0.2600054E+04  0.7818609E-02  0.8368183E-01
        2   -1    0    0  501    0  0.00000000000E+00  0.00000000000E+00  0.19739909500E+04  0.19739909500E+04  0.25500000920E-02 0. -1.
       -2   -1    0    0    0  501  0.00000000000E+00  0.00000000000E+00 -0.85616901711E+03  0.85616901711E+03  0.25500000920E-02 0.  1.
    10030    2    1    2    0    0  0.00000000000E+00  0.00000000000E+00  0.11178219329E+04  0.28301599671E+04  0.26000537621E+04 0.  0.
        2    1    3    3  502    0 -0.10489669346E+04 -0.43367452027E+02  0.13934846702E+04  0.17447096870E+04  0.25500000920E-02 0. -1.
       -2    1    3    3    0  502  0.10489669346E+04  0.43367452027E+02 -0.27566273732E+03  0.10854502801E+04  0.25500000920E-02 0.  1.
</event>
<event>
 5   0  0.2623263E-07  0.2599557E+04  0.7818609E-02  0.8368352E-01
        1   -1    0    0  501    0  0.00000000000E+00  0.00000000000E+00  0.13047143495E+04  0.13047143495E+04  0.50400001928E-02 0. -1.
       -1   -1    0    0    0  501  0.00000000000E+00  0.00000000000E+00 -0.12948608446E+04  0.12948608446E+04  0.50400001928E-02 0.  1.
    10030    2    1    2    0    0  0.00000000000E+00  0.00000000000E+00  0.98535048879E+01  0.25995751941E+04  0.25995565196E+04 0.  0.
        1    1    3    3  502    0  0.13264892304E+03 -0.40595531687E+03  0.12325462867E+04  0.13044408016E+04  0.50400001928E-02 0. -1.
       -1    1    3    3    0  502 -0.13264892304E+03  0.40595531687E+03 -0.12226927818E+04  0.12951343925E+04  0.50400001928E-02 0.  1.
</event>
<event>
 5   0  0.2793576E-07  0.2600456E+04  0.7818609E-02  0.8368046E-01
        1   -1    0    0  501    0  0.00000000000E+00  0.00000000000E+00  0.15677761688E+04  0.15677761688E+04  0.50400001928E-02 0.  1.
       -1   -1    0    0    0  501  0.00000000000E+00  0.00000000000E+00 -0.10783383504E+04  0.10783383504E+04  0.50400001928E-02 0. -1.
    10030    2    1    2    0    0  0.00000000000E+00  0.00000000000E+00  0.48943781834E+03  0.26461145192E+04  0.26004562428E+04 0.  0.
        2    1    3    3  502    0 -0.58869702500E+03  0.76444560977E+03 -0.64216422649E+03  0.11590151730E+04  0.25500000920E-02 0. -1.
       -2    1    3    3    0  502  0.58869702500E+03 -0.76444560977E+03  0.11316020448E+04  0.14870993462E+04  0.25500000920E-02 0.  1.
</event>
<event>
 5   0  0.2755061E-07  0.2601160E+04  0.7818609E-02  0.8367807E-01
       -1   -1    0    0    0  501  0.00000000000E+00  0.00000000000E+00  0.13136709916E+04  0.13136709916E+04  0.50400001928E-02 0.  1.
        1   -1    0    0  501    0  0.00000000000E+00  0.00000000000E+00 -0.12876190656E+04  0.12876190656E+04  0.50400001928E-02 0. -1.
    10030    2    1    2    0    0  0.00000000000E+00  0.00000000000E+00  0.26051925951E+02  0.26012900572E+04  0.26011595989E+04 0.  0.
        4    1    3    3  502    0  0.73352074907E+03  0.23359683002E+03 -0.10353042632E+04  0.12901459990E+04  0.12699999809E+01 0. -1.
       -4    1    3    3    0  502 -0.73352074907E+03 -0.23359683002E+03  0.10613561892E+04  0.13111440583E+04  0.12699999809E+01 0.  1.
</event>
<event>
 5   0  0.6526351E-07  0.2600619E+04  0.7818609E-02  0.8367991E-01
       -2   -1    0    0    0  501  0.00000000000E+00  0.00000000000E+00  0.56291693956E+03  0.56291693957E+03  0.25500000920E-02 0. -1.
        2   -1    0    0  501    0  0.00000000000E+00  0.00000000000E+00 -0.30036496233E+04  0.30036496233E+04  0.25500000920E-02 0.  1.
    10030    2    1    2    0    0  0.00000000000E+00  0.00000000000E+00 -0.24407326837E+04  0.35665665628E+04  0.26006193520E+04 0.  0.
        3    1    3    3  502    0 -0.36203876692E+03  0.12049541285E+04 -0.16706857192E+04  0.20914533949E+04  0.10100000352E+00 0. -1.
       -3    1    3    3    0  502  0.36203876692E+03 -0.12049541285E+04 -0.77004696448E+03  0.14751131679E+04  0.10100000352E+00 0.  1.
</event>
<event>
 5   0  0.6526351E-07  0.2599625E+04  0.7818609E-02  0.8368329E-01
       -2   -1    0    0    0  501  0.00000000000E+00  0.00000000000E+00  0.96205585519E+03  0.96205585519E+03  0.25500000920E-02 0. -1.
        2   -1    0    0  501    0  0.00000000000E+00  0.00000000000E+00 -0.17561477851E+04  0.17561477851E+04  0.25500000920E-02 0.  1.
    10030    2    1    2    0    0  0.00000000000E+00  0.00000000000E+00 -0.79409192995E+03  0.27182036403E+04  0.25996247878E+04 0.  0.
        3    1    3    3  502    0  0.15241585938E+03  0.12889476080E+04 -0.32388497871E+03  0.13377286795E+04  0.10100000352E+00 0. -1.
       -3    1    3    3    0  502 -0.15241585938E+03 -0.12889476080E+04 -0.47020695124E+03  0.13804749608E+04  0.10100000352E+00 0.  1.
</event>
<event>
 5   0  0.2793576E-07  0.2597312E+04  0.7818609E-02  0.8369115E-01
       -1   -1    0    0    0  501  0.00000000000E+00  0.00000000000E+00  0.90439948921E+03  0.90439948922E+03  0.50400001928E-02 0. -1.
        1   -1    0    0  501    0  0.00000000000E+00  0.00000000000E+00 -0.18647819670E+04  0.18647819670E+04  0.50400001928E-02 0.  1.
    10030    2    1    2    0    0  0.00000000000E+00  0.00000000000E+00 -0.96038247781E+03  0.27691814562E+04  0.25973123482E+04 0.  0.
        2    1    3    3  502    0 -0.97765114923E+03  0.34663996484E+03  0.35288878832E+03  0.10956694446E+04  0.25500000920E-02 0. -1.
       -2    1    3    3    0  502  0.97765114923E+03 -0.34663996484E+03 -0.13132712661E+04  0.16735120117E+04  0.25500000920E-02 0.  1.
</event>
<event>
 5   0  0.2864801E-07  0.2600348E+04  0.7818609E-02  0.8368083E-01
       -1   -1    0    0    0  501  0.00000000000E+00  0.00000000000E+00  0.10867876120E+04  0.10867876120E+04  0.50400001928E-02 0. -1.
        1   -1    0    0  501    0  0.00000000000E+00  0.00000000000E+00 -0.15554577869E+04  0.15554577869E+04  0.50400001928E-02 0.  1.
    10030    2    1    2    0    0  0.00000000000E+00  0.00000000000E+00 -0.46867017497E+03  0.26422453989E+04  0.26003478643E+04 0.  0.
        5    1    3    3  502    0  0.11595817068E+04  0.41413210626E+03 -0.65854830803E+03  0.13963678241E+04  0.46999998093E+01 0.  1.
       -5    1    3    3    0  502 -0.11595817068E+04 -0.41413210626E+03  0.18987813306E+03  0.12458775749E+04  0.46999998093E+01 0. -1.
</event>
<event>
 5   0  0.6599814E-07  0.2600422E+04  0.7818609E-02  0.8368058E-01
       -2   -1    0    0    0  501  0.00000000000E+00  0.00000000000E+00  0.10675103070E+04  0.10675103070E+04  0.25500000920E-02 0. -1.
        2   -1    0    0  501    0  0.00000000000E+00  0.00000000000E+00 -0.15836367034E+04  0.15836367034E+04  0.25500000920E-02 0.  1.
    10030    2    1    2    0    0  0.00000000000E+00  0.00000000000E+00 -0.51612639640E+03  0.26511470104E+04  0.26004218915E+04 0.  0.
        5    1    3    3  502    0  0.34431085289E+02  0.21662838435E+02  0.10668527206E+04  0.10676383262E+04  0.46999998093E+01 0. -1.
       -5    1    3    3    0  502 -0.34431085289E+02 -0.21662838435E+02 -0.15829791170E+04  0.15835086842E+04  0.46999998093E+01 0.  1.
</event>
<event>
 5   0  0.7160320E-07  0.2599983E+04  0.7818609E-02  0.8368207E-01
       -2   -1    0    0    0  501  0.00000000000E+00  0.00000000000E+00  0.13375844354E+04  0.13375844354E+04  0.25500000920E-02 0.  1.
        2   -1    0    0  501    0  0.00000000000E+00  0.00000000000E+00 -0.12634552220E+04  0.12634552220E+04  0.25500000920E-02 0. -1.
    10030    2    1    2    0    0  0.00000000000E+00  0.00000000000E+00  0.74129213446E+02  0.26010396574E+04  0.25999831075E+04 0.  0.
        1    1    3    3  502    0 -0.51020552090E+03 -0.76944706319E+03  0.95265211487E+03  0.13266139260E+04  0.50400001928E-02 0.  1.
       -1    1    3    3    0  502  0.51020552090E+03  0.76944706319E+03 -0.87852290143E+03  0.12744257314E+04  0.50400001928E-02 0. -1.
</event>
<event>
 5   0  0.2294625E-07  0.2598499E+04  0.7818609E-02  0.8368711E-01
        3   -1    0    0  501    0  0.00000000000E+00  0.00000000000E+00  0.11440281739E+04  0.11440281784E+04  0.10100000352E+00 0. -1.
       -3   -1    0    0    0  501  0.00000000000E+00  0.00000000000E+00 -0.14755311646E+04  0.14755311681E+04  0.10100000352E+00 0.  1.
    10030    2    1    2    0    0  0.00000000000E+00  0.00000000000E+00 -0.33150299068E+03  0.26195593464E+04  0.25984989776E+04 0.  0.
        2    1    3    3  502    0  0.11389565780E+04 -0.57474262844E+03 -0.41370851683E+03  0.13411584218E+04  0.25500000920E-02 0.  1.
       -2    1    3    3    0  502 -0.11389565780E+04  0.57474262844E+03  0.82205526150E+02  0.12784009246E+04  0.25500000920E-02 0. -1.
</event>
<event>
 5   0  0.2755061E-07  0.2600012E+04  0.7818609E-02  0.8368197E-01
       -1   -1    0    0    0  501  0.00000000000E+00  0.00000000000E+00  0.93918950229E+03  0.93918950231E+03  0.50400001928E-02 0. -1.
        1   -1    0    0  501    0  0.00000000000E+00  0.00000000000E+00 -0.17994411521E+04  0.17994411521E+04  0.50400001928E-02 0.  1.
    10030    2    1    2    0    0  0.00000000000E+00  0.00000000000E+00 -0.86025164979E+03  0.27386306544E+04  0.26000124923E+04 0.  0.
        4    1    3    3  502    0  0.99199035598E+01  0.10072200009E+04 -0.12957837400E+04  0.16412335753E+04  0.12699999809E+01 0.  1.
       -4    1    3    3    0  502 -0.99199035598E+01 -0.10072200009E+04  0.43553209025E+03  0.10973970791E+04  0.12699999809E+01 0. -1.
</event>
<event>
 5   0  0.6768478E-07  0.2600512E+04  0.7818609E-02  0.8368027E-01
       -2   -1    0    0    0  501  0.00000000000E+00  0.00000000000E+00  0.10810784961E+04  0.10810784961E+04  0.25500000920E-02 0. -1.
        2   -1    0    0  501    0  0.00000000000E+00  0.00000000000E+00 -0.15638696876E+04  0.15638696876E+04  0.25500000920E-02 0.  1.
    10030    2    1    2    0    0  0.00000000000E+00  0.00000000000E+00 -0.48279119149E+03  0.26449481836E+04  0.26005121725E+04 0.  0.
        4    1    3    3  502    0 -0.10421380927E+03 -0.76921932947E+03 -0.13023427606E+04  0.15161323075E+04  0.12699999809E+01 0.  1.
       -4    1    3    3    0  502  0.10421380927E+03  0.76921932947E+03  0.81955156910E+03  0.11288158761E+04  0.12699999809E+01 0. -1.
</event>
<event>
 5   0  0.6526351E-07  0.2602805E+04  0.7818609E-02  0.8367249E-01
        2   -1    0    0  501    0  0.00000000000E+00  0.00000000000E+00  0.21379364727E+04  0.21379364727E+04  0.25500000920E-02 0. -1.
       -2   -1    0    0    0  501  0.00000000000E+00  0.00000000000E+00 -0.79218818425E+03  0.79218818425E+03  0.25500000920E-02 0.  1.
    10030    2    1    2    0    0  0.00000000000E+00  0.00000000000E+00  0.13457482885E+04  0.29301246570E+04  0.26028046506E+04 0.  0.
        3    1    3    3  502    0 -0.22216551072E+03 -0.43129928098E+03 -0.68657731397E+03  0.84069316768E+03  0.10100000352E+00 0.  1.
       -3    1    3    3    0  502  0.22216551072E+03  0.43129928098E+03  0.20323256024E+04  0.20894314893E+04  0.10100000352E+00 0. -1.
</event>
<event>
 5   0  0.6599814E-07  0.2602915E+04  0.7818609E-02  0.8367212E-01
        2   -1    0    0  501    0  0.00000000000E+00  0.00000000000E+00  0.12369944587E+04  0.12369944587E+04  0.25500000920E-02 0.  1.
       -2   -1    0    0    0  501  0.00000000000E+00  0.00000000000E+00 -0.13692803897E+04  0.13692803897E+04  0.25500000920E-02 0. -1.
    10030    2    1    2    0    0  0.00000000000E+00  0.00000000000E+00 -0.13228593100E+03  0.26062748484E+04  0.26029154842E+04 0.  0.
        5    1    3    3  502    0  0.12487695693E+04 -0.32230960884E+03  0.10861378458E+03  0.12942673469E+04  0.46999998093E+01 0.  1.
       -5    1    3    3    0  502 -0.12487695693E+04  0.32230960884E+03 -0.24089971558E+03  0.13120075015E+04  0.46999998093E+01 0. -1.
</event>
<event>
 5   0  0.6599814E-07  0.2599036E+04  0.7818609E-02  0.8368529E-01
       -2   -1    0    0    0  501  0.00000000000E+00  0.00000000000E+00  0.75355543503E+03  0.75355543503E+03  0.25500000920E-02 0.  1.
        2   -1    0    0  501    0  0.00000000000E+00  0.00000000000E+00 -0.22410389514E+04  0.22410389514E+04  0.25500000920E-02 0. -1.
    10030    2    1    2    0    0  0.00000000000E+00  0.00000000000E+00 -0.14874835164E+04  0.29945943865E+04  0.25990360382E+04 0.  0.
        5    1    3    3  502    0 -0.59973382547E+03 -0.20404365960E+03  0.56358524195E+03  0.84791797444E+03  0.46999998093E+01 0.  1.
       -5    1    3    3    0  502  0.59973382547E+03  0.20404365960E+03 -0.20510687584E+04  0.21466764120E+04  0.46999998093E+01 0. -1.
</event>
<event>
 5   0  0.6599814E-07  0.2597000E+04  0.7818609E-02  0.8369221E-01
       -2   -1    0    0    0  501  0.00000000000E+00  0.00000000000E+00  0.10197061265E+04  0.10197061265E+04  0.25500000920E-02 0. -1.
        2   -1    0    0  501    0  0.00000000000E+00  0.00000000000E+00 -0.16535181336E+04  0.16535181336E+04  0.25500000920E-02 0.  1.
    10030    2    1    2    0    0  0.00000000000E+00  0.00000000000E+00 -0.63381200704E+03  0.26732242601E+04  0.25970002473E+04 0.  0.
        5    1    3    3  502    0  0.50637196200E+03 -0.63104680317E+03 -0.13623169425E+04  0.15844753622E+04  0.46999998093E+01 0.  1.
       -5    1    3    3    0  502 -0.50637196200E+03  0.63104680317E+03  0.72850493545E+03  0.10887488979E+04  0.46999998093E+01 0. -1.
</event>
<event>
 5   0  0.2864801E-07  0.2599633E+04  0.7818609E-02  0.8368326E-01
       -1   -1    0    0    0  501  0.00000000000E+00  0.00000000000E+00  0.14776049694E+04  0.14776049694E+04  0.50400001928E-02 0.  1.
        1   -1    0    0  501    0  0.00000000000E+00  0.00000000000E+00 -0.11434197242E+04  0.11434197242E+04  0.50400001928E-02 0. -1.
    10030    2    1    2    0    0  0.00000000000E+00  0.00000000000E+00  0.33418524519E+03  0.26210246937E+04  0.25996327946E+04 0.  0.
        5    1    3    3  502    0  0.38130622004E+02  0.19180996313E+03 -0.11284933985E+04  0.11453228570E+04  0.46999998093E+01 0. -1.
       -5    1    3    3    0  502 -0.38130622004E+02 -0.19180996313E+03  0.14626786437E+04  0.14757018367E+04  0.46999998093E+01 0.  1.
</event>
<event>
 5   0  0.7160320E-07  0.2599858E+04  0.7818609E-02  0.8368249E-01
       -2   -1    0    0    0  501  0.00000000000E+00  0.00000000000E+00  0.13049494081E+04  0.13049494081E+04  0.25500000920E-02 0.  1.
        2   -1    0    0  501    0  0.00000000000E+00  0.00000000000E+00 -0.12949278442E+04  0.12949278442E+04  0.25500000920E-02 0. -1.
    10030    2    1    2    0    0  0.00000000000E+00  0.00000000000E+00  0.10021563828E+02  0.25998772523E+04  0.25998579375E+04 0.  0.
        1    1    3    3  502    0  0.83920534187E+03  0.75710177787E+03  0.64715776099E+03  0.13024138649E+04  0.50400001928E-02 0.  1.
       -1    1    3    3    0  502 -0.83920534187E+03 -0.75710177787E+03 -0.63713619716E+03  0.12974633874E+04  0.50400001928E-02 0. -1.
</event>
<event>
 5   0  0.2793576E-07  0.2599554E+04  0.7818609E-02  0.8368353E-01
        1   -1    0    0  501    0  0.00000000000E+00  0.00000000000E+00  0.15231335234E+04  0.15231335234E+04  0.50400001928E-02 0.  1.
       -1   -1    0    0    0  501  0.00000000000E+00  0.00000000000E+00 -0.11091741956E+04  0.11091741956E+04  0.50400001928E-02 0. -1.
    10030    2    1    2    0    0  0.00000000000E+00  0.00000000000E+00  0.41395932781E+03  0.26323077189E+04  0.25995541160E+04 0.  0.
        2    1    3    3  502    0  0.12439846091E+04 -0.27470489236E+03 -0.54066721959E+02  0.12751014454E+04  0.25500000920E-02 0. -1.
       -2    1    3    3    0  502 -0.12439846091E+04  0.27470489236E+03  0.46802604977E+03  0.13572062735E+04  0.25500000920E-02 0.  1.
</event>
<event>
 5   0  0.2793576E-07  0.2600305E+04  0.7818609E-02  0.8368098E-01
        1   -1    0    0  501    0  0.00000000000E+00  0.00000000000E+00  0.11183008995E+04  0.11183008995E+04  0.50400001928E-02 0.  1.
       -1   -1    0    0    0  501  0.00000000000E+00  0.00000000000E+00 -0.15115759031E+04  0.15115759031E+04  0.50400001928E-02 0. -1.
    10030    2    1    2    0    0  0.00000000000E+00  0.00000000000E+00 -0.39327500362E+03  0.26298768026E+04  0.26003051298E+04 0.  0.
        2    1    3    3  502    0  0.59946692816E+03  0.56742109930E+03  0.81931079746E+03  0.11630122462E+04  0.25500000920E-02 0.  1.
       -2    1    3    3    0  502 -0.59946692816E+03 -0.56742109930E+03 -0.12125858011E+04  0.14668645564E+04  0.25500000920E-02 0. -1.
</event>
<event>
 5   0  0.2641626E-07  0.2599031E+04  0.7818609E-02  0.8368530E-01
        1   -1    0    0  501    0  0.00000000000E+00  0.00000000000E+00  0.26028832370E+04  0.26028832370E+04  0.50400001928E-02 0.  1.
       -1   -1    0    0    0  501  0.00000000000E+00  0.00000000000E+00 -0.64879610582E+03  0.64879610584E+03  0.50400001928E-02 0. -1.
    10030    2    1    2    0    0  0.00000000000E+00  0.00000000000E+00  0.19540871312E+04  0.32516793429E+04  0.25990309795E+04 0.  0.
        3    1    3    3  502    0 -0.44427270423E+03 -0.40098946197E+03  0.24202055253E+04  0.24931036038E+04  0.10100000352E+00 0.  1.
       -3    1    3    3    0  502  0.44427270423E+03  0.40098946197E+03 -0.46611839412E+03  0.75857573905E+03  0.10100000352E+00 0. -1.
</event>
<event>
 5   0  0.7160320E-07  0.2600038E+04  0.7818609E-02  0.8368188E-01
        2   -1    0    0  501    0  0.00000000000E+00  0.00000000000E+00  0.17401239390E+04  0.17401239390E+04  0.25500000920E-02 0.  1.
       -2   -1    0    0    0  501  0.00000000000E+00  0.00000000000E+00 -0.97122378824E+03  0.97122378824E+03  0.25500000920E-02 0. -1.
    10030    2    1    2    0    0  0.00000000000E+00  0.00000000000E+00  0.76890015075E+03  0.27113477272E+04  0.26000382797E+04 0.  0.
        1    1    3    3  502    0  0.30325469911E+03 -0.12538421229E+04  0.55248918172E+03  0.14033273951E+04  0.50400001928E-02 0.  1.
       -1    1    3    3    0  502 -0.30325469911E+03  0.12538421229E+04  0.21641096903E+03  0.13080203322E+04  0.50400001928E-02 0. -1.
</event>
<event>
 5   0  0.2755061E-07  0.2600033E+04  0.7818609E-02  0.8368190E-01
       -1   -1    0    0    0  501  0.00000000000E+00  0.00000000000E+00  0.20449745064E+04  0.20449745064E+04  0.50400001928E-02 0. -1.
        1   -1    0    0  501    0  0.00000000000E+00  0.00000000000E+00 -0.82643746264E+03  0.82643746266E+03  0.50400001928E-02 0.  1.
    10030    2    1    2    0    0  0.00000000000E+00  0.00000000000E+00  0.12185370437E+04  0.28714119690E+04  0.26000334938E+04 0.  0.
        4    1    3    3  502    0  0.28558833353E+03 -0.10597517324E+04 -0.16016269876E+03  0.11091835436E+04  0.12699999809E+01 0.  1.
       -4    1    3    3    0  502 -0.28558833353E+03  0.10597517324E+04  0.13786997425E+04  0.17622284254E+04  0.12699999809E+01 0. -1.
</event>
<event>
 5   0  0.2755061E-07  0.2600228E+04  0.7818609E-02  0.8368124E-01
        1   -1    0    0  501    0  0.00000000000E+00  0.00000000000E+00  0.13014794151E+04  0.13014794151E+04  0.50400001928E-02 0.  1.
       -1   -1    0    0    0  501  0.00000000000E+00  0.00000000000E+00 -0.12987499850E+04  0.12987499850E+04  0.50400001928E-02 0. -1.
    10030    2    1    2    0    0  0.00000000000E+00  0.00000000000E+00  0.27294301239E+01  0.26002294001E+04  0.26002279676E+04 0.  0.
        4    1    3    3  502    0 -0.43933109610E+03 -0.55454367467E+03  0.10921284703E+04  0.13012596619E+04  0.12699999809E+01 0.  1.
       -4    1    3    3    0  502  0.43933109610E+03  0.55454367467E+03 -0.10893990402E+04  0.12989697382E+04  0.12699999809E+01 0. -1.
</event>
<event>
 5   0  0.2864801E-07  0.2588514E+04  0.7818609E-02  0.8372113E-01
        1   -1    0    0  501    0  0.00000000000E+00  0.00000000000E+00  0.13007290635E+04  0.13007290635E+04  0.50400001928E-02 0. -1.
       -1   -1    0    0    0  501  0.00000000000E+00  0.00000000000E+00 -0.12878173157E+04  0.12878173157E+04  0.50400001928E-02 0.  1.
    10030    2    1    2    0    0  0.00000000000E+00  0.00000000000E+00  0.12911747797E+02  0.25885463791E+04  0.25885141768E+04 0.  0.
        5    1    3    3  502    0 -0.16262488529E+03  0.39549129131E+01 -0.12775448448E+04  0.12878685551E+04  0.46999998093E+01 0.  1.
       -5    1    3    3    0  502  0.16262488529E+03 -0.39549129131E+01  0.12904565926E+04  0.13006778241E+04  0.46999998093E+01 0. -1.
</event>
<event>
 5   0  0.6780984E-07  0.2599575E+04  0.7818609E-02  0.8368346E-01
       -2   -1    0    0    0  501  0.00000000000E+00  0.00000000000E+00  0.16236616081E+04  0.16236616081E+04  0.25500000920E-02 0.  1.
        2   -1    0    0  501    0  0.00000000000E+00  0.00000000000E+00 -0.10405168512E+04  0.10405168512E+04  0.25500000920E-02 0. -1.
    10030    2    1    2    0    0  0.00000000000E+00  0.00000000000E+00  0.58314475690E+03  0.26641784593E+04  0.25995747836E+04 0.  0.
        2    1    3    3  502    0  0.18787246534E+03  0.50566683184E+03  0.15035227019E+04  0.15973651815E+04  0.25500000920E-02 0.  1.
       -2    1    3    3    0  502 -0.18787246534E+03 -0.50566683184E+03 -0.92037794498E+03  0.10668132778E+04  0.25500000920E-02 0. -1.
</event>
<event>
 5   0  0.6768478E-07  0.2599428E+04  0.7818609E-02  0.8368396E-01
        2   -1    0    0  501    0  0.00000000000E+00  0.00000000000E+00  0.15969321723E+04  0.15969321723E+04  0.25500000920E-02 0. -1.
       -2   -1    0    0    0  501  0.00000000000E+00  0.00000000000E+00 -0.10578132333E+04  0.10578132333E+04  0.25500000920E-02 0.  1.
    10030    2    1    2    0    0  0.00000000000E+00  0.00000000000E+00  0.53911893900E+03  0.26547454056E+04  0.25994276174E+04 0.  0.
        4    1    3    3  502    0  0.67866719786E+02 -0.76730530549E+03  0.13386853404E+04  0.15444880631E+04  0.12699999809E+01 0. -1.
       -4    1    3    3    0  502 -0.67866719786E+02  0.76730530549E+03 -0.79956640141E+03  0.11102573425E+04  0.12699999809E+01 0.  1.
</event>
<event>
 5   0  0.6599814E-07  0.2609390E+04  0.7818609E-02  0.8365019E-01
       -2   -1    0    0    0  501  0.00000000000E+00  0.00000000000E+00  0.82895916760E+03  0.82895916760E+03  0.25500000920E-02 0.  1.
        2   -1    0    0  501    0  0.00000000000E+00  0.00000000000E+00 -0.20534527487E+04  0.20534527487E+04  0.25500000920E-02 0. -1.
    10030    2    1    2    0    0  0.00000000000E+00  0.00000000000E+00 -0.12244935811E+04  0.28824119163E+04  0.26093895694E+04 0.  0.
        5    1    3    3  502    0 -0.25950400714E+03 -0.97926162819E+03  0.29591200065E+03  0.10554059258E+04  0.46999998093E+01 0.  1.
       -5    1    3    3    0  502  0.25950400714E+03  0.97926162819E+03 -0.15204055818E+04  0.18270059905E+04  0.46999998093E+01 0. -1.
</event>
<event>
 5   0  0.6526351E-07  0.2600595E+04  0.7818609E-02  0.8367999E-01
       -2   -1    0    0    0  501  0.00000000000E+00  0.00000000000E+00  0.51789111942E+03  0.51789111943E+03  0.25500000920E-02 0. -1.
        2   -1    0    0  501    0  0.00000000000E+00  0.00000000000E+00 -0.32647278687E+04  0.32647278687E+04  0.25500000920E-02 0.  1.
    10030    2    1    2    0    0  0.00000000000E+00  0.00000000000E+00 -0.27468367493E+04  0.37826189881E+04  0.26005949862E+04 0.  0.
        3    1    3    3  502    0  0.23220194961E+03 -0.10550988400E+04 -0.24259349037E+04  0.26556188496E+04  0.10100000352E+00 0.  1.
       -3    1    3    3    0  502 -0.23220194961E+03  0.10550988400E+04 -0.32090184563E+03  0.11270001385E+04  0.10100000352E+00 0. -1.
</event>
<event>
 5   0  0.6599814E-07  0.2600865E+04  0.7818609E-02  0.8367908E-01
        2   -1    0    0  501    0  0.00000000000E+00  0.00000000000E+00  0.19355231220E+04  0.19355231220E+04  0.25500000920E-02 0.  1.
       -2   -1    0    0    0  501  0.00000000000E+00  0.00000000000E+00 -0.87372982013E+03  0.87372982014E+03  0.25500000920E-02 0. -1.
    10030    2    1    2    0    0  0.00000000000E+00  0.00000000000E+00  0.10617933019E+04  0.28092529422E+04  0.26008646787E+04 0.  0.
        5    1    3    3  502    0 -0.10080016056E+04 -0.74829449096E+03  0.16446545220E+03  0.12661290839E+04  0.46999998093E+01 0.  1.
       -5    1    3    3    0  502  0.10080016056E+04  0.74829449096E+03  0.89732784968E+03  0.15431238583E+04  0.46999998093E+01 0. -1.
</event>
<event>
 5   0  0.6780984E-07  0.2600419E+04  0.7818609E-02  0.8368059E-01
        2   -1    0    0  501    0  0.00000000000E+00  0.00000000000E+00  0.18951087348E+04  0.18951087348E+04  0.25500000920E-02 0. -1.
       -2   -1    0    0    0  501  0.00000000000E+00  0.00000000000E+00 -0.89205710145E+03  0.89205710145E+03  0.25500000920E-02 0.  1.
    10030    2    1    2    0    0  0.00000000000E+00  0.00000000000E+00  0.10030516334E+04  0.27871658363E+04  0.26004193546E+04 0.  0.
        2    1    3    3  502    0  0.61053141836E+03 -0.11441543134E+04  0.60154104837E+03  0.14295766291E+04  0.25500000920E-02 0. -1.
       -2    1    3    3    0  502 -0.61053141836E+03  0.11441543134E+04  0.40151058501E+03  0.13575892072E+04  0.25500000920E-02 0.  1.
</event>
<event>
 5   0  0.2623263E-07  0.2600990E+04  0.7818609E-02  0.8367865E-01
       -1   -1    0    0    0  501  0.00000000000E+00  0.00000000000E+00  0.11025262370E+04  0.11025262370E+04  0.50400001928E-02 0. -1.
        1   -1    0    0  501    0  0.00000000000E+00  0.00000000000E+00 -0.15340113556E+04  0.15340113556E+04  0.50400001928E-02 0.  1.
    10030    2    1    2    0    0  0.00000000000E+00  0.00000000000E+00 -0.43148511858E+03  0.26365375927E+04  0.26009904017E+04 0.  0.
        1    1    3    3  502    0 -0.60876842010E+03 -0.36771602876E+03  0.88793237742E+03  0.11376458034E+04  0.50400001928E-02 0. -1.
       -1    1    3    3    0  502  0.60876842010E+03  0.36771602876E+03 -0.13194174960E+04  0.14988917893E+04  0.50400001928E-02 0.  1.
</event>
<event>
 5   0  0.2755061E-07  0.2600754E+04  0.7818609E-02  0.8367945E-01
       -1   -1    0    0    0  501  0.00000000000E+00  0.00000000000E+00  0.56551750332E+03  0.56551750334E+03  0.50400001928E-02 0.  1.
        1   -1    0    0  501    0  0.00000000000E+00  0.00000000000E+00 -0.29901457097E+04  0.29901457097E+04  0.50400001928E-02 0. -1.
    10030    2    1    2    0    0  0.00000000000E+00  0.00000000000E+00 -0.24246282064E+04  0.35556632130E+04  0.26007535341E+04 0.  0.
        4    1    3    3  502    0  0.11076419002E+04  0.68023619744E+03 -0.12632171498E+04  0.18125427012E+04  0.12699999809E+01 0. -1.
       -4    1    3    3    0  502 -0.11076419002E+04 -0.68023619744E+03 -0.11614110566E+04  0.17431205118E+04  0.12699999809E+01 0.  1.
</event>
<event>
 5   0  0.6768478E-07  0.2587022E+04  0.7818609E-02  0.8372623E-01
       -2   -1    0    0    0  501  0.00000000000E+00  0.00000000000E+00  0.12062073838E+04  0.12062073838E+04  0.25500000920E-02 0.  1.
        2   -1    0    0  501    0  0.00000000000E+00  0.00000000000E+00 -0.13871331094E+04  0.13871331094E+04  0.25500000920E-02 0. -1.
    10030    2    1    2    0    0  0.00000000000E+00  0.00000000000E+00 -0.18092572558E+03  0.25933404932E+04  0.25870216071E+04 0.  0.
        4    1    3    3  502    0 -0.10018261885E+04 -0.24262228936E+03  0.69288507677E+03  0.12420195771E+04  0.12699999809E+01 0.  1.
       -4    1    3    3    0  502  0.10018261885E+04  0.24262228936E+03 -0.87381080235E+03  0.13513209162E+04  0.12699999809E+01 0. -1.
</event>
<event>
 5   0  0.6768478E-07  0.2599910E+04  0.7818609E-02  0.8368232E-01
        2   -1    0    0  501    0  0.00000000000E+00  0.00000000000E+00  0.10497123608E+04  0.10497123608E+04  0.25500000920E-02 0.  1.
       -2   -1    0    0    0  501  0.00000000000E+00  0.00000000000E+00 -0.16098530977E+04  0.16098530977E+04  0.25500000920E-02 0. -1.
    10030    2    1    2    0    0  0.00000000000E+00  0.00000000000E+00 -0.56014073687E+03  0.26595654585E+04  0.25999097644E+04 0.  0.
        4    1    3    3  502    0  0.10669497772E+04 -0.71429877814E+03 -0.48789829303E+03  0.13735541230E+04  0.12699999809E+01 0.  1.
       -4    1    3    3    0  502 -0.10669497772E+04  0.71429877814E+03 -0.72242443837E+02  0.12860113355E+04  0.12699999809E+01 0. -1.
</event>
<event>
 5   0  0.2793576E-07  0.2600052E+04  0.7818609E-02  0.8368183E-01
        1   -1    0    0  501    0  0.00000000000E+00  0.00000000000E+00  0.26527824171E+04  0.26527824171E+04  0.50400001928E-02 0. -1.
       -1   -1    0    0    0  501  0.00000000000E+00  0.00000000000E+00 -0.63709260868E+03  0.63709260870E+03  0.50400001928E-02 0.  1.
    10030    2    1    2    0    0  0.00000000000E+00  0.00000000000E+00  0.20156898084E+04  0.32898750258E+04  0.26000523613E+04 0.  0.
        2    1    3    3  502    0  0.35460900832E+03  0.94812441131E+03 -0.24280293512E+02  0.10125596184E+04  0.25500000920E-02 0.  1.
       -2    1    3    3    0  502 -0.35460900832E+03 -0.94812441131E+03  0.20399701019E+04  0.22773154074E+04  0.25500000920E-02 0. -1.
</event>
<event>
 5   0  0.2793576E-07  0.2600731E+04  0.7818609E-02  0.8367953E-01
        1   -1    0    0  501    0  0.00000000000E+00  0.00000000000E+00  0.19326367969E+04  0.19326367969E+04  0.50400001928E-02 0. -1.
       -1   -1    0    0    0  501  0.00000000000E+00  0.00000000000E+00 -0.87494497676E+03  0.87494497678E+03  0.50400001928E-02 0.  1.
    10030    2    1    2    0    0  0.00000000000E+00  0.00000000000E+00  0.10576918202E+04  0.28075817737E+04  0.26007313259E+04 0.  0.
        2    1    3    3  502    0 -0.95565499281E+03  0.60957122620E+03 -0.15909634105E+03  0.11446244759E+04  0.25500000920E-02 0.  1.
       -2    1    3    3    0  502  0.95565499281E+03 -0.60957122620E+03  0.12167881612E+04  0.16629572978E+04  0.25500000920E-02 0. -1.
</event>
<event>
 5   0  0.6780984E-07  0.2599282E+04  0.7818609E-02  0.8368445E-01
        2   -1    0    0  501    0  0.00000000000E+00  0.00000000000E+00  0.97888661367E+03  0.97888661368E+03  0.25500000920E-02 0. -1.
       -2   -1    0    0    0  501  0.00000000000E+00  0.00000000000E+00 -0.17254974832E+04  0.17254974832E+04  0.25500000920E-02 0.  1.
    10030    2    1    2    0    0  0.00000000000E+00  0.00000000000E+00 -0.74661086956E+03  0.27043840969E+04  0.25992817379E+04 0.  0.
        2    1    3    3  502    0  0.97434488641E+03  0.75069707226E+03 -0.81000612138E+03  0.14727538724E+04  0.25500000920E-02 0.  1.
       -2    1    3    3    0  502 -0.97434488641E+03 -0.75069707226E+03  0.63395251826E+02  0.12316302245E+04  0.25500000920E-02 0. -1.
</event>
<event>
 5   0  0.6526351E-07  0.2599276E+04  0.7818609E-02  0.8368447E-01
        2   -1    0    0  501    0  0.00000000000E+00  0.00000000000E+00  0.13060211306E+04  0.13060211306E+04  0.25500000920E-02 0. -1.
       -2   -1    0    0    0  501  0.00000000000E+00  0.00000000000E+00 -0.12932858007E+04  0.12932858007E+04  0.25500000920E-02 0.  1.
    10030    2    1    2    0    0  0.00000000000E+00  0.00000000000E+00  0.12735329832E+02  0.25993069313E+04  0.25992757327E+04 0.  0.
        3    1    3    3  502    0 -0.30157360651E+03  0.23311503270E+03 -0.12361323851E+04  0.12935658245E+04  0.10100000352E+00 0.  1.
       -3    1    3    3    0  502  0.30157360651E+03 -0.23311503270E+03  0.12488677149E+04  0.13057411069E+04  0.10100000352E+00 0. -1.
</event>
<event>
 5   0  0.6780984E-07  0.2608413E+04  0.7818609E-02  0.8365349E-01
       -2   -1    0    0    0  501  0.00000000000E+00  0.00000000000E+00  0.17648179791E+04  0.17648179791E+04  0.25500000920E-02 0. -1.
        2   -1    0    0  501    0  0.00000000000E+00  0.00000000000E+00 -0.96381286005E+03  0.96381286006E+03  0.25500000920E-02 0.  1.
    10030    2    1    2    0    0  0.00000000000E+00  0.00000000000E+00  0.80100511900E+03  0.27286308391E+04  0.26084127464E+04 0.  0.
        2    1    3    3  502    0 -0.29303040930E+03 -0.14685548289E+02  0.17298469026E+04  0.17545520204E+04  0.25500000920E-02 0. -1.
       -2    1    3    3    0  502  0.29303040930E+03  0.14685548289E+02 -0.92884178356E+03  0.97407881868E+03  0.25500000920E-02 0.  1.
</event>
<event>
 5   0  0.7160320E-07  0.2598240E+04  0.7818609E-02  0.8368799E-01
        2   -1    0    0  501    0  0.00000000000E+00  0.00000000000E+00  0.27022372042E+04  0.27022372042E+04  0.25500000920E-02 0.  1.
       -2   -1    0    0    0  501  0.00000000000E+00  0.00000000000E+00 -0.62456133776E+03  0.62456133776E+03  0.25500000920E-02 0. -1.
    10030    2    1    2    0    0  0.00000000000E+00  0.00000000000E+00  0.20776758664E+04  0.33267985419E+04  0.25982400837E+04 0.  0.
        1    1    3    3  502    0 -0.97523330566E+02  0.53436084729E+03  0.25498567183E+04  0.26070714603E+04  0.50400001928E-02 0.  1.
       -1    1    3    3    0  502  0.97523330566E+02 -0.53436084729E+03 -0.47218085190E+03  0.71972708164E+03  0.50400001928E-02 0. -1.
</event>
<event>
 5   0  0.2864801E-07  0.2602052E+04  0.7818609E-02  0.8367505E-01
        1   -1    0    0  501    0  0.00000000000E+00  0.00000000000E+00  0.13182721827E+04  0.13182721827E+04  0.50400001928E-02 0.  1.
       -1   -1    0    0    0  501  0.00000000000E+00  0.00000000000E+00 -0.12840053647E+04  0.12840053647E+04  0.50400001928E-02 0. -1.
    10030    2    1    2    0    0  0.00000000000E+00  0.00000000000E+00  0.34266817966E+02  0.26022775474E+04  0.26020519247E+04 0.  0.
        5    1    3    3  502    0 -0.94585244137E+03  0.30775210659E+03  0.85583492645E+03  0.13121828041E+04  0.46999998093E+01 0.  1.
       -5    1    3    3    0  502  0.94585244137E+03 -0.30775210659E+03 -0.82156810848E+03  0.12900947434E+04  0.46999998093E+01 0. -1.
</event>
<event>
 5   0  0.6599814E-07  0.2600260E+04  0.7818609E-02  0.8368113E-01
        2   -1    0    0  501    0  0.00000000000E+00  0.00000000000E+00  0.21371800498E+04  0.21371800498E+04  0.25500000920E-02 0. -1.
       -2   -1    0    0    0  501  0.00000000000E+00  0.00000000000E+00 -0.79092010179E+03  0.79092010180E+03  0.25500000920E-02 0.  1.
    10030    2    1    2    0    0  0.00000000000E+00  0.00000000000E+00  0.13462599480E+04  0.29281001516E+04  0.26002604966E+04 0.  0.
        5    1    3    3  502    0  0.11076605334E+04 -0.30645590902E+03  0.13576247128E+04  0.17787619380E+04  0.46999998093E+01 0. -1.
       -5    1    3    3    0  502 -0.11076605334E+04  0.30645590902E+03 -0.11364764783E+02  0.11493382136E+04  0.46999998093E+01 0.  1.
</event>
<event>
 5   0  0.6768478E-07  0.2600420E+04  0.7818609E-02  0.8368059E-01
       -2   -1    0    0    0  501  0.00000000000E+00  0.00000000000E+00  0.14239336108E+04  0.14239336108E+04  0.25500000920E-02 0.  1.
        2   -1    0    0  501    0  0.00000000000E+00  0.00000000000E+00 -0.11872361173E+04  0.11872361173E+04  0.25500000920E-02 0. -1.
    10030    2    1    2    0    0  0.00000000000E+00  0.00000000000E+00  0.23669749351E+03  0.26111697281E+04  0.26004195134E+04 0.  0.
        4    1    3    3  502    0 -0.76298485733E+03 -0.37085337314E+02  0.11748497805E+04  0.14013546426E+04  0.12699999809E+01 0.  1.
       -4    1    3    3    0  502  0.76298485733E+03  0.37085337314E+02 -0.93815228696E+03  0.12098150855E+04  0.12699999809E+01 0. -1.
</event>
<event>
 5   0  0.6780984E-07  0.2600672E+04  0.7818609E-02  0.8367973E-01
       -2   -1    0    0    0  501  0.00000000000E+00  0.00000000000E+00  0.12670716739E+04  0.12670716739E+04  0.25500000920E-02 0.  1.
        2   -1    0    0  501    0  0.00000000000E+00  0.00000000000E+00 -0.13344737345E+04  0.13344737345E+04  0.25500000920E-02 0. -1.
    10030    2    1    2    0    0  0.00000000000E+00  0.00000000000E+00 -0.67402060538E+02  0.26015454084E+04  0.26006721197E+04 0.  0.
        2    1    3    3  502    0  0.10275499397E+04  0.43606020541E+03  0.63350606190E+03  0.12834863894E+04  0.25500000920E-02 0.  1.
       -2    1    3    3    0  502 -0.10275499397E+04 -0.43606020541E+03 -0.70090812243E+03  0.13180590190E+04  0.25500000920E-02 0. -1.
</event>
<event>
 5   0  0.2641626E-07  0.2601541E+04  0.7818609E-02  0.8367678E-01
       -1   -1    0    0    0  501  0.00000000000E+00  0.00000000000E+00  0.98580779412E+03  0.98580779413E+03  0.50400001928E-02 0.  1.
        1   -1    0    0  501    0  0.00000000000E+00  0.00000000000E+00 -0.17163627510E+04  0.17163627511E+04  0.50400001928E-02 0. -1.
    10030    2    1    2    0    0  0.00000000000E+00  0.00000000000E+00 -0.73055495692E+03  0.27021705452E+04  0.26015409107E+04 0.  0.
        3    1    3    3  502    0 -0.17943199492E+03 -0.68289460247E+02 -0.17015654228E+04  0.17123621666E+04  0.10100000352E+00 0. -1.
       -3    1    3    3    0  502  0.17943199492E+03  0.68289460247E+02  0.97101046592E+03  0.98980837859E+03  0.10100000352E+00 0.  1.
</event>
<event>
 5   0  0.2864801E-07  0.2598392E+04  0.7818609E-02  0.8368748E-01
        1   -1    0    0  501    0  0.00000000000E+00  0.00000000000E+00  0.30635469690E+04  0.30635469690E+04  0.50400001928E-02 0.  1.
       -1   -1    0    0    0  501  0.00000000000E+00  0.00000000000E+00 -0.55096600521E+03  0.55096600523E+03  0.50400001928E-02 0. -1.
    10030    2    1    2    0    0  0.00000000000E+00  0.00000000000E+00  0.25125809638E+04  0.36145129742E+04  0.25983919915E+04 0.  0.
        5    1    3    3  502    0  0.12573027176E+02  0.12872823415E+04  0.10128186871E+04  0.16380102841E+04  0.46999998093E+01 0. -1.
       -5    1    3    3    0  502 -0.12573027176E+02 -0.12872823415E+04  0.14997622767E+04  0.19765026902E+04  0.46999998093E+01 0.  1.
</event>
<event>
 5   0  0.7160320E-07  0.2602114E+04  0.7818609E-02  0.8367484E-01
        2   -1    0    0  501    0  0.00000000000E+00  0.00000000000E+00  0.12116091112E+04  0.12116091112E+04  0.25500000920E-02 0. -1.
       -2   -1    0    0    0  501  0.00000000000E+00  0.00000000000E+00 -0.13971080264E+04  0.13971080264E+04  0.25500000920E-02 0.  1.
    10030    2    1    2    0    0  0.00000000000E+00  0.00000000000E+00 -0.18549891519E+03  0.26087171375E+04  0.26021136132E+04 0.  0.
        1    1    3    3  502    0  0.34469175355E+03 -0.37094030642E+03  0.11087658782E+04  0.12189220191E+04  0.50400001928E-02 0. -1.
       -1    1    3    3    0  502 -0.34469175355E+03  0.37094030642E+03 -0.12942647934E+04  0.13897951185E+04  0.50400001928E-02 0.  1.
</event>
<event>
 5   0  0.6599814E-07  0.2602509E+04  0.7818609E-02  0.8367350E-01
       -2   -1    0    0    0  501  0.00000000000E+00  0.00000000000E+00  0.11252894549E+04  0.11252894549E+04  0.25500000920E-02 0.  1.
        2   -1    0    0  501    0  0.00000000000E+00  0.00000000000E+00 -0.15047352003E+04  0.15047352003E+04  0.25500000920E-02 0. -1.
    10030    2    1    2    0    0  0.00000000000E+00  0.00000000000E+00 -0.37944574541E+03  0.26300246552E+04  0.26025085232E+04 0.  0.
        5    1    3    3  502    0  0.11015938843E+04  0.65197670980E+03 -0.42598489716E+03  0.13490989358E+04  0.46999998093E+01 0.  1.
       -5    1    3    3    0  502 -0.11015938843E+04 -0.65197670980E+03  0.46539151755E+02  0.12809257194E+04  0.46999998093E+01 0. -1.
</event>
<event>
 5   0  0.6599814E-07  0.2599710E+04  0.7818609E-02  0.8368300E-01
       -2   -1    0    0    0  501  0.00000000000E+00  0.00000000000E+00  0.15843970017E+04  0.15843970017E+04  0.25500000920E-02 0.  1.
        2   -1    0    0  501    0  0.00000000000E+00  0.00000000000E+00 -0.10664137232E+04  0.10664137232E+04  0.25500000920E-02 0. -1.
    10030    2    1    2    0    0  0.00000000000E+00  0.00000000000E+00  0.51798327851E+03  0.26508107248E+04  0.25997097573E+04 0.  0.
        5    1    3    3  502    0 -0.11977328936E+04  0.10546875552E+03  0.76257481850E+03  0.14238083392E+04  0.46999998093E+01 0.  1.
       -5    1    3    3    0  502  0.11977328936E+04 -0.10546875552E+03 -0.24459154000E+03  0.12270023856E+04  0.46999998093E+01 0. -1.
</event>
<event>
 5   0  0.2755061E-07  0.2600247E+04  0.7818609E-02  0.8368117E-01
        1   -1    0    0  501    0  0.00000000000E+00  0.00000000000E+00  0.14769188956E+04  0.14769188956E+04  0.50400001928E-02 0. -1.
       -1   -1    0    0    0  501  0.00000000000E+00  0.00000000000E+00 -0.11444913909E+04  0.11444913909E+04  0.50400001928E-02 0.  1.
    10030    2    1    2    0    0  0.00000000000E+00  0.00000000000E+00  0.33242750470E+03  0.26214102865E+04  0.26002468814E+04 0.  0.
        4    1    3    3  502    0  0.12452236122E+04  0.93169631332E+02  0.53117806487E+03  0.13569871680E+04  0.12699999809E+01 0. -1.
       -4    1    3    3    0  502 -0.12452236122E+04 -0.93169631332E+02 -0.19875056017E+03  0.12644231185E+04  0.12699999809E+01 0.  1.
</event>
<event>
 5   0  0.2755061E-07  0.2600424E+04  0.7818609E-02  0.8368057E-01
        1   -1    0    0  501    0  0.00000000000E+00  0.00000000000E+00  0.13283040420E+04  0.13283040420E+04  0.50400001928E-02 0.  1.
       -1   -1    0    0    0  501  0.00000000000E+00  0.00000000000E+00 -0.12727140456E+04  0.12727140456E+04  0.50400001928E-02 0. -1.
    10030    2    1    2    0    0  0.00000000000E+00  0.00000000000E+00  0.55589996377E+02  0.26010180877E+04  0.26004239740E+04 0.  0.
        4    1    3    3  502    0  0.71983223208E+02  0.10976880769E+03  0.13216587892E+04  0.13281620170E+04  0.12699999809E+01 0.  1.
       -4    1    3    3    0  502 -0.71983223208E+02 -0.10976880769E+03 -0.12660687928E+04  0.12728560706E+04  0.12699999809E+01 0. -1.
</event>
<event>
 5   0  0.2793576E-07  0.2604877E+04  0.7818609E-02  0.8366546E-01
        1   -1    0    0  501    0  0.00000000000E+00  0.00000000000E+00  0.12702879612E+04  0.12702879612E+04  0.50400001928E-02 0. -1.
       -1   -1    0    0    0  501  0.00000000000E+00  0.00000000000E+00 -0.13354030349E+04  0.13354030349E+04  0.50400001928E-02 0.  1.
    10030    2    1    2    0    0  0.00000000000E+00  0.00000000000E+00 -0.65115073697E+02  0.26056909961E+04  0.26048772705E+04 0.  0.
        2    1    3    3  502    0  0.78113963727E+01 -0.46675193661E+03  0.11837285452E+04  0.12724510430E+04  0.25500000920E-02 0. -1.
       -2    1    3    3    0  502 -0.78113963727E+01  0.46675193661E+03 -0.12488436189E+04  0.13332399531E+04  0.25500000920E-02 0.  1.
</event>
<event>
 5   0  0.7160320E-07  0.2595901E+04  0.7818609E-02  0.8369595E-01
        2   -1    0    0  501    0  0.00000000000E+00  0.00000000000E+00  0.13699182009E+04  0.13699182009E+04  0.25500000920E-02 0.  1.
       -2   -1    0    0    0  501  0.00000000000E+00  0.00000000000E+00 -0.12297636501E+04  0.12297636501E+04  0.25500000920E-02 0. -1.
    10030    2    1    2    0    0  0.00000000000E+00  0.00000000000E+00  0.14015455076E+03  0.25996818510E+04  0.25959010822E+04 0.  0.
        1    1    3    3  502    0  0.28971595406E+03 -0.28866276855E+03 -0.11635504386E+04  0.12333333496E+04  0.50400001928E-02 0. -1.
       -1    1    3    3    0  502 -0.28971595406E+03  0.28866276855E+03  0.13037049894E+04  0.13663485014E+04  0.50400001928E-02 0.  1.
</event>
<event>
 5   0  0.6599814E-07  0.2600302E+04  0.7818609E-02  0.8368099E-01
        2   -1    0    0  501    0  0.00000000000E+00  0.00000000000E+00  0.13950639816E+04  0.13950639816E+04  0.25500000920E-02 0. -1.
       -2   -1    0    0    0  501  0.00000000000E+00  0.00000000000E+00 -0.12116951993E+04  0.12116951993E+04  0.25500000920E-02 0.  1.
    10030    2    1    2    0    0  0.00000000000E+00  0.00000000000E+00  0.18336878224E+03  0.26067591809E+04  0.26003017742E+04 0.  0.
        5    1    3    3  502    0  0.60048141788E+03 -0.11480659284E+04  0.20029054088E+03  0.13110193362E+04  0.46999998093E+01 0. -1.
       -5    1    3    3    0  502 -0.60048141788E+03  0.11480659284E+04 -0.16921758642E+02  0.12957398447E+04  0.46999998093E+01 0.  1.
</event>
<event>
 5   0  0.6526351E-07  0.2599929E+04  0.7818609E-02  0.8368225E-01
       -2   -1    0    0    0  501  0.00000000000E+00  0.00000000000E+00  0.17088058749E+04  0.17088058749E+04  0.25500000920E-02 0.  1.
        2   -1    0    0  501    0  0.00000000000E+00  0.00000000000E+00 -0.98894041650E+03  0.98894041650E+03  0.25500000920E-02 0. -1.
    10030    2    1    2    0    0  0.00000000000E+00  0.00000000000E+00  0.71986545838E+03  0.26977462914E+04  0.25999286095E+04 0.  0.
        3    1    3    3  502    0  0.11919013638E+04  0.14039583944E+02 -0.17831396254E+03  0.12052476303E+04  0.10100000352E+00 0. -1.
       -3    1    3    3    0  502 -0.11919013638E+04 -0.14039583944E+02  0.89817942092E+03  0.14924986611E+04  0.10100000352E+00 0.  1.
</event>
<event>
 5   0  0.2755061E-07  0.2611975E+04  0.7818609E-02  0.8364145E-01
       -1   -1    0    0    0  501  0.00000000000E+00  0.00000000000E+00  0.74235804789E+03  0.74235804791E+03  0.50400001928E-02 0. -1.
        1   -1    0    0  501    0  0.00000000000E+00  0.00000000000E+00 -0.22975472611E+04  0.22975472611E+04  0.50400001928E-02 0.  1.
    10030    2    1    2    0    0  0.00000000000E+00  0.00000000000E+00 -0.15551892132E+04  0.30399053090E+04  0.26119745019E+04 0.  0.
        4    1    3    3  502    0  0.68188217415E+03  0.11058145548E+04 -0.93292160549E+03  0.15994166011E+04  0.12699999809E+01 0.  1.
       -4    1    3    3    0  502 -0.68188217415E+03 -0.11058145548E+04 -0.62226760767E+03  0.14404887079E+04  0.12699999809E+01 0. -1.
</event>
<event>
 5   0  0.7160320E-07  0.2599612E+04  0.7818609E-02  0.8368333E-01
       -2   -1    0    0    0  501  0.00000000000E+00  0.00000000000E+00  0.12767847956E+04  0.12767847956E+04  0.25500000920E-02 0. -1.
        2   -1    0    0  501    0  0.00000000000E+00  0.00000000000E+00 -0.13232426624E+04  0.13232426624E+04  0.25500000920E-02 0.  1.
    10030    2    1    2    0    0  0.00000000000E+00  0.00000000000E+00 -0.46457866812E+02  0.26000274581E+04  0.25996123652E+04 0.  0.
        1    1    3    3  502    0  0.81676558769E+03  0.99181239166E+03  0.17352122820E+03  0.12964981535E+04  0.50400001928E-02 0. -1.
       -1    1    3    3    0  502 -0.81676558769E+03 -0.99181239166E+03 -0.21997909501E+03  0.13035293045E+04  0.50400001928E-02 0.  1.
</event>
<event>
 5   0  0.2755061E-07  0.2599769E+04  0.7818609E-02  0.8368280E-01
        1   -1    0    0  501    0  0.00000000000E+00  0.00000000000E+00  0.18608076912E+04  0.18608076912E+04  0.50400001928E-02 0. -1.
       -1   -1    0    0    0  501  0.00000000000E+00  0.00000000000E+00 -0.90804632564E+03  0.90804632565E+03  0.50400001928E-02 0.  1.
    10030    2    1    2    0    0  0.00000000000E+00  0.00000000000E+00  0.95276136556E+03  0.27688540169E+04  0.25997689026E+04 0.  0.
        4    1    3    3  502    0  0.37930455129E+03 -0.12321660938E+04  0.29946644073E+03  0.13235509009E+04  0.12699999809E+01 0.  1.
       -4    1    3    3    0  502 -0.37930455129E+03  0.12321660938E+04  0.65329492483E+03  0.14453031160E+04  0.12699999809E+01 0. -1.
</event>
<event>
 5   0  0.6526351E-07  0.2600269E+04  0.7818609E-02  0.8368110E-01
        2   -1    0    0  501    0  0.00000000000E+00  0.00000000000E+00  0.26086485762E+04  0.26086485762E+04  0.25500000920E-02 0. -1.
       -2   -1    0    0    0  501  0.00000000000E+00  0.00000000000E+00 -0.64797932639E+03  0.64797932640E+03  0.25500000920E-02 0.  1.
    10030    2    1    2    0    0  0.00000000000E+00  0.00000000000E+00  0.19606692498E+04  0.32566279026E+04  0.26002694839E+04 0.  0.
        3    1    3    3  502    0  0.72590116416E+03 -0.10733258455E+04  0.84667462163E+03  0.15478432724E+04  0.10100000352E+00 0.  1.
       -3    1    3    3    0  502 -0.72590116416E+03  0.10733258455E+04  0.11139946281E+04  0.17087846302E+04  0.10100000352E+00 0. -1.
</event>
<event>
 5   0  0.6768478E-07  0.2601993E+04  0.7818609E-02  0.8367524E-01
       -2   -1    0    0    0  501  0.00000000000E+00  0.00000000000E+00  0.11838244902E+04  0.11838244902E+04  0.25500000920E-02 0.  1.
        2   -1    0    0  501    0  0.00000000000E+00  0.00000000000E+00 -0.14297661875E+04  0.14297661875E+04  0.25500000920E-02 0. -1.
    10030    2    1    2    0    0  0.00000000000E+00  0.00000000000E+00 -0.24594169731E+03  0.26135906778E+04  0.26019932576E+04 0.  0.
        4    1    3    3  502    0  0.15494139405E+03  0.60722571412E+03 -0.12681668271E+04  0.14145595137E+04  0.12699999809E+01 0. -1.
       -4    1    3    3    0  502 -0.15494139405E+03 -0.60722571412E+03  0.10222251298E+04  0.11990311641E+04  0.12699999809E+01 0.  1.
</event>
<event>
 5   0  0.2623263E-07  0.2603592E+04  0.7818609E-02  0.8366982E-01
       -1   -1    0    0    0  501  0.00000000000E+00  0.00000000000E+00  0.86997282474E+03  0.86997282476E+03  0.50400001928E-02 0. -1.
        1   -1    0    0  501    0  0.00000000000E+00  0.00000000000E+00 -0.19479602785E+04  0.19479602785E+04  0.50400001928E-02 0.  1.
    10030    2    1    2    0    0  0.00000000000E+00  0.00000000000E+00 -0.10779874538E+04  0.28179331033E+04  0.26035917545E+04 0.  0.
        1    1    3    3  502    0 -0.90384271127E+02  0.70821269663E+03  0.63916986745E+03  0.95826544319E+03  0.50400001928E-02 0. -1.
       -1    1    3    3    0  502  0.90384271127E+02 -0.70821269663E+03 -0.17171573213E+04  0.18596676601E+04  0.50400001928E-02 0.  1.
</event>
<event>
 5   0  0.7160320E-07  0.2598867E+04  0.7818609E-02  0.8368586E-01
       -2   -1    0    0    0  501  0.00000000000E+00  0.00000000000E+00  0.15891119382E+04  0.15891119382E+04  0.25500000920E-02 0.  1.
        2   -1    0    0  501    0  0.00000000000E+00  0.00000000000E+00 -0.10625604477E+04  0.10625604477E+04  0.25500000920E-02 0. -1.
    10030    2    1    2    0    0  0.00000000000E+00  0.00000000000E+00  0.52655149056E+03  0.26516723859E+04  0.25988670551E+04 0.  0.
        1    1    3    3  502    0 -0.94177660822E+03 -0.92762804125E+01  0.11767306142E+04  0.15072239939E+04  0.50400001928E-02 0.  1.
       -1    1    3    3    0  502  0.94177660822E+03  0.92762804125E+01 -0.65017912367E+03  0.11444483920E+04  0.50400001928E-02 0. -1.
</event>
<event>
 5   0  0.2864801E-07  0.2600169E+04  0.7818609E-02  0.8368144E-01
       -1   -1    0    0    0  501  0.00000000000E+00  0.00000000000E+00  0.10790000649E+04  0.10790000649E+04  0.50400001928E-02 0.  1.
        1   -1    0    0  501    0  0.00000000000E+00  0.00000000000E+00 -0.15664686125E+04  0.15664686125E+04  0.50400001928E-02 0. -1.
    10030    2    1    2    0    0  0.00000000000E+00  0.00000000000E+00 -0.48746854765E+03  0.26454686774E+04  0.26001690211E+04 0.  0.
        5    1    3    3  502    0  0.36697041028E+03  0.82739109843E+03  0.70577396208E+03  0.11477727507E+04  0.46999998093E+01 0.  1.
       -5    1    3    3    0  502 -0.36697041028E+03 -0.82739109843E+03 -0.11932425097E+04  0.14976959267E+04  0.46999998093E+01 0. -1.
</event>
<event>
 5   0  0.2864801E-07  0.2599853E+04  0.7818609E-02  0.8368251E-01
        1   -1    0    0  501    0  0.00000000000E+00  0.00000000000E+00  0.18949820000E+04  0.18949820000E+04  0.50400001928E-02 0. -1.
       -1   -1    0    0    0  501  0.00000000000E+00  0.00000000000E+00 -0.89172851044E+03  0.89172851045E+03  0.50400001928E-02 0.  1.
    10030    2    1    2    0    0  0.00000000000E+00  0.00000000000E+00  0.10032534895E+04  0.27867105104E+04  0.25998534391E+04 0.  0.
        5    1    3    3  502    0  0.48864733292E+03 -0.67807781566E+03  0.15687838937E+04  0.17775462681E+04  0.46999998093E+01 0. -1.
       -5    1    3    3    0  502 -0.48864733292E+03  0.67807781566E+03 -0.56553040414E+03  0.10091642424E+04  0.46999998093E+01 0.  1.
</event>
<event>
 5   0  0.2623263E-07  0.2599696E+04  0.7818609E-02  0.8368304E-01
        1   -1    0    0  501    0  0.00000000000E+00  0.00000000000E+00  0.20386052795E+04  0.20386052795E+04  0.50400001928E-02 0. -1.
       -1   -1    0    0    0  501  0.00000000000E+00  0.00000000000E+00 -0.82880459718E+03  0.82880459719E+03  0.50400001928E-02 0.  1.
    10030    2    1    2    0    0  0.00000000000E+00  0.00000000000E+00  0.12098006823E+04  0.28674098767E+04  0.25996964650E+04 0.  0.
        1    1    3    3  502    0 -0.12505729073E+04  0.34114093071E+03  0.71124314279E+03  0.14785724667E+04  0.50400001928E-02 0. -1.
       -1    1    3    3    0  502  0.12505729073E+04 -0.34114093071E+03  0.49855753951E+03  0.13888374100E+04  0.50400001928E-02 0.  1.
</event>
<event>
 5   0  0.2641626E-07  0.2597058E+04  0.7818609E-02  0.8369201E-01
       -1   -1    0    0    0  501  0.00000000000E+00  0.00000000000E+00  0.63692188723E+03  0.63692188725E+03  0.50400001928E-02 0.  1.
        1   -1    0    0  501    0  0.00000000000E+00  0.00000000000E+00 -0.26473859035E+04  0.26473859035E+04  0.50400001928E-02 0. -1.
    10030    2    1    2    0    0  0.00000000000E+00  0.00000000000E+00 -0.20104640163E+04  0.32843077908E+04  0.25970583559E+04 0.  0.
        3    1    3    3  502    0  0.65297656531E+03 -0.10561186308E+04 -0.14858116563E+04  0.19363370692E+04  0.10100000352E+00 0. -1.
       -3    1    3    3    0  502 -0.65297656531E+03  0.10561186308E+04 -0.52465235995E+03  0.13479707216E+04  0.10100000352E+00 0.  1.
</event>
<event>
 5   0  0.2641626E-07  0.2598835E+04  0.7818609E-02  0.8368597E-01
       -1   -1    0    0    0  501  0.00000000000E+00  0.00000000000E+00  0.70680694242E+03  0.70680694244E+03  0.50400001928E-02 0.  1.
        1   -1    0    0  501    0  0.00000000000E+00  0.00000000000E+00 -0.23888922106E+04  0.23888922106E+04  0.50400001928E-02 0. -1.
    10030    2    1    2    0    0  0.00000000000E+00  0.00000000000E+00 -0.16820852681E+04  0.30956991530E+04  0.25988348152E+04 0.  0.
        3    1    3    3  502    0 -0.50555904462E+03  0.77989614244E+02  0.58182218310E+03  0.77471891062E+03  0.10100000352E+00 0.  1.
       -3    1    3    3    0  502  0.50555904462E+03 -0.77989614244E+02 -0.22639074512E+04  0.23209802424E+04  0.10100000352E+00 0. -1.
</event>
<event>
 5   0  0.2755061E-07  0.2596390E+04  0.7818609E-02  0.8369429E-01
       -1   -1    0    0    0  501  0.00000000000E+00  0.00000000000E+00  0.13528815481E+04  0.13528815481E+04  0.50400001928E-02 0.  1.
        1   -1    0    0  501    0  0.00000000000E+00  0.00000000000E+00 -0.12457187504E+04  0.12457187504E+04  0.50400001928E-02 0. -1.
    10030    2    1    2    0    0  0.00000000000E+00  0.00000000000E+00  0.10716279771E+03  0.25986002985E+04  0.25963897331E+04 0.  0.
        4    1    3    3  502    0 -0.12143996829E+04 -0.33322554922E+03  0.36929004154E+03  0.13123195511E+04  0.12699999809E+01 0.  1.
       -4    1    3    3    0  502  0.12143996829E+04  0.33322554922E+03 -0.26212724383E+03  0.12862807474E+04  0.12699999809E+01 0. -1.
</event>
<event>
 5   0  0.2641626E-07  0.2599714E+04  0.7818609E-02  0.8368298E-01
       -1   -1    0    0    0  501  0.00000000000E+00  0.00000000000E+00  0.17404173349E+04  0.17404173349E+04  0.50400001928E-02 0. -1.
        1   -1    0    0  501    0  0.00000000000E+00  0.00000000000E+00 -0.97081787641E+03  0.97081787643E+03  0.50400001928E-02 0.  1.
    10030    2    1    2    0    0  0.00000000000E+00  0.00000000000E+00  0.76959945848E+03  0.27112352113E+04  0.25997140313E+04 0.  0.
        3    1    3    3  502    0 -0.67768569628E+03 -0.17297751393E+03  0.15274504506E+04  0.16799654795E+04  0.10100000352E+00 0. -1.
       -3    1    3    3    0  502  0.67768569628E+03  0.17297751393E+03 -0.75785099210E+03  0.10312697318E+04  0.10100000352E+00 0.  1.
</event>
<event>
 5   0  0.2623263E-07  0.2600126E+04  0.7818609E-02  0.8368158E-01
       -1   -1    0    0    0  501  0.00000000000E+00  0.00000000000E+00  0.12952138021E+04  0.12952138021E+04  0.50400001928E-02 0.  1.
        1   -1    0    0  501    0  0.00000000000E+00  0.00000000000E+00 -0.13049305694E+04  0.13049305694E+04  0.50400001928E-02 0. -1.
    10030    2    1    2    0    0  0.00000000000E+00  0.00000000000E+00 -0.97167672485E+01  0.26001443715E+04  0.26001262156E+04 0.  0.
        1    1    3    3  502    0 -0.13272378313E+03  0.47493640599E+03 -0.12077732184E+04  0.13045674913E+04  0.50400001928E-02 0. -1.
       -1    1    3    3    0  502  0.13272378313E+03 -0.47493640599E+03  0.11980564512E+04  0.12955768802E+04  0.50400001928E-02 0.  1.
</event>
<event>
 5   0  0.2864801E-07  0.2598837E+04  0.7818609E-02  0.8368596E-01
        1   -1    0    0  501    0  0.00000000000E+00  0.00000000000E+00  0.16313174157E+04  0.16313174157E+04  0.50400001928E-02 0. -1.
       -1   -1    0    0    0  501  0.00000000000E+00  0.00000000000E+00 -0.10350458603E+04  0.10350458604E+04  0.50400001928E-02 0.  1.
    10030    2    1    2    0    0  0.00000000000E+00  0.00000000000E+00  0.59627155534E+03  0.26663632760E+04  0.25988369230E+04 0.  0.
        5    1    3    3  502    0  0.23053383679E+03 -0.11540510952E+04 -0.26707437756E+03  0.12067852308E+04  0.46999998093E+01 0.  1.
       -5    1    3    3    0  502 -0.23053383679E+03  0.11540510952E+04  0.86334593289E+03  0.14595780452E+04  0.46999998093E+01 0. -1.
</event>
<event>
 5   0  0.6526351E-07  0.2600436E+04  0.7818609E-02  0.8368053E-01
       -2   -1    0    0    0  501  0.00000000000E+00  0.00000000000E+00  0.11921285359E+04  0.11921285359E+04  0.25500000920E-02 0.  1.
        2   -1    0    0  501    0  0.00000000000E+00  0.00000000000E+00 -0.14181081695E+04  0.14181081695E+04  0.25500000920E-02 0. -1.
    10030    2    1    2    0    0  0.00000000000E+00  0.00000000000E+00 -0.22597963356E+03  0.26102367054E+04  0.26004362833E+04 0.  0.
        3    1    3    3  502    0  0.83644666150E+03  0.68352019866E+03 -0.83940522703E+03  0.13680073190E+04  0.10100000352E+00 0. -1.
       -3    1    3    3    0  502 -0.83644666150E+03 -0.68352019866E+03  0.61342559347E+03  0.12422293864E+04  0.10100000352E+00 0.  1.
</event>
<event>
 5   0  0.6780984E-07  0.2599620E+04  0.7818609E-02  0.8368330E-01
       -2   -1    0    0    0  501  0.00000000000E+00  0.00000000000E+00  0.70290246880E+03  0.70290246881E+03  0.25500000920E-02 0. -1.
        2   -1    0    0  501    0  0.00000000000E+00  0.00000000000E+00 -0.24036132650E+04  0.24036132650E+04  0.25500000920E-02 0.  1.
    10030    2    1    2    0    0  0.00000000000E+00  0.00000000000E+00 -0.17007107962E+04  0.31065157338E+04  0.25996197399E+04 0.  0.
        2    1    3    3  502    0 -0.54348325069E+03  0.10609893469E+04 -0.14694854637E+04  0.18922103387E+04  0.25500000920E-02 0.  1.
       -2    1    3    3    0  502  0.54348325069E+03 -0.10609893469E+04 -0.23122533247E+03  0.12143053950E+04  0.25500000920E-02 0. -1.
</event>
<event>
 5   0  0.2864801E-07  0.2599823E+04  0.7818609E-02  0.8368261E-01
       -1   -1    0    0    0  501  0.00000000000E+00  0.00000000000E+00  0.10631408948E+04  0.10631408948E+04  0.50400001928E-02 0. -1.
        1   -1    0    0  501    0  0.00000000000E+00  0.00000000000E+00 -0.15894131069E+04  0.15894131069E+04  0.50400001928E-02 0.  1.
    10030    2    1    2    0    0  0.00000000000E+00  0.00000000000E+00 -0.52627221206E+03  0.26525540017E+04  0.25998231268E+04 0.  0.
        5    1    3    3  502    0  0.95106462501E+03 -0.49119616982E+02 -0.11658476192E+04  0.15053768362E+04  0.46999998093E+01 0.  1.
       -5    1    3    3    0  502 -0.95106462501E+03  0.49119616982E+02  0.63957540713E+03  0.11471771655E+04  0.46999998093E+01 0. -1.
</event>
<event>
 5   0  0.6526351E-07  0.2599989E+04  0.7818609E-02  0.8368205E-01
        2   -1    0    0  501    0  0.00000000000E+00  0.00000000000E+00  0.75282143551E+03  0.75282143551E+03  0.25500000920E-02 0. -1.
       -2   -1    0    0    0  501  0.00000000000E+00  0.00000000000E+00 -0.22448685765E+04  0.22448685765E+04  0.25500000920E-02 0.  1.
    10030    2    1    2    0    0  0.00000000000E+00  0.00000000000E+00 -0.14920471410E+04  0.29976900120E+04  0.25999886033E+04 0.  0.
        3    1    3    3  502    0  0.67331159350E+03  0.10638671260E+04 -0.37273523513E+03  0.13130473447E+04  0.10100000352E+00 0. -1.
       -3    1    3    3    0  502 -0.67331159350E+03 -0.10638671260E+04 -0.11193119059E+04  0.16846426673E+04  0.10100000352E+00 0.  1.
</event>
<event>
 5   0  0.7160320E-07  0.2597769E+04  0.7818609E-02  0.8368959E-01
        2   -1    0    0  501    0  0.00000000000E+00  0.00000000000E+00  0.20059059043E+04  0.20059059043E+04  0.25500000920E-02 0.  1.
       -2   -1    0    0    0  501  0.00000000000E+00  0.00000000000E+00 -0.84106682427E+03  0.84106682427E+03  0.25500000920E-02 0. -1.
    10030    2    1    2    0    0  0.00000000000E+00  0.00000000000E+00  0.11648390800E+04  0.28469727286E+04  0.25977689726E+04 0.  0.
        1    1    3    3  502    0 -0.11248482422E+04  0.64943956091E+03  0.58981989518E+03  0.14265142201E+04  0.50400001928E-02 0. -1.
       -1    1    3    3    0  502  0.11248482422E+04 -0.64943956091E+03  0.57501918484E+03  0.14204585085E+04  0.50400001928E-02 0.  1.
</event>
<event>
 5   0  0.6768478E-07  0.2599079E+04  0.7818609E-02  0.8368514E-01
       -2   -1    0    0    0  501  0.00000000000E+00  0.00000000000E+00  0.60627644208E+03  0.60627644208E+03  0.25500000920E-02 0.  1.
        2   -1    0    0  501    0  0.00000000000E+00  0.00000000000E+00 -0.27855336259E+04  0.27855336259E+04  0.25500000920E-02 0. -1.
    10030    2    1    2    0    0  0.00000000000E+00  0.00000000000E+00 -0.21792571839E+04  0.33918100680E+04  0.25990793878E+04 0.  0.
        4    1    3    3  502    0 -0.18810526154E+03 -0.50229315128E+03 -0.26343480448E+04  0.26883960336E+04  0.12699999809E+01 0. -1.
       -4    1    3    3    0  502  0.18810526154E+03  0.50229315128E+03  0.45509086095E+03  0.70341403445E+03  0.12699999809E+01 0.  1.
</event>
<event>
 5   0  0.6780984E-07  0.2600367E+04  0.7818609E-02  0.8368077E-01
       -2   -1    0    0    0  501  0.00000000000E+00  0.00000000000E+00  0.10405345321E+04  0.10405345321E+04  0.25500000920E-02 0. -1.
        2   -1    0    0  501    0  0.00000000000E+00  0.00000000000E+00 -0.16246231659E+04  0.16246231659E+04  0.25500000920E-02 0.  1.
    10030    2    1    2    0    0  0.00000000000E+00  0.00000000000E+00 -0.58408863386E+03  0.26651576980E+04  0.26003665171E+04 0.  0.
        2    1    3    3  502    0  0.10437696847E+04  0.24692608618E+03 -0.10452348845E+04  0.14976460231E+04  0.25500000920E-02 0.  1.
       -2    1    3    3    0  502 -0.10437696847E+04 -0.24692608618E+03  0.46114625060E+03  0.11675116749E+04  0.25500000920E-02 0. -1.
</event>
<event>
 5   0  0.2864801E-07  0.2600777E+04  0.7818609E-02  0.8367937E-01
       -1   -1    0    0    0  501  0.00000000000E+00  0.00000000000E+00  0.98626290203E+03  0.98626290204E+03  0.50400001928E-02 0.  1.
        1   -1    0    0  501    0  0.00000000000E+00  0.00000000000E+00 -0.17145636196E+04  0.17145636196E+04  0.50400001928E-02 0. -1.
    10030    2    1    2    0    0  0.00000000000E+00  0.00000000000E+00 -0.72830071756E+03  0.27008265216E+04  0.26007771848E+04 0.  0.
        5    1    3    3  502    0 -0.52199919164E+03 -0.82666724190E+03 -0.12545287000E+04  0.15905113122E+04  0.46999998093E+01 0. -1.
       -5    1    3    3    0  502  0.52199919164E+03  0.82666724190E+03  0.52622798246E+03  0.11103152095E+04  0.46999998093E+01 0.  1.
</event>
<event>
 5   0  0.6780984E-07  0.2598949E+04  0.7818609E-02  0.8368558E-01
        2   -1    0    0  501    0  0.00000000000E+00  0.00000000000E+00  0.17070717602E+04  0.17070717602E+04  0.25500000920E-02 0.  1.
       -2   -1    0    0    0  501  0.00000000000E+00  0.00000000000E+00 -0.98919899436E+03  0.98919899436E+03  0.25500000920E-02 0. -1.
    10030    2    1    2    0    0  0.00000000000E+00  0.00000000000E+00  0.71787276580E+03  0.26962707545E+04  0.25989487632E+04 0.  0.
        2    1    3    3  502    0 -0.28184770677E+03  0.11531711199E+04  0.90730512878E+03  0.14941366598E+04  0.25500000920E-02 0.  1.
       -2    1    3    3    0  502  0.28184770677E+03 -0.11531711199E+04 -0.18943236298E+03  0.12021340947E+04  0.25500000920E-02 0. -1.
</event>
<event>
 5   0  0.2864801E-07  0.2599487E+04  0.7818609E-02  0.8368375E-01
        1   -1    0    0  501    0  0.00000000000E+00  0.00000000000E+00  0.16203840282E+04  0.16203840282E+04  0.50400001928E-02 0. -1.
       -1   -1    0    0    0  501  0.00000000000E+00  0.00000000000E+00 -0.10425510727E+04  0.10425510727E+04  0.50400001928E-02 0.  1.
    10030    2    1    2    0    0  0.00000000000E+00  0.00000000000E+00  0.57783295543E+03  0.26629351009E+04  0.25994869546E+04 0.  0.
        5    1    3    3  502    0  0.93567264305E+03  0.68249144173E+03 -0.31542617772E+03  0.12003306322E+04  0.46999998093E+01 0.  1.
       -5    1    3    3    0  502 -0.93567264305E+03 -0.68249144173E+03  0.89325913315E+03  0.14626044687E+04  0.46999998093E+01 0. -1.
</event>
<event>
 5   0  0.2755061E-07  0.2599491E+04  0.7818609E-02  0.8368374E-01
       -1   -1    0    0    0  501  0.00000000000E+00  0.00000000000E+00  0.15256422478E+04  0.15256422478E+04  0.50400001928E-02 0.  1.
        1   -1    0    0  501    0  0.00000000000E+00  0.00000000000E+00 -0.11072967502E+04  0.11072967502E+04  0.50400001928E-02 0. -1.
    10030    2    1    2    0    0  0.00000000000E+00  0.00000000000E+00  0.41834549758E+03  0.26329389981E+04  0.25994912603E+04 0.  0.
        4    1    3    3  502    0 -0.47083862707E+03 -0.92542257731E+03 -0.58270605938E+03  0.11906485308E+04  0.12699999809E+01 0. -1.
       -4    1    3    3    0  502  0.47083862707E+03  0.92542257731E+03  0.10010515570E+04  0.14422904673E+04  0.12699999809E+01 0.  1.
</event>
<event>
 5   0  0.2793576E-07  0.2599867E+04  0.7818609E-02  0.8368246E-01
       -1   -1    0    0    0  501  0.00000000000E+00  0.00000000000E+00  0.11994625311E+04  0.11994625311E+04  0.50400001928E-02 0. -1.
        1   -1    0    0  501    0  0.00000000000E+00  0.00000000000E+00 -0.14088200888E+04  0.14088200888E+04  0.50400001928E-02 0.  1.
    10030    2    1    2    0    0  0.00000000000E+00  0.00000000000E+00 -0.20935755770E+03  0.26082826200E+04  0.25998668502E+04 0.  0.
        2    1    3    3  502    0 -0.12160212871E+04 -0.11044216775E+03  0.34277129656E+03  0.12682260858E+04  0.25500000920E-02 0.  1.
       -2    1    3    3    0  502  0.12160212871E+04  0.11044216775E+03 -0.55212885426E+03  0.13400565342E+04  0.25500000920E-02 0. -1.
</event>
<event>
 5   0  0.2755061E-07  0.2599951E+04  0.7818609E-02  0.8368218E-01
       -1   -1    0    0    0  501  0.00000000000E+00  0.00000000000E+00  0.16872330731E+04  0.16872330731E+04  0.50400001928E-02 0. -1.
        1   -1    0    0  501    0  0.00000000000E+00  0.00000000000E+00 -0.10016020986E+04  0.10016020986E+04  0.50400001928E-02 0.  1.
    10030    2    1    2    0    0  0.00000000000E+00  0.00000000000E+00  0.68563097447E+03  0.26888351717E+04  0.25999509125E+04 0.  0.
        4    1    3    3  502    0  0.25906244949E+03 -0.85841738308E+02 -0.97164070631E+03  0.10092420086E+04  0.12699999809E+01 0.  1.
       -4    1    3    3    0  502 -0.25906244949E+03  0.85841738308E+02  0.16572716808E+04  0.16795931631E+04  0.12699999809E+01 0. -1.
</event>
<event>
 5   0  0.7160320E-07  0.2598996E+04  0.7818609E-02  0.8368542E-01
        2   -1    0    0  501    0  0.00000000000E+00  0.00000000000E+00  0.20088898229E+04  0.20088898229E+04  0.25500000920E-02 0. -1.
       -2   -1    0    0    0  501  0.00000000000E+00  0.00000000000E+00 -0.84061134149E+03  0.84061134149E+03  0.25500000920E-02 0.  1.
    10030    2    1    2    0    0  0.00000000000E+00  0.00000000000E+00  0.11682784814E+04  0.28495011644E+04  0.25989963978E+04 0.  0.
        1    1    3    3  502    0  0.12040329308E+04  0.33629929055E+03  0.97316763417E+03  0.15842499031E+04  0.50400001928E-02 0. -1.
       -1    1    3    3    0  502 -0.12040329308E+04 -0.33629929055E+03  0.19511084723E+03  0.12652512613E+04  0.50400001928E-02 0.  1.
</event>
<event>
 5   0  0.6768478E-07  0.2600250E+04  0.7818609E-02  0.8368116E-01
        2   -1    0    0  501    0  0.00000000000E+00  0.00000000000E+00  0.13626277014E+04  0.13626277014E+04  0.25500000920E-02 0. -1.
       -2   -1    0    0    0  501  0.00000000000E+00  0.00000000000E+00 -0.12404890826E+04  0.12404890826E+04  0.25500000920E-02 0.  1.
    10030    2    1    2    0    0  0.00000000000E+00  0.00000000000E+00  0.12213861880E+03  0.26031167841E+04  0.26002498244E+04 0.  0.
        4    1    3    3  502    0  0.97464696364E+03 -0.84639140587E+03 -0.94046870138E+02  0.12942803183E+04  0.12699999809E+01 0.  1.
       -4    1    3    3    0  502 -0.97464696364E+03  0.84639140587E+03  0.21618548894E+03  0.13088364658E+04  0.12699999809E+01 0. -1.
</event>
<event>
 5   0  0.2641626E-07  0.2600303E+04  0.7818609E-02  0.8368098E-01
       -1   -1    0    0    0  501  0.00000000000E+00  0.00000000000E+00  0.17717984933E+04  0.17717984934E+04  0.50400001928E-02 0.  1.
        1   -1    0    0  501    0  0.00000000000E+00  0.00000000000E+00 -0.95405524092E+03  0.95405524094E+03  0.50400001928E-02 0. -1.
    10030    2    1    2    0    0  0.00000000000E+00  0.00000000000E+00  0.81774325242E+03  0.27258537343E+04  0.26003027812E+04 0.  0.
        3    1    3    3  502    0  0.40948256410E+03 -0.10090249165E+04 -0.33576841905E+03  0.11395383688E+04  0.10100000352E+00 0. -1.
       -3    1    3    3    0  502 -0.40948256410E+03  0.10090249165E+04  0.11535116715E+04  0.15863153655E+04  0.10100000352E+00 0.  1.
</event>
<event>
 5   0  0.6526351E-07  0.2600571E+04  0.7818609E-02  0.8368007E-01
       -2   -1    0    0    0  501  0.00000000000E+00  0.00000000000E+00  0.99276791151E+03  0.99276791151E+03  0.25500000920E-02 0.  1.
        2   -1    0    0  501    0  0.00000000000E+00  0.00000000000E+00 -0.17030592266E+04  0.17030592266E+04  0.25500000920E-02 0. -1.
    10030    2    1    2    0    0  0.00000000000E+00  0.00000000000E+00 -0.71029131505E+03  0.26958271381E+04  0.26005711308E+04 0.  0.
        3    1    3    3  502    0  0.88467855805E+03 -0.78851442516E+03 -0.90984517209E+03  0.14940647232E+04  0.10100000352E+00 0. -1.
       -3    1    3    3    0  502 -0.88467855805E+03  0.78851442516E+03  0.19955385703E+03  0.12017624149E+04  0.10100000352E+00 0.  1.
</event>
<event>
 5   0  0.2641626E-07  0.2600424E+04  0.7818609E-02  0.8368057E-01
       -1   -1    0    0    0  501  0.00000000000E+00  0.00000000000E+00  0.10597880169E+04  0.10597880169E+04  0.50400001928E-02 0. -1.
        1   -1    0    0  501    0  0.00000000000E+00  0.00000000000E+00 -0.15951791570E+04  0.15951791570E+04  0.50400001928E-02 0.  1.
    10030    2    1    2    0    0  0.00000000000E+00  0.00000000000E+00 -0.53539114011E+03  0.26549671739E+04  0.26004243926E+04 0.  0.
        3    1    3    3  502    0  0.82792959504E+03 -0.17086118573E+03 -0.12762876034E+04  0.15308726322E+04  0.10100000352E+00 0.  1.
       -3    1    3    3    0  502 -0.82792959504E+03  0.17086118573E+03  0.74089646330E+03  0.11240945417E+04  0.10100000352E+00 0. -1.
</event>
<event>
 5   0  0.2793576E-07  0.2600942E+04  0.7818609E-02  0.8367881E-01
       -1   -1    0    0    0  501  0.00000000000E+00  0.00000000000E+00  0.13036645140E+04  0.13036645140E+04  0.50400001928E-02 0.  1.
        1   -1    0    0  501    0  0.00000000000E+00  0.00000000000E+00 -0.12972855824E+04  0.12972855824E+04  0.50400001928E-02 0. -1.
    10030    2    1    2    0    0  0.00000000000E+00  0.00000000000E+00  0.63789315973E+01  0.26009500964E+04  0.26009422741E+04 0.  0.
        2    1    3    3  502    0  0.14897574990E+03  0.11671196033E+04  0.55714350862E+03  0.13018336421E+04  0.25500000920E-02 0.  1.
       -2    1    3    3    0  502 -0.14897574990E+03 -0.11671196033E+04 -0.55076457702E+03  0.12991164543E+04  0.25500000920E-02 0. -1.
</event>
<event>
 5   0  0.6780984E-07  0.2580248E+04  0.7818609E-02  0.8374941E-01
        2   -1    0    0  501    0  0.00000000000E+00  0.00000000000E+00  0.13107908379E+04  0.13107908379E+04  0.25500000920E-02 0. -1.
       -2   -1    0    0    0  501  0.00000000000E+00  0.00000000000E+00 -0.12697834086E+04  0.12697834086E+04  0.25500000920E-02 0.  1.
    10030    2    1    2    0    0  0.00000000000E+00  0.00000000000E+00  0.41007429320E+02  0.25805742465E+04  0.25802484051E+04 0.  0.
        2    1    3    3  502    0 -0.10480942365E+04 -0.49271511332E+03 -0.54803156888E+03  0.12812526339E+04  0.25500000920E-02 0. -1.
       -2    1    3    3    0  502  0.10480942365E+04  0.49271511332E+03  0.58903899820E+03  0.12993216125E+04  0.25500000920E-02 0.  1.
</event>
<event>
 5   0  0.2864801E-07  0.2596675E+04  0.7818609E-02  0.8369332E-01
        1   -1    0    0  501    0  0.00000000000E+00  0.00000000000E+00  0.16973925951E+04  0.16973925951E+04  0.50400001928E-02 0.  1.
       -1   -1    0    0    0  501  0.00000000000E+00  0.00000000000E+00 -0.99309975185E+03  0.99309975187E+03  0.50400001928E-02 0. -1.
    10030    2    1    2    0    0  0.00000000000E+00  0.00000000000E+00  0.70429284328E+03  0.26904923470E+04  0.25966749239E+04 0.  0.
        5    1    3    3  502    0  0.37755348879E+03  0.85884408091E+02  0.16361681161E+04  0.16813658027E+04  0.46999998093E+01 0.  1.
       -5    1    3    3    0  502 -0.37755348879E+03 -0.85884408091E+02 -0.93187527277E+03  0.10091265443E+04  0.46999998093E+01 0. -1.
</event>
<event>
 5   0  0.2623263E-07  0.2600196E+04  0.7818609E-02  0.8368135E-01
        1   -1    0    0  501    0  0.00000000000E+00  0.00000000000E+00  0.23093023771E+04  0.23093023771E+04  0.50400001928E-02 0.  1.
       -1   -1    0    0    0  501  0.00000000000E+00  0.00000000000E+00 -0.73193310234E+03  0.73193310235E+03  0.50400001928E-02 0. -1.
    10030    2    1    2    0    0  0.00000000000E+00  0.00000000000E+00  0.15773692748E+04  0.30412354795E+04  0.26001960335E+04 0.  0.
        1    1    3    3  502    0  0.84949552081E+03 -0.44848266570E+03 -0.23596695778E+03  0.98917124225E+03  0.50400001928E-02 0. -1.
       -1    1    3    3    0  502 -0.84949552081E+03  0.44848266570E+03  0.18133362325E+04  0.20520642372E+04  0.50400001928E-02 0.  1.
</event>
<event>
 5   0  0.6768478E-07  0.2599258E+04  0.7818609E-02  0.8368453E-01
        2   -1    0    0  501    0  0.00000000000E+00  0.00000000000E+00  0.14397487351E+04  0.14397487351E+04  0.25500000920E-02 0. -1.
       -2   -1    0    0    0  501  0.00000000000E+00  0.00000000000E+00 -0.11731458623E+04  0.11731458623E+04  0.25500000920E-02 0.  1.
    10030    2    1    2    0    0  0.00000000000E+00  0.00000000000E+00  0.26660287284E+03  0.26128945973E+04  0.25992577950E+04 0.  0.
        4    1    3    3  502    0 -0.70562327465E+03  0.10431153190E+04 -0.18938091742E+03  0.12735228774E+04  0.12699999809E+01 0.  1.
       -4    1    3    3    0  502  0.70562327465E+03 -0.10431153190E+04  0.45598379025E+03  0.13393717200E+04  0.12699999809E+01 0. -1.
</event>
<event>
 5   0  0.2623263E-07  0.2599955E+04  0.7818609E-02  0.8368217E-01
        1   -1    0    0  501    0  0.00000000000E+00  0.00000000000E+00  0.10384882114E+04  0.10384882114E+04  0.50400001928E-02 0.  1.
       -1   -1    0    0    0  501  0.00000000000E+00  0.00000000000E+00 -0.16273088415E+04  0.16273088415E+04  0.50400001928E-02 0. -1.
    10030    2    1    2    0    0  0.00000000000E+00  0.00000000000E+00 -0.58882063013E+03  0.26657970529E+04  0.25999546520E+04 0.  0.
        1    1    3    3  502    0  0.75585940758E+03  0.59110957962E+03 -0.11936654859E+04  0.15315257984E+04  0.50400001928E-02 0. -1.
       -1    1    3    3    0  502 -0.75585940758E+03 -0.59110957962E+03  0.60484485572E+03  0.11342712544E+04  0.50400001928E-02 0.  1.
</event>
<event>
 5   0  0.6768478E-07  0.2588486E+04  0.7818609E-02  0.8372123E-01
       -2   -1    0    0    0  501  0.00000000000E+00  0.00000000000E+00  0.10032719467E+04  0.10032719467E+04  0.25500000920E-02 0. -1.
        2   -1    0    0  501    0  0.00000000000E+00  0.00000000000E+00 -0.16696021483E+04  0.16696021483E+04  0.25500000920E-02 0.  1.
    10030    2    1    2    0    0  0.00000000000E+00  0.00000000000E+00 -0.66633020163E+03  0.26728740950E+04  0.25884860421E+04 0.  0.
        4    1    3    3  502    0  0.94950494937E+03  0.19381880108E+03 -0.12190010296E+04  0.15572702076E+04  0.12699999809E+01 0.  1.
       -4    1    3    3    0  502 -0.94950494937E+03 -0.19381880108E+03  0.55267082796E+03  0.11156038874E+04  0.12699999809E+01 0. -1.
</event>
<event>
 5   0  0.6599814E-07  0.2600415E+04  0.7818609E-02  0.8368060E-01
        2   -1    0    0  501    0  0.00000000000E+00  0.00000000000E+00  0.98052823100E+03  0.98052823100E+03  0.25500000920E-02 0. -1.
       -2   -1    0    0    0  501  0.00000000000E+00  0.00000000000E+00 -0.17241110473E+04  0.17241110473E+04  0.25500000920E-02 0.  1.
    10030    2    1    2    0    0  0.00000000000E+00  0.00000000000E+00 -0.74358281634E+03  0.27046392783E+04  0.26004150094E+04 0.  0.
        5    1    3    3  502    0  0.11053746534E+03  0.10834040055E+02 -0.17191591914E+04  0.17227496403E+04  0.46999998093E+01 0.  1.
       -5    1    3    3    0  502 -0.11053746534E+03 -0.10834040055E+02  0.97557637509E+03  0.98188963805E+03  0.46999998093E+01 0. -1.
</event>
<event>
 5   0  0.2755061E-07  0.2601787E+04  0.7818609E-02  0.8367595E-01
       -1   -1    0    0    0  501  0.00000000000E+00  0.00000000000E+00  0.19934737690E+04  0.19934737691E+04  0.50400001928E-02 0.  1.
        1   -1    0    0  501    0  0.00000000000E+00  0.00000000000E+00 -0.84893183203E+03  0.84893183204E+03  0.50400001928E-02 0. -1.
    10030    2    1    2    0    0  0.00000000000E+00  0.00000000000E+00  0.11445419370E+04  0.28424056011E+04  0.26017865699E+04 0.  0.
        4    1    3    3  502    0 -0.71447884500E+03 -0.83924467563E+03  0.13271991793E+04  0.17251872130E+04  0.12699999809E+01 0.  1.
       -4    1    3    3    0  502  0.71447884500E+03  0.83924467563E+03 -0.18265724232E+03  0.11172183880E+04  0.12699999809E+01 0. -1.
</event>
<event>
 5   0  0.6599814E-07  0.2599445E+04  0.7818609E-02  0.8368390E-01
       -2   -1    0    0    0  501  0.00000000000E+00  0.00000000000E+00  0.11770421185E+04  0.11770421185E+04  0.25500000920E-02 0. -1.
        2   -1    0    0  501    0  0.00000000000E+00  0.00000000000E+00 -0.14351896729E+04  0.14351896729E+04  0.25500000920E-02 0.  1.
    10030    2    1    2    0    0  0.00000000000E+00  0.00000000000E+00 -0.25814755442E+03  0.26122317914E+04  0.25994450893E+04 0.  0.
        5    1    3    3  502    0 -0.12401546343E+03  0.72538770666E+03 -0.12056462132E+04  0.14125055899E+04  0.46999998093E+01 0.  1.
       -5    1    3    3    0  502  0.12401546343E+03 -0.72538770666E+03  0.94749865880E+03  0.11997262015E+04  0.46999998093E+01 0. -1.
</event>
<event>
 5   0  0.2793576E-07  0.2600460E+04  0.7818609E-02  0.8368045E-01
        1   -1    0    0  501    0  0.00000000000E+00  0.00000000000E+00  0.10609540005E+04  0.10609540005E+04  0.50400001928E-02 0. -1.
       -1   -1    0    0    0  501  0.00000000000E+00  0.00000000000E+00 -0.15934700324E+04  0.15934700324E+04  0.50400001928E-02 0.  1.
    10030    2    1    2    0    0  0.00000000000E+00  0.00000000000E+00 -0.53251603192E+03  0.26544240329E+04  0.26004602712E+04 0.  0.
        2    1    3    3  502    0 -0.60177369641E+03 -0.94851777546E+03 -0.93466006068E+03  0.14613031790E+04  0.25500000920E-02 0.  1.
       -2    1    3    3    0  502  0.60177369641E+03  0.94851777546E+03  0.40214402876E+03  0.11931208539E+04  0.25500000920E-02 0. -1.
</event>
<event>
 5   0  0.6780984E-07  0.2597459E+04  0.7818609E-02  0.8369065E-01
        2   -1    0    0  501    0  0.00000000000E+00  0.00000000000E+00  0.21936844118E+04  0.21936844118E+04  0.25500000920E-02 0. -1.
       -2   -1    0    0    0  501  0.00000000000E+00  0.00000000000E+00 -0.76888819776E+03  0.76888819777E+03  0.25500000920E-02 0.  1.
    10030    2    1    2    0    0  0.00000000000E+00  0.00000000000E+00  0.14247962140E+04  0.29625726095E+04  0.25974587995E+04 0.  0.
        2    1    3    3  502    0  0.45437445017E+03  0.81118342005E+03  0.17466236138E+04  0.19786785313E+04  0.25500000920E-02 0. -1.
       -2    1    3    3    0  502 -0.45437445017E+03 -0.81118342005E+03 -0.32182739980E+03  0.98389407824E+03  0.25500000920E-02 0.  1.
</event>
<event>
 5   0  0.2864801E-07  0.2599891E+04  0.7818609E-02  0.8368238E-01
        1   -1    0    0  501    0  0.00000000000E+00  0.00000000000E+00  0.23159753141E+04  0.23159753141E+04  0.50400001928E-02 0. -1.
       -1   -1    0    0    0  501  0.00000000000E+00  0.00000000000E+00 -0.72965276807E+03  0.72965276809E+03  0.50400001928E-02 0.  1.
    10030    2    1    2    0    0  0.00000000000E+00  0.00000000000E+00  0.15863225460E+04  0.30456280822E+04  0.25998906121E+04 0.  0.
        5    1    3    3  502    0 -0.16501569409E+03 -0.38843118790E+03 -0.64715689943E+03  0.77262093520E+03  0.46999998093E+01 0.  1.
       -5    1    3    3    0  502  0.16501569409E+03  0.38843118790E+03  0.22334794455E+04  0.22730071470E+04  0.46999998093E+01 0. -1.
</event>
</LesHouchesEvents>
